Membrane in water
40344
    1TMC1    C1    1   1.118   2.577  10.888  0.4206 -0.3830  0.0683
    1TMC1    C2    2   1.248   2.625  10.884  0.1040 -0.6855  0.5068
    1TMC1    C3    3   1.272   2.730  10.801  0.2174 -0.4426  0.4540
    1TMC1    C4    4   1.017   2.631  10.814  0.4136 -0.1539  0.2383
    1TMC1    C5    5   1.038   2.727  10.720  0.1146  0.1439  0.0960
    1TMC1    C6    6   1.171   2.779  10.720  0.0955  0.1978  0.0118
    1TMC1     C    7   1.074   2.480  10.986  0.5528 -0.2676  0.0420
    1TMC1     O    8   0.959   2.492  11.023  0.4932  0.4450  0.4204
    1TMC1     H    9   1.313   2.588  10.962  0.6612 -0.7608  0.0012
    1TMC1    H1   10   0.921   2.583  10.829 -0.0501  0.6111 -0.2765
    1TMC1    H2   11   1.203   2.849  10.643 -1.1178 -0.6009 -1.2117
    1TMC1    C7   12   0.974   2.694  10.592  0.1687  0.8908 -0.0003
    1TMC1    C8   13   1.405   2.756  10.750  0.6000 -0.2409  0.1755
    1TMC1    O1   14   0.895   2.599  10.573 -0.0344 -0.1891 -0.3369
    1TMC1    O2   15   1.443   2.799  10.641  0.6342 -0.3669 -0.2181
    1TMC1    O3   16   1.005   2.787  10.499  0.3001 -0.3533  0.0008
    1TMC1    H3   17   1.044   2.868  10.539 -3.0437 -0.2540  3.0765
    1TMC1    O5   18   1.477   2.687  10.836 -0.1715 -0.0967 -0.8813
    1TMC1    H5   19   1.450   2.682  10.930  3.2032  1.3403  0.1963
    2MPD2     C   20   1.126   2.108  11.321  0.2704 -0.4167 -0.1777
    2MPD2    C1   21   1.042   2.217  11.322 -0.1327  0.4785 -0.8338
    2MPD2    C2   22   1.065   2.309  11.223  0.1359  0.7249 -0.0243
    2MPD2    C3   23   1.164   2.302  11.123  0.0745  0.2781  0.0093
    2MPD2    C4   24   1.251   2.194  11.132 -0.6986  0.1965 -0.1939
    2MPD2    C5   25   1.231   2.097  11.227 -1.0733 -0.1555  0.5671
    2MPD2     H   26   0.999   2.396  11.223 -1.9616 -0.8671 -2.9788
    2MPD2    H1   27   1.338   2.181  11.068 -0.9046 -1.5286 -0.1106
    2MPD2    H2   28   1.111   2.029  11.394 -0.4476 -0.0969  0.0214
    2MPD2    H3   29   1.297   2.012  11.236  0.3410  0.9163  0.3049
    2MPD2     N   30   1.177   2.393  11.017 -0.1167 -0.4412  0.3001
    2MPD2    H5   31   1.260   2.381  10.961 -1.1405  1.4028 -1.6253
    2MPD2    N1   32   0.932   2.239  11.405  0.4081 -0.0726  0.1787
    2MPD2    H7   33   0.878   2.323  11.386  0.8842 -0.2406 -1.9579
    3TMC1    C1   34   4.059   2.131  10.736  0.4234  0.1076  0.5390
    3TMC1    C2   35   4.118   2.008  10.727 -0.2105 -0.3764 -0.3006
    3TMC1    C3   36   4.253   2.000  10.685  0.7079  0.4728  0.1089
    3TMC1    C4   37   4.130   2.245  10.708 -0.1779  0.1216 -0.3502
    3TMC1    C5   38   4.260   2.234  10.664  0.4007 -0.2565  0.1343
    3TMC1    C6   39   4.324   2.111  10.663 -1.1578  1.1307  0.6254
    3TMC1     C   40   3.943   2.132  10.828  0.3042 -0.1201 -0.2425
    3TMC1     O   41   3.874   2.033  10.822 -0.0579 -0.1779 -0.1287
    3TMC1     H   42   4.086   1.918  10.777 -0.7957 -0.0400 -0.0723
    3TMC1    H1   43   4.093   2.346  10.708 -0.1349  0.1371 -0.3476
    3TMC1    H2   44   4.420   2.105  10.612 -1.1217 -0.6669  0.9246
    3TMC1    C7   45   4.331   2.346  10.611 -0.9530 -0.3906  0.5721
    3TMC1    C8   46   4.325   1.892  10.702 -0.1864 -0.4220 -0.2839
    3TMC1    O1   47   4.450   2.343  10.620  1.0362 -0.3180 -0.3200
    3TMC1    O2   48   4.447   1.886  10.693  0.5699  0.0278  0.3277
    3TMC1    O3   49   4.252   2.445  10.566 -0.6775  0.0072 -0.4386
    3TMC1    H3   50   4.158   2.426  10.548 -0.1168 -1.4386 -1.7883
    3TMC1    O5   51   4.245   1.788  10.698  0.6790 -0.0372  0.3711
    3TMC1    H5   52   4.156   1.814  10.665  0.4478 -0.8708  0.3388
    4MPD2     C   53   3.650   2.401  11.155  0.3534 -0.5526 -0.7421
    4MPD2    C1   54   3.759   2.482  11.117 -0.0564 -0.2322 -0.0079
    4MPD2    C2   55   3.847   2.428  11.029 -0.3904 -0.4261 -0.4138
    4MPD2    C3   56   3.839   2.302  10.979  1.0100  0.2647 -0.7281
    4MPD2    C4   57   3.734   2.226  11.013  0.1474 -0.4832  0.0038
    4MPD2    C5   58   3.637   2.278  11.103 -0.3662  0.1152 -0.3708
    4MPD2     H   59   3.939   2.486  11.021 -2.0128  2.3358  0.8938
    4MPD2    H1   60   3.715   2.132  10.961 -0.1270 -0.0213 -0.7292
    4MPD2    H2   61   3.571   2.435  11.221  0.0433  0.9939 -1.9044
    4MPD2    H3   62   3.554   2.216  11.137 -0.6813  0.3153 -0.7709
    4MPD2     N   63   3.942   2.255  10.890  0.2965  0.4147  0.1529
    4MPD2    H5   64   4.023   2.315  10.878  1.0047 -0.5486  0.1504
    4MPD2    N1   65   3.778   2.608  11.179 -0.0618  0.0020 -0.5499
    4MPD2    H7   66   3.877   2.631  11.181  0.5564 -2.6431 -1.2520
    5TCq1    O1   67   0.717   0.369  11.670  0.6216  0.6228  0.4981
    5TCq1    C1   68   0.701   0.318  11.797 -0.0816  0.0387  0.4740
    5TCq1    O2   69   0.748   0.371  11.897  0.4001  0.2042  0.2559
    5TCq1    C2   70   0.609   0.200  11.799 -0.0282  1.1412  0.4639
    5TCq1    C3   71   0.560   0.152  11.917  0.1547 -0.9864 -0.5190
    5TCq1    C4   72   0.470   0.052  11.920  0.0260 -0.2545  0.2754
    5TCq1    C5   73   0.437   4.728  11.802 -0.1718 -0.1745 -0.3574
    5TCq1    C6   74   0.492   0.036  11.687 -0.1461  0.1099  0.3927
    5TCq1    C7   75   0.578   0.137  11.686  0.0024 -0.5873 -0.2957
    5TCq1    C8   76   0.455   4.706  11.562  0.4693 -0.2635  0.3137
    5TCq1    O4   77   0.527   4.716  11.464  0.2350 -0.1547  0.4087
    5TCq1    C9   78   0.414   4.727  12.043 -0.8302 -0.2527 -0.1689
    5TCq1    O5   79   0.466   0.014  12.154  0.3246 -0.3086 -0.5711
    5TCq1    O6   80   0.297   4.688  12.026 -0.2286 -0.1250 -0.0799
    5TCq1    H1   81   0.674   0.324  11.594 -0.1834  0.2152  1.1981
    5TCq1    H2   82   0.589   0.192  12.014 -1.0009  0.6658 -0.8771
    5TCq1    H3   83   0.377   4.638  11.808 -1.2409  0.5473 -0.2846
    5TCq1    H4   84   0.616   0.153  11.586 -0.2703  4.8316  0.4668
    6MPD2     C   85   0.124   4.564  11.475 -0.3384 -0.2537  0.0967
    6MPD2    C1   86   0.259   4.595  11.453  0.1684  0.5890  0.0329
    6MPD2    C2   87   0.321   4.545  11.340 -0.1062 -0.2632 -0.0892
    6MPD2    C3   88   0.245   4.474  11.243 -0.1885 -0.3390  0.4765
    6MPD2    C4   89   0.112   4.443  11.268  0.2036 -0.5532 -0.0233
    6MPD2    C5   90   0.053   4.487  11.383 -0.0992  0.7374 -0.3459
    6MPD2     H   91   0.426   4.562  11.316  0.6199  1.8228  4.6776
    6MPD2    H1   92   0.042   4.395  11.202 -0.4372  0.2851  0.0432
    6MPD2    H2   93   0.075   4.604  11.563  0.6140 -3.4150  2.0604
    6MPD2    H3   94   4.693   4.445  11.403  0.1248 -0.4287 -1.6599
    6MPD2     N   95   0.309   4.435  11.120 -0.0056  0.0731 -0.0708
    6MPD2    H5   96   0.406   4.465  11.123 -0.7657  2.3273  1.9130
    6MPD2    N1   97   0.329   4.656  11.570 -0.2550  0.3545 -0.8367
    6MPD2    H7   98   0.281   4.668  11.658  0.2873 -0.6338 -0.4015
    7TCq1    O1   99   2.239   4.387  13.945  0.4061  0.4488  0.1151
    7TCq1    C1  100   2.168   4.328  14.043 -0.3169 -0.3643 -0.3547
    7TCq1    O2  101   2.087   4.387  14.113 -0.4000  0.2201 -0.4070
    7TCq1    C2  102   2.240   4.207  14.080 -0.2495 -0.0050 -0.2365
    7TCq1    C3  103   2.260   4.177  14.209  0.3159  0.6618 -0.2711
    7TCq1    C4  104   2.315   4.053  14.239  0.0570 -0.1463  0.2680
    7TCq1    C5  105   2.359   3.967  14.145 -0.1780 -0.0071 -0.4847
    7TCq1    C6  106   2.356   4.015  14.014 -0.1796 -0.2128 -0.3721
    7TCq1    C7  107   2.299   4.134  13.980 -0.3805  0.2685  0.0867
    7TCq1    C8  108   2.387   3.912  13.918 -0.1728 -0.1106  0.0769
    7TCq1    O4  109   2.437   3.813  13.965  0.4871  0.2744 -0.6669
    7TCq1    C9  110   2.319   4.018  14.381 -0.4892 -0.3161 -0.0187
    7TCq1    O5  111   2.325   3.902  14.421  0.1831  0.2902 -0.3624
    7TCq1    O6  112   2.336   4.108  14.463 -0.9779  0.0328 -0.1242
    7TCq1    H1  113   2.320   4.335  13.927 -1.0179 -1.0709 -1.8390
    7TCq1    H2  114   2.214   4.240  14.285 -2.0914  0.7142 -1.7795
    7TCq1    H3  115   2.404   3.875  14.181  0.4027  0.0326 -1.1103
    7TCq1    H4  116   2.271   4.160  13.878 -0.0844 -1.4485 -0.4331
    8MPD2     C  117   2.373   3.674  13.452 -0.3456 -0.1128 -1.0448
    8MPD2    C1  118   2.428   3.638  13.576  0.7592  0.2734  0.2290
    8MPD2    C2  119   2.432   3.721  13.684 -0.0331  0.2683  0.2274
    8MPD2    C3  120   2.375   3.851  13.680  0.1019 -0.4101 -0.0877
    8MPD2    C4  121   2.306   3.880  13.567 -0.3192  0.5984 -0.5374
    8MPD2    C5  122   2.315   3.798  13.457  0.1928 -0.4264  0.5054
    8MPD2     H  123   2.488   3.692  13.772  1.0224  0.0044 -0.5263
    8MPD2    H1  124   2.249   3.972  13.570 -0.4087  0.5752 -1.6510
    8MPD2    H2  125   2.356   3.607  13.368 -2.7243  0.9065 -1.3701
    8MPD2    H3  126   2.255   3.826  13.371 -0.2516 -2.6260  0.1194
    8MPD2     N  127   2.361   3.938  13.787 -0.0132 -0.5847 -0.4119
    8MPD2    H5  128   2.326   4.031  13.763  2.8630  1.0284  1.6152
    8MPD2    N1  129   2.485   3.512  13.600  0.7174 -0.0468  0.7469
    8MPD2    H7  130   2.533   3.494  13.687  1.1038 -1.2034  0.2915
    9TMC1    C1  131   0.913   3.915  10.993 -0.2570 -0.8078  0.5615
    9TMC1    C2  132   0.919   3.931  10.857 -1.0654 -0.4664 -0.4611
    9TMC1    C3  133   0.802   3.970  10.793 -0.0951 -0.0791 -0.7313
    9TMC1    C4  134   0.799   3.945  11.065 -0.3785 -0.5742  0.2935
    9TMC1    C5  135   0.698   4.006  10.995 -0.2945 -0.4440  0.0157
    9TMC1    C6  136   0.696   4.018  10.860 -0.6950 -1.0752 -0.4824
    9TMC1     C  137   1.013   3.855  11.070 -0.3433  0.6966 -0.5994
    9TMC1     O  138   1.130   3.880  11.046  0.0721  0.9085  0.6379
    9TMC1     H  139   1.009   3.895  10.808  0.5633  0.6593  1.7341
    9TMC1    H1  140   0.793   3.940  11.173 -2.5605  0.6325  0.2381
    9TMC1    H2  141   0.610   4.053  10.803  0.2398  0.3792 -0.9962
    9TMC1    C7  142   0.574   4.032  11.063  0.4669  0.7714  0.3493
    9TMC1    C8  143   0.800   3.971  10.649 -0.4214  0.1128  0.1713
    9TMC1    O1  144   0.500   4.129  11.048  0.4960 -0.0347 -0.5584
    9TMC1    O2  145   0.768   4.068  10.582  0.2184  0.2719  0.1668
    9TMC1    O3  146   0.519   3.908  11.076 -0.1741  0.2173 -0.1998
    9TMC1    H3  147   0.582   3.835  11.057 -0.1666  0.6922 -1.9872
    9TMC1    O5  148   0.883   3.877  10.604  0.3289  0.0019  0.3489
    9TMC1    H5  149   0.900   3.810  10.675  0.1946  0.9907  1.3157
   10MPD2     C  150   1.177   3.681  11.251 -0.4082  0.1334  0.0167
   10MPD2    C1  151   1.038   3.689  11.253  0.7929 -0.9068  0.4958
   10MPD2    C2  152   0.965   3.612  11.338  0.3216  0.0900 -1.1615
   10MPD2    C3  153   1.024   3.538  11.433  0.1388  0.5934 -0.1822
   10MPD2    C4  154   1.159   3.528  11.439 -0.0897 -0.2060 -0.1550
   10MPD2    C5  155   1.236   3.597  11.349 -0.4378 -0.2247  0.0460
   10MPD2     H  156   0.857   3.616  11.337  0.3065  0.1741  0.5100
   10MPD2    H1  157   1.204   3.472  11.519 -0.6170 -0.7269 -0.2233
   10MPD2    H2  158   1.237   3.734  11.178  1.4022 -0.0743  1.3488
   10MPD2    H3  159   1.344   3.601  11.360 -0.5424 -1.3507  1.3839
   10MPD2     N  160   0.958   3.453  11.529 -0.4789 -0.1057 -0.3877
   10MPD2    H5  161   1.011   3.395  11.594 -0.3543 -0.8592 -1.1568
   10MPD2    N1  162   0.965   3.762  11.155 -0.5267 -0.0623 -0.1166
   10MPD2    H7  163   0.866   3.741  11.146 -0.2839 -1.1739 -0.2364
   11TCq1    O1  164   0.544   3.358  14.392  0.8182 -0.0315  0.3138
   11TCq1    C1  165   0.665   3.345  14.343  1.0491  0.7173 -0.5493
   11TCq1    O2  166   0.747   3.435  14.324 -0.4179  0.1433 -0.3367
   11TCq1    C2  167   0.696   3.214  14.308  0.3480 -0.1137  0.8878
   11TCq1    C3  168   0.824   3.171  14.339 -0.2973  0.3742  0.4156
   11TCq1    C4  169   0.848   3.034  14.326  0.3353  0.0221 -0.1511
   11TCq1    C5  170   0.760   2.952  14.258  0.5900 -0.8237 -0.4995
   11TCq1    C6  171   0.645   3.011  14.222 -0.0426 -0.1860 -0.0063
   11TCq1    C7  172   0.607   3.138  14.243 -0.3666  0.5648 -0.3007
   11TCq1    C8  173   0.538   2.932  14.160  0.6395 -0.2712 -0.7171
   11TCq1    O4  174   0.442   2.999  14.134 -0.5200  0.3477 -0.4567
   11TCq1    C9  175   0.975   2.989  14.373 -0.1849 -0.5451 -0.7310
   11TCq1    O5  176   1.001   2.871  14.337  0.1584  0.6630 -0.1707
   11TCq1    O6  177   1.050   3.067  14.436  0.0659  0.1769 -0.4266
   11TCq1    H1  178   0.499   3.273  14.414 -2.2406  1.8061  1.0695
   11TCq1    H2  179   0.888   3.246  14.383  2.3430  0.6140 -3.8073
   11TCq1    H3  180   0.774   2.845  14.254  2.1692 -0.6537  0.3511
   11TCq1    H4  181   0.516   3.183  14.203 -0.6252  1.0177  0.8099
   12MPD2     C  182   0.344   2.746  14.056  0.6111  0.5243 -0.1004
   12MPD2    C1  183   0.481   2.718  14.054  0.1406 -0.1263  0.0306
   12MPD2    C2  184   0.529   2.604  13.985  0.0208 -0.4113  0.5063
   12MPD2    C3  185   0.440   2.525  13.913 -0.0384 -0.1506  0.2597
   12MPD2    C4  186   0.309   2.557  13.923  0.0348 -0.5274  0.7899
   12MPD2    C5  187   0.264   2.661  13.990  0.3816 -0.0411  0.0228
   12MPD2     H  188   0.633   2.578  13.996 -0.2692 -1.2490  1.2998
   12MPD2    H1  189   0.238   2.492  13.871 -0.6780 -0.5619  1.8152
   12MPD2    H2  190   0.303   2.827  14.115  0.1087  0.0643  0.1783
   12MPD2    H3  191   0.157   2.678  13.981 -0.1112 -3.4063 -0.7894
   12MPD2     N  192   0.469   2.408  13.837 -0.2709 -0.3137 -0.0126
   12MPD2    H5  193   0.399   2.348  13.794  0.2310 -0.1938 -0.9934
   12MPD2    N1  194   0.573   2.803  14.113 -0.3966 -0.0518  0.2306
   12MPD2    H7  195   0.667   2.767  14.126 -0.4559 -0.1559  0.3665
   13TCq1    O1  196   0.914   2.828  11.223  0.0424  0.1090 -0.2481
   13TCq1    C1  197   0.889   2.861  11.098 -0.2679 -0.0035 -0.6675
   13TCq1    O2  198   0.972   2.892  11.015 -0.1590  0.1096  0.2409
   13TCq1    C2  199   0.744   2.879  11.078 -0.7947 -0.4477  0.9642
   13TCq1    C3  200   0.697   2.974  10.997 -0.3115  0.7936  1.5288
   13TCq1    C4  201   0.560   2.994  10.973  0.2408  0.3369  0.6118
   13TCq1    C5  202   0.475   2.917  11.044  0.0311  0.0245 -0.9142
   13TCq1    C6  203   0.520   2.813  11.125 -0.1980  0.3436 -0.2704
   13TCq1    C7  204   0.653   2.798  11.145 -0.3020 -0.5958 -0.7817
   13TCq1    C8  205   0.422   2.744  11.207 -0.6359 -0.1154  0.0894
   13TCq1    O4  206   0.310   2.792  11.212  0.0894  0.1144  0.7861
   13TCq1    C9  207   0.520   3.086  10.869 -0.1724  0.0789 -0.1253
   13TCq1    O5  208   0.401   3.060  10.827  0.2533 -0.2005  0.4760
   13TCq1    O6  209   0.592   3.177  10.820  0.1283 -0.4747 -0.1534
   13TCq1    H1  210   0.829   2.829  11.272 -0.9002 -1.8623 -1.8534
   13TCq1    H2  211   0.764   3.035  10.937 -1.9858  0.5221 -0.6342
   13TCq1    H3  212   0.369   2.933  11.031 -0.4965 -1.0075  2.2196
   13TCq1    H4  213   0.686   2.709  11.198  1.2772  0.0377 -0.7244
   14MPD2     C  214   0.421   2.399  11.325 -0.8685 -0.1183 -0.6956
   14MPD2    C1  215   0.372   2.528  11.324  1.0681  0.5395  0.1246
   14MPD2    C2  216   0.252   2.559  11.381  0.8903  0.1543 -0.9588
   14MPD2    C3  217   0.164   2.467  11.434  0.2444  1.0172 -0.4142
   14MPD2    C4  218   0.207   2.334  11.432 -0.3282 -0.2412 -0.3929
   14MPD2    C5  219   0.331   2.306  11.378 -0.3516  0.0356 -0.7296
   14MPD2     H  220   0.218   2.662  11.389  1.2480  0.3347 -1.8068
   14MPD2    H1  221   0.155   2.247  11.471 -0.3072  0.1367  0.4706
   14MPD2    H2  222   0.513   2.360  11.283  0.8320  1.5595  1.5161
   14MPD2    H3  223   0.360   2.201  11.380  0.5945  0.3319  0.8222
   14MPD2     N  224   0.035   2.505  11.476  0.0587  0.3767  0.2880
   14MPD2    H5  225   0.011   2.604  11.471 -2.5537 -0.2307  0.7094
   14MPD2    N1  226   0.456   2.616  11.254 -0.3932  0.4551  0.5285
   14MPD2    H7  227   0.541   2.569  11.225 -1.4184 -0.5473 -0.8528
   15TCq1    O1  228   2.743   2.097   1.557 -0.2331 -0.2496 -0.3187
   15TCq1    C1  229   2.634   2.021   1.573  0.2643 -0.5429  0.2222
   15TCq1    O2  230   2.525   2.069   1.572  0.4157  0.2866  0.0271
   15TCq1    C2  231   2.657   1.909   1.480 -0.6829 -0.1334 -1.0099
   15TCq1    C3  232   2.763   1.828   1.502 -0.2159 -0.4205 -0.0354
   15TCq1    C4  233   2.790   1.724   1.420  0.0336  0.3858  0.3659
   15TCq1    C5  234   2.704   1.693   1.323  0.0266 -0.3338  0.1186
   15TCq1    C6  235   2.606   1.781   1.290 -0.5992  0.3542  0.9813
   15TCq1    C7  236   2.579   1.889   1.372 -0.0742  0.0903 -0.3480
   15TCq1    C8  237   2.538   1.753   1.161 -0.0612 -0.4260  0.3825
   15TCq1    O4  238   2.578   1.655   1.097  0.0436  0.3313 -0.1209
   15TCq1    C9  239   2.885   1.619   1.467  0.1733  0.3084  0.1981
   15TCq1    O5  240   2.887   1.515   1.398  0.0041  0.5398  0.4104
   15TCq1    O6  241   2.921   1.613   1.589  0.4784 -0.0314  0.2437
   15TCq1    H1  242   2.829   2.050   1.548  0.2480 -0.0407  3.1180
   15TCq1    H2  243   2.832   1.828   1.586 -0.2504 -0.8936 -0.0078
   15TCq1    H3  244   2.708   1.595   1.276  0.3662 -0.2607 -0.0025
   15TCq1    H4  245   2.507   1.962   1.339  0.2505 -0.3285 -1.9634
   16MPD2     C  246   2.281   1.951   0.999  0.0086  0.3536  0.1781
   16MPD2    C1  247   2.368   1.845   1.010  0.0024  0.2575  0.1527
   16MPD2    C2  248   2.372   1.742   0.918  0.3614  0.2457 -0.0105
   16MPD2    C3  249   2.285   1.753   0.811  0.0465  0.7715 -0.4120
   16MPD2    C4  250   2.215   1.869   0.791 -0.7388  0.1621  0.5075
   16MPD2    C5  251   2.210   1.968   0.887  0.1759 -0.2154 -0.3807
   16MPD2     H  252   2.425   1.649   0.937  0.9384  0.0341 -2.6431
   16MPD2    H1  253   2.141   1.879   0.712 -0.9695 -2.9062  0.3044
   16MPD2    H2  254   2.277   2.028   1.075 -0.8454  1.1295 -0.6560
   16MPD2    H3  255   2.152   2.060   0.888  1.4720  0.6170 -1.2857
   16MPD2     N  256   2.291   1.648   0.713 -0.0388  0.4215  0.3009
   16MPD2    H5  257   2.367   1.583   0.729 -0.5670 -0.8572 -2.4512
   16MPD2    N1  258   2.441   1.848   1.128 -0.9281 -0.2264 -0.3458
   16MPD2    H7  259   2.425   1.933   1.180  0.0135 -0.6952  0.6921
   17TMC1    C1  260   4.467   1.475  11.454  0.2679  0.3145 -0.1498
   17TMC1    C2  261   4.495   1.522  11.577  0.0457  0.0434  0.0107
   17TMC1    C3  262   4.388   1.561  11.651  0.2537 -0.0632 -0.2200
   17TMC1    C4  263   4.338   1.470  11.405  0.2455  0.4230  0.0414
   17TMC1    C5  264   4.235   1.514  11.487  0.4162  0.0209 -0.3827
   17TMC1    C6  265   4.259   1.558  11.615 -0.2233  0.7197  0.2598
   17TMC1     C  266   4.581   1.428  11.374  0.1823  0.4863 -0.0918
   17TMC1     O  267   4.544   1.346  11.290 -0.4077  0.1584 -0.6586
   17TMC1     H  268   4.595   1.525  11.619  0.3424 -0.4641 -0.6647
   17TMC1    H1  269   4.322   1.429  11.306 -2.0457 -0.2356  0.6803
   17TMC1    H2  270   4.182   1.581  11.688  0.7711 -2.6097  2.3687
   17TMC1    C7  271   4.097   1.495  11.442 -0.7123  0.2508  0.1754
   17TMC1    C8  272   4.421   1.596  11.791  0.4319 -0.4700  0.8075
   17TMC1    O1  273   4.042   1.576  11.370 -0.0832 -0.0794 -0.3561
   17TMC1    O2  274   4.519   1.556  11.852  0.2695 -0.2974  0.5456
   17TMC1    O3  275   4.044   1.403  11.532  0.5949  0.5667 -0.3553
   17TMC1    H3  276   4.116   1.357  11.581 -0.1619 -0.6149 -0.3560
   17TMC1    O5  277   4.352   1.707  11.815  0.6656  0.3357  0.2250
   17TMC1    H5  278   4.287   1.719  11.742 -0.4606 -1.2455  0.9750
   18MPD2     C  279   0.107   1.358  11.293  0.4325  0.9776 -0.7058
   18MPD2    C1  280   0.083   1.476  11.355 -0.0821  0.4582 -0.6104
   18MPD2    C2  281   0.191   1.563  11.385  0.3028  0.0865 -0.0877
   18MPD2    C3  282   0.315   1.536  11.331 -0.4471  0.5385  0.4689
   18MPD2    C4  283   0.339   1.416  11.267  0.1021  0.1441  0.0463
   18MPD2    C5  284   0.233   1.329  11.255 -0.4909  0.6895  0.2762
   18MPD2     H  285   0.174   1.656  11.437 -1.4479  1.1185 -2.5272
   18MPD2    H1  286   0.442   1.390  11.247 -0.0158  0.0932 -0.4929
   18MPD2    H2  287   0.030   1.288  11.262  1.4534 -0.1517 -0.7148
   18MPD2    H3  288   0.250   1.235  11.202 -0.0712  1.3350 -0.7429
   18MPD2     N  289   0.433   1.617  11.355  0.3836 -0.4181 -0.6929
   18MPD2    H5  290   0.524   1.578  11.332  0.5594 -1.9847  2.5384
   18MPD2    N1  291   4.692   1.506  11.400  1.2103  0.3931  0.7199
   18MPD2    H7  292   4.682   1.597  11.445 -1.2974 -0.5384  2.0731
   19TMC2    C1  293   2.105   2.713  13.786 -0.5696 -0.2065 -0.8845
   19TMC2    C2  294   2.077   2.797  13.674  0.1060 -0.7013 -0.3298
   19TMC2    C3  295   1.948   2.786  13.625  0.5565 -0.4840  0.1530
   19TMC2    C4  296   2.015   2.617  13.827 -0.4421 -0.3861  0.2659
   19TMC2    C5  297   1.901   2.602  13.765 -0.6919  0.2326  0.2210
   19TMC2    C6  298   1.860   2.692  13.664  0.2463 -0.2271 -0.3495
   19TMC2     C  299   2.237   2.659  13.797  0.0853 -0.2913 -0.4480
   19TMC2     O  300   2.292   2.619  13.694  0.3619  0.7088  0.0749
   19TMC2     H  301   2.149   2.865  13.630 -1.1118  0.3474 -0.7319
   19TMC2    H1  302   2.049   2.541  13.897  1.6412  0.6285  0.3584
   19TMC2    H2  303   1.768   2.672  13.610  0.2065 -1.5284  0.2012
   19TMC2    C7  304   1.817   2.486  13.800 -0.3716  0.1582 -0.0120
   19TMC2    C8  305   1.946   2.822  13.487 -0.3848 -0.0376 -0.0255
   19TMC2    O1  306   1.868   2.386  13.843 -0.4719  0.3284 -0.1060
   19TMC2    O2  307   1.897   2.745  13.406 -0.2762  0.0207 -0.1381
   19TMC2    O5  308   1.916   2.951  13.498 -0.2077 -0.1662  0.0532
   19TMC2    H5  309   1.939   2.993  13.584 -1.4473 -0.5570  0.5792
   20MPD2     C  310   2.487   2.519  13.892  0.1763 -0.8397 -0.3363
   20MPD2    C1  311   2.395   2.580  13.977 -0.1533 -0.3787 -0.7069
   20MPD2    C2  312   2.417   2.576  14.114 -0.0161 -0.5754 -0.4617
   20MPD2    C3  313   2.522   2.499  14.162 -0.0296  0.5695 -0.5687
   20MPD2    C4  314   2.607   2.431  14.077  1.2500  0.1652 -0.1665
   20MPD2    C5  315   2.590   2.448  13.945 -0.1518 -0.7218  0.8853
   20MPD2     H  316   2.349   2.633  14.176  1.8104  0.6960  0.3564
   20MPD2    H1  317   2.689   2.368  14.111  1.5481  0.5783 -0.1166
   20MPD2    H2  318   2.476   2.521  13.785  0.0978  0.3781 -0.3017
   20MPD2    H3  319   2.642   2.392  13.868 -1.2803  3.7470 -3.0793
   20MPD2     N  320   2.546   2.480  14.300 -0.4671 -0.2240  0.7031
   20MPD2    H5  321   2.626   2.426  14.332 -1.1215 -0.6143  1.7145
   20MPD2    N1  322   2.282   2.650  13.932 -0.4083 -0.0083  0.3946
   20MPD2    H7  323   2.227   2.691  14.007  0.0762  0.1447  0.6648
   21TMC2    C1  324   4.538   2.589  14.289  0.1959 -0.5434  0.2650
   21TMC2    C2  325   4.579   2.459  14.291  0.7567 -0.0368 -0.6583
   21TMC2    C3  326   4.547   2.385  14.398  0.0038  0.4280 -0.2895
   21TMC2    C4  327   4.453   2.638  14.383 -0.5782 -0.2328 -0.4520
   21TMC2    C5  328   4.402   2.552  14.470 -0.0908  0.2313  0.5101
   21TMC2    C6  329   4.451   2.429  14.491 -0.4529  0.0633  0.3810
   21TMC2     C  330   4.661   2.659  14.279 -0.0499 -0.0554 -0.0430
   21TMC2     O  331   0.029   2.603  14.259 -0.3393 -0.1186  0.0725
   21TMC2     H  332   4.641   2.424  14.210 -0.8728 -0.5671 -1.6800
   21TMC2    H1  333   4.421   2.741  14.386 -0.2177 -0.1493  0.7139
   21TMC2    H2  334   4.414   2.372  14.575 -1.0426 -1.5581 -0.9772
   21TMC2    C7  335   4.311   2.609  14.572  0.3328 -0.2565  0.3886
   21TMC2    C8  336   4.564   2.242  14.384 -0.3426 -0.1507 -0.4923
   21TMC2    O1  337   4.291   2.543  14.674 -0.1979 -0.1610 -0.6868
   21TMC2    O2  338   4.625   2.193  14.294 -0.6250 -0.0547 -0.2650
   21TMC2    O5  339   4.580   2.194  14.509  0.1710  0.0189  0.2335
   21TMC2    H5  340   4.547   2.250  14.583  1.0918  0.5298  0.2500
   22MPD2     C  341   0.172   3.073  14.442  0.5519 -0.1282  0.6058
   22MPD2    C1  342   0.216   2.942  14.435  0.3879  0.7975  0.6203
   22MPD2    C2  343   0.122   2.853  14.391 -0.7672  0.8121  0.0083
   22MPD2    C3  344   4.736   2.890  14.345  0.3106 -0.9159  1.2707
   22MPD2    C4  345   4.698   3.017  14.342 -0.9083 -0.2557 -0.0010
   22MPD2    C5  346   0.045   3.109  14.394 -0.1445  0.2408 -0.3476
   22MPD2     H  347   0.154   2.749  14.395  0.2794  1.0857 -1.0175
   22MPD2    H1  348   4.598   3.048  14.316 -0.2042  0.8179 -1.4877
   22MPD2    H2  349   0.228   3.157  14.480  0.6462  0.4303 -0.7587
   22MPD2    H3  350   4.731   3.204  14.405 -0.3556 -0.0450  1.0869
   22MPD2     N  351   4.642   2.796  14.298 -0.6658 -0.2665  0.1299
   22MPD2    H5  352   4.548   2.828  14.276 -1.0756 -1.7419 -0.2984
   22MPD2    N1  353   0.342   2.900  14.475 -0.6880 -0.2729  0.5414
   22MPD2    H7  354   0.359   2.800  14.483 -1.5876 -0.6742 -2.4311
   23TMC2    C1  355   1.168   4.476  14.721  0.0352  0.7815 -0.5907
   23TMC2    C2  356   1.190   4.459  14.582 -0.2567 -0.2957  0.6923
   23TMC2    C3  357   1.086   4.422  14.497 -0.2478  0.3385 -0.2520
   23TMC2    C4  358   1.041   4.440  14.758 -0.4318 -0.1263 -0.7882
   23TMC2    C5  359   0.936   4.403  14.670  0.3253  0.2065 -0.0430
   23TMC2    C6  360   0.961   4.389  14.537  0.5649  0.3131  0.4444
   23TMC2     C  361   1.261   4.420  14.819  0.3623  0.7513  0.9884
   23TMC2     O  362   1.220   4.341  14.897 -0.1653 -0.0384  0.2919
   23TMC2     H  363   1.282   4.486  14.531 -1.3266  1.8898 -0.0647
   23TMC2    H1  364   1.007   4.458  14.859 -0.2057 -1.6074 -0.4468
   23TMC2    H2  365   0.892   4.352  14.461 -1.0797  1.9278  1.1499
   23TMC2    C7  366   0.850   4.292  14.732  0.2674 -0.4860  0.3132
   23TMC2    C8  367   1.131   4.414  14.363  0.1235  0.3007 -0.4191
   23TMC2    O1  368   0.900   4.244  14.833  0.4810 -0.3691 -0.0018
   23TMC2    O2  369   1.212   4.487  14.305 -0.1408  0.2594  0.3367
   23TMC2    O5  370   1.078   4.301  14.307  0.0915  0.3521  0.3382
   23TMC2    H5  371   1.050   4.236  14.376  0.0085  1.1838  1.0776
   24MPD2     C  372   1.708   4.183  14.852 -0.0033 -0.1277 -0.2188
   24MPD2    C1  373   1.593   4.170  14.929  0.0721  0.1102 -0.3676
   24MPD2    C2  374   1.494   4.255  14.897 -0.5674 -0.5794  0.7098
   24MPD2    C3  375   1.501   4.359  14.798 -0.4974  0.0601  0.2896
   24MPD2    C4  376   1.621   4.369  14.726 -0.1408 -1.0935 -0.6277
   24MPD2    C5  377   1.717   4.275  14.753  0.3679  0.6179  0.0804
   24MPD2     H  378   1.404   4.236  14.953 -0.9433 -0.3087  0.2006
   24MPD2    H1  379   1.640   4.445  14.651  0.7783  1.5812  2.2904
   24MPD2    H2  380   1.789   4.111  14.857 -1.4914 -1.7727  0.5488
   24MPD2    H3  381   1.800   4.279  14.684  0.0739  1.8391 -0.2079
   24MPD2     N  382   1.392   4.440  14.769 -0.2281 -0.6017 -0.2423
   24MPD2    H5  383   1.403   4.512  14.698  0.0241  0.2065  0.6233
   24MPD2    N1  384   1.565   4.074  15.027 -0.2069 -0.8122 -0.6130
   24MPD2    H7  385   1.475   4.080  15.074  0.5089 -0.0184  0.6691
   25TMC2    C1  386   0.525   0.589  11.461  0.4424 -0.7035 -0.3039
   25TMC2    C2  387   0.658   0.633  11.484 -0.1329  0.5505 -0.2259
   25TMC2    C3  388   0.666   0.760  11.543  0.8853 -0.1506  0.3629
   25TMC2    C4  389   0.415   0.662  11.507  0.3673 -0.1379  0.1216
   25TMC2    C5  390   0.436   0.776  11.574 -0.6561  0.1556 -1.1665
   25TMC2    C6  391   0.559   0.823  11.593  1.2365 -0.2984 -0.2937
   25TMC2     C  392   0.503   0.456  11.419 -0.2759  0.1301  0.4547
   25TMC2     O  393   0.598   0.376  11.431  0.8051 -0.1152 -0.7711
   25TMC2     H  394   0.740   0.593  11.426 -0.7602 -1.5731  0.3615
   25TMC2    H1  395   0.313   0.624  11.505  0.6342 -0.8487  0.0326
   25TMC2    H2  396   0.579   0.916  11.646  0.0786 -0.6528  0.7494
   25TMC2    C7  397   0.331   0.865  11.621 -0.0120  0.6877 -0.0923
   25TMC2    C8  398   0.770   0.852  11.513 -0.0924  0.2289 -0.0160
   25TMC2    O1  399   0.354   0.926  11.722  0.3947 -0.3487  0.7339
   25TMC2    O2  400   0.745   0.968  11.480  0.2651 -0.2811 -0.3987
   25TMC2    O5  401   0.873   0.823  11.597 -0.4158 -0.3048  0.2544
   25TMC2    H5  402   0.865   0.735  11.641 -2.1311 -0.1703  0.1838
   26MPD2     C  403   0.275   0.096  11.155  0.9061 -0.4613 -0.0190
   26MPD2    C1  404   0.185   0.190  11.165 -0.3225 -0.5428 -0.3204
   26MPD2    C2  405   0.222   0.303  11.231  0.2228  0.0770  0.1643
   26MPD2    C3  406   0.351   0.317  11.288 -0.4193  0.1334 -0.4851
   26MPD2    C4  407   0.436   0.214  11.274 -0.3132  1.0102 -0.5151
   26MPD2    C5  408   0.399   0.111  11.197  0.0849  0.2931 -0.8718
   26MPD2     H  409   0.150   0.384  11.230  1.5510  1.2525  0.4178
   26MPD2    H1  410   0.541   0.221  11.298 -0.2781  0.0199 -0.3601
   26MPD2    H2  411   0.260   4.736  11.109 -0.7672 -0.4013  0.4077
   26MPD2    H3  412   0.469   0.030  11.177 -0.3132 -0.2834  0.0494
   26MPD2     N  413   0.382   0.432  11.364  0.5707  0.0427  0.6423
   26MPD2    H5  414   0.321   0.510  11.344  0.3491  0.0243  1.2415
   26MPD2    N1  415   0.060   0.160  11.119 -0.3112  0.4047  0.5358
   26MPD2    H7  416   0.044   0.074  11.068 -0.1036  0.7119 -0.0409
   27TMC2    C1  417   3.938   3.025  12.081 -0.1154  0.1532  0.5111
   27TMC2    C2  418   4.042   2.965  12.007  0.9526 -0.2867  0.1076
   27TMC2    C3  419   4.171   2.974  12.058 -0.0644 -0.9565 -0.5038
   27TMC2    C4  420   3.967   3.101  12.185  0.0724  0.2497 -0.5190
   27TMC2    C5  421   4.099   3.113  12.230  0.3957  1.0638 -0.1045
   27TMC2    C6  422   4.205   3.047  12.171 -0.0938  1.0299  0.2961
   27TMC2     C  423   3.797   3.008  12.038 -0.1628 -0.1786  0.3427
   27TMC2     O  424   3.767   2.946  11.939 -0.0515 -0.6018 -0.4616
   27TMC2     H  425   4.012   2.888  11.937  1.7882  0.2176 -0.8015
   27TMC2    H1  426   3.892   3.164  12.231  2.1282  3.4514 -1.5689
   27TMC2    H2  427   4.306   3.041  12.211  1.2718 -1.1680 -3.4314
   27TMC2    C7  428   4.128   3.199  12.339  0.0743 -0.1552  0.3952
   27TMC2    C8  429   4.280   2.894  12.005  0.2715  0.0130  0.2970
   27TMC2    O1  430   4.240   3.250  12.347  0.2589  0.1607  0.0581
   27TMC2    O2  431   4.378   2.888  12.077  0.2500 -0.5261  0.5570
   27TMC2    O5  432   4.256   2.849  11.879  0.2936 -0.0201  0.5210
   27TMC2    H5  433   4.169   2.869  11.838  0.5270 -3.1223 -1.4505
   28MPD2     C  434   3.290   3.031  12.107  0.3522 -0.3576 -0.2247
   28MPD2    C1  435   3.349   3.084  12.220 -0.1747 -0.1021  0.2013
   28MPD2    C2  436   3.485   3.089  12.224 -0.6492  0.0427  0.7795
   28MPD2    C3  437   3.563   3.042  12.122 -0.6394  0.9838  0.5266
   28MPD2    C4  438   3.497   3.013  12.005 -0.2572  0.3221 -0.1789
   28MPD2    C5  439   3.366   2.998  11.996  1.0075  0.1645  0.7131
   28MPD2     H  440   3.537   3.135  12.308  2.0587  0.2083 -1.0097
   28MPD2    H1  441   3.546   2.978  11.915 -0.4881 -0.7246  0.1011
   28MPD2    H2  442   3.182   3.031  12.100  0.3322 -0.0685  0.1165
   28MPD2    H3  443   3.322   2.965  11.903 -0.4005 -2.2152  2.2124
   28MPD2     N  444   3.704   3.045  12.136  0.4409  0.0460 -0.3907
   28MPD2    H5  445   3.744   3.071  12.225 -0.2940  1.1826 -0.3961
   28MPD2    N1  446   3.262   3.107  12.329 -0.2354  0.2287  0.1961
   28MPD2    H7  447   3.163   3.085  12.321 -0.7398  2.2340  0.8200
   29TMC2    C1  448   3.386   1.228  14.177  0.4039 -1.0837  0.0593
   29TMC2    C2  449   3.486   1.258  14.094  0.7868 -0.5518  0.4859
   29TMC2    C3  450   3.544   1.383  14.104 -0.0131  0.4259  0.9626
   29TMC2    C4  451   3.334   1.319  14.263  0.2202 -0.4256 -0.3062
   29TMC2    C5  452   3.397   1.440  14.272  0.2765  0.1294 -0.0944
   29TMC2    C6  453   3.502   1.480  14.188  0.6114  0.2242 -0.2432
   29TMC2     C  454   3.338   1.094  14.162 -0.7818  0.4324 -0.1804
   29TMC2     O  455   3.402   1.024  14.084 -0.0618 -0.1157  0.4047
   29TMC2     H  456   3.515   1.201  14.007 -0.4772 -0.0003 -0.3030
   29TMC2    H1  457   3.266   1.281  14.339 -1.1271  1.6170 -0.4707
   29TMC2    H2  458   3.549   1.578  14.191 -0.8101  0.8648  1.6229
   29TMC2    C7  459   3.356   1.523  14.382  0.6523 -0.7732 -0.0653
   29TMC2    C8  460   3.627   1.428  13.988  0.2794  0.0219 -0.3988
   29TMC2    O1  461   3.257   1.491  14.442 -0.1516 -0.3651 -0.1704
   29TMC2    O2  462   3.622   1.366  13.884 -0.6023 -0.5797 -0.2938
   29TMC2    O5  463   3.735   1.493  14.034 -0.0103  0.0157 -0.4624
   29TMC2    H5  464   3.727   1.533  14.123  0.5811 -0.2723 -0.2773
   30MPD2     C  465   2.956   0.749  14.120 -0.0040  0.5677  0.6486
   30MPD2    C1  466   3.092   0.728  14.123 -0.1338 -0.3969  0.4565
   30MPD2    C2  467   3.175   0.839  14.160  0.3840 -0.3547 -0.2142
   30MPD2    C3  468   3.125   0.964  14.178  0.5445  0.3004 -0.1466
   30MPD2    C4  469   2.987   0.975  14.170 -0.4031  1.0287  0.2308
   30MPD2    C5  470   2.902   0.876  14.140  1.3045  1.0141  0.1900
   30MPD2     H  471   3.283   0.827  14.160  0.6413  1.9486 -2.6967
   30MPD2    H1  472   2.945   1.074  14.181  0.3170  1.4522 -0.8565
   30MPD2    H2  473   2.884   0.670  14.103 -0.4058  1.4469 -1.7342
   30MPD2    H3  474   2.795   0.884  14.151  1.1865  2.1893 -1.8888
   30MPD2     N  475   3.204   1.083  14.191  0.0133  0.6395  0.2919
   30MPD2    H5  476   3.156   1.171  14.209 -0.0611  0.5367  0.6028
   30MPD2    N1  477   3.151   0.599  14.111 -0.3411  0.4111  0.6527
   30MPD2    H7  478   3.252   0.585  14.104 -0.2781  2.1446 -1.9127
   31TMC2    C1  479   0.905   0.227  15.361  0.9926 -0.0225  0.6116
   31TMC2    C2  480   0.793   0.294  15.377  0.1098  0.1658 -0.2548
   31TMC2    C3  481   0.723   0.273  15.491  0.0472 -0.2342  0.1464
   31TMC2    C4  482   0.944   0.131  15.455  0.0335  0.3141  0.1458
   31TMC2    C5  483   0.868   0.113  15.561 -0.6211 -0.0014  0.2115
   31TMC2    C6  484   0.753   0.173  15.579 -0.9594  0.4536 -0.1490
   31TMC2     C  485   0.946   0.221  15.220 -0.2707  0.1848 -0.3635
   31TMC2     O  486   0.862   0.258  15.142 -0.5684  0.0756 -0.2550
   31TMC2     H  487   0.762   0.379  15.316  1.1063  0.7757  0.0956
   31TMC2    H1  488   1.021   0.058  15.433  1.7925  1.9375  0.8528
   31TMC2    H2  489   0.716   0.184  15.681 -0.3835 -1.5236  0.2734
   31TMC2    C7  490   0.939   0.052  15.672  0.1619 -0.3631  0.1561
   31TMC2    C8  491   0.602   0.356  15.521 -1.1176  0.6756 -0.2410
   31TMC2    O1  492   0.869   4.722  15.744  0.9009 -0.9497  0.0734
   31TMC2    O2  493   0.587   0.468  15.473 -0.1012 -0.2437 -0.4813
   31TMC2    O5  494   0.509   0.263  15.538  0.3899 -0.6160 -0.0111
   31TMC2    H5  495   0.545   0.172  15.546  1.5365 -0.0647  1.0327
   32MPD2     C  496   1.259   0.129  14.817 -0.5163  0.2206 -0.3602
   32MPD2    C1  497   1.134   0.179  14.824  0.1545  0.5800  0.2199
   32MPD2    C2  498   1.062   0.181  14.942 -0.0453 -0.6046  0.2686
   32MPD2    C3  499   1.127   0.152  15.060  0.1028  0.1863  0.0539
   32MPD2    C4  500   1.248   0.088  15.050 -0.0462 -0.1985 -0.1340
   32MPD2    C5  501   1.321   0.085  14.932 -0.7920  0.9490  1.1979
   32MPD2     H  502   0.958   0.212  14.941 -0.1165 -0.8387  0.3588
   32MPD2    H1  503   1.301   0.058  15.139  0.8651  1.8679  0.0350
   32MPD2    H2  504   1.316   0.122  14.725  3.0468  0.9307  1.8384
   32MPD2    H3  505   1.420   0.042  14.941  0.4132  2.2143 -5.7105
   32MPD2     N  506   1.070   0.169  15.195 -0.0313  0.3655  0.1656
   32MPD2    H5  507   1.128   0.145  15.275  1.0711  3.4798  0.3357
   32MPD2    N1  508   1.086   0.229  14.702  0.4371  0.0783 -0.2238
   32MPD2    H7  509   1.141   0.221  14.618 -0.7082 -0.8248 -0.8855
   33TMC2    C1  510   0.508   2.630  10.738  0.2093 -0.1449 -0.6817
   33TMC2    C2  511   0.375   2.658  10.748 -0.0237  0.7277 -0.6987
   33TMC2    C3  512   0.333   2.779  10.699 -0.1265  0.2795 -0.2015
   33TMC2    C4  513   0.595   2.718  10.677 -0.6949 -0.1916 -0.7331
   33TMC2    C5  514   0.540   2.823  10.612  0.2418  0.3760 -0.0319
   33TMC2    C6  515   0.409   2.860  10.618 -0.0574 -0.1159 -0.2836
   33TMC2     C  516   0.558   2.511  10.799 -0.3773 -1.0479  0.4353
   33TMC2     O  517   0.483   2.461  10.883  0.1981  0.4766  0.1190
   33TMC2     H  518   0.316   2.596  10.814  1.1970  0.4563  0.1482
   33TMC2    H1  519   0.701   2.695  10.670 -0.7619 -0.3884 -1.0830
   33TMC2    H2  520   0.369   2.957  10.592  0.9760  0.9811  2.1515
   33TMC2    C7  521   0.635   2.915  10.556  0.2859 -0.2436  0.1570
   33TMC2    C8  522   0.197   2.805  10.740 -0.0404 -0.3742  0.2611
   33TMC2    O1  523   0.748   2.923  10.603 -0.0199 -0.3723  0.1602
   33TMC2    O2  524   0.112   2.726  10.779  0.8196 -0.2321 -0.3621
   33TMC2    O5  525   0.192   2.939  10.772  0.5071  0.5389 -0.5495
   33TMC2    H5  526   0.281   2.978  10.784 -0.0881  1.8859 -0.4760
   34MPD2     C  527   0.900   2.145  10.875  0.4909 -0.8657  0.0760
   34MPD2    C1  528   0.785   2.175  10.948  0.2423  0.4899 -1.0655
   34MPD2    C2  529   0.710   2.285  10.917 -0.3555  0.8455  0.0213
   34MPD2    C3  530   0.752   2.361  10.804  0.3078  0.6805 -0.0024
   34MPD2    C4  531   0.865   2.332  10.730 -0.5941 -0.2687 -0.7172
   34MPD2    C5  532   0.941   2.224  10.772  0.1370  0.2093 -0.4280
   34MPD2     H  533   0.629   2.324  10.978 -0.5433  0.9074 -0.2719
   34MPD2    H1  534   0.886   2.374  10.633  2.5633  1.4306  0.7008
   34MPD2    H2  535   0.971   2.070  10.908  0.7418  0.5650  2.7916
   34MPD2    H3  536   1.027   2.199  10.711 -1.0730 -0.3741 -1.8834
   34MPD2     N  537   0.680   2.470  10.753 -0.0692 -0.4349  0.3610
   34MPD2    H5  538   0.724   2.530  10.684 -0.3270 -0.8307 -0.1471
   34MPD2    N1  539   0.752   2.086  11.047 -0.0764 -0.2628  0.4134
   34MPD2    H7  540   0.819   2.010  11.056 -0.2147 -0.5801 -1.3875
   35TMC2    C1  541   2.223   3.590  11.528  0.0493 -0.4626 -0.6696
   35TMC2    C2  542   2.166   3.622  11.404  0.1215 -0.3997  0.2658
   35TMC2    C3  543   2.085   3.531  11.345  0.9230  0.2737  0.3591
   35TMC2    C4  544   2.195   3.471  11.590 -0.5293  0.3143 -0.3091
   35TMC2    C5  545   2.117   3.380  11.526 -0.1249  1.0696  0.1497
   35TMC2    C6  546   2.065   3.405  11.403  0.3886  0.5208 -0.5005
   35TMC2     C  547   2.308   3.683  11.604 -0.5070  0.0154 -0.0104
   35TMC2     O  548   2.293   3.798  11.559  0.6782 -0.1740  0.2662
   35TMC2     H  549   2.199   3.711  11.351  1.1913 -0.8766  0.1180
   35TMC2    H1  550   2.235   3.449  11.689 -1.9202 -1.0095 -0.0414
   35TMC2    H2  551   2.004   3.327  11.357 -0.4227  0.8498  0.0086
   35TMC2    C7  552   2.069   3.264  11.590 -0.4251 -0.6742 -0.0961
   35TMC2    C8  553   2.011   3.562  11.225 -0.3869  0.1044 -0.4499
   35TMC2    O1  554   1.968   3.212  11.544  0.1036  0.0530 -0.2394
   35TMC2    O2  555   1.908   3.507  11.185  0.2846  0.0344 -0.6690
   35TMC2    O5  556   2.100   3.613  11.141  0.0346  0.2496 -0.0425
   35TMC2    H5  557   2.190   3.605  11.180  0.2980  1.0870 -0.4751
   36MPD2     C  558   2.683   3.846  11.905  0.1338 -0.6751 -0.0480
   36MPD2    C1  559   2.677   3.711  11.919 -0.0410  0.4036 -0.2311
   36MPD2    C2  560   2.602   3.640  11.830  0.1119  0.6152  0.4974
   36MPD2    C3  561   2.513   3.702  11.745  0.2038  0.3843 -0.4293
   36MPD2    C4  562   2.519   3.840  11.742 -0.6656 -0.2822  0.1148
   36MPD2    C5  563   2.604   3.911  11.818 -0.1458  0.1321  0.3208
   36MPD2     H  564   2.599   3.531  11.833 -0.1369  0.6180  0.3551
   36MPD2    H1  565   2.477   3.895  11.658 -3.3200 -3.7666 -0.8374
   36MPD2    H2  566   2.756   3.903  11.962 -0.8191  2.0830 -1.5676
   36MPD2    H3  567   2.618   4.014  11.789 -0.8230  0.7865  2.3500
   36MPD2     N  568   2.411   3.627  11.678 -0.3438  0.2706  0.3029
   36MPD2    H5  569   2.414   3.526  11.689  0.9020  0.2965  0.1794
   36MPD2    N1  570   2.776   3.651  12.000 -0.3333  0.2565  0.2703
   36MPD2    H7  571   2.838   3.713  12.051 -0.8801  0.0917  1.1284
   37TMC2    C1  572   4.501   3.597  12.381 -0.0900 -0.2395  0.2290
   37TMC2    C2  573   4.363   3.587  12.364 -0.2442 -0.9108 -0.1741
   37TMC2    C3  574   4.316   3.609  12.245 -0.1279  0.7307 -0.3827
   37TMC2    C4  575   4.584   3.615  12.274  0.0110  0.0365 -0.2935
   37TMC2    C5  576   4.522   3.637  12.151  1.0363 -0.3017  0.2538
   37TMC2    C6  577   4.386   3.640  12.133 -0.6679 -0.3964 -0.2090
   37TMC2     C  578   4.557   3.571  12.512 -0.1299 -0.4160 -0.4401
   37TMC2     O  579   4.470   3.545  12.598 -0.0555  0.0245 -0.5805
   37TMC2     H  580   4.292   3.550  12.437 -1.0521  2.4855  0.7695
   37TMC2    H1  581   4.685   3.650  12.293 -0.2522  1.4350 -1.4356
   37TMC2    H2  582   4.341   3.681  12.044  1.1551 -1.4198 -1.5983
   37TMC2    C7  583   4.607   3.662  12.047 -0.7241 -0.8019 -0.2009
   37TMC2    C8  584   4.171   3.621  12.232 -0.4940 -0.8310  0.2326
   37TMC2    O1  585   4.728   3.670  12.073 -0.5999  0.4859  0.1687
   37TMC2    O2  586   4.103   3.654  12.328 -0.0740 -0.0319  0.1509
   37TMC2    O5  587   4.131   3.550  12.128 -0.0030 -0.5618 -0.1765
   37TMC2    H5  588   4.209   3.507  12.085  0.6221  1.3881 -1.0169
   38MPD2     C  589   0.171   3.571  12.877 -0.6503 -0.8793 -0.1322
   38MPD2    C1  590   0.226   3.610  12.758 -0.2641  0.2334  0.2612
   38MPD2    C2  591   0.154   3.617  12.644 -0.1681 -0.4405  0.2958
   38MPD2    C3  592   0.026   3.570  12.645  0.3663 -0.5170 -0.1873
   38MPD2    C4  593   4.713   3.517  12.763 -0.3641 -0.0525 -0.2178
   38MPD2    C5  594   0.046   3.520  12.877  0.8287 -0.3910 -0.3696
   38MPD2     H  595   0.196   3.644  12.548  0.3479 -1.2270  0.2946
   38MPD2    H1  596   4.611   3.482  12.773 -0.2988 -0.0784  0.3867
   38MPD2    H2  597   0.222   3.580  12.972  0.3721 -0.1533 -0.7474
   38MPD2    H3  598   4.732   3.492  12.969  0.1307 -1.3182 -1.0278
   38MPD2     N  599   4.689   3.582  12.523  0.4679  0.5623  1.2180
   38MPD2    H5  600   0.014   3.602  12.445  0.3754 -1.6827  0.5613
   38MPD2    N1  601   0.358   3.652  12.749 -0.1122 -0.4769 -0.5036
   38MPD2    H7  602   0.392   3.659  12.654  1.7911 -0.2640  0.1850
   39TMC2    C1  603   2.583   1.333   1.089 -0.0660 -0.1731 -0.5492
   39TMC2    C2  604   2.565   1.290   1.214  0.4706 -0.3103  0.4309
   39TMC2    C3  605   2.667   1.273   1.297 -0.5005 -0.0570 -0.4937
   39TMC2    C4  606   2.707   1.358   1.036 -0.1024 -0.8493  0.1908
   39TMC2    C5  607   2.806   1.336   1.130 -0.3124 -0.0012  0.0301
   39TMC2    C6  608   2.796   1.292   1.261  0.0692 -0.0463 -0.4672
   39TMC2     C  609   2.480   1.297   0.992  0.8243  0.0727 -0.3866
   39TMC2     O  610   2.464   1.366   0.890  0.7754 -0.3137 -0.2592
   39TMC2     H  611   2.468   1.278   1.260  0.0097  0.0408 -0.4524
   39TMC2    H1  612   2.725   1.392   0.935  0.3616 -0.9579  0.2391
   39TMC2    H2  613   2.878   1.261   1.325  0.4743 -0.4925 -1.1998
   39TMC2    C7  614   2.944   1.329   1.087  0.1192 -0.2714  0.3278
   39TMC2    C8  615   2.636   1.246   1.433  0.1810 -0.4080 -0.5179
   39TMC2    O1  616   3.019   1.262   1.156  0.1342 -0.2984  0.2306
   39TMC2    O2  617   2.525   1.229   1.475  0.1961 -0.1611  0.6482
   39TMC2    O5  618   2.723   1.321   1.495 -0.1325  0.1926  0.4788
   39TMC2    H5  619   2.774   1.377   1.432  1.0608 -0.5243  0.7958
   40MPD2     C  620   2.304   0.981   0.969 -0.3326  0.2572  0.4640
   40MPD2    C1  621   2.322   1.115   0.953 -0.1663 -0.1266  0.7285
   40MPD2    C2  622   2.225   1.174   0.873 -0.0751  0.1451 -0.2119
   40MPD2    C3  623   2.119   1.106   0.819 -0.6155  0.6659  0.0935
   40MPD2    C4  624   2.116   0.974   0.835  0.6609  0.4216 -0.1734
   40MPD2    C5  625   2.213   0.906   0.895  0.4347  0.5531 -0.1836
   40MPD2     H  626   2.236   1.282   0.867  0.2068  0.0609 -1.1085
   40MPD2    H1  627   2.036   0.926   0.780  0.7433 -0.4952  0.4976
   40MPD2    H2  628   2.378   0.936   1.033 -1.3297  0.5087  1.8081
   40MPD2    H3  629   2.199   0.798   0.895  0.1812  0.5937  1.2309
   40MPD2     N  630   2.015   1.160   0.741  0.0333 -0.4991 -0.3494
   40MPD2    H5  631   1.942   1.095   0.715 -2.0614  2.5993 -2.1875
   40MPD2    N1  632   2.427   1.176   1.026 -0.7059 -0.8884  0.4914
   40MPD2    H7  633   2.477   1.122   1.096  0.9945 -3.0125 -2.3648
   41TMC2    C1  634   1.736   4.157  13.406 -0.1673  0.1995 -0.0107
   41TMC2    C2  635   1.637   4.213  13.476 -0.4663 -0.5195 -0.1179
   41TMC2    C3  636   1.543   4.279  13.405  0.0547  0.3980 -0.2602
   41TMC2    C4  637   1.736   4.153  13.267 -0.0613  0.4349 -0.0984
   41TMC2    C5  638   1.641   4.219  13.195 -0.4375 -0.6387  0.1479
   41TMC2    C6  639   1.550   4.290  13.265 -0.3983 -0.5981 -0.0178
   41TMC2     C  640   1.827   4.062  13.476  0.4753 -0.5678 -0.2640
   41TMC2     O  641   1.886   3.988  13.404  0.1889  0.3434 -0.0830
   41TMC2     H  642   1.639   4.210  13.585  1.3680  1.3181 -0.0998
   41TMC2    H1  643   1.817   4.102  13.215 -0.7187  0.7080 -1.3815
   41TMC2    H2  644   1.485   4.348  13.201 -4.2941 -2.4747  2.2363
   41TMC2    C7  645   1.642   4.210  13.052 -0.1131  0.4579  0.7363
   41TMC2    C8  646   1.492   4.396  13.477 -1.1262 -0.5890 -0.1787
   41TMC2    O1  647   1.567   4.285  12.991 -0.0296  0.1314  0.1569
   41TMC2    O2  648   1.530   4.428  13.587 -0.3937  0.8552  0.0350
   41TMC2    O5  649   1.424   4.469  13.376 -0.1288  0.2848  0.4612
   41TMC2    H5  650   1.366   4.411  13.321 -1.1077 -0.5489  2.3581
   42MPD2     C  651   1.956   3.847  13.644 -0.4496  0.1710 -0.0313
   42MPD2    C1  652   1.905   3.966  13.689  0.2678 -0.3782  0.3268
   42MPD2    C2  653   1.921   3.997  13.822 -0.1881  0.5847  0.4947
   42MPD2    C3  654   1.978   3.913  13.913  0.3418 -0.6137 -0.2997
   42MPD2    C4  655   2.029   3.796  13.868 -0.2441 -0.5157  0.1189
   42MPD2    C5  656   2.028   3.771  13.735  1.1630  0.0775  0.0062
   42MPD2     H  657   1.866   4.082  13.860 -2.0979 -0.8669  0.9342
   42MPD2    H1  658   2.081   3.723  13.929  2.2436 -0.0228 -1.4220
   42MPD2    H2  659   1.936   3.797  13.550  2.7161  0.8859 -1.0780
   42MPD2    H3  660   2.070   3.674  13.712 -0.4553 -0.6918  0.2702
   42MPD2     N  661   1.978   3.932  14.056 -0.1414 -0.5549 -0.1180
   42MPD2    H5  662   2.014   3.855  14.112 -3.6600 -2.6525 -0.8036
   42MPD2    N1  663   1.839   4.067  13.613  0.1941  0.2006  0.2339
   42MPD2    H7  664   1.810   4.148  13.668  0.9686 -0.5816  1.8060
   43TMC2    C1  665   2.857   2.781   0.440  0.2398 -0.3432  0.8038
   43TMC2    C2  666   2.733   2.782   0.497  1.1591  0.3545 -0.1426
   43TMC2    C3  667   2.723   2.884   0.588 -0.4327 -0.7029 -0.7709
   43TMC2    C4  668   2.958   2.869   0.465  0.3771 -0.0015 -0.0229
   43TMC2    C5  669   2.927   2.973   0.551  0.0572 -0.0035 -0.6208
   43TMC2    C6  670   2.809   2.988   0.612  0.3459 -0.2556 -1.3961
   43TMC2     C  671   2.897   2.675   0.345  0.8559  0.3109  0.3157
   43TMC2     O  672   3.012   2.644   0.338 -0.5838  0.1930 -0.7354
   43TMC2     H  673   2.666   2.700   0.473  0.9097  0.6309 -0.3834
   43TMC2    H1  674   3.057   2.861   0.420  0.2426  0.6032 -0.4203
   43TMC2    H2  675   2.782   3.070   0.677 -0.5966 -2.4159  0.9077
   43TMC2    C7  676   3.010   3.089   0.543  0.2976  0.5148  0.4311
   43TMC2    C8  677   2.593   2.909   0.660  0.1756  0.0943  0.3210
   43TMC2    O1  678   3.076   3.106   0.438 -0.5503 -0.5161  0.3029
   43TMC2    O2  679   2.581   2.971   0.764 -0.6528 -0.3494  0.6187
   43TMC2    O5  680   2.493   2.850   0.590  0.2627 -0.1233  0.1190
   43TMC2    H5  681   2.522   2.788   0.519  0.7951 -0.8895  0.9960
   44MPD2     C  682   2.800   2.334  17.719  0.1213 -0.3689 -0.3613
   44MPD2    C1  683   2.900   2.345   0.067  0.5019  0.0624 -0.0880
   44MPD2    C2  684   2.893   2.443   0.163 -0.3735  0.0696 -0.5605
   44MPD2    C3  685   2.792   2.531   0.173  0.2953  0.2029 -0.4883
   44MPD2    C4  686   2.683   2.517   0.096 -0.3590 -0.5665  0.6784
   44MPD2    C5  687   2.682   2.413  17.746 -0.4514 -0.0869 -0.0424
   44MPD2     H  688   2.988   2.449   0.216 -0.6666  2.7492 -0.3239
   44MPD2    H1  689   2.591   2.575   0.103 -0.4933 -0.4556 -1.8298
   44MPD2    H2  690   2.812   2.261  17.639  0.2955  0.8267 -1.4246
   44MPD2    H3  691   2.592   2.398  17.687 -1.1144  0.6099  0.7916
   44MPD2     N  692   2.792   2.636   0.263  0.1765 -0.0616  0.8230
   44MPD2    H5  693   2.706   2.688   0.265 -0.0885 -0.4326 -0.8687
   44MPD2    N1  694   3.017   2.263   0.063 -0.0004  0.1207 -0.6579
   44MPD2    H7  695   3.080   2.271   0.143 -0.8844  1.0339 -0.0535
   45TMC2    C1  696   4.337   2.855   9.510 -0.0146  0.9366 -0.7773
   45TMC2    C2  697   4.447   2.803   9.571 -0.4137  0.4461 -0.0044
   45TMC2    C3  698   4.529   2.891   9.646  0.8406 -0.0265  0.2025
   45TMC2    C4  699   4.307   2.990   9.506  0.3672 -0.0072 -0.4803
   45TMC2    C5  700   4.386   3.064   9.588  0.3571  0.0577 -0.1553
   45TMC2    C6  701   4.502   3.024   9.652 -0.3746  0.1957  0.3330
   45TMC2     C  702   4.240   2.757   9.448 -0.1679 -0.6154  0.6193
   45TMC2     O  703   4.268   2.638   9.458 -0.2256  0.0883  0.2085
   45TMC2     H  704   4.465   2.696   9.574 -1.0788  0.3489  0.5091
   45TMC2    H1  705   4.219   3.027   9.455 -0.3500  2.2459  2.4112
   45TMC2    H2  706   4.567   3.093   9.705  0.4538  0.3844 -0.9138
   45TMC2    C7  707   4.365   3.211   9.592 -0.3857 -0.4228  0.5312
   45TMC2    C8  708   4.647   2.834   9.712 -0.1153  0.5478 -0.2015
   45TMC2    O1  709   4.277   3.259   9.517 -0.2396 -0.1217 -0.4588
   45TMC2    O2  710   4.707   2.741   9.668 -0.1408  0.0156  0.5684
   45TMC2    O5  711   4.660   2.891   9.832 -0.6621  0.5982 -0.4670
   45TMC2    H5  712   4.577   2.930   9.867 -0.9049 -0.7793  0.4949
   46MPD2     C  713   3.999   2.616   9.356 -0.4143 -0.0253 -0.5709
   46MPD2    C1  714   4.018   2.752   9.348 -0.5651  0.3521  0.8551
   46MPD2    C2  715   3.913   2.829   9.301  0.1017 -0.0737  0.1404
   46MPD2    C3  716   3.789   2.780   9.280 -0.3985 -1.0646  0.1246
   46MPD2    C4  717   3.771   2.647   9.298  0.5803 -0.1202  0.3963
   46MPD2    C5  718   3.870   2.562   9.326 -0.1114  0.7952 -0.6829
   46MPD2     H  719   3.938   2.934   9.288  0.8989 -0.3550 -0.5571
   46MPD2    H1  720   3.678   2.603   9.263  0.2596  1.4604 -0.7677
   46MPD2    H2  721   4.072   2.541   9.384 -2.5023 -1.3805  1.3254
   46MPD2    H3  722   3.844   2.457   9.325  2.1740  0.2336 -1.6954
   46MPD2     N  723   3.681   2.867   9.252 -0.0033 -0.3353  0.6137
   46MPD2    H5  724   3.706   2.964   9.265 -1.8860  0.4340 -1.5868
   46MPD2    N1  725   4.140   2.818   9.375  1.1428 -0.6717 -0.1275
   46MPD2    H7  726   4.147   2.917   9.355  0.9567 -0.6635 -0.1524
   47TMC2    C1  727   1.521   3.910   9.649  0.6731 -0.3794 -0.3868
   47TMC2    C2  728   1.493   3.785   9.612 -0.5754 -0.0619  0.5014
   47TMC2    C3  729   1.363   3.772   9.563  0.2530 -0.1099 -0.6447
   47TMC2    C4  730   1.455   4.026   9.610  0.0607  0.1914  0.3154
   47TMC2    C5  731   1.337   4.000   9.547  0.1758  0.0131 -0.0491
   47TMC2    C6  732   1.289   3.877   9.522  0.2320 -0.9831  0.7349
   47TMC2     C  733   1.647   3.930   9.730  0.4475 -0.3167 -0.3838
   47TMC2     O  734   1.660   4.042   9.781  0.1319 -0.0385  0.5318
   47TMC2     H  735   1.540   3.692   9.643  1.2186  1.3731  2.0775
   47TMC2    H1  736   1.498   4.123   9.633  3.1541 -1.5853  2.1303
   47TMC2    H2  737   1.192   3.864   9.475  0.0019  3.1030  0.1252
   47TMC2    C7  738   1.240   4.110   9.525 -0.1911 -0.1060 -0.1784
   47TMC2    C8  739   1.327   3.639   9.528  0.2172  0.1039  0.4018
   47TMC2    O1  740   1.123   4.084   9.498  0.2703 -0.1666 -0.0238
   47TMC2    O2  741   1.387   3.590   9.435 -0.0227 -0.8922 -0.1739
   47TMC2    O5  742   1.190   3.637   9.548  0.1266  0.5336 -0.9180
   47TMC2    H5  743   1.173   3.693   9.627 -0.5076 -0.6116 -0.2554
   48MPD2     C  744   1.919   3.917   9.853  0.1235 -0.5745  0.4815
   48MPD2    C1  745   1.880   3.830   9.757 -0.3954 -0.2282 -0.5791
   48MPD2    C2  746   1.953   3.718   9.723 -0.0852  0.2058 -0.4554
   48MPD2    C3  747   2.083   3.710   9.769 -0.0727  0.1667 -0.3915
   48MPD2    C4  748   2.130   3.800   9.862 -0.2755 -0.1141 -0.3844
   48MPD2    C5  749   2.046   3.898   9.906  0.5906  0.4234  0.4445
   48MPD2     H  750   1.908   3.644   9.659  2.0048 -0.3008 -1.3335
   48MPD2    H1  751   2.219   3.784   9.921  0.9147  2.2538 -1.5456
   48MPD2    H2  752   1.853   3.993   9.895 -0.4695 -0.0521 -1.3953
   48MPD2    H3  753   2.079   3.957   9.991  0.9241 -1.1053  1.3619
   48MPD2     N  754   2.148   3.586   9.742 -0.5431  0.4109  0.2838
   48MPD2    H5  755   2.094   3.522   9.685 -0.0863 -0.2275  0.5687
   48MPD2    N1  756   1.746   3.828   9.709  0.2827  0.2928 -0.2169
   48MPD2    H7  757   1.720   3.753   9.645  0.2495  0.3863 -0.3135
   49TMC2    C1  758   4.342   1.395   9.879 -0.1602  0.8368 -0.2218
   49TMC2    C2  759   4.323   1.412   9.752 -0.5886  0.2223  0.3014
   49TMC2    C3  760   4.274   1.306   9.682 -0.2456 -0.0750 -0.2361
   49TMC2    C4  761   4.334   1.273   9.942 -0.3719  0.1948 -0.7139
   49TMC2    C5  762   4.275   1.168   9.868  0.1268 -0.3081  0.3063
   49TMC2    C6  763   4.253   1.179   9.731 -0.0297 -0.0835 -0.0492
   49TMC2     C  764   4.395   1.506   9.948  0.4311  0.0050 -0.3588
   49TMC2     O  765   4.450   1.596   9.880 -0.6495  0.2192 -0.1178
   49TMC2     H  766   4.341   1.507   9.704  1.2677 -0.2575  0.0355
   49TMC2    H1  767   4.365   1.263  10.045  1.3025 -0.0178 -1.2381
   49TMC2    H2  768   4.215   1.094   9.675  2.1868 -0.6862 -0.6345
   49TMC2    C7  769   4.235   1.042   9.918  0.2769 -0.0222  0.2476
   49TMC2    C8  770   4.281   1.314   9.534 -0.3403  0.5941 -0.9663
   49TMC2    O1  771   4.167   0.965   9.860  0.3286  0.1340 -0.2319
   49TMC2    O2  772   4.358   1.372   9.464 -1.0853 -0.3534  0.5174
   49TMC2    O5  773   4.166   1.258   9.494 -0.3074  0.0564  0.1379
   49TMC2    H5  774   4.102   1.230   9.564 -2.2638  1.5170 -1.0716
   50MPD2     C  775   4.537   1.687  10.146 -0.2242 -0.2315 -0.0752
   50MPD2    C1  776   4.449   1.587  10.182 -0.0882  0.3479 -0.2672
   50MPD2    C2  777   4.431   1.570  10.316 -0.5201  0.0278  0.1526
   50MPD2    C3  778   4.489   1.643  10.416 -0.5646 -0.4715  0.4451
   50MPD2    C4  779   4.567   1.752  10.378 -0.1401  0.0871 -0.3250
   50MPD2    C5  780   4.591   1.770  10.245 -0.1945  0.0182  0.4573
   50MPD2     H  781   4.366   1.484  10.330 -1.8087  1.1988  1.3529
   50MPD2    H1  782   4.619   1.806  10.456  1.0103 -0.2361 -0.8798
   50MPD2    H2  783   4.549   1.724  10.044 -1.3467 -1.5380 -0.6809
   50MPD2    H3  784   4.648   1.859  10.225 -0.0441 -0.2085 -0.1140
   50MPD2     N  785   4.483   1.608  10.551  0.5902 -0.5201 -0.5526
   50MPD2    H5  786   4.545   1.657  10.614  0.9181 -2.4995  0.6781
   50MPD2    N1  787   4.379   1.499  10.083 -0.3897  0.5834 -0.4164
   50MPD2    H7  788   4.312   1.431  10.118 -0.8664  0.2677 -1.9477
   51TMC2    C1  789   1.836   0.735   1.566 -0.0341 -0.3191 -0.0689
   51TMC2    C2  790   1.968   0.729   1.595  0.3051 -0.4795  0.3162
   51TMC2    C3  791   2.028   0.850   1.627  0.3403 -0.6118 -0.6954
   51TMC2    C4  792   1.767   0.851   1.570  0.1406 -0.4903  0.4682
   51TMC2    C5  793   1.832   0.967   1.601 -0.1303  0.0541 -0.4582
   51TMC2    C6  794   1.963   0.968   1.634  0.4246 -0.5876  0.0311
   51TMC2     C  795   1.761   0.627   1.513  0.6312 -0.3404  0.3431
   51TMC2     O  796   1.652   0.655   1.471  0.1045 -0.1663  0.2319
   51TMC2     H  797   2.035   0.644   1.604 -0.1116 -0.5096  2.9656
   51TMC2    H1  798   1.660   0.855   1.553  0.4469 -2.8668 -1.8571
   51TMC2    H2  799   2.002   1.057   1.683 -2.6360  0.6873  0.1798
   51TMC2    C7  800   1.751   1.091   1.602  0.8251 -0.1041  0.6489
   51TMC2    C8  801   2.164   0.846   1.667 -0.0628  0.7817  0.1963
   51TMC2    O1  802   1.630   1.077   1.613  0.4554  0.2617  0.5378
   51TMC2    O2  803   2.244   0.898   1.597  0.0561  0.4066  0.3945
   51TMC2    O5  804   2.152   0.857   1.796 -0.0615  0.1641  0.0554
   51TMC2    H5  805   2.070   0.819   1.834 -1.5965 -0.5432 -3.9861
   52MPD2     C  806   1.679   0.150   1.382 -0.0745  0.7118  0.8743
   52MPD2    C1  807   1.629   0.269   1.332 -0.6959  0.6359  0.3815
   52MPD2    C2  808   1.680   0.390   1.373 -0.1079 -0.8355  0.1038
   52MPD2    C3  809   1.777   0.394   1.472 -0.6356 -0.4378  0.2292
   52MPD2    C4  810   1.830   0.276   1.509  0.3871 -0.3058 -0.0416
   52MPD2    C5  811   1.783   0.153   1.464  0.0190 -0.0312 -0.1315
   52MPD2     H  812   1.642   0.478   1.322  2.5235  0.1821 -0.0983
   52MPD2    H1  813   1.906   0.262   1.585 -0.6148  1.2053  1.2447
   52MPD2    H2  814   1.664   0.051   1.340  2.0544  0.9540 -0.4757
   52MPD2    H3  815   1.833   0.066   1.505 -1.5290 -0.3577  1.0742
   52MPD2     N  816   1.831   0.513   1.533 -0.0641 -0.7405  0.1417
   52MPD2    H5  817   1.915   0.509   1.591  0.6436 -1.2601 -0.9335
   52MPD2    N1  818   1.517   0.277   1.250  1.0627 -0.5572  0.1472
   52MPD2    H7  819   1.490   0.365   1.208  0.4742 -1.3581 -1.1587
   53TMC2    C1  820   0.359   3.957  11.585  0.3133 -0.0045  0.2064
   53TMC2    C2  821   0.463   3.945  11.494  0.1722  0.1380  0.6151
   53TMC2    C3  822   0.582   3.926  11.546 -0.0216  0.2789  0.6393
   53TMC2    C4  823   0.380   3.986  11.714 -0.2614 -0.5110  0.2331
   53TMC2    C5  824   0.510   3.973  11.765 -0.1353 -0.5240 -0.4444
   53TMC2    C6  825   0.610   3.934  11.680 -0.3679  0.0102 -0.7214
   53TMC2     C  826   0.237   3.893  11.551  0.4488 -0.5038  0.1753
   53TMC2     O  827   0.208   3.877  11.437  0.5258  0.4599  0.4672
   53TMC2     H  828   0.447   3.911  11.393  0.7686  1.3797  0.1073
   53TMC2    H1  829   0.297   4.024  11.773  0.5983  0.8581  0.5367
   53TMC2    H2  830   0.709   3.904  11.711  0.1310  1.0421 -1.3286
   53TMC2    C7  831   0.517   3.978  11.909  0.0542 -0.6110  0.1832
   53TMC2    C8  832   0.685   3.934  11.451  0.1923  0.5020 -0.0566
   53TMC2    O1  833   0.416   3.949  11.967  0.7919 -0.0214  0.0741
   53TMC2    O2  834   0.792   3.876  11.462 -0.4343 -0.3169  0.0760
   53TMC2    O5  835   0.667   4.063  11.414  0.0227 -0.5997 -0.1728
   53TMC2    H5  836   0.572   4.081  11.398  0.3085  1.6570  0.5961
   54MPD2     C  837   4.699   3.771  11.551  0.2360 -0.3671 -0.0474
   54MPD2    C1  838   0.040   3.792  11.664  0.3766 -0.3530 -0.5348
   54MPD2    C2  839   0.001   3.738  11.782 -0.4044  0.5375 -0.5046
   54MPD2    C3  840   4.608   3.683  11.802 -0.5729 -0.3784  0.0756
   54MPD2    C4  841   4.528   3.668  11.690 -0.1607 -0.0726 -0.2523
   54MPD2    C5  842   4.575   3.714  11.570 -0.1814 -0.7307  1.2412
   54MPD2     H  843   0.078   3.727  11.857 -0.3444 -0.2272 -0.6745
   54MPD2    H1  844   4.438   3.609  11.685 -0.7215  0.8234 -0.7414
   54MPD2    H2  845   4.715   3.817  11.454 -0.2324 -1.2055 -0.5227
   54MPD2    H3  846   4.510   3.696  11.485  0.7115  1.4334  0.0999
   54MPD2     N  847   4.550   3.641  11.924 -0.0180  0.0548 -0.3908
   54MPD2    H5  848   4.453   3.611  11.918  0.7788 -2.8594  1.3702
   54MPD2    N1  849   0.163   3.846  11.663 -0.2488 -0.5361  0.1124
   54MPD2    H7  850   0.204   3.869  11.753  1.6612  0.2705 -0.9587
   55TMC2    C1  851   1.100   2.478  17.729 -0.3531 -0.8056 -0.1007
   55TMC2    C2  852   1.155   2.437  17.615 -0.2676 -0.8348  0.0087
   55TMC2    C3  853   1.184   2.307  17.600  0.0229 -0.4198 -0.1430
   55TMC2    C4  854   1.088   2.390   0.088 -0.3266 -0.1013  0.5962
   55TMC2    C5  855   1.123   2.260   0.076 -0.2305 -0.6779 -0.6719
   55TMC2    C6  856   1.167   2.219  17.698  0.8394 -0.0249  0.1254
   55TMC2     C  857   1.033   2.604  17.735 -0.4572 -0.3227 -0.9360
   55TMC2     O  858   0.931   2.616   0.061  0.1325 -0.6678 -0.2500
   55TMC2     H  859   1.159   2.503  17.529  1.0582  0.0897  0.7908
   55TMC2    H1  860   1.045   2.429   0.180  0.2216  0.5956  0.5637
   55TMC2    H2  861   1.173   2.112  17.680  2.0845  0.2239 -0.9299
   55TMC2    C7  862   1.116   2.176   0.192  0.0712 -0.4388  0.1707
   55TMC2    C8  863   1.216   2.253  17.472 -0.2715 -0.7143 -0.1867
   55TMC2    O1  864   1.169   2.067   0.172  0.4369  0.1422  0.4251
   55TMC2    O2  865   1.277   2.306  17.381  0.5915 -0.2479 -0.2030
   55TMC2    O5  866   1.108   2.180  17.448  0.8381 -0.3707  0.4642
   55TMC2    H5  867   1.057   2.146  17.525 -1.3366  2.9967  0.4824
   56MPD2     C  868   1.061   2.878  17.488 -1.1891  0.0953 -0.9560
   56MPD2    C1  869   1.033   2.823  17.610 -0.1787  0.0233 -0.5058
   56MPD2    C2  870   0.945   2.896  17.698 -0.3067 -0.5435 -0.1666
   56MPD2    C3  871   0.890   3.016  17.670 -0.1623 -0.3067 -0.0803
   56MPD2    C4  872   0.912   3.063  17.541 -0.5161  0.6972 -0.4482
   56MPD2    C5  873   1.008   2.999  17.461  0.5938 -0.0149 -0.3376
   56MPD2     H  874   0.930   2.860   0.051  2.4983  0.0783  0.4631
   56MPD2    H1  875   0.856   3.150  17.507  0.1260  1.1017 -0.4597
   56MPD2    H2  876   1.129   2.836  17.415 -1.3943  1.9170 -2.1833
   56MPD2    H3  877   1.023   3.048  17.366  1.9661 -0.6958 -0.4836
   56MPD2     N  878   0.808   3.077   0.015  0.1029 -0.0380 -0.4332
   56MPD2    H5  879   0.794   3.028   0.103  1.9114  0.2413  0.0208
   56MPD2    N1  880   1.086   2.692  17.641  0.1695  0.1200 -0.8795
   56MPD2    H7  881   1.164   2.663  17.584 -0.0137 -0.7725 -0.6747
   57TMC2    C1  882   0.338   2.185  13.111  0.7360  0.2109 -0.2263
   57TMC2    C2  883   0.310   2.110  12.996  0.7627  0.1474 -0.6015
   57TMC2    C3  884   0.412   2.107  12.901 -0.1362  0.0035 -0.7578
   57TMC2    C4  885   0.450   2.260  13.117 -0.2628 -0.7784 -0.3742
   57TMC2    C5  886   0.544   2.247  13.023  0.1701  0.0800  0.5044
   57TMC2    C6  887   0.539   2.165  12.916 -0.0593 -0.3234 -0.2810
   57TMC2     C  888   0.233   2.209  13.213 -0.7687 -0.1821  0.5845
   57TMC2     O  889   0.256   2.302  13.284  0.1767 -0.3338  0.1201
   57TMC2     H  890   0.219   2.054  12.977  0.3880  0.8202 -0.7799
   57TMC2    H1  891   0.467   2.335  13.194  2.1267 -0.1957 -1.4582
   57TMC2    H2  892   0.615   2.156  12.840 -0.7732 -0.1279 -1.0269
   57TMC2    C7  893   0.639   2.353  13.011 -0.4621 -0.1142  1.0960
   57TMC2    C8  894   0.371   2.083  12.768  0.1015 -0.2004  0.4552
   57TMC2    O1  895   0.608   2.466  13.047 -0.1747 -0.2158 -0.1168
   57TMC2    O2  896   0.461   2.057  12.686 -0.0575  0.4202  0.2018
   57TMC2    O5  897   0.301   2.193  12.745 -0.4288 -0.4283  0.5619
   57TMC2    H5  898   0.251   2.233  12.819 -3.1109 -1.5653 -0.6588
   58MPD2     C  899   4.468   2.243  13.299 -0.4453 -0.8402  0.0357
   58MPD2    C1  900   4.574   2.311  13.358 -0.5385 -0.1722 -0.3234
   58MPD2    C2  901   4.699   2.279  13.313 -0.4057 -0.3039  0.5040
   58MPD2    C3  902   4.723   2.168  13.236  0.2297  0.0106  0.0909
   58MPD2    C4  903   4.615   2.094  13.184  0.1861 -0.1437  0.2827
   58MPD2    C5  904   4.487   2.145  13.209  0.0848 -0.0491 -0.3833
   58MPD2     H  905   0.044   2.341  13.349 -1.0830 -0.2248  1.9511
   58MPD2    H1  906   4.618   1.999  13.132  3.5339  1.2915 -2.0580
   58MPD2    H2  907   4.369   2.284  13.315 -0.8239 -1.8773  0.4007
   58MPD2    H3  908   4.411   2.075  13.174  0.0828 -0.6079  0.7361
   58MPD2     N  909   0.119   2.135  13.194  0.3750  0.2748 -0.1981
   58MPD2    H5  910   0.133   2.058  13.128  0.0403  1.0283 -1.1391
   58MPD2    N1  911   4.567   2.423  13.442  0.7460  0.0852 -0.6178
   58MPD2    H7  912   4.658   2.467  13.455  0.4042  0.6449 -0.1030
   59TMC2    C1  913   3.156   2.437  12.698  0.2876 -0.1461 -0.1295
   59TMC2    C2  914   3.232   2.325  12.682  0.1101 -0.4901  0.6046
   59TMC2    C3  915   3.221   2.269  12.556 -0.5300  0.2348 -0.4901
   59TMC2    C4  916   3.088   2.493  12.596 -0.2368  0.7805  0.4665
   59TMC2    C5  917   3.090   2.438  12.470 -1.0555 -0.2146  0.1582
   59TMC2    C6  918   3.149   2.317  12.449 -1.0970 -0.3725 -0.0305
   59TMC2     C  919   3.095   2.458  12.831 -0.3013 -1.0617 -0.3055
   59TMC2     O  920   2.975   2.433  12.831 -0.2895  0.2976  0.1178
   59TMC2     H  921   3.273   2.267  12.764  3.0367  0.4729 -0.1919
   59TMC2    H1  922   3.020   2.576  12.615 -0.0365  0.8229  0.9942
   59TMC2    H2  923   3.159   2.266  12.354 -1.0360  0.6842 -0.5885
   59TMC2    C7  924   3.014   2.483  12.349 -0.0289 -0.1261 -0.0959
   59TMC2    C8  925   3.309   2.148  12.536  0.3542  0.1396  1.0815
   59TMC2    O1  926   3.020   2.410  12.253  0.1414 -0.2207  0.5628
   59TMC2    O2  927   3.394   2.104  12.611 -0.0455  0.1873  0.3971
   59TMC2    O5  928   3.248   2.075  12.442  0.7695  0.0601 -0.1894
   59TMC2    H5  929   3.160   2.100  12.406  0.6069 -1.8442 -1.1410
   60MPD2     C  930   3.035   2.534  13.120  0.0297 -1.0416 -0.0068
   60MPD2    C1  931   3.153   2.561  13.057 -1.0611  0.0194  0.3230
   60MPD2    C2  932   3.250   2.628  13.126 -0.2642 -0.2713  0.1973
   60MPD2    C3  933   3.241   2.670  13.253  0.1295 -0.5435 -0.3088
   60MPD2    C4  934   3.124   2.631  13.318 -0.4308 -0.6457 -0.1534
   60MPD2    C5  935   3.019   2.577  13.251  0.4848  0.6075 -0.5729
   60MPD2     H  936   3.342   2.646  13.071  0.8028 -2.9661  1.1250
   60MPD2    H1  937   3.101   2.655  13.421  0.1163  0.3855 -0.2805
   60MPD2    H2  938   2.956   2.476  13.074 -0.9940  0.2180  0.1798
   60MPD2    H3  939   2.922   2.556  13.295  0.3756  0.6712 -0.7829
   60MPD2     N  940   3.334   2.751  13.318  0.8196  0.0388  0.0038
   60MPD2    H5  941   3.303   2.809  13.396 -0.6481 -0.1499 -0.4371
   60MPD2    N1  942   3.180   2.509  12.926  0.3235  0.2448 -0.2039
   60MPD2    H7  943   3.279   2.517  12.904  0.3268 -1.1671 -0.6806
   61TMC2    C1  944   2.300   0.539  16.082 -0.7316 -0.8545 -0.0216
   61TMC2    C2  945   2.335   0.571  16.206 -0.2161  0.1539  0.0098
   61TMC2    C3  946   2.377   0.703  16.231 -0.3886  0.1659  0.0117
   61TMC2    C4  947   2.290   0.632  15.982 -0.2870  0.5934  0.4602
   61TMC2    C5  948   2.347   0.758  15.997 -0.8683 -0.2780 -0.1010
   61TMC2    C6  949   2.389   0.792  16.124 -0.1906  0.2621  0.2859
   61TMC2     C  950   2.220   0.424  16.063 -0.0376  0.3197  0.3711
   61TMC2     O  951   2.151   0.378  16.155 -0.7306 -0.0567 -0.0625
   61TMC2     H  952   2.343   0.492  16.280 -0.5482 -0.1439 -0.2767
   61TMC2    H1  953   2.267   0.607  15.879 -1.8356  2.7321  0.2749
   61TMC2    H2  954   2.435   0.888  16.146 -1.5802  1.2336 -1.0264
   61TMC2    C7  955   2.385   0.822  15.879  0.6795 -0.6569  0.0976
   61TMC2    C8  956   2.436   0.729  16.366 -0.2159 -0.0386 -0.1366
   61TMC2    O1  957   2.331   0.801  15.772 -0.3183  0.0458 -0.0488
   61TMC2    O2  958   2.470   0.643  16.443 -0.3719 -0.2688  0.2391
   61TMC2    O5  959   2.390   0.850  16.398 -0.0737  0.2508  0.4495
   61TMC2    H5  960   2.319   0.888  16.343 -1.1696 -0.9986  1.0289
   62MPD2     C  961   2.108   0.170  15.929 -0.1402 -0.2520  0.1085
   62MPD2    C1  962   2.217   0.244  15.885 -0.1539  1.0084 -0.4345
   62MPD2    C2  963   2.282   0.189  15.774  0.4230  0.5629  0.0700
   62MPD2    C3  964   2.252   0.063  15.716  0.8272 -0.1239  0.2174
   62MPD2    C4  965   2.152   4.725  15.773 -0.6442 -0.4275 -0.5771
   62MPD2    C5  966   2.081   0.042  15.878  0.4256 -0.2140  0.7108
   62MPD2     H  967   2.359   0.255  15.735 -1.8731  1.4841 -2.8640
   62MPD2    H1  968   2.131   4.624  15.741 -2.9166  0.6940 -2.5717
   62MPD2    H2  969   2.052   0.196  16.017  0.0594  0.0695  0.1386
   62MPD2    H3  970   2.000   4.725  15.926  1.4504 -1.6858  0.7563
   62MPD2     N  971   2.300   0.015  15.594  0.2296 -0.3119 -0.8292
   62MPD2    H5  972   2.250   4.673  15.555 -1.1349 -0.0471  0.3500
   62MPD2    N1  973   2.256   0.371  15.942  0.3033  0.0661 -0.2638
   62MPD2    H7  974   2.335   0.407  15.890  0.9008  0.4652  0.9034
   63TMC2    C1  975   1.737   4.215  10.391 -0.4494  0.3273 -0.0776
   63TMC2    C2  976   1.816   4.107  10.425  0.1401 -0.3810  0.1098
   63TMC2    C3  977   1.953   4.115  10.403  0.5318  0.0790 -0.3303
   63TMC2    C4  978   1.792   4.325  10.334 -0.2688 -0.2293  0.3844
   63TMC2    C5  979   1.928   4.332  10.315 -0.2685  0.2555  0.3438
   63TMC2    C6  980   2.007   4.224  10.339 -0.9162  0.0333 -0.6488
   63TMC2     C  981   1.603   4.229  10.430  0.1401  0.3540  0.2023
   63TMC2     O  982   1.533   4.312  10.369  0.4970 -0.6152  0.1506
   63TMC2     H  983   1.767   4.019  10.465  1.1574  0.2805  2.8088
   63TMC2    H1  984   1.730   4.412  10.316  0.6651  0.1082 -1.1103
   63TMC2    H2  985   2.114   4.231  10.322 -0.9267  0.1134 -0.6798
   63TMC2    C7  986   1.977   4.441  10.234  0.3567 -0.1539  0.2437
   63TMC2    C8  987   2.037   4.001  10.385  0.5934 -0.3902 -0.8675
   63TMC2    O1  988   1.886   4.497  10.167 -0.1248  0.3293  0.0169
   63TMC2    O2  989   2.130   3.986  10.461  0.0326 -0.3073  0.4936
   63TMC2    O5  990   2.023   3.956  10.255  0.2626  0.5559 -0.0403
   63TMC2    H5  991   1.934   3.992  10.236  0.1415  0.1594 -0.2232
   64MPD2     C  992   1.208   3.937  10.589  0.5451 -0.1384 -0.4363
   64MPD2    C1  993   1.323   3.904  10.654 -0.0968 -0.1054  0.3539
   64MPD2    C2  994   1.442   3.981  10.632 -0.3626 -0.3497  0.2676
   64MPD2    C3  995   1.436   4.089  10.555 -0.2664 -0.2818  0.7936
   64MPD2    C4  996   1.319   4.136  10.491 -0.4034 -0.8605 -0.1476
   64MPD2    C5  997   1.207   4.064  10.522 -0.7449  0.0985  0.1768
   64MPD2     H  998   1.539   3.943  10.662 -0.7063 -1.1515  0.3707
   64MPD2    H1  999   1.310   4.221  10.425  1.8425 -0.1211  0.4933
   64MPD2    H2 1000   1.120   3.874  10.583  1.0798 -0.7044 -2.4713
   64MPD2    H3 1001   1.121   4.085  10.459 -0.1893  2.4715  0.2094
   64MPD2     N 1002   1.566   4.130  10.520 -0.1342  0.8172 -0.5220
   64MPD2    H5 1003   1.644   4.097  10.576 -0.3248  0.5823 -0.3947
   64MPD2    N1 1004   1.348   3.785  10.732  0.9510 -0.4338  0.4054
   64MPD2    H7 1005   1.442   3.777  10.769  0.1307 -0.1439  2.5283
   65TMC2    C1 1006   3.101   4.095  15.280 -0.4535 -0.2778 -0.4126
   65TMC2    C2 1007   3.175   4.201  15.245 -0.1118 -0.4090 -0.6781
   65TMC2    C3 1008   3.117   4.327  15.242 -0.4937  0.3235  0.4615
   65TMC2    C4 1009   2.969   4.107  15.305  1.0334 -0.8582 -0.0781
   65TMC2    C5 1010   2.916   4.237  15.296  0.3156 -0.0438  0.3899
   65TMC2    C6 1011   2.983   4.351  15.270 -0.2550  0.3205  0.4175
   65TMC2     C 1012   3.175   3.965  15.278 -0.2176 -0.1631 -0.6881
   65TMC2     O 1013   3.287   3.967  15.230 -0.1853  0.0313  0.2962
   65TMC2     H 1014   3.279   4.190  15.214  0.1224 -2.0290  0.7031
   65TMC2    H1 1015   2.894   4.031  15.322 -0.4676  0.6034 -0.0554
   65TMC2    H2 1016   2.934   4.447  15.255 -2.8325 -1.4107 -2.0974
   65TMC2    C7 1017   2.782   4.248  15.346 -0.0087  0.1762  0.1718
   65TMC2    C8 1018   3.213   4.439  15.211  0.2372 -1.0047 -0.7244
   65TMC2    O1 1019   2.706   4.168  15.289 -0.4055  0.1493 -0.1317
   65TMC2    O2 1020   3.312   4.422  15.140  0.0082  0.4003  0.2572
   65TMC2    O5 1021   3.173   4.550  15.271  0.0755  0.2993  0.2015
   65TMC2    H5 1022   3.093   4.536  15.326 -0.8426 -1.0939 -1.5026
   66MPD2     C 1023   3.279   3.691  15.351  0.0894  0.1618 -0.0237
   66MPD2    C1 1024   3.142   3.726  15.355  1.0402  0.3245  0.5562
   66MPD2    C2 1025   3.049   3.627  15.378  0.8304 -0.5134  0.0948
   66MPD2    C3 1026   3.077   3.494  15.392  0.4958  0.7810 -0.0443
   66MPD2    C4 1027   3.214   3.461  15.385  0.3810 -0.0254  0.5082
   66MPD2    C5 1028   3.306   3.563  15.360  0.7941 -0.5143  0.1590
   66MPD2     H 1029   2.943   3.650  15.376  1.5777  2.8938 -0.6586
   66MPD2    H1 1030   3.258   3.363  15.399 -0.1295 -0.7306 -2.7550
   66MPD2    H2 1031   3.360   3.763  15.353  1.3703 -1.2378 -0.7669
   66MPD2    H3 1032   3.410   3.538  15.347  0.6738 -1.5913  1.3126
   66MPD2     N 1033   2.971   3.403  15.421  0.4061 -0.6098  0.2221
   66MPD2    H5 1034   2.879   3.445  15.408  0.6450 -0.0145  0.4728
   66MPD2    N1 1035   3.099   3.863  15.331 -0.1105 -0.3977  0.7942
   66MPD2    H7 1036   2.997   3.868  15.334 -0.2546 -1.7851 -2.2915
   67TMC2    C1 1037   3.363   3.175  14.587  0.0109  0.1194 -0.1883
   67TMC2    C2 1038   3.281   3.278  14.592  0.3492 -1.0860 -0.7631
   67TMC2    C3 1039   3.276   3.336  14.715  0.3233 -1.0214 -0.3414
   67TMC2    C4 1040   3.445   3.135  14.689 -0.4208 -0.0905  0.4054
   67TMC2    C5 1041   3.440   3.195  14.813  0.4556 -0.0286  0.2596
   67TMC2    C6 1042   3.355   3.300  14.827  0.3415 -0.1035  0.2174
   67TMC2     C 1043   3.356   3.084  14.472  0.3306 -0.2441 -0.0994
   67TMC2     O 1044   3.462   3.035  14.433 -0.3996  0.0313 -1.0289
   67TMC2     H 1045   3.214   3.298  14.509  1.1045 -0.4980 -1.2174
   67TMC2    H1 1046   3.515   3.055  14.667  0.3281  1.0137 -1.2270
   67TMC2    H2 1047   3.366   3.370  14.909  0.8394  0.3144 -0.2087
   67TMC2    C7 1048   3.523   3.156  14.920 -0.2802 -0.5534  0.1284
   67TMC2    C8 1049   3.230   3.474  14.711  0.2288 -0.9032  0.2381
   67TMC2    O1 1050   3.626   3.091  14.896  0.2346 -0.3905  0.2539
   67TMC2    O2 1051   3.209   3.526  14.825 -0.0008 -0.3521 -0.1394
   67TMC2    O5 1052   3.178   3.518  14.595  0.2495  0.2396 -0.2174
   67TMC2    H5 1053   3.214   3.482  14.511  3.2648 -0.6828  1.4537
   68MPD2     C 1054   3.267   3.017  14.206  0.2434 -0.0228 -0.2691
   68MPD2    C1 1055   3.184   3.013  14.310  0.2164 -0.5751  0.2973
   68MPD2    C2 1056   3.059   2.955  14.297  0.4737  0.2700  0.2301
   68MPD2    C3 1057   3.012   2.934  14.169 -0.9681  0.9566 -0.5727
   68MPD2    C4 1058   3.094   2.938  14.062  0.9437  0.0856 -0.6675
   68MPD2    C5 1059   3.223   2.969  14.082  0.0124  0.2204  0.1823
   68MPD2     H 1060   3.011   2.953  14.394  0.6588  2.2671  0.3719
   68MPD2    H1 1061   3.049   2.921  13.965  2.1229 -2.8430 -0.6788
   68MPD2    H2 1062   3.368   3.055  14.202  0.9263 -1.9032 -0.8489
   68MPD2    H3 1063   3.284   2.960  13.993 -1.9629 -1.6374 -0.9770
   68MPD2     N 1064   2.875   2.906  14.146  0.2241 -0.6474 -0.6285
   68MPD2    H5 1065   2.841   2.924  14.052  0.2599  1.6217 -0.1973
   68MPD2    N1 1066   3.228   3.055  14.442 -0.2139  0.0542 -0.4264
   68MPD2    H7 1067   3.163   3.063  14.520 -0.2972  0.4425 -0.5353
   69TMC2    C1 1068   0.605   4.396  12.523  0.0586 -0.4306  0.1218
   69TMC2    C2 1069   0.503   4.482  12.555  0.1859 -0.1303 -0.1663
   69TMC2    C3 1070   0.427   4.532  12.453  0.2044  0.2059 -0.5675
   69TMC2    C4 1071   0.644   4.372  12.389 -0.3187  0.2090  0.2555
   69TMC2    C5 1072   0.552   4.418  12.292  0.5364  0.1101 -0.3728
   69TMC2    C6 1073   0.447   4.498  12.322  0.0978 -0.1027 -0.6948
   69TMC2     C 1074   0.645   4.304  12.623  0.1601  0.6246  0.9194
   69TMC2     O 1075   0.570   4.315  12.715 -0.2468 -0.6317 -0.5855
   69TMC2     H 1076   0.476   4.501  12.658  0.8358 -1.2154  0.2023
   69TMC2    H1 1077   0.732   4.312  12.369 -1.1898 -2.0318  3.1782
   69TMC2    H2 1078   0.376   4.545  12.255 -2.0103 -0.9060  1.0029
   69TMC2    C7 1079   0.607   4.394  12.156  0.2809  0.4206 -0.2272
   69TMC2    C8 1080   0.332   4.633  12.481  0.7836  0.0520  0.3522
   69TMC2    O1 1081   0.727   4.383  12.143  0.2429  0.3811  0.4087
   69TMC2    O2 1082   0.301   4.661  12.596  0.5658 -0.7585 -1.0272
   69TMC2    O5 1083   0.337   4.725  12.381 -0.1873  0.0202  0.6296
   69TMC2    H5 1084   0.388   4.703  12.300 -1.6889 -1.1778  0.0022
   70MPD2     C 1085   0.949   4.082  12.670 -0.3238 -0.1608  0.1095
   70MPD2    C1 1086   0.827   4.137  12.700  0.1185  0.0377 -0.1231
   70MPD2    C2 1087   0.750   4.096  12.810 -0.1269  0.3627  0.0725
   70MPD2    C3 1088   0.802   4.008  12.902  0.7490  0.3390  0.5633
   70MPD2    C4 1089   0.922   3.953  12.868 -0.3260 -0.2345  0.1175
   70MPD2    C5 1090   1.000   3.996  12.762 -0.0950 -0.1808 -0.4223
   70MPD2     H 1091   0.650   4.136  12.824  0.4114  2.0133 -0.7216
   70MPD2    H1 1092   0.978   3.895  12.942  0.9013  0.7203 -0.0577
   70MPD2    H2 1093   1.015   4.113  12.590 -0.2890  1.5448  0.7935
   70MPD2    H3 1094   1.107   3.978  12.764 -0.0650  0.3124  1.9760
   70MPD2     N 1095   0.745   3.957  13.025  0.1155  0.0362 -0.0053
   70MPD2    H5 1096   0.807   3.909  13.089 -0.6401  0.3106  0.9244
   70MPD2    N1 1097   0.770   4.239  12.611 -0.0370 -0.1628 -0.1720
   70MPD2    H7 1098   0.830   4.271  12.536  1.3509  0.6199  1.2783
   71TMC2    C1 1099   2.383   0.475   0.208 -0.7763  0.1065  0.4094
   71TMC2    C2 1100   2.447   0.371   0.151 -0.1354 -0.0812 -0.0018
   71TMC2    C3 1101   2.572   0.347   0.185  0.6101 -0.1582 -0.0309
   71TMC2    C4 1102   2.435   0.544   0.312 -0.0985 -0.4145 -0.1566
   71TMC2    C5 1103   2.567   0.514   0.346  0.3072 -0.3738 -0.7203
   71TMC2    C6 1104   2.637   0.419   0.276 -0.2716 -0.4600 -0.1071
   71TMC2     C 1105   2.252   0.520   0.162  0.1926  0.3736 -0.2350
   71TMC2     O 1106   2.218   0.637   0.179 -0.2135 -0.2240  0.0175
   71TMC2     H 1107   2.405   0.314   0.070 -1.9774  0.5592  0.5050
   71TMC2    H1 1108   2.370   0.609   0.369  0.1630 -1.1180  0.9630
   71TMC2    H2 1109   2.734   0.387   0.310 -0.1684 -0.0333 -0.0026
   71TMC2    C7 1110   2.615   0.573   0.475  0.1604 -0.3535 -0.4771
   71TMC2    C8 1111   2.641   0.231   0.144 -0.1512 -0.1400  0.3215
   71TMC2    O1 1112   2.737   0.570   0.488 -0.2954 -0.0278  0.5208
   71TMC2    O2 1113   2.592   0.119   0.123  0.3195 -0.8163 -0.4996
   71TMC2    O5 1114   2.768   0.261   0.105 -0.5081  0.1278  0.2874
   71TMC2    H5 1115   2.777   0.358   0.096  0.2205 -0.0418 -0.8458
   72MPD2     C 1116   1.772   0.378   0.111  0.7508 -0.1316  0.7883
   72MPD2    C1 1117   1.832   0.504   0.090  0.3466 -0.5452  0.1323
   72MPD2    C2 1118   1.966   0.523   0.114  0.0135 -0.0772 -0.1016
   72MPD2    C3 1119   2.042   0.408   0.131  0.5398 -0.7246 -0.2333
   72MPD2    C4 1120   1.986   0.286   0.147  0.3227  0.5707 -0.6886
   72MPD2    C5 1121   1.849   0.271   0.141 -0.6772  0.4350  0.0455
   72MPD2     H 1122   2.005   0.619   0.082  0.3895 -0.8155 -1.8814
   72MPD2    H1 1123   2.032   0.188   0.157 -0.4965  0.4313  1.6726
   72MPD2    H2 1124   1.665   0.362   0.106  0.8481 -1.2356  2.3041
   72MPD2    H3 1125   1.797   0.176   0.143  0.6927 -0.3236 -0.6979
   72MPD2     N 1126   2.179   0.404   0.145  1.2576  0.9411  0.2640
   72MPD2    H5 1127   2.219   0.318   0.180  0.6938  0.8292  0.6402
   72MPD2    N1 1128   1.756   0.617   0.050  0.2155 -0.2348  1.0070
   72MPD2    H7 1129   1.815   0.699   0.044  0.3086 -0.2199  2.1009
   73TMC2    C1 1130   1.952   1.300  13.655 -0.0123  0.0467  0.4157
   73TMC2    C2 1131   1.886   1.283  13.775  0.0440 -0.1551 -0.3139
   73TMC2    C3 1132   1.941   1.208  13.869  0.0128 -0.4568 -1.0764
   73TMC2    C4 1133   2.068   1.237  13.636  0.2058 -0.6145  0.1366
   73TMC2    C5 1134   2.128   1.162  13.737 -0.4513 -0.0919 -0.2340
   73TMC2    C6 1135   2.061   1.157  13.857 -0.2295  0.1266  0.4145
   73TMC2     C 1136   1.947   1.428  13.588  0.1877  0.3297  0.0127
   73TMC2     O 1137   2.057   1.470  13.557 -0.4400 -0.1315 -0.0028
   73TMC2     H 1138   1.801   1.343  13.805 -0.3921 -1.4038  0.9224
   73TMC2    H1 1139   2.120   1.245  13.541  0.4857 -0.7318  0.2819
   73TMC2    H2 1140   2.099   1.094  13.936 -2.9306  0.1174  1.7101
   73TMC2    C7 1141   2.262   1.207  13.749  0.7549 -0.7071 -0.4418
   73TMC2    C8 1142   1.919   1.234  14.008 -0.4364 -0.9936 -0.1206
   73TMC2    O1 1143   2.344   1.140  13.810 -0.6802 -0.0054  0.0649
   73TMC2    O2 1144   2.020   1.276  14.064  0.6762  0.5584  0.6588
   73TMC2    O5 1145   1.800   1.290  14.025 -0.1819  0.2876  0.4512
   73TMC2    H5 1146   1.738   1.253  13.958  0.5839  0.1694 -0.1947
   74MPD2     C 1147   1.742   1.894  13.577 -0.2023  0.6394  0.5805
   74MPD2    C1 1148   1.873   1.854  13.560 -0.0240 -0.3134  0.8090
   74MPD2    C2 1149   1.898   1.714  13.559  0.6220  0.8601  0.9368
   74MPD2    C3 1150   1.797   1.618  13.583 -0.2047 -0.1203  0.4250
   74MPD2    C4 1151   1.670   1.666  13.595 -0.1247  0.7334 -0.2795
   74MPD2    C5 1152   1.648   1.799  13.592  0.5975 -0.8877  0.5075
   74MPD2     H 1153   1.999   1.675  13.553  1.1986  2.0506  2.6336
   74MPD2    H1 1154   1.590   1.594  13.606 -0.7967  2.0960  3.7589
   74MPD2    H2 1155   1.709   1.996  13.593 -1.2197  0.1773  1.4063
   74MPD2    H3 1156   1.544   1.823  13.612  0.9021  1.3237 -0.6430
   74MPD2     N 1157   1.823   1.482  13.595  0.6817 -0.1545 -0.6580
   74MPD2    H5 1158   1.749   1.416  13.615 -0.5493  1.7982  1.0834
   74MPD2    N1 1159   1.972   1.959  13.562 -0.7112 -0.5961 -0.6223
   74MPD2    H7 1160   1.953   2.058  13.550 -0.4782 -0.2942  1.4911
   75TMC2    C1 1161   2.648   2.861  14.173 -0.1037 -0.1037  0.2157
   75TMC2    C2 1162   2.547   2.883  14.264  0.2451 -0.6618  0.4391
   75TMC2    C3 1163   2.434   2.937  14.207  0.2392 -0.3934  0.0622
   75TMC2    C4 1164   2.635   2.871  14.036  0.1817 -0.2544 -0.1687
   75TMC2    C5 1165   2.518   2.920  13.985 -0.4407 -0.1567 -0.6620
   75TMC2    C6 1166   2.416   2.957  14.070 -0.6187  0.3437 -0.1958
   75TMC2     C 1167   2.781   2.860  14.235  0.0507 -0.3702  0.4875
   75TMC2     O 1168   2.799   2.821  14.351  0.5802 -0.1401 -0.7192
   75TMC2     H 1169   2.564   2.870  14.370  0.4048 -0.7354  0.4039
   75TMC2    H1 1170   2.715   2.834  13.974  0.0732 -0.5274 -0.1441
   75TMC2    H2 1171   2.325   3.002  14.032  0.5617  0.2463 -3.1589
   75TMC2    C7 1172   2.516   2.951  13.840  0.7580  0.0298 -0.7310
   75TMC2    C8 1173   2.329   2.978  14.295 -0.5687 -0.5942 -0.1203
   75TMC2    O1 1174   2.567   2.883  13.754 -0.0952 -0.6448  0.6700
   75TMC2    O2 1175   2.274   3.088  14.286 -0.2838 -0.2862  0.8361
   75TMC2    O5 1176   2.360   2.926  14.406 -0.0062 -0.3663  0.3227
   75TMC2    H5 1177   2.410   2.841  14.399  0.4930  0.0748 -1.3712
   76TMC2    C1 1178   1.307   3.195  11.800 -0.2026  0.2631  0.7218
   76TMC2    C2 1179   1.215   3.103  11.757  0.0606 -0.3835  0.4967
   76TMC2    C3 1180   1.259   2.978  11.749 -0.0609  0.3620 -0.1161
   76TMC2    C4 1181   1.413   3.162  11.881  0.5446 -0.1907  0.0630
   76TMC2    C5 1182   1.421   3.027  11.902  0.0232  0.0671  0.1921
   76TMC2    C6 1183   1.345   2.932  11.838 -0.2870  0.4887  0.2935
   76TMC2     C 1184   1.283   3.330  11.762  0.6819 -0.5739 -0.4332
   76TMC2     O 1185   1.174   3.344  11.714  0.1602  0.7944 -0.1075
   76TMC2     H 1186   1.126   3.136  11.704 -0.0163  1.1012  1.5736
   76TMC2    H1 1187   1.484   3.230  11.926  1.5709  0.2361 -2.1901
   76TMC2    H2 1188   1.369   2.830  11.865  0.3884  1.0226  1.7303
   76TMC2    C7 1189   1.537   2.965  11.968  0.1340  0.3098 -0.2050
   76TMC2    C8 1190   1.161   2.889  11.682 -0.4645  0.0197 -0.0041
   76TMC2    O1 1191   1.577   2.849  11.940  0.2455  0.5583  0.1732
   76TMC2    O2 1192   1.055   2.930  11.648  0.1659 -0.2129  0.4813
   76TMC2    O5 1193   1.173   2.763  11.726 -0.2903 -0.1067  0.2470
   76TMC2    H5 1194   1.265   2.729  11.731 -0.0106  0.7643  1.0506
   77MPD2     C 1195   1.450   3.790  11.652 -0.7503  0.0410  0.6067
   77MPD2    C1 1196   1.320   3.746  11.661 -0.9376 -0.0767 -0.6608
   77MPD2    C2 1197   1.296   3.620  11.711 -0.5131  0.5890 -0.7026
   77MPD2    C3 1198   1.400   3.539  11.750  0.1296 -0.0226  0.0200
   77MPD2    C4 1199   1.528   3.584  11.741  0.8992 -0.4587  0.2127
   77MPD2    C5 1200   1.551   3.714  11.697  0.3852  0.0930  0.8948
   77MPD2     H 1201   1.197   3.576  11.711  0.8773 -2.5208 -1.0301
   77MPD2    H1 1202   1.613   3.525  11.774 -1.2068 -3.0342  0.9917
   77MPD2    H2 1203   1.472   3.886  11.607 -1.7614 -0.1787 -0.3665
   77MPD2    H3 1204   1.651   3.755  11.700  1.1988 -1.7067 -2.0060
   77MPD2     N 1205   1.392   3.404  11.780 -0.3599 -0.1599  0.0968
   77MPD2    H5 1206   1.480   3.357  11.800  0.4673  0.4052 -2.1946
   77MPD2    N1 1207   1.208   3.832  11.631 -0.2580 -0.1660 -0.1691
   77MPD2    H7 1208   1.112   3.811  11.657  0.5263 -0.5996  2.4416
   78TMC2    C1 1209   2.109   4.427   0.550  0.1082 -0.3757  0.1269
   78TMC2    C2 1210   2.013   4.444   0.656  0.5209 -0.2428  0.6719
   78TMC2    C3 1211   2.040   4.525   0.767 -0.0707  0.3137  0.0579
   78TMC2    C4 1212   2.233   4.480   0.564 -0.5439 -0.5949 -0.3438
   78TMC2    C5 1213   2.262   4.550   0.682  0.3461  0.5439 -0.1573
   78TMC2    C6 1214   2.169   4.570   0.783 -0.3076  0.3592 -0.9764
   78TMC2     C 1215   2.073   4.357   0.430  0.0875  0.5708 -0.0853
   78TMC2     O 1216   2.148   4.386   0.339  0.0759 -0.7799 -0.5199
   78TMC2     H 1217   1.923   4.385   0.655  0.2324  0.1909  0.9004
   78TMC2    H1 1218   2.307   4.483   0.485  1.6769  3.0098  1.8323
   78TMC2    H2 1219   2.189   4.639   0.865 -1.3784 -0.6149  0.0918
   78TMC2    C7 1220   2.395   4.605   0.703 -0.6928 -0.4980 -0.5178
   78TMC2    C8 1221   1.944   4.550   0.872 -0.0875 -0.1023 -0.5403
   78TMC2    O1 1222   2.470   4.616   0.607 -0.2096  0.2346 -0.0509
   78TMC2    O2 1223   1.977   4.593   0.983 -0.1454 -0.3774  0.1435
   78TMC2    O5 1224   1.821   4.512   0.842 -0.1171  0.2250 -0.2404
   78TMC2    H5 1225   1.793   4.515   0.748 -1.0371  0.6867  0.0466
   79MPD1     C 1226   1.765   4.124   0.106  0.2190  0.5558  1.0376
   79MPD1    C1 1227   1.894   4.162   0.090 -0.0725 -0.0892  1.4021
   79MPD1    C2 1228   1.957   4.207   0.204  0.0471 -0.3476  0.2603
   79MPD1    C3 1229   1.895   4.222   0.325 -0.0577 -0.0167 -0.5214
   79MPD1    C4 1230   1.762   4.177   0.344 -0.0789 -0.3350  0.0842
   79MPD1    C5 1231   1.702   4.129   0.227 -0.3151 -0.7595  0.3495
   79MPD1     H 1232   2.061   4.238   0.205  0.3419 -1.3294  0.5210
   79MPD1    H1 1233   1.701   4.173   0.433 -3.4344  2.4663 -2.0699
   79MPD1    H2 1234   1.698   4.106   0.023  0.6242  0.8748  0.6394
   79MPD1    H3 1235   1.598   4.099   0.228 -0.2500 -0.9678  1.2524
   79MPD1     N 1236   1.956   4.280   0.435  0.0575 -0.7353 -0.2831
   79MPD1    H5 1237   1.917   4.267   0.528 -1.3188  0.5937 -0.6859
   79MPD1    N1 1238   1.964   4.136  17.717 -0.2667 -0.3010 -0.2591
   79MPD1    H6 1239   2.032   4.207  17.691  0.5933 -0.0449  2.7852
   79MPD1    H7 1240   1.903   4.127  17.635 -0.4907 -3.2065  0.2295
   80TMC2    C1 1241   0.497   3.578  11.817  0.0189 -0.1252  0.6572
   80TMC2    C2 1242   0.475   3.583  11.679 -0.0021 -0.0294 -0.0444
   80TMC2    C3 1243   0.359   3.535  11.631  0.6246  0.6315  0.0710
   80TMC2    C4 1244   0.397   3.541  11.909  0.5282 -0.1739  0.0926
   80TMC2    C5 1245   0.281   3.502  11.853 -0.9492 -0.1265  0.2593
   80TMC2    C6 1246   0.260   3.507  11.715 -0.1738 -0.1657  1.4432
   80TMC2     C 1247   0.628   3.624  11.859  0.1496 -0.6523  0.2083
   80TMC2     O 1248   0.702   3.673  11.778 -0.2477 -0.1092  0.1252
   80TMC2     H 1249   0.545   3.629  11.610 -0.8330  1.0118 -0.1952
   80TMC2    H1 1250   0.407   3.543  12.016  0.7303 -1.7697  0.0975
   80TMC2    H2 1251   0.160   3.491  11.677  0.1186  1.6461 -0.0620
   80TMC2    C7 1252   0.177   3.443  11.924  0.2076  0.4230 -0.1688
   80TMC2    C8 1253   0.330   3.550  11.491  0.0811 -0.3688 -0.4014
   80TMC2    O1 1254   0.088   3.384  11.859 -0.0606 -0.5295  0.0148
   80TMC2    O2 1255   0.377   3.650  11.436  0.3452  0.0826  0.5610
   80TMC2    O5 1256   0.237   3.461  11.440  0.1028  0.3284 -0.2327
   80TMC2    H5 1257   0.213   3.384  11.496  0.2267  1.0151  0.7634
   81MPD2     C 1258   0.889   3.662  11.999 -0.4161  0.2042  0.2392
   81MPD2    C1 1259   0.769   3.625  12.062  0.8359 -0.8445  1.1083
   81MPD2    C2 1260   0.761   3.613  12.199 -0.1206 -0.5615 -0.1270
   81MPD2    C3 1261   0.870   3.649  12.275 -0.1967 -0.6969  0.3354
   81MPD2    C4 1262   0.984   3.698  12.215 -0.5615 -0.7833  0.5496
   81MPD2    C5 1263   0.990   3.709  12.079 -0.7941  0.1827  0.2612
   81MPD2     H 1264   0.672   3.570  12.244 -0.5597 -0.3306 -0.7732
   81MPD2    H1 1265   1.066   3.747  12.268 -0.5864  1.2324 -1.2557
   81MPD2    H2 1266   0.906   3.663  11.891 -1.9651  0.0025 -0.0060
   81MPD2    H3 1267   1.085   3.738  12.036 -1.8337 -0.7718 -2.7061
   81MPD2     N 1268   0.857   3.661  12.418  0.0147 -0.1296 -0.0244
   81MPD2    H5 1269   0.941   3.694  12.463  0.8723 -0.5587 -1.3161
   81MPD2    N1 1270   0.648   3.604  11.990 -0.6886  0.2427 -0.2709
   81MPD2    H7 1271   0.568   3.572  12.044 -0.5719 -0.8986 -0.7755
   82TMC2    C1 1272   3.316   2.739  10.844 -0.2086  0.4029 -0.0467
   82TMC2    C2 1273   3.319   2.827  10.949  0.5472  0.3608 -0.6754
   82TMC2    C3 1274   3.310   2.773  11.073  0.1113 -0.1167 -0.0786
   82TMC2    C4 1275   3.311   2.608  10.859  0.0345  0.2488  0.7004
   82TMC2    C5 1276   3.318   2.551  10.987  0.1984  0.4539 -0.6374
   82TMC2    C6 1277   3.311   2.635  11.099 -0.1453  0.3850 -0.2364
   82TMC2     C 1278   3.289   2.790  10.713 -0.9310 -0.3992 -0.1722
   82TMC2     O 1279   3.229   2.721  10.631  0.1491 -0.3259  0.2005
   82TMC2     H 1280   3.300   2.933  10.937  0.0994  0.3294 -0.2165
   82TMC2    H1 1281   3.283   2.543  10.776  2.2812  1.2893 -0.8641
   82TMC2    H2 1282   3.292   2.591  11.196  2.2417  0.6381  0.3420
   82TMC2    C7 1283   3.290   2.406  11.009  0.5242 -0.3747 -0.2309
   82TMC2    C8 1284   3.295   2.864  11.182  0.5076 -0.0883 -0.5595
   82TMC2    O1 1285   3.274   2.371  11.123  0.3049 -0.2094 -0.4924
   82TMC2    O2 1286   3.270   2.981  11.167  0.1604  0.2495  0.6098
   82TMC2    O5 1287   3.307   2.803  11.302  0.0107 -0.0987 -0.6737
   82TMC2    H5 1288   3.340   2.711  11.301  3.0002  0.9519 -0.5605
   83MPD2     C 1289   3.302   3.156  10.367 -0.3139 -0.0768 -0.2181
   83MPD2    C1 1290   3.267   3.022  10.350 -0.5793  0.9863  0.1562
   83MPD2    C2 1291   3.291   2.934  10.454 -0.4342 -0.0627 -0.1707
   83MPD2    C3 1292   3.336   2.985  10.579  1.0856  0.2205 -0.0858
   83MPD2    C4 1293   3.364   3.117  10.598  0.6171 -0.1981  0.2506
   83MPD2    C5 1294   3.343   3.199  10.487  0.0655 -0.4717 -0.8513
   83MPD2     H 1295   3.260   2.830  10.443  0.2193 -0.1601 -1.0515
   83MPD2    H1 1296   3.405   3.156  10.690 -1.0656  2.0191  0.0498
   83MPD2    H2 1297   3.278   3.229  10.291 -2.3172 -1.5576 -1.0145
   83MPD2    H3 1298   3.372   3.302  10.506  0.0409 -0.8187  1.0904
   83MPD2     N 1299   3.351   2.910  10.691  0.2504 -0.2149  0.0428
   83MPD2    H5 1300   3.395   2.957  10.770 -0.6802  0.3229  0.2325
   83MPD2    N1 1301   3.196   2.994  10.234 -0.0335  0.0699 -1.0285
   83MPD2    H7 1302   3.174   3.073  10.175  2.2203  0.7079 -1.0083
   84TMC2    C1 1303   4.426   1.575  10.960 -0.4327 -0.7570  0.0332
   84TMC2    C2 1304   4.357   1.466  11.012 -0.3988 -0.5131  0.1660
   84TMC2    C3 1305   4.313   1.373  10.927 -0.6007 -0.0892 -0.4537
   84TMC2    C4 1306   4.467   1.587  10.829  0.2880  0.2770 -0.3591
   84TMC2    C5 1307   4.415   1.486  10.749  0.2292  0.1370  0.3898
   84TMC2    C6 1308   4.339   1.383  10.793  0.5152  1.1013 -0.1021
   84TMC2     C 1309   4.499   1.656  11.063 -0.1472 -0.1096 -0.0671
   84TMC2     O 1310   4.458   1.648  11.178 -0.1521 -0.6141 -0.0188
   84TMC2     H 1311   4.321   1.464  11.114 -1.5203 -1.5796 -0.2410
   84TMC2    H1 1312   4.531   1.657  10.776  0.3532  0.2581 -0.3053
   84TMC2    H2 1313   4.319   1.302  10.725  0.2646  0.9054  0.2083
   84TMC2    C7 1314   4.402   1.503  10.603  0.5550  0.0644  0.3161
   84TMC2    C8 1315   4.228   1.266  10.975  0.3639  0.2195  0.1474
   84TMC2    O1 1316   4.317   1.429  10.549  0.4529 -0.3082 -0.5556
   84TMC2    O2 1317   4.250   1.219  11.088  0.3523  0.7504 -0.6336
   84TMC2    O5 1318   4.177   1.200  10.874 -0.6786 -0.2048  0.6435
   84TMC2    H5 1319   4.158   1.263  10.801  1.7071  1.4312  1.4446
   85TMC2    C1 1320   0.399   0.073  16.528  1.2319  0.7933  0.7271
   85TMC2    C2 1321   0.289   0.108  16.598  0.3178 -0.7361  0.3309
   85TMC2    C3 1322   0.292   0.209  16.685  0.4483 -0.3833  0.5653
   85TMC2    C4 1323   0.519   0.135  16.551  0.0095  0.5379 -0.2998
   85TMC2    C5 1324   0.520   0.235  16.645 -0.5524 -0.1460  0.1622
   85TMC2    C6 1325   0.407   0.285  16.704  0.0639  0.5154  0.2394
   85TMC2     C 1326   0.380   4.730  16.414  0.3732 -0.0905 -0.1634
   85TMC2     O 1327   0.276   4.672  16.398 -0.1621  0.2970  0.4802
   85TMC2     H 1328   0.192   0.060  16.593 -0.7481  1.3002  1.2543
   85TMC2    H1 1329   0.611   0.095  16.509 -0.9439 -2.0655  0.0684
   85TMC2    H2 1330   0.412   0.369  16.772 -1.6520  0.2129  0.7372
   85TMC2    C7 1331   0.625   0.331  16.629 -0.5175 -0.4680  0.1127
   85TMC2    C8 1332   0.173   0.222  16.767  0.3573 -0.2748  0.8922
   85TMC2    O1 1333   0.595   0.453  16.638 -0.7144  0.2443 -0.1380
   85TMC2    O2 1334   0.064   0.182  16.728  0.1606 -0.2007  0.3322
   85TMC2    O5 1335   0.218   0.202  16.895  0.2750  0.1632 -0.4036
   85TMC2    H5 1336   0.307   0.235  16.919  0.0764 -0.6192  1.3954
   86MPD2     C 1337   0.524   4.561  15.950 -0.7980 -0.0997 -0.0749
   86MPD2    C1 1338   0.421   4.514  16.035 -0.2834 -0.0570  0.0416
   86MPD2    C2 1339   0.390   4.586  16.149 -0.0583  0.0344 -0.5750
   86MPD2    C3 1340   0.472   4.696  16.188 -0.7853  0.5161  0.2714
   86MPD2    C4 1341   0.581   4.725  16.108  0.0951  0.0650 -0.1280
   86MPD2    C5 1342   0.595   4.669  15.989  0.2721 -0.9126 -0.4643
   86MPD2     H 1343   0.314   4.541  16.211  1.4389  0.2350  1.3937
   86MPD2    H1 1344   0.647   0.072  16.126 -1.6474  0.9503  2.1482
   86MPD2    H2 1345   0.547   4.516  15.854  1.5672 -0.3126  0.6060
   86MPD2    H3 1346   0.667   4.706  15.917 -2.0920  4.0966 -0.3122
   86MPD2     N 1347   0.463   0.032  16.312  0.2040  0.4509 -0.5820
   86MPD2    H5 1348   0.530   0.105  16.334 -1.2239  1.4399  0.5556
   86MPD2    N1 1349   0.336   4.406  16.007 -0.0412  0.3964  0.3630
   86MPD2    H7 1350   0.270   4.383  16.080  1.0650  0.3737  1.3510
   87TMC2    C1 1351   2.340   3.953   0.984  0.4796 -0.0357 -0.0271
   87TMC2    C2 1352   2.414   4.011   1.080  0.0238 -0.4900 -0.0786
   87TMC2    C3 1353   2.358   4.126   1.139  0.2704  0.3241 -0.3386
   87TMC2    C4 1354   2.220   4.009   0.951 -0.3110 -0.2379  0.7278
   87TMC2    C5 1355   2.155   4.101   1.028  0.0059 -0.2358 -0.2134
   87TMC2    C6 1356   2.229   4.164   1.126  0.1697 -0.2441  1.7688
   87TMC2     C 1357   2.376   3.832   0.912  0.2843 -0.6023  0.5311
   87TMC2     O 1358   2.490   3.791   0.926 -0.2654 -0.2143  0.2466
   87TMC2     H 1359   2.506   3.966   1.116 -1.0352 -4.0250 -1.8035
   87TMC2    H1 1360   2.169   3.985   0.859  3.4837  1.0722 -1.7212
   87TMC2    H2 1361   2.195   4.260   1.164  1.0099  0.7383  0.0273
   87TMC2    C7 1362   2.008   4.130   1.012 -0.1723 -0.3961 -0.0380
   87TMC2    C8 1363   2.462   4.207   1.192  0.5543  0.0004 -0.1699
   87TMC2    O1 1364   1.953   4.079   0.916 -0.0214  0.1247  0.7799
   87TMC2    O2 1365   2.581   4.194   1.162 -0.6369  0.2630  0.0537
   87TMC2    O5 1366   2.410   4.309   1.268 -0.0888 -0.1062 -0.3170
   87TMC2    H5 1367   2.318   4.284   1.290  0.1357 -0.7141 -0.0852
   88MPD2     C 1368   1.814   4.357   1.234 -0.4369 -0.2759 -0.0208
   88MPD2    C1 1369   1.834   4.274   1.127  0.4010  0.0539 -0.3234
   88MPD2    C2 1370   1.732   4.286   1.040  0.5553  0.6566  0.1233
   88MPD2    C3 1371   1.623   4.368   1.056 -0.4723  0.1736 -0.1296
   88MPD2    C4 1372   1.609   4.454   1.168 -0.2878 -0.4264  1.1172
   88MPD2    C5 1373   1.700   4.439   1.263  0.3638 -0.1283  0.2155
   88MPD2     H 1374   1.743   4.216   0.958  0.6739  0.8811 -0.0504
   88MPD2    H1 1375   1.531   4.528   1.180 -0.2888 -0.2091 -0.1969
   88MPD2    H2 1376   1.890   4.363   1.311 -0.7869 -0.5022  0.3423
   88MPD2    H3 1377   1.697   4.493   1.357  2.8279 -1.5098  1.0832
   88MPD2     N 1378   1.533   4.369   0.949 -0.3737 -0.0012  0.2020
   88MPD2    H5 1379   1.555   4.318   0.864 -2.7002 -0.9941  0.2062
   88MPD2    N1 1380   1.953   4.202   1.114  0.9047  0.2221  0.1045
   88MPD2    H7 1381   2.025   4.221   1.182 -0.4149  1.2012  1.2291
   89TMC2    C1 1382   3.156   1.932   0.600 -0.0947 -0.1957 -1.0686
   89TMC2    C2 1383   3.287   1.950   0.573  0.2204  0.0645 -0.2489
   89TMC2    C3 1384   3.339   2.078   0.577  0.2810  0.0676  0.0046
   89TMC2    C4 1385   3.061   2.033   0.618  0.7725 -0.4035 -0.5728
   89TMC2    C5 1386   3.116   2.157   0.613  0.6504 -0.3954 -0.7166
   89TMC2    C6 1387   3.252   2.188   0.595 -0.1432  0.6512 -0.5724
   89TMC2     C 1388   3.127   1.811   0.676 -0.3006  0.7611  0.0953
   89TMC2     O 1389   3.010   1.783   0.674 -0.2392 -0.5275  0.6867
   89TMC2     H 1390   3.347   1.864   0.548 -1.0039 -0.9203  0.1958
   89TMC2    H1 1391   2.972   2.011   0.676  1.6699  0.7041  1.2433
   89TMC2    H2 1392   3.300   2.284   0.608 -0.2881  0.6353  0.0667
   89TMC2    C7 1393   3.034   2.264   0.680  0.2383  0.2209 -0.3313
   89TMC2    C8 1394   3.478   2.101   0.538 -0.0560  0.1315 -0.6936
   89TMC2    O1 1395   2.935   2.243   0.745  1.1083  0.0303 -0.3950
   89TMC2    O2 1396   3.525   2.196   0.481  0.1088  0.0850 -0.0849
   89TMC2    O5 1397   3.544   2.006   0.616  0.5959  0.5504 -0.1050
   89TMC2    H5 1398   3.490   1.986   0.696  0.4149 -0.5920 -0.5201
   90MPD2     C 1399   3.216   1.412   0.990  0.1962  0.7576 -0.1493
   90MPD2    C1 1400   3.103   1.462   0.942 -0.6168 -0.7493  0.2070
   90MPD2    C2 1401   3.101   1.567   0.854 -0.1235 -0.1798 -0.0038
   90MPD2    C3 1402   3.221   1.631   0.825 -0.0330  1.0908 -0.4131
   90MPD2    C4 1403   3.334   1.573   0.872 -0.4067  0.3020 -0.8040
   90MPD2    C5 1404   3.335   1.459   0.951 -0.2439  0.5094  0.1179
   90MPD2     H 1405   3.011   1.616   0.819 -0.1434 -0.0703  0.2003
   90MPD2    H1 1406   3.434   1.607   0.848 -0.5001  0.2351 -1.2866
   90MPD2    H2 1407   3.218   1.324   1.053  1.7375 -0.1332 -1.4146
   90MPD2    H3 1408   3.423   1.399   0.969  0.4916  1.2658 -0.9470
   90MPD2     N 1409   3.228   1.752   0.741 -0.3152 -0.2152  0.4532
   90MPD2    H5 1410   3.323   1.787   0.730  0.3956 -2.2894 -0.1716
   90MPD2    N1 1411   2.975   1.420   0.986 -0.2769 -0.1156  0.3242
   90MPD2    H7 1412   2.895   1.471   0.951  0.8288  0.3303 -1.5603
   91TMC2    C1 1413   0.458   1.286  16.411 -0.4518  0.9085  0.3959
   91TMC2    C2 1414   0.541   1.296  16.523 -0.3199  0.3422  0.8273
   91TMC2    C3 1415   0.477   1.327  16.636  0.1873  0.2029  0.2815
   91TMC2    C4 1416   0.321   1.288  16.409 -0.2195  0.9212  0.1793
   91TMC2    C5 1417   0.261   1.305  16.527 -0.5125  1.0941 -0.1830
   91TMC2    C6 1418   0.335   1.331  16.640  0.2179  0.7252  0.2934
   91TMC2     C 1419   0.529   1.260  16.293  0.1448  0.1603 -0.2613
   91TMC2     O 1420   0.465   1.221  16.195 -0.0685  0.0882 -0.1390
   91TMC2     H 1421   0.647   1.276  16.523  0.0882  2.4127 -2.0759
   91TMC2    H1 1422   0.271   1.296  16.313 -1.0213 -0.4696  0.4779
   91TMC2    H2 1423   0.278   1.354  16.729 -0.1568  1.3382 -0.1004
   91TMC2    C7 1424   0.116   1.273  16.544 -0.0321 -0.3900 -0.1502
   91TMC2    C8 1425   0.546   1.331  16.766 -0.6205 -0.0298  0.7182
   91TMC2    O1 1426   0.062   1.307  16.645 -0.2204  0.2970  0.4173
   91TMC2    O2 1427   0.501   1.331  16.878 -0.6648  0.1984 -0.6392
   91TMC2    O5 1428   0.672   1.364  16.743  0.2915 -0.0333  0.5155
   91TMC2    H5 1429   0.689   1.385  16.649 -1.4008 -0.6959  0.0666
   92MPD2     C 1430   0.732   1.217  16.074 -0.2503 -0.5676 -0.6310
   92MPD2    C1 1431   0.751   1.305  16.179 -0.3675 -0.7599  0.3375
   92MPD2    C2 1432   0.867   1.369  16.182 -0.5046 -0.3345  0.2726
   92MPD2    C3 1433   0.964   1.349  16.085 -0.0120 -0.0054 -0.2526
   92MPD2    C4 1434   0.945   1.262  15.983  0.0579  0.0315  0.1972
   92MPD2    C5 1435   0.826   1.194  15.979 -0.1043  0.0791 -0.0407
   92MPD2     H 1436   0.889   1.438  16.263  2.9180 -0.3872 -0.6031
   92MPD2    H1 1437   1.016   1.243  15.903 -0.4088  0.3701 -0.2998
   92MPD2    H2 1438   0.636   1.166  16.070 -1.2873  1.4344 -1.1362
   92MPD2    H3 1439   0.806   1.126  15.897  2.3642  0.5057 -1.0115
   92MPD2     N 1440   1.085   1.427  16.092  0.6156  0.0371  0.1811
   92MPD2    H5 1441   1.083   1.484  16.176 -0.6513  0.9080 -0.4423
   92MPD2    N1 1442   0.662   1.312  16.289 -0.3375 -0.1937 -0.3293
   92MPD2    H7 1443   0.698   1.372  16.362 -1.1841  0.6697 -0.6120
   93TMC2    C1 1444   2.276   0.772  13.858 -1.0995 -0.5143 -0.7551
   93TMC2    C2 1445   2.263   0.654  13.795 -0.3879 -0.3752  0.0685
   93TMC2    C3 1446   2.372   0.616  13.723  0.1557 -0.2162 -0.0196
   93TMC2    C4 1447   2.388   0.847  13.856 -1.0373 -0.0074  0.0886
   93TMC2    C5 1448   2.498   0.806  13.782  0.2937  0.2822  0.7953
   93TMC2    C6 1449   2.492   0.687  13.712 -0.2747  0.8577 -0.5493
   93TMC2     C 1450   2.176   0.813  13.956 -0.6627  0.5407 -0.3821
   93TMC2     O 1451   2.220   0.869  14.059 -0.4831 -0.3366 -0.0724
   93TMC2     H 1452   2.177   0.589  13.810 -0.9273  0.2311 -0.3594
   93TMC2    H1 1453   2.393   0.926  13.930  0.2156  0.6335 -0.6845
   93TMC2    H2 1454   2.579   0.642  13.664 -1.1475 -0.8511 -0.5359
   93TMC2    C7 1455   2.628   0.871  13.789 -0.7201  0.4474 -0.6192
   93TMC2    C8 1456   2.348   0.487  13.662  0.2402 -0.3178  0.6017
   93TMC2    O1 1457   2.713   0.829  13.712 -0.4044  0.0410 -0.6912
   93TMC2    O2 1458   2.258   0.407  13.695 -0.5319  0.0779  0.3474
   93TMC2    O5 1459   2.430   0.460  13.568  0.3667  0.2058 -0.4451
   93TMC2    H5 1460   2.493   0.531  13.545  0.3891  0.2742 -0.1690
   94MPD2     C 1461   1.930   0.912  14.086  0.1388  0.0655  0.4545
   94MPD2    C1 1462   1.930   0.858  13.962 -0.6419  0.5547 -0.0064
   94MPD2    C2 1463   1.806   0.835  13.892 -0.4082  0.1565  0.6088
   94MPD2    C3 1464   1.695   0.876  13.962  0.7021  0.8005  0.1630
   94MPD2    C4 1465   1.698   0.934  14.086 -0.1703  1.2425  0.4893
   94MPD2    C5 1466   1.818   0.952  14.145  0.6440  0.5283  0.6099
   94MPD2     H 1467   1.803   0.799  13.790 -0.8082 -0.6978  0.9228
   94MPD2    H1 1468   1.607   0.969  14.134 -1.8713  0.6762 -2.3490
   94MPD2    H2 1469   2.019   0.939  14.142 -0.3953 -1.5509  2.1127
   94MPD2    H3 1470   1.814   0.995  14.245  2.0623 -0.6043  1.1569
   94MPD2     N 1471   1.566   0.879  13.902 -0.5125  0.0662 -0.0192
   94MPD2    H5 1472   1.494   0.892  13.972  0.1689  0.0805  0.6843
   94MPD2    N1 1473   2.049   0.814  13.901  0.0736 -0.1421 -0.6251
   94MPD2    H7 1474   2.049   0.779  13.806 -1.0291 -0.2592 -0.5852
   95TMC2    C1 1475   1.837   3.230  15.563  0.0430  0.1355  0.1031
   95TMC2    C2 1476   1.739   3.316  15.551 -0.0023 -0.6990 -0.2180
   95TMC2    C3 1477   1.621   3.297  15.623 -0.4095  0.0817  0.1420
   95TMC2    C4 1478   1.828   3.125  15.651 -0.8863 -0.6937 -0.1021
   95TMC2    C5 1479   1.716   3.119  15.731 -0.4951 -0.5649 -0.6493
   95TMC2    C6 1480   1.613   3.201  15.717  0.2543 -0.6188  0.6655
   95TMC2     C 1481   1.980   3.264  15.532 -0.0358  0.1156  0.6399
   95TMC2     O 1482   2.056   3.166  15.529  0.0694  0.0347  0.3542
   95TMC2     H 1483   1.745   3.400  15.482 -1.4535 -0.1108  0.3468
   95TMC2    H1 1484   1.919   3.067  15.655  1.2420  2.7948  1.5782
   95TMC2    H2 1485   1.534   3.215  15.790  1.6867  0.2393  2.0554
   95TMC2    C7 1486   1.709   3.025  15.844 -0.0837 -0.0084 -1.0263
   95TMC2    C8 1487   1.552   3.412  15.662 -0.3638  0.3293 -0.3513
   95TMC2    O1 1488   1.598   3.030  15.903  0.0957  0.1444 -0.3345
   95TMC2    O2 1489   1.558   3.448  15.775  0.1023 -0.4712  0.4586
   95TMC2    O5 1490   1.552   3.497  15.558 -0.2600 -0.2377  0.1195
   95TMC2    H5 1491   1.560   3.445  15.474 -1.4496 -0.4741  0.1501
   96MPD2     C 1492   2.376   3.553  15.418 -0.1934  0.2764 -0.4247
   96MPD2    C1 1493   2.375   3.420  15.446  0.0985 -0.0670  0.2645
   96MPD2    C2 1494   2.251   3.369  15.485 -0.2942  0.3651 -0.9987
   96MPD2    C3 1495   2.132   3.439  15.474 -0.2730 -0.2941  0.5344
   96MPD2    C4 1496   2.138   3.572  15.427 -0.0004  0.2915  0.1529
   96MPD2    C5 1497   2.261   3.620  15.401 -0.1597 -0.4932 -0.5412
   96MPD2     H 1498   2.243   3.273  15.535 -0.6546  0.7329 -0.3409
   96MPD2    H1 1499   2.053   3.637  15.417 -0.5777 -0.7161 -1.5159
   96MPD2    H2 1500   2.471   3.601  15.395  0.0997  0.6782  1.6367
   96MPD2    H3 1501   2.253   3.716  15.350  0.3661 -0.6650 -0.9486
   96MPD2     N 1502   2.004   3.392  15.497  0.5612 -0.1674 -0.3602
   96MPD2    H5 1503   1.928   3.459  15.502  0.9104  0.0949  1.5415
   96MPD2    N1 1504   2.493   3.351  15.461  0.0364  0.5065 -0.3018
   96MPD2    H7 1505   2.577   3.408  15.457  0.6400 -0.3172  0.6977
   97TMC2    C1 1506   4.137   1.376  17.394 -0.0693 -0.2003 -0.5789
   97TMC2    C2 1507   4.059   1.404  17.279 -0.6507  0.0096 -0.6087
   97TMC2    C3 1508   4.061   1.532  17.238  0.1155 -0.3166 -0.4384
   97TMC2    C4 1509   4.207   1.474  17.457  0.4965  0.0434  0.1386
   97TMC2    C5 1510   4.191   1.603  17.419 -0.1779 -0.1677  0.1338
   97TMC2    C6 1511   4.125   1.634  17.301  0.0427 -0.6919  0.0191
   97TMC2     C 1512   4.161   1.234  17.434 -0.0393  0.7562  0.2589
   97TMC2     O 1513   4.187   1.208  17.551 -0.1621  0.6290 -0.4176
   97TMC2     H 1514   4.001   1.327  17.229 -0.9514  0.6277 -1.2114
   97TMC2    H1 1515   4.265   1.450  17.545  0.1195 -0.8687  0.1361
   97TMC2    H2 1516   4.127   1.738  17.272  0.3160 -0.7305 -0.0968
   97TMC2    C7 1517   4.233   1.711  17.500 -0.3827  0.5810  0.0279
   97TMC2    C8 1518   4.036   1.550  17.094 -0.2513 -0.0043 -0.4137
   97TMC2    O1 1519   4.328   1.681  17.572 -0.1825 -0.2642  0.2233
   97TMC2    O2 1520   4.074   1.461  17.018  0.2081 -0.1737  0.3608
   97TMC2    O5 1521   4.019   1.684  17.061  0.2668 -0.4568  0.0862
   97TMC2    H5 1522   3.975   1.727  17.137 -1.0862  1.0669 -1.5618
   98MPD2     C 1523   4.215   0.740  17.358 -0.1654  0.8838 -0.3484
   98MPD2    C1 1524   4.169   0.804  17.469  0.3760 -0.9102 -0.3341
   98MPD2    C2 1525   4.142   0.940  17.457  0.3508  0.1999  0.3532
   98MPD2    C3 1526   4.164   1.007  17.336 -0.3503  0.7341 -0.4171
   98MPD2    C4 1527   4.193   0.934  17.221 -0.2049 -0.4000  0.5519
   98MPD2    C5 1528   4.232   0.803  17.235  0.2211 -0.4319  0.0251
   98MPD2     H 1529   4.097   1.000  17.535 -2.0577  1.8648 -2.3739
   98MPD2    H1 1530   4.198   0.989  17.127 -1.9240 -0.4719  0.4105
   98MPD2    H2 1531   4.223   0.632  17.366  1.7408  1.1573  1.5174
   98MPD2    H3 1532   4.267   0.747  17.149  0.0154  0.8758 -0.8977
   98MPD2     N 1533   4.148   1.147  17.324 -0.0478  0.1982  0.1464
   98MPD2    H5 1534   4.163   1.183  17.230  0.6361  0.6953  0.4447
   98MPD2    N1 1535   4.145   0.738  17.591 -0.1165  0.5125  0.1311
   98MPD2    H7 1536   4.171   0.640  17.592  0.8216  0.7747  1.1989
   99TMC2    C1 1537   3.240   3.592   1.188 -0.2944 -0.3446 -0.0680
   99TMC2    C2 1538   3.343   3.636   1.269 -0.2871  0.0820 -0.1711
   99TMC2    C3 1539   3.323   3.640   1.404 -0.8583  0.4719 -0.2562
   99TMC2    C4 1540   3.118   3.562   1.239  0.2803  0.0236  0.3691
   99TMC2    C5 1541   3.106   3.569   1.375 -0.0056  0.0734  1.0707
   99TMC2    C6 1542   3.204   3.604   1.460  0.7314  0.2960  0.2889
   99TMC2     C 1543   3.251   3.575   1.046 -0.6731 -0.7701  0.8367
   99TMC2     O 1544   3.343   3.636   0.989 -0.3701 -0.0275  0.5308
   99TMC2     H 1545   3.432   3.669   1.216 -1.5827  1.8207 -1.2393
   99TMC2    H1 1546   3.030   3.540   1.180 -0.7661  0.5993  1.7174
   99TMC2    H2 1547   3.185   3.639   1.561  3.6485  0.2820  0.8405
   99TMC2    C7 1548   2.978   3.552   1.434  0.1372  0.3156  0.3156
   99TMC2    C8 1549   3.429   3.685   1.484  0.4969 -0.3167  0.1720
   99TMC2    O1 1550   2.965   3.603   1.545 -0.8946  0.1372  0.1893
   99TMC2    O2 1551   3.448   3.639   1.597 -0.1642  0.6501  0.4178
   99TMC2    O5 1552   3.521   3.740   1.406 -0.7154 -1.4117  0.0671
   99TMC2    H5 1553   3.492   3.784   1.323 -0.2241 -2.2858 -0.5872
  100MPD2     C 1554   3.241   3.499   0.767  0.1886 -0.7217  0.4879
  100MPD2    C1 1555   3.170   3.433   0.863  0.7416  0.0097 -0.0915
  100MPD2    C2 1556   3.099   3.315   0.826  0.5579 -0.0501 -0.4651
  100MPD2    C3 1557   3.088   3.273   0.694  0.1464  0.4318  0.2752
  100MPD2    C4 1558   3.154   3.349   0.597  0.2357  0.0337  0.7132
  100MPD2    C5 1559   3.219   3.463   0.637 -0.0668  0.0734 -0.0550
  100MPD2     H 1560   3.044   3.254   0.896 -1.1884  0.6616 -1.2180
  100MPD2    H1 1561   3.143   3.324   0.492 -1.2208  0.7210  0.6997
  100MPD2    H2 1562   3.293   3.592   0.786  1.1441 -0.8390 -1.6063
  100MPD2    H3 1563   3.249   3.531   0.558  0.3169 -0.4146 -0.3318
  100MPD2     N 1564   3.014   3.150   0.663  0.1321 -0.0551  0.2614
  100MPD2    H5 1565   2.974   3.095   0.739  1.3137  0.5231  1.3098
  100MPD2    N1 1566   3.176   3.474   0.998  0.0524 -0.1140  0.6044
  100MPD2    H7 1567   3.114   3.435   1.068 -0.8291 -3.0030 -1.7760
  101TMC2    C1 1568   4.464   3.444  13.504  0.0443  0.6197 -0.5927
  101TMC2    C2 1569   4.487   3.442  13.635 -0.4432 -0.3319 -0.6909
  101TMC2    C3 1570   4.600   3.513  13.671  0.1560 -0.0394 -0.5102
  101TMC2    C4 1571   4.536   3.518  13.417 -0.2207 -0.0547 -0.2318
  101TMC2    C5 1572   4.632   3.604  13.457 -0.3583  0.5816 -0.1137
  101TMC2    C6 1573   4.670   3.598  13.587 -0.5971 -0.2086  0.4345
  101TMC2     C 1574   4.348   3.372  13.461 -0.0825  0.6926 -0.6641
  101TMC2     O 1575   4.257   3.355  13.544 -0.5723  0.2772  0.1117
  101TMC2     H 1576   4.426   3.385  13.704 -0.6794  0.8914  0.1077
  101TMC2    H1 1577   4.502   3.523  13.314 -1.0119  0.9840  0.0714
  101TMC2    H2 1578   0.019   3.657  13.618 -0.0727 -0.9550  0.3989
  101TMC2    C7 1579   4.703   3.679  13.353  0.3341 -0.2328  0.1633
  101TMC2    C8 1580   4.638   3.524  13.809  0.1539 -0.6327 -0.5307
  101TMC2    O1 1581   4.694   3.643  13.235 -0.3381  0.1393 -0.6106
  101TMC2    O2 1582   0.015   3.548  13.849  0.0149 -0.1861  0.0865
  101TMC2    O5 1583   4.522   3.526  13.882  0.7694 -0.3365  0.5974
  101TMC2    H5 1584   4.441   3.520  13.826  0.8072  1.9088  0.3284
  102MPD2     C 1585   4.262   3.273  13.124 -0.5137 -0.0395  0.2929
  102MPD2    C1 1586   4.240   3.282  13.256 -0.3028 -0.4822  0.3168
  102MPD2    C2 1587   4.122   3.242  13.315 -0.0664 -0.0062  0.1033
  102MPD2    C3 1588   4.020   3.203  13.232  0.1222  0.6853  0.2808
  102MPD2    C4 1589   4.042   3.202  13.096 -0.2607 -0.2521  0.1352
  102MPD2    C5 1590   4.158   3.234  13.040  0.0896  0.1934  0.3851
  102MPD2     H 1591   4.101   3.250  13.421  1.9637  0.3824  0.4668
  102MPD2    H1 1592   3.962   3.166  13.032 -0.2756 -1.1352  0.6549
  102MPD2    H2 1593   4.355   3.313  13.086 -1.2143  0.8166 -0.4889
  102MPD2    H3 1594   4.170   3.226  12.933 -2.4738  2.3928 -0.0588
  102MPD2     N 1595   3.898   3.157  13.296 -0.3878 -0.8518  0.5468
  102MPD2    H5 1596   3.896   3.151  13.397  0.7349 -2.0992  0.4929
  102MPD2    N1 1597   4.358   3.330  13.331  0.7012 -0.3413 -0.0299
  102MPD2    H7 1598   4.439   3.352  13.273  1.1822  0.4932  0.9664
  103TMC2    C1 1599   1.935   3.411  12.523 -0.5162 -0.3448  0.5767
  103TMC2    C2 1600   2.051   3.363  12.582  0.7350 -0.3302 -0.7647
  103TMC2    C3 1601   2.090   3.412  12.699 -0.2700  0.0082 -0.2968
  103TMC2    C4 1602   1.873   3.525  12.572  0.5939  0.0579 -0.3381
  103TMC2    C5 1603   1.931   3.575  12.688 -0.0974  0.5233  0.1569
  103TMC2    C6 1604   2.036   3.524  12.755 -0.2500 -0.0714  0.0001
  103TMC2     C 1605   1.870   3.349  12.406  0.7623 -0.2851 -0.6417
  103TMC2     O 1606   1.759   3.392  12.374  0.6301 -0.2933  0.1799
  103TMC2     H 1607   2.103   3.274  12.549  0.8645  0.3113 -2.3015
  103TMC2    H1 1608   1.779   3.569  12.540  0.5040 -2.0578 -2.9839
  103TMC2    H2 1609   2.088   3.577  12.834  1.7554 -0.9197 -0.7376
  103TMC2    C7 1610   1.875   3.687  12.752 -0.4327 -0.5619  0.2406
  103TMC2    C8 1611   2.229   3.383  12.724 -0.6099  0.7766 -0.1166
  103TMC2    O1 1612   1.847   3.670  12.870  0.0096 -0.6287 -0.6472
  103TMC2    O2 1613   2.271   3.266  12.728 -0.8456 -0.0156  0.3042
  103TMC2    O5 1614   2.296   3.473  12.644  0.5572  0.6035  0.0769
  103TMC2    H5 1615   2.254   3.558  12.620 -0.0782 -0.1523 -1.4968
  104MPD2     C 1616   1.962   3.031  12.249 -0.1246 -0.0048  0.6748
  104MPD2    C1 1617   1.876   3.137  12.279 -0.8833  0.4634  0.1808
  104MPD2    C2 1618   1.751   3.142  12.219 -0.2301  0.1676  0.0255
  104MPD2    C3 1619   1.714   3.042  12.124 -0.2749  0.0307 -0.3545
  104MPD2    C4 1620   1.804   2.935  12.104  0.0927 -0.0184 -0.0923
  104MPD2    C5 1621   1.925   2.937  12.164 -0.1253  0.5441 -0.1150
  104MPD2     H 1622   1.679   3.217  12.249 -0.3404 -0.1209  0.4792
  104MPD2    H1 1623   1.775   2.855  12.037  1.6966 -0.6971  0.0419
  104MPD2    H2 1624   2.062   3.024  12.291 -0.4951  0.4305  1.6253
  104MPD2    H3 1625   2.002   2.864  12.141 -1.5037 -0.5251 -1.3877
  104MPD2     N 1626   1.585   3.055  12.061 -0.4187  0.2159  0.2042
  104MPD2    H5 1627   1.537   3.140  12.086 -1.5008 -0.8453  1.7168
  104MPD2    N1 1628   1.928   3.233  12.371 -0.2942  0.3538 -0.4949
  104MPD2    H7 1629   2.016   3.207  12.415  0.7355  0.3472 -2.5629
  105TMC2    C1 1630   2.781   3.223   0.279  0.4494 -0.4504 -0.2053
  105TMC2    C2 1631   2.870   3.323   0.274  0.0714  0.3016 -0.4946
  105TMC2    C3 1632   2.837   3.433   0.345 -0.4961  0.4729  0.6499
  105TMC2    C4 1633   2.656   3.235   0.328  0.0025 -0.1777  0.4736
  105TMC2    C5 1634   2.623   3.351   0.393  0.9680 -0.1261  0.0273
  105TMC2    C6 1635   2.713   3.457   0.401  0.1623 -0.6559 -0.4330
  105TMC2     C 1636   2.807   3.096   0.218 -0.5847 -0.3767  0.4119
  105TMC2     O 1637   2.742   2.999   0.266  0.2691  0.1285 -0.4074
  105TMC2     H 1638   2.975   3.306   0.250  0.7113  1.1034  1.6987
  105TMC2    H1 1639   2.594   3.147   0.326  0.5644 -0.5435 -1.2984
  105TMC2    H2 1640   2.685   3.560   0.418  2.0215 -0.3825  0.9864
  105TMC2    C7 1641   2.490   3.361   0.438  0.5978  0.3308  0.5351
  105TMC2    C8 1642   2.941   3.530   0.360  0.2046 -1.3160 -0.7579
  105TMC2    O1 1643   2.411   3.271   0.415 -0.1807  0.0841  0.3215
  105TMC2    O2 1644   3.043   3.526   0.293 -0.2661  0.0904 -0.7708
  105TMC2    O5 1645   2.911   3.605   0.468  0.5826  0.5873 -0.0154
  105TMC2    H5 1646   2.851   3.558   0.529 -0.0071  0.6061 -0.5798
  106MPD2     C 1647   3.013   2.836  17.578  0.0810  0.4746 -0.4856
  106MPD2    C1 1648   3.035   2.974  17.564 -0.1823  0.1702  0.3506
  106MPD2    C2 1649   3.003   3.064  17.663 -0.5606 -0.7018 -0.0043
  106MPD2    C3 1650   2.931   3.020   0.023 -0.2623 -0.0775 -0.7893
  106MPD2    C4 1651   2.894   2.884   0.034 -0.2955 -0.4594 -0.3438
  106MPD2    C5 1652   2.947   2.797  17.692 -0.4202  0.4143  0.4225
  106MPD2     H 1653   3.044   3.164  17.652 -0.5226 -0.3500  3.2048
  106MPD2    H1 1654   2.834   2.841   0.114  1.4507  1.7589  2.1951
  106MPD2    H2 1655   3.025   2.764  17.497 -1.8384  2.0275 -2.1661
  106MPD2    H3 1656   2.915   2.693  17.697 -1.8765  0.9235  1.5124
  106MPD2     N 1657   2.879   3.119   0.108  0.0484  0.4731  0.1228
  106MPD2    H5 1658   2.909   3.216   0.107 -0.2014  0.5350 -1.2475
  106MPD2    N1 1659   3.098   3.027  17.451 -0.1857  0.0506  0.0039
  106MPD2    H7 1660   3.120   3.126  17.455  1.2015 -0.3148  1.2762
  107TMC2    C1 1661   4.564   2.013  11.826 -0.5626 -0.1836  0.7358
  107TMC2    C2 1662   4.657   2.096  11.867 -0.0232  0.0304  0.3156
  107TMC2    C3 1663   0.024   2.110  11.780  0.6077 -0.3598  0.2643
  107TMC2    C4 1664   4.565   1.929  11.713 -0.1917 -0.1403  0.1288
  107TMC2    C5 1665   4.690   1.923  11.644 -0.2109  0.1071 -0.1672
  107TMC2    C6 1666   0.049   2.021  11.675  0.4502 -0.4113 -0.4970
  107TMC2     C 1667   4.428   2.054  11.863  0.2221 -0.0256 -0.2801
  107TMC2     O 1668   4.414   2.070  11.983 -0.0522  0.3288  0.2874
  107TMC2     H 1669   4.633   2.170  11.943 -2.2320 -0.8497  0.4707
  107TMC2    H1 1670   4.480   1.864  11.692 -0.1751 -0.2994  0.5487
  107TMC2    H2 1671   0.140   2.028  11.616  0.1651 -0.3959 -0.9310
  107TMC2    C7 1672   4.705   1.851  11.515 -0.0872 -0.0694 -0.0231
  107TMC2    C8 1673   0.107   2.225  11.802 -0.4244 -0.1152  0.5149
  107TMC2    O1 1674   4.622   1.765  11.497  0.2815 -0.5112 -0.2507
  107TMC2    O2 1675   0.074   2.320  11.867  0.0245  0.6235  0.3211
  107TMC2    O5 1676   0.236   2.184  11.796 -0.0860 -0.0876 -0.2202
  107TMC2    H5 1677   0.248   2.096  11.755  1.1020  0.1706 -0.4316
  108MPD2     C 1678   4.174   2.195  11.637 -0.0148  0.5128  0.2580
  108MPD2    C1 1679   4.225   2.156  11.765 -0.1047 -0.0606  0.1039
  108MPD2    C2 1680   4.148   2.166  11.877 -0.0606 -0.6059  0.6468
  108MPD2    C3 1681   4.016   2.216  11.871 -0.1916 -0.6409  0.1883
  108MPD2    C4 1682   3.969   2.255  11.743  0.0874  0.6365  0.7520
  108MPD2    C5 1683   4.046   2.232  11.634 -0.6909  0.1413 -0.2639
  108MPD2     H 1684   4.180   2.138  11.977 -1.5338  0.4131  1.4066
  108MPD2    H1 1685   3.867   2.287  11.724  0.2232  1.7291  1.8624
  108MPD2    H2 1686   4.226   2.182  11.543  3.2528 -1.8215  2.3917
  108MPD2    H3 1687   4.000   2.250  11.538 -0.2179  0.9311 -0.3414
  108MPD2     N 1688   3.920   2.215  11.981  0.1742 -0.1090 -0.0786
  108MPD2    H5 1689   3.826   2.237  11.949 -0.3292 -1.0649  0.7300
  108MPD2    N1 1690   4.356   2.099  11.756 -0.4174 -0.0056 -0.0822
  108MPD2    H7 1691   4.391   2.110  11.661  2.5715 -2.1087  0.7554
  109TMC2    C1 1692   3.587   4.607  17.369 -0.8747  0.0418  0.5519
  109TMC2    C2 1693   3.635   4.578  17.244  0.3359  0.0973 -0.2553
  109TMC2    C3 1694   3.768   4.597  17.218  0.0041  0.1297  0.1365
  109TMC2    C4 1695   3.675   4.667  17.465  0.4291 -0.6970  0.8306
  109TMC2    C5 1696   3.807   4.685  17.436  0.4737 -0.2260 -0.5480
  109TMC2    C6 1697   3.858   4.646  17.313  0.0809 -0.1813 -0.4309
  109TMC2     C 1698   3.455   4.553  17.413  0.3629 -0.5238 -0.2502
  109TMC2     O 1699   3.406   4.468  17.333 -0.6184  0.6000  0.4281
  109TMC2     H 1700   3.572   4.531  17.169  0.6637 -0.7699  0.0071
  109TMC2    H1 1701   3.639   4.705  17.560 -1.7452 -1.7765  0.4343
  109TMC2    H2 1702   3.963   4.654  17.289 -0.0860  2.7179 -0.2095
  109TMC2    C7 1703   3.899   4.717  17.545 -0.1483 -0.0608  0.8166
  109TMC2    C8 1704   3.822   4.523  17.106  0.3539  0.7382  0.4286
  109TMC2    O1 1705   3.999   0.047  17.525 -0.3341  0.5254 -0.8251
  109TMC2    O2 1706   3.929   4.548  17.051  0.7221 -0.3222  0.2734
  109TMC2    O5 1707   3.758   4.406  17.101 -0.1475  0.0185 -0.0068
  109TMC2    H5 1708   3.689   4.396  17.170  2.1492 -0.7120  2.1862
  110MPD2     C 1709   3.095   4.429   0.017 -0.5039 -0.5223 -0.0956
  110MPD2    C1 1710   3.163   4.530   0.067  0.0590  0.1789  0.2034
  110MPD2    C2 1711   3.266   4.581  17.733 -1.0310 -0.2624 -0.7540
  110MPD2    C3 1712   3.301   4.528  17.609  0.5335  0.5010 -0.1197
  110MPD2    C4 1713   3.241   4.412  17.571  1.4144 -0.1269  0.8605
  110MPD2    C5 1714   3.135   4.367  17.643 -0.0304 -0.0314 -0.1442
  110MPD2     H 1715   3.341   4.645   0.031 -0.2965 -0.2715 -1.9538
  110MPD2    H1 1716   3.269   4.364  17.477 -2.0449  0.0135 -0.2569
  110MPD2    H2 1717   3.012   4.384   0.069 -1.6644 -1.9876 -3.1819
  110MPD2    H3 1718   3.074   4.285  17.605  0.0579 -0.8826  1.5568
  110MPD2     N 1719   3.417   4.584  17.545 -0.4713 -0.0920 -0.2690
  110MPD2    H5 1720   3.465   4.657  17.597 -1.3474  0.3392 -0.0709
  110MPD2    N1 1721   3.140   4.573   0.204  0.6414 -0.3492  0.7237
  110MPD2    H7 1722   3.059   4.537   0.254 -0.5704 -1.1418 -1.7832
  111TMC2    C1 1723   4.363   4.070  11.634 -0.2363  0.2270 -0.5323
  111TMC2    C2 1724   4.471   4.110  11.563 -0.6412 -0.3836 -0.7067
  111TMC2    C3 1725   4.589   4.115  11.630 -0.1229 -0.0843  0.9054
  111TMC2    C4 1726   4.365   4.040  11.769 -0.9232  0.0742 -0.0558
  111TMC2    C5 1727   4.487   4.048  11.833  0.5001 -0.1687 -0.3008
  111TMC2    C6 1728   4.603   4.093  11.766 -0.0377 -0.3527 -0.5985
  111TMC2     C 1729   4.251   4.036  11.555  0.5480 -0.0095 -0.6010
  111TMC2     O 1730   4.250   4.038  11.436 -0.0183 -0.3374  0.2943
  111TMC2     H 1731   4.465   4.134  11.457 -1.6532  0.1038 -0.5417
  111TMC2    H1 1732   4.282   3.986  11.812 -0.3682 -1.0676 -0.4082
  111TMC2    H2 1733   4.702   4.095  11.809 -0.6052 -2.3728  0.8027
  111TMC2    C7 1734   4.503   4.014  11.978  0.5299  0.1168 -0.9234
  111TMC2    C8 1735   4.705   4.122  11.540  0.2434 -0.4818  0.4336
  111TMC2    O1 1736   4.621   4.028  12.010 -0.0737 -0.1945  0.3742
  111TMC2    O2 1737   4.697   4.104  11.417  0.0062  0.2594 -0.8525
  111TMC2    O5 1738   0.069   4.192  11.594  0.8462  0.3408 -0.2342
  111TMC2    H5 1739   0.065   4.230  11.685 -2.4515 -1.9261  0.5783
  112MPD2     C 1740   3.739   3.968  11.514 -0.5399  0.3879 -0.3485
  112MPD2    C1 1741   3.835   3.962  11.412  0.0985 -0.1061 -0.3209
  112MPD2    C2 1742   3.971   3.966  11.452  0.1109  0.2499  0.4215
  112MPD2    C3 1743   4.007   3.984  11.585  0.9027  0.1869  0.1300
  112MPD2    C4 1744   3.906   3.989  11.682  0.5455  1.0604  0.3714
  112MPD2    C5 1745   3.773   3.971  11.646  0.2666 -0.0241  0.2221
  112MPD2     H 1746   4.053   3.962  11.381  0.5015  3.5703  0.6955
  112MPD2    H1 1747   3.936   3.995  11.786  3.4834 -1.4838 -0.3541
  112MPD2    H2 1748   3.634   3.959  11.490 -0.4335 -0.2132 -0.5897
  112MPD2    H3 1749   3.697   3.970  11.724 -0.9890 -0.0974 -1.0008
  112MPD2     N 1750   4.134   4.023  11.630 -0.4377 -0.2400 -0.3036
  112MPD2    H5 1751   4.140   4.025  11.731  0.0636 -0.7101 -0.3187
  112MPD2    N1 1752   3.812   3.932  11.275 -0.4876  0.0570  0.0258
  112MPD2    H7 1753   3.891   3.908  11.216  0.4290  1.9454  0.4858
  113TMC2    C1 1754   1.741   3.188   0.545 -1.0010  0.0387 -0.0951
  113TMC2    C2 1755   1.781   3.170   0.414  0.1194  0.4198  0.3122
  113TMC2    C3 1756   1.685   3.112   0.334  0.6020 -0.3532  0.1935
  113TMC2    C4 1757   1.615   3.155   0.599  0.3532  0.0053  0.3572
  113TMC2    C5 1758   1.531   3.097   0.509  0.0541 -0.1653  0.0379
  113TMC2    C6 1759   1.560   3.079   0.381  0.1107  0.5579  0.2141
  113TMC2     C 1760   1.843   3.215   0.646 -0.3190 -0.2434  0.1817
  113TMC2     O 1761   1.804   3.268   0.747  0.4167 -0.3709  0.1072
  113TMC2     H 1762   1.871   3.217   0.375 -1.0485 -0.3925 -3.3841
  113TMC2    H1 1763   1.588   3.164   0.704  0.4984  2.2113  0.2033
  113TMC2    H2 1764   1.491   3.017   0.324  1.7609 -0.6554 -0.4461
  113TMC2    C7 1765   1.443   2.994   0.558 -0.2503  0.2216 -0.2910
  113TMC2    C8 1766   1.707   3.098   0.189 -0.0866 -0.1848  0.7087
  113TMC2    O1 1767   1.495   2.911   0.626 -0.3423 -0.1573  0.1641
  113TMC2    O2 1768   1.629   3.133   0.103  0.1119  0.8790  0.0292
  113TMC2    O5 1769   1.843   3.101   0.183 -0.0750  0.2459  0.1076
  113TMC2    H5 1770   1.872   3.039   0.253  0.9212 -0.6180 -1.0445
  114MPD2     C 1771   2.326   3.209   0.791  0.2680 -0.2840 -0.1551
  114MPD2    C1 1772   2.225   3.261   0.864 -0.1321  0.4829  0.5716
  114MPD2    C2 1773   2.100   3.238   0.811  0.3293 -0.9053  0.0478
  114MPD2    C3 1774   2.085   3.166   0.690  0.0230 -0.1982 -0.6447
  114MPD2    C4 1775   2.191   3.109   0.628  0.0856  0.1628 -0.7000
  114MPD2    C5 1776   2.314   3.137   0.676  0.3778  0.3514 -0.2756
  114MPD2     H 1777   2.017   3.295   0.852  1.3389  0.2124  0.5273
  114MPD2    H1 1778   2.168   3.052   0.538  1.1378  1.0508 -1.5430
  114MPD2    H2 1779   2.432   3.228   0.808  0.5891 -1.2847 -1.0398
  114MPD2    H3 1780   2.402   3.096   0.628 -0.7489 -1.0359 -1.1556
  114MPD2     N 1781   1.960   3.159   0.611 -0.4386 -0.6181  0.5187
  114MPD2    H5 1782   1.972   3.138   0.513 -0.6876  1.8091 -0.0202
  114MPD2    N1 1783   2.248   3.341   0.978  0.3946  0.7151 -0.0805
  114MPD2    H7 1784   2.172   3.394   1.019 -0.3762 -1.3343  1.1072
  115TMC2    C1 1785   2.579   0.446  17.476 -0.4064 -0.1583 -0.6450
  115TMC2    C2 1786   2.711   0.425  17.495 -0.0235  0.2033  0.3312
  115TMC2    C3 1787   2.796   0.500  17.426 -0.6661  0.6490 -0.4053
  115TMC2    C4 1788   2.537   0.552  17.403  0.3414  0.1989  0.9652
  115TMC2    C5 1789   2.625   0.628  17.336 -0.1737  0.5294  0.9380
  115TMC2    C6 1790   2.759   0.607  17.348  0.0398 -0.5602  0.2170
  115TMC2     C 1791   2.485   0.332  17.478  0.3231 -0.2444 -0.1615
  115TMC2     O 1792   2.547   0.226  17.474 -1.0153 -0.2556 -0.0275
  115TMC2     H 1793   2.751   0.346  17.558  1.3069 -0.2355 -1.0744
  115TMC2    H1 1794   2.431   0.575  17.399  0.2523 -0.4726 -0.6740
  115TMC2    H2 1795   2.835   0.675  17.313  0.6427 -1.4587 -0.2323
  115TMC2    C7 1796   2.577   0.722  17.241  0.2144  0.2087 -0.0934
  115TMC2    C8 1797   2.939   0.481  17.433  0.2786 -0.2792  0.2028
  115TMC2    O1 1798   2.458   0.730  17.235 -0.1048  0.0919 -0.2657
  115TMC2    O2 1799   3.022   0.567  17.404  0.6012 -0.0826 -0.4730
  115TMC2    O5 1800   2.963   0.347  17.413  0.7408  0.3129 -0.3004
  115TMC2    H5 1801   2.884   0.288  17.403  0.5925  0.7956 -2.0039
  116MPD2     C 1802   2.063   0.069  17.523  0.5228 -0.6448 -0.2711
  116MPD2    C1 1803   2.178   0.027  17.462  0.1016  0.5336 -0.4898
  116MPD2    C2 1804   2.285   0.123  17.449  0.1756 -0.2965 -0.1450
  116MPD2    C3 1805   2.267   0.246  17.513  0.2054 -0.0025  0.1421
  116MPD2    C4 1806   2.148   0.277  17.572 -0.1802 -0.6826 -0.1109
  116MPD2    C5 1807   2.050   0.191  17.581  0.0592  0.6618  0.4690
  116MPD2     H 1808   2.372   0.105  17.387 -0.4815  0.6660 -1.3321
  116MPD2    H1 1809   2.139   0.377  17.613 -1.7255 -1.2104  0.8490
  116MPD2    H2 1810   1.975   0.007  17.507  1.0288 -1.1860 -0.9633
  116MPD2    H3 1811   1.950   0.223  17.607 -0.1280  0.7941 -0.4150
  116MPD2     N 1812   2.361   0.351  17.519 -0.3575 -0.0262 -0.4104
  116MPD2    H5 1813   2.331   0.440  17.558  0.0728 -0.7319  1.5047
  116MPD2    N1 1814   2.172   4.645  17.387  0.3569  0.1987 -0.1312
  116MPD2    H7 1815   2.081   4.606  17.364  1.0089 -1.1142 -0.4689
  117TMC2    C1 1816   1.465   1.662  13.891 -0.4646 -0.4204 -0.2391
  117TMC2    C2 1817   1.557   1.598  13.964  0.8396 -0.6211 -0.2817
  117TMC2    C3 1818   1.673   1.670  13.995 -0.0501  0.1226  0.8755
  117TMC2    C4 1819   1.473   1.795  13.865  0.1004  0.7623 -0.6255
  117TMC2    C5 1820   1.589   1.858  13.899  0.2344 -0.0038 -0.0283
  117TMC2    C6 1821   1.687   1.798  13.970  0.2489  0.4901 -0.0606
  117TMC2     C 1822   1.349   1.589  13.856 -0.3842  0.1740  0.5675
  117TMC2     O 1823   1.357   1.467  13.854  0.2077  0.8984 -0.4019
  117TMC2     H 1824   1.554   1.494  13.993 -0.0914  0.1890  2.5529
  117TMC2    H1 1825   1.396   1.848  13.810 -3.3456  0.2345  3.6736
  117TMC2    H2 1826   1.776   1.845  14.011  1.5814 -0.0861 -2.2875
  117TMC2    C7 1827   1.609   1.998  13.877 -0.1267  0.1310  0.4988
  117TMC2    C8 1828   1.747   1.619  14.115  0.7748  0.0673 -0.0210
  117TMC2    O1 1829   1.715   2.035  13.923  0.0934 -0.4472  0.1943
  117TMC2    O2 1830   1.692   1.589  14.220  0.1377  0.0754  0.0771
  117TMC2    O5 1831   1.878   1.640  14.091  0.7311  0.2372 -0.2834
  117TMC2    H5 1832   1.888   1.675  14.000 -2.3015 -0.4073 -0.8396
  118MPD2     C 1833   1.354   2.251  13.767  0.5627  0.3915 -0.1267
  118MPD2    C1 1834   1.484   2.204  13.808 -0.1925  0.3203  0.8447
  118MPD2    C2 1835   1.588   2.286  13.809  0.4836 -0.0509 -0.0419
  118MPD2    C3 1836   1.576   2.423  13.776  0.2583  0.1493 -0.4661
  118MPD2    C4 1837   1.450   2.465  13.746  0.5957 -0.5378 -0.1013
  118MPD2    C5 1838   1.344   2.379  13.730  0.1001  0.1977 -0.0713
  118MPD2     H 1839   1.686   2.244  13.829 -0.0827 -1.1443  0.4549
  118MPD2    H1 1840   1.433   2.567  13.714  1.7211 -0.9601 -2.0311
  118MPD2    H2 1841   1.267   2.188  13.752  0.1129  1.0486 -0.2803
  118MPD2    H3 1842   1.250   2.415  13.691 -0.3852  1.3739  2.2171
  118MPD2     N 1843   1.684   2.517  13.778  0.9232 -0.7198 -0.5092
  118MPD2    H5 1844   1.665   2.613  13.751 -0.8329 -0.7712  0.5734
  118MPD2    N1 1845   1.499   2.062  13.823  0.0924  0.1155  0.4257
  118MPD2    H7 1846   1.417   2.006  13.804  2.2806 -2.8665 -0.3182
  119TMC2    C1 1847   4.340   2.892  13.165 -0.2611  0.0139  0.3412
  119TMC2    C2 1848   4.354   2.940  13.043  0.0173 -0.1733 -0.0660
  119TMC2    C3 1849   4.256   2.911  12.950 -0.0828 -0.5657  0.0506
  119TMC2    C4 1850   4.221   2.844  13.207  0.5905  0.1073  0.2284
  119TMC2    C5 1851   4.115   2.834  13.121 -0.0327  0.4349  0.1147
  119TMC2    C6 1852   4.130   2.867  12.989  0.0339  0.0769 -0.3318
  119TMC2     C 1853   4.437   2.912  13.269 -0.6495  0.4071  0.2209
  119TMC2     O 1854   4.396   2.925  13.385 -0.3469  0.5484 -0.3535
  119TMC2     H 1855   4.454   2.963  13.008  1.2277 -0.5659  3.1383
  119TMC2    H1 1856   4.223   2.775  13.291 -0.8390  0.0896  0.2546
  119TMC2    H2 1857   4.041   2.859  12.927  0.4320 -1.6412 -0.6887
  119TMC2    C7 1858   3.990   2.774  13.168  0.9715 -0.6258  0.1145
  119TMC2    C8 1859   4.286   2.960  12.815 -0.3172 -0.2961  0.0911
  119TMC2    O1 1860   3.915   2.738  13.081 -0.3582 -0.3464 -0.1926
  119TMC2    O2 1861   4.364   3.055  12.795 -0.6946  0.1112  0.2270
  119TMC2    O5 1862   4.205   2.895  12.722 -0.5592  0.5631 -0.0132
  119TMC2    H5 1863   4.204   2.802  12.753  1.5614 -0.4343 -2.9489
  120MPD2     C 1864   0.176   2.914  13.446  0.3387 -0.0192  0.0371
  120MPD2    C1 1865   0.061   2.882  13.509  0.3845 -0.0117 -0.1110
  120MPD2    C2 1866   4.673   2.888  13.444  0.0958  0.6573  0.3383
  120MPD2    C3 1867   4.678   2.910  13.308  0.3387  0.1363  0.3938
  120MPD2    C4 1868   0.060   2.922  13.245 -0.6537 -0.1513 -0.4848
  120MPD2    C5 1869   0.178   2.934  13.312 -0.5232  0.1293 -0.0579
  120MPD2     H 1870   4.577   2.886  13.494 -0.2955  0.7360 -0.3980
  120MPD2    H1 1871   0.065   2.930  13.137 -0.3917 -0.0888 -0.4664
  120MPD2    H2 1872   0.272   2.921  13.496  1.9415  2.1596 -3.2814
  120MPD2    H3 1873   0.264   2.943  13.246  0.1308 -0.9390  0.6522
  120MPD2     N 1874   4.565   2.916  13.223  0.3362 -0.6100 -0.4484
  120MPD2    H5 1875   4.570   2.920  13.122  1.9501  0.0054 -0.3432
  120MPD2    N1 1876   0.073   2.850  13.647 -0.4643 -0.1695  0.5803
  120MPD2    H7 1877   0.168   2.867  13.680  0.3767 -0.1021 -1.8761
  121TMC2    C1 1878   1.582   0.172  14.174  0.3619 -0.1299 -0.5646
  121TMC2    C2 1879   1.659   0.245  14.259  0.3303 -0.5226 -0.1214
  121TMC2    C3 1880   1.602   0.297  14.371  0.7458  0.1845 -0.4796
  121TMC2    C4 1881   1.447   0.152  14.200 -0.1764 -0.3521 -0.0665
  121TMC2    C5 1882   1.393   0.215  14.308  1.3339  0.4357 -0.5660
  121TMC2    C6 1883   1.471   0.287  14.398  0.1072 -0.3469  0.2691
  121TMC2     C 1884   1.629   0.113  14.051  0.1646 -0.4442  0.6321
  121TMC2     O 1885   1.544   0.100  13.958  0.2812  0.1279  0.1948
  121TMC2     H 1886   1.760   0.261  14.223  0.4926 -1.0425  0.0906
  121TMC2    H1 1887   1.385   0.089  14.137 -2.2755  0.5697  1.0709
  121TMC2    H2 1888   1.423   0.324  14.488  3.3767 -0.7441  2.1748
  121TMC2    C7 1889   1.267   0.176  14.361  0.0521  0.2482  0.0751
  121TMC2    C8 1890   1.683   0.390  14.452 -0.1991 -0.2727  0.1047
  121TMC2    O1 1891   1.246   0.191  14.479 -0.4374 -0.7850  0.2799
  121TMC2    O2 1892   1.644   0.492  14.509 -0.1897  0.1144 -0.6911
  121TMC2    O5 1893   1.806   0.335  14.436  0.6170  0.2235 -0.1139
  121TMC2    H5 1894   1.809   0.239  14.417  1.6001  0.4909 -1.3305
  122MPD2     C 1895   1.933   4.667  13.965 -0.2527  0.5003 -0.0822
  122MPD2    C1 1896   1.839   0.033  13.954  0.1005 -0.0725  0.1009
  122MPD2    C2 1897   1.818   0.096  13.835  0.0144  0.8437 -0.4661
  122MPD2    C3 1898   1.906   0.079  13.734 -0.3274 -0.5175 -0.1699
  122MPD2    C4 1899   2.003   4.721  13.748 -0.1625 -0.2069 -0.5983
  122MPD2    C5 1900   2.012   4.640  13.860  0.0761  0.8910 -0.5250
  122MPD2     H 1901   1.746   0.176  13.829 -1.2273 -0.3125 -1.0315
  122MPD2    H1 1902   2.071   4.698  13.667 -1.6601 -3.9028 -0.7697
  122MPD2    H2 1903   1.938   4.600  14.050 -0.2585  2.0574  1.1564
  122MPD2    H3 1904   2.084   4.560  13.868 -0.8410 -0.0096 -1.2415
  122MPD2     N 1905   1.907   0.161  13.622  0.2659 -0.4884 -0.0892
  122MPD2    H5 1906   1.967   0.131  13.545 -0.5585  1.2293 -1.4217
  122MPD2    N1 1907   1.758   0.062  14.060  0.2688 -0.4469  0.2529
  122MPD2    H7 1908   1.799   0.051  14.153 -2.9130 -1.8923  1.4971
  123TMC2    C1 1909   0.280   2.904   9.849 -0.2275 -0.3917  0.0479
  123TMC2    C2 1910   0.314   3.021   9.905 -0.3906  0.3176 -0.2081
  123TMC2    C3 1911   0.347   3.124   9.812  0.3931  0.1291  0.2512
  123TMC2    C4 1912   0.273   2.884   9.717  0.4939 -0.1923  0.4472
  123TMC2    C5 1913   0.304   2.975   9.626  0.1552 -0.3025 -0.5219
  123TMC2    C6 1914   0.340   3.103   9.673 -0.6982 -0.6140 -0.3224
  123TMC2     C 1915   0.277   2.792   9.931 -0.2711  0.4354 -0.2091
  123TMC2     O 1916   0.337   2.800  10.041  0.3132 -0.1046 -0.2531
  123TMC2     H 1917   0.338   3.031  10.010  0.4534 -0.5732 -0.3217
  123TMC2    H1 1918   0.242   2.787   9.680 -2.7877  1.1219 -0.2666
  123TMC2    H2 1919   0.341   3.191   9.610  0.1902 -0.6057 -0.2976
  123TMC2    C7 1920   0.223   2.968   9.500 -0.2264  0.7897 -0.0433
  123TMC2    C8 1921   0.378   3.250   9.871  0.4324 -0.0775  0.2579
  123TMC2    O1 1922   0.199   2.859   9.456  0.2720  1.0024  0.2702
  123TMC2    O2 1923   0.352   3.281   9.988  0.5988 -0.7952 -0.0461
  123TMC2    O5 1924   0.497   3.275   9.820 -0.0721 -0.7375 -0.0594
  123TMC2    H5 1925   0.524   3.199   9.764  0.8339 -2.4014  2.6131
  124MPD2     C 1926   0.060   2.338  10.064 -0.4713 -0.3800 -0.0688
  124MPD2    C1 1927   4.726   2.390   9.958 -0.2840  0.9564  0.9933
  124MPD2    C2 1928   0.048   2.512   9.903  0.2489  0.9474  0.1583
  124MPD2    C3 1929   0.149   2.581   9.958 -1.0472 -0.2560  0.0844
  124MPD2    C4 1930   0.224   2.520  10.055 -0.5515  0.1319  0.1962
  124MPD2    C5 1931   0.173   2.398  10.105  0.4588  0.1554  0.0803
  124MPD2     H 1932   0.008   2.555   9.812 -0.7238  2.8486  1.5018
  124MPD2    H1 1933   0.310   2.560  10.108  0.2395 -1.7006  0.2904
  124MPD2    H2 1934   0.037   2.239  10.100  1.2367 -1.1399 -1.0796
  124MPD2    H3 1935   0.236   2.347  10.178  0.9870  0.2755 -0.2940
  124MPD2     N 1936   0.189   2.695   9.889 -0.1563 -0.3412  0.2746
  124MPD2    H5 1937   0.133   2.726   9.810  1.5879  2.1133  0.0088
  124MPD2    N1 1938   4.619   2.317   9.902 -0.9761  0.0380 -0.0266
  124MPD2    H7 1939   4.583   2.234   9.947 -0.1986 -0.0513  0.4392
  125TMC2    C1 1940   0.696   4.632   9.031 -0.1523 -0.2116 -0.0684
  125TMC2    C2 1941   0.596   4.551   8.982 -0.4126 -0.9575  0.1339
  125TMC2    C3 1942   0.582   4.425   9.029 -0.0954 -0.7572  1.0810
  125TMC2    C4 1943   0.776   4.591   9.137  0.6280 -0.2423  0.3326
  125TMC2    C5 1944   0.746   4.475   9.196 -1.0716 -0.5737  0.5820
  125TMC2    C6 1945   0.657   4.385   9.139 -0.1150  0.5138  0.6589
  125TMC2     C 1946   0.673   0.038   9.022 -0.1849  1.0287  0.3099
  125TMC2     O 1947   0.622   0.072   8.919  0.6206  0.2141 -0.3409
  125TMC2     H 1948   0.530   4.593   8.907 -2.0800 -1.9815  1.0227
  125TMC2    H1 1949   0.863   4.653   9.158  2.8877 -2.8541 -1.3133
  125TMC2    H2 1950   0.639   4.286   9.179 -2.4042  0.5068 -0.4094
  125TMC2    C7 1951   0.847   4.408   9.281  0.4478  0.7211  0.6737
  125TMC2    C8 1952   0.451   4.362   9.013  0.3472  0.1715 -0.5927
  125TMC2    O1 1953   0.855   4.285   9.287  0.0755 -0.4816 -0.2134
  125TMC2    O2 1954   0.351   4.430   9.004  0.3257  0.1641  0.3128
  125TMC2    O5 1955   0.464   4.228   9.046  0.4446  0.0311 -0.0691
  125TMC2    H5 1956   0.553   4.189   9.035  0.7020  1.2070 -2.0858
  126MPD1     C 1957   0.520   0.488   9.254  0.0502  0.4298  0.2290
  126MPD1    C1 1958   0.553   0.385   9.350  0.2713 -0.3014 -0.3900
  126MPD1    C2 1959   0.572   0.251   9.310  0.3380 -0.0074 -0.3820
  126MPD1    C3 1960   0.597   0.223   9.176 -0.5804 -0.6502  0.1441
  126MPD1    C4 1961   0.571   0.332   9.085 -0.3129  0.3200  0.1972
  126MPD1    C5 1962   0.523   0.452   9.122  0.3546 -0.6440  0.3038
  126MPD1     H 1963   0.582   0.171   9.383 -2.5165  0.5093  0.5786
  126MPD1    H1 1964   0.592   0.327   8.979  1.9404  0.6443  0.6149
  126MPD1    H2 1965   0.509   0.592   9.284  0.4516  0.2433  1.0268
  126MPD1    H3 1966   0.504   0.536   9.057  2.0686  0.3523  1.0905
  126MPD1     N 1967   0.656   0.096   9.144 -0.5392 -0.7492 -0.4539
  126MPD1    H5 1968   0.662   0.028   9.219  0.6846  1.3213  1.3008
  126MPD1    N1 1969   0.528   0.421   9.490 -0.3645 -0.4556  0.3191
  126MPD1    H6 1970   0.597   0.370   9.544 -2.3869 -1.3198  2.0874
  126MPD1    H7 1971   0.540   0.520   9.506 -0.0890  0.2426 -4.2133
  127TMC2    C1 1972   1.461   3.240  10.134 -0.0904  0.4464  0.2516
  127TMC2    C2 1973   1.477   3.306  10.253 -0.2151  0.3688 -0.1988
  127TMC2    C3 1974   1.374   3.316  10.343  0.1570 -0.6108 -0.7036
  127TMC2    C4 1975   1.345   3.168  10.110 -0.6348 -0.1177 -0.2253
  127TMC2    C5 1976   1.245   3.186  10.203  0.5210 -0.5128 -0.0355
  127TMC2    C6 1977   1.258   3.254  10.322  0.8982 -0.4535  0.6878
  127TMC2     C 1978   1.581   3.200  10.063  0.0889  0.4958 -0.1474
  127TMC2     O 1979   1.684   3.238  10.115  0.5849 -0.0625 -0.3547
  127TMC2     H 1980   1.573   3.351  10.276 -0.2764  1.2713 -1.7274
  127TMC2    H1 1981   1.318   3.122  10.015  1.7898 -1.3453 -0.2994
  127TMC2    H2 1982   1.182   3.243  10.399  1.1496  0.3153  1.0393
  127TMC2    C7 1983   1.108   3.156  10.150 -0.0290  0.0089  0.1816
  127TMC2    C8 1984   1.388   3.427  10.442 -0.4425  0.9100 -0.6187
  127TMC2    O1 1985   1.095   3.164  10.030 -0.3291  0.0974  0.2444
  127TMC2    O2 1986   1.499   3.437  10.487 -0.2327 -0.4780  0.0961
  127TMC2    O5 1987   1.275   3.425  10.515  0.1265  0.2571 -0.4670
  127TMC2    H5 1988   1.199   3.433  10.453 -0.4907 -1.4150  0.0711
  128MPD2     C 1989   1.618   2.990   9.765 -0.1417 -0.0676  0.8650
  128MPD2    C1 1990   1.649   3.079   9.862 -0.0320 -0.0424  0.4055
  128MPD2    C2 1991   1.776   3.127   9.856  0.0249 -0.2663 -0.0912
  128MPD2    C3 1992   1.874   3.073   9.772  0.1086  0.3008 -0.2867
  128MPD2    C4 1993   1.843   2.963   9.689  0.3260  0.2803  0.1652
  128MPD2    C5 1994   1.716   2.927   9.693 -0.2666 -0.1872  0.2218
  128MPD2     H 1995   1.811   3.199   9.930 -0.9772  0.2784 -0.1497
  128MPD2    H1 1996   1.911   2.911   9.622  1.9482  0.7977  1.3833
  128MPD2    H2 1997   1.519   2.946   9.770  0.1705 -0.9457 -0.9083
  128MPD2    H3 1998   1.674   2.846   9.636 -0.3285 -0.4676  0.6619
  128MPD2     N 1999   1.998   3.137   9.770 -0.3010 -0.6499  0.2926
  128MPD2    H5 2000   2.007   3.211   9.838 -0.8560 -0.7014  0.4239
  128MPD2    N1 2001   1.553   3.129   9.952  0.6972 -0.1863  0.1701
  128MPD2    H7 2002   1.456   3.104   9.938  0.2846  1.5307  0.0515
  129TMC2    C1 2003   0.539   4.258   1.082 -0.2134 -0.0828  0.3766
  129TMC2    C2 2004   0.621   4.217   1.184  0.1346  0.1624  0.7280
  129TMC2    C3 2005   0.579   4.107   1.261 -0.5447 -0.0545 -0.3339
  129TMC2    C4 2006   0.414   4.204   1.057  0.3056  0.0654  0.3827
  129TMC2    C5 2007   0.385   4.089   1.127  0.5916 -0.0158  0.3258
  129TMC2    C6 2008   0.458   4.048   1.234 -0.4340  0.0016 -0.4366
  129TMC2     C 2009   0.592   4.321   0.962  0.0490  0.0611  0.1174
  129TMC2     O 2010   0.548   4.265   0.863  0.0512  0.2254 -0.6344
  129TMC2     H 2011   0.720   4.259   1.198 -0.1097  0.4769  1.5039
  129TMC2    H1 2012   0.348   4.229   0.975  0.1859 -1.2653  0.0786
  129TMC2    H2 2013   0.432   3.969   1.303  0.2326  0.0110 -0.1773
  129TMC2    C7 2014   0.254   4.044   1.113  0.3010 -0.4794  0.2078
  129TMC2    C8 2015   0.665   4.038   1.358  0.2249 -0.6715  0.3389
  129TMC2    O1 2016   0.166   4.122   1.082 -0.3668  0.3438  0.6386
  129TMC2    O2 2017   0.661   3.917   1.372  0.2106  0.3084 -0.3555
  129TMC2    O5 2018   0.752   4.128   1.403 -0.0458  0.5595  0.1084
  129TMC2    H5 2019   0.716   4.216   1.376  2.1126  0.3536 -3.3760
  130MPD2     C 2020   0.748   4.452   0.753  0.2223 -0.6726 -0.0442
  130MPD2    C1 2021   0.777   4.457   0.889 -0.2165  0.1096 -0.3820
  130MPD2    C2 2022   0.884   4.533   0.933 -0.1006 -0.0086 -0.2371
  130MPD2    C3 2023   0.958   4.617   0.848  0.0274 -0.4288  0.1642
  130MPD2    C4 2024   0.926   4.616   0.711 -0.1481  0.1373 -0.3544
  130MPD2    C5 2025   0.822   4.529   0.669 -1.1518 -0.1071  0.5795
  130MPD2     H 2026   0.902   4.546   1.040  0.7182 -1.6324 -0.1817
  130MPD2    H1 2027   0.981   4.671   0.635  0.1730 -1.8413 -1.5396
  130MPD2    H2 2028   0.659   4.410   0.708  0.9282 -2.0817 -0.0988
  130MPD2    H3 2029   0.813   4.518   0.562  2.0909 -1.7585  0.4509
  130MPD2     N 2030   1.047   4.702   0.917 -0.2024  0.1631 -0.0289
  130MPD2    H5 2031   1.057   4.677   1.015  1.2399  1.3582  0.1267
  130MPD2    N1 2032   0.693   4.410   0.992 -0.3509  0.2403 -0.5500
  130MPD2    H7 2033   0.710   4.434   1.089  0.7986  1.7624 -1.1407
  131TMC2    C1 2034   4.381   3.114  10.104  0.1918  0.8482  0.4442
  131TMC2    C2 2035   4.272   3.188  10.151  0.3925  0.1018 -0.0436
  131TMC2    C3 2036   4.307   3.310  10.200 -0.4936 -0.0596  0.2894
  131TMC2    C4 2037   4.513   3.152  10.120  0.2801  0.4241 -0.0181
  131TMC2    C5 2038   4.536   3.277  10.170 -0.6231  0.1738 -0.5948
  131TMC2    C6 2039   4.433   3.360  10.209 -0.2605  0.6610 -0.1467
  131TMC2     C 2040   4.355   3.005  10.014  0.4157 -0.6922 -0.4370
  131TMC2     O 2041   4.443   2.943   9.968 -0.3205 -0.3247 -0.3467
  131TMC2     H 2042   4.167   3.174  10.128  0.6667  0.0392 -1.3060
  131TMC2    H1 2043   4.592   3.093  10.074 -0.4811  0.4797 -1.3841
  131TMC2    H2 2044   4.440   3.466  10.232 -1.9066  0.4099  1.4995
  131TMC2    C7 2045   4.659   3.336  10.131 -0.5077  0.3254  0.0365
  131TMC2    C8 2046   4.204   3.407  10.198 -0.1098  0.5368  0.4445
  131TMC2    O1 2047   4.718   3.272  10.047  0.4816 -0.1403 -0.2471
  131TMC2    O2 2048   4.237   3.527  10.189  0.2076 -0.0774 -0.1970
  131TMC2    O5 2049   4.110   3.368  10.285 -0.1243  0.3849  0.2965
  131TMC2    H5 2050   4.105   3.273  10.311  0.0629  0.0020 -1.0247
  132MPD2     C 2051   4.087   2.976   9.786 -0.3929 -0.1065  0.3504
  132MPD2    C1 2052   4.191   2.934   9.856  0.5040 -0.0838 -0.6101
  132MPD2    C2 2053   4.222   2.801   9.864  0.9430 -0.1241 -0.9906
  132MPD2    C3 2054   4.162   2.707   9.787  0.0722  0.5552  0.1698
  132MPD2    C4 2055   4.065   2.752   9.702 -0.4333  0.2375  0.0982
  132MPD2    C5 2056   4.022   2.880   9.708 -0.0202  0.4684 -0.2746
  132MPD2     H 2057   4.301   2.763   9.928 -1.4231 -1.1511  1.2926
  132MPD2    H1 2058   3.997   2.687   9.647 -0.8893  1.8558 -1.2356
  132MPD2    H2 2059   4.049   3.076   9.767  0.6835  0.2185 -0.0508
  132MPD2    H3 2060   3.934   2.913   9.654 -1.2733 -2.0767  0.2271
  132MPD2     N 2061   4.204   2.574   9.786 -0.6253 -0.7524 -0.5478
  132MPD2    H5 2062   4.295   2.554   9.825  1.1427 -0.1302 -4.3909
  132MPD2    N1 2063   4.233   3.026   9.946 -0.5383  0.0187 -0.0332
  132MPD2    H7 2064   4.182   3.113   9.951  2.5751  1.8209  0.4122
  133TMC2    C1 2065   3.993   3.773   9.379  0.0546 -0.2966 -0.2562
  133TMC2    C2 2066   4.038   3.887   9.316 -0.4877 -0.4077 -0.6479
  133TMC2    C3 2067   4.113   3.974   9.391 -0.0369  0.2527 -1.0085
  133TMC2    C4 2068   4.018   3.754   9.509  0.6809 -0.1746 -0.4784
  133TMC2    C5 2069   4.094   3.839   9.584 -0.3473  0.4056  0.5686
  133TMC2    C6 2070   4.141   3.955   9.524 -0.6561 -0.1970 -0.7956
  133TMC2     C 2071   3.909   3.679   9.308 -0.5126 -0.7727  0.1758
  133TMC2     O 2072   3.829   3.617   9.375 -0.0017 -0.5742  0.4082
  133TMC2     H 2073   4.005   3.910   9.216 -0.6288  0.3193 -0.4344
  133TMC2    H1 2074   3.955   3.679   9.556 -0.3029  0.8871 -0.1048
  133TMC2    H2 2075   4.210   4.022   9.574  0.3791  0.7495 -3.5131
  133TMC2    C7 2076   4.105   3.810   9.729  0.5792  0.0226 -0.3993
  133TMC2    C8 2077   4.182   4.077   9.314  0.8438  0.2761  0.5869
  133TMC2    O1 2078   4.070   3.698   9.757  0.0367 -0.8146 -0.0620
  133TMC2    O2 2079   4.242   4.168   9.363  0.5242  0.5467 -0.2589
  133TMC2    O5 2080   4.221   4.018   9.203  0.1639 -0.6547 -0.1613
  133TMC2    H5 2081   4.191   3.925   9.187  0.9217 -1.2681  2.0419
  134MPD2     C 2082   3.944   3.562   8.950  0.1996  0.1347  0.8094
  134MPD2    C1 2083   3.894   3.568   9.079  0.0884  0.0405 -0.5747
  134MPD2    C2 2084   3.791   3.480   9.114  0.2849 -0.0559  0.1959
  134MPD2    C3 2085   3.744   3.385   9.027 -0.3784 -0.1386  0.3078
  134MPD2    C4 2086   3.801   3.386   8.899  0.6696 -0.8940  0.4381
  134MPD2    C5 2087   3.890   3.482   8.860  0.4618 -0.2224  0.1531
  134MPD2     H 2088   3.744   3.490   9.211  0.9351 -1.8787  0.7033
  134MPD2    H1 2089   3.767   3.315   8.825  1.6214  0.2328 -1.0653
  134MPD2    H2 2090   4.027   3.629   8.926  1.1618 -1.8673 -1.4359
  134MPD2    H3 2091   3.922   3.483   8.756  0.5149 -2.5000  0.1480
  134MPD2     N 2092   3.634   3.303   9.053  0.5816 -0.3803  0.2409
  134MPD2    H5 2093   3.610   3.230   8.987  0.7281 -0.5546  0.3778
  134MPD2    N1 2094   3.951   3.658   9.176  0.5848  0.2591 -0.2712
  134MPD2    H7 2095   4.026   3.714   9.135  1.5451 -1.1621 -0.4499
  135TMC2    C1 2096   0.932   0.582   9.620 -0.4939 -0.6886  0.1093
  135TMC2    C2 2097   1.069   0.572   9.646 -0.4681 -0.1533 -0.6380
  135TMC2    C3 2098   1.112   0.621   9.762  0.2101  0.2387  0.0081
  135TMC2    C4 2099   0.848   0.642   9.712 -0.0428 -0.1658  0.0095
  135TMC2    C5 2100   0.899   0.695   9.826  0.2942 -0.1254  0.1336
  135TMC2    C6 2101   1.031   0.684   9.853  0.5119  1.0820  0.6875
  135TMC2     C 2102   0.882   0.538   9.488 -1.0304  0.1707  0.5377
  135TMC2     O 2103   0.794   0.608   9.443 -0.7125  0.0578  0.8391
  135TMC2     H 2104   1.138   0.520   9.581 -1.0339  0.1484 -1.4909
  135TMC2    H1 2105   0.743   0.658   9.687  0.0852  0.9950  0.2126
  135TMC2    H2 2106   1.079   0.725   9.941 -1.2292 -0.0529  2.1709
  135TMC2    C7 2107   0.813   0.727   9.937 -0.3679 -0.1650  0.1230
  135TMC2    C8 2108   1.248   0.581   9.798 -0.7606  0.1147 -0.2600
  135TMC2    O1 2109   0.713   0.792   9.915  0.1524  0.2834 -0.2388
  135TMC2    O2 2110   1.278   0.589   9.919  0.4466 -0.0650 -0.1034
  135TMC2    O5 2111   1.326   0.637   9.705  0.6836  0.3701 -0.1409
  135TMC2    H5 2112   1.279   0.656   9.621  0.1524  1.0219  0.3048
  136MPD2     C 2113   0.892   0.453   9.203 -0.1752 -0.2271 -0.0947
  136MPD2    C1 2114   0.963   0.392   9.306 -0.9831 -0.3999 -0.7140
  136MPD2    C2 2115   1.048   0.288   9.278  0.2251  0.5620 -0.6037
  136MPD2    C3 2116   1.049   0.231   9.154 -0.7235  0.1407  0.3242
  136MPD2    C4 2117   0.979   0.291   9.050 -0.2893  0.7802  0.0808
  136MPD2    C5 2118   0.910   0.405   9.073  0.0581  0.2974  0.0581
  136MPD2     H 2119   1.110   0.249   9.358 -0.8744  0.1953  0.0648
  136MPD2    H1 2120   0.980   0.235   8.958 -2.1332  0.4950  0.2456
  136MPD2    H2 2121   0.817   0.530   9.218  1.1181  0.9615  0.2562
  136MPD2    H3 2122   0.855   0.450   8.991  0.8140 -2.5512 -2.0089
  136MPD2     N 2123   1.114   0.109   9.129 -0.6519 -0.7978 -0.4109
  136MPD2    H5 2124   1.109   0.068   9.036 -2.2770 -0.4061 -0.5000
  136MPD2    N1 2125   0.960   0.442   9.437 -0.1022 -0.2924 -0.0405
  136MPD2    H7 2126   1.006   0.385   9.506 -1.4313 -1.0282  0.2526
  137TMC2    C1 2127   0.270   4.637   9.265  0.6861  0.0630  0.5207
  137TMC2    C2 2128   0.269   0.025   9.198 -0.4383 -0.6280 -0.2839
  137TMC2    C3 2129   0.150   0.097   9.189 -0.1509 -0.3500  0.6647
  137TMC2    C4 2130   0.165   4.595   9.334 -0.0904 -0.2492  0.3226
  137TMC2    C5 2131   0.049   4.663   9.315 -0.6258  0.9276  0.3138
  137TMC2    C6 2132   0.036   0.046   9.247 -0.2444  0.0327  0.4620
  137TMC2     C 2133   0.405   4.587   9.303  0.5545  0.3103 -0.4172
  137TMC2     O 2134   0.502   4.660   9.306 -0.0580  0.1087 -0.1680
  137TMC2     H 2135   0.358   0.077   9.163 -1.7088  0.6495 -1.5874
  137TMC2    H1 2136   0.181   4.510   9.401  3.5784  1.6074  1.7766
  137TMC2    H2 2137   4.679   0.098   9.258  0.6261  1.0654  3.1458
  137TMC2    C7 2138   4.676   4.623   9.392  0.7240 -0.3846  0.8495
  137TMC2    C8 2139   0.145   0.228   9.133 -0.1205 -0.7903  0.4369
  137TMC2    O1 2140   4.560   4.644   9.356 -0.2913  0.4158  0.0411
  137TMC2    O2 2141   0.059   0.314   9.157 -0.6132  0.1081 -0.3671
  137TMC2    O5 2142   0.219   0.220   9.026 -0.2936  0.4503 -0.0874
  137TMC2    H5 2143   0.259   0.136   8.996 -1.3578  0.5192 -1.6756
  138MPD2     C 2144   0.488   4.259   9.428 -0.0553 -0.3751 -0.6192
  138MPD2    C1 2145   0.484   4.395   9.429 -0.6918  0.3763  0.0745
  138MPD2    C2 2146   0.568   4.468   9.508 -0.2563  0.0261  0.1146
  138MPD2    C3 2147   0.661   4.410   9.593 -0.1263 -0.4767 -0.0428
  138MPD2    C4 2148   0.650   4.278   9.597 -0.1868  0.3798  0.2845
  138MPD2    C5 2149   0.573   4.205   9.518 -0.0904 -0.0168  0.2788
  138MPD2     H 2150   0.561   4.576   9.511  3.6177  0.3322 -1.6138
  138MPD2    H1 2151   0.707   4.220   9.669  0.9128 -1.0068 -1.7108
  138MPD2    H2 2152   0.415   4.204   9.369 -1.8760  1.0752  0.2848
  138MPD2    H3 2153   0.577   4.097   9.526 -0.4773 -0.1959 -2.0014
  138MPD2     N 2154   0.763   4.475   9.672 -0.4819 -0.0596  0.0224
  138MPD2    H5 2155   0.821   4.407   9.719  1.0559  1.3150  0.0979
  138MPD2    N1 2156   0.397   4.455   9.339 -0.4310 -0.2312  0.5080
  138MPD2    H7 2157   0.319   4.401   9.301  0.8471 -0.9736 -1.0615
  139TMC2    C1 2158   0.939   2.635  13.672 -0.1399 -0.3743 -0.3695
  139TMC2    C2 2159   1.070   2.669  13.696 -0.1019 -0.4147  0.2105
  139TMC2    C3 2160   1.086   2.773  13.783 -0.7716 -0.6592  0.0634
  139TMC2    C4 2161   0.831   2.704  13.731 -0.5923 -0.5421 -0.4062
  139TMC2    C5 2162   0.857   2.810  13.816  0.5556  0.4096  0.3311
  139TMC2    C6 2163   0.986   2.846  13.840 -0.3677  0.7882  0.0772
  139TMC2     C 2164   0.915   2.513  13.593  0.1141  0.2046 -0.4909
  139TMC2     O 2165   1.017   2.452  13.570  0.3025 -0.0322  0.4401
  139TMC2     H 2166   1.156   2.612  13.664  0.3971  2.4467 -3.6078
  139TMC2    H1 2167   0.728   2.674  13.713 -1.4819  2.2641  0.0478
  139TMC2    H2 2168   1.009   2.923  13.913  1.1006 -1.0477  1.5633
  139TMC2    C7 2169   0.767   2.920  13.850 -0.2460 -0.5058 -0.7833
  139TMC2    C8 2170   1.217   2.794  13.831 -0.4149 -0.1803  0.1680
  139TMC2    O1 2171   0.811   2.996  13.935  0.1442  0.3716  0.4826
  139TMC2    O2 2172   1.314   2.767  13.763  0.1792  0.0482 -0.0552
  139TMC2    O5 2173   1.201   2.781  13.969  0.4203  0.5597 -0.1453
  139TMC2    H5 2174   1.111   2.785  14.009  0.9486  2.9626  0.7530
  140MPD2     C 2175   0.602   2.364  13.489 -0.1728  0.0162 -0.0667
  140MPD2    C1 2176   0.735   2.365  13.520 -0.0060  0.2737  0.1371
  140MPD2    C2 2177   0.811   2.250  13.500 -0.0610 -0.0822  0.5153
  140MPD2    C3 2178   0.759   2.137  13.449  0.2309  0.8129  0.0919
  140MPD2    C4 2179   0.627   2.136  13.418 -0.2556 -0.3159  0.3164
  140MPD2    C5 2180   0.553   2.255  13.429 -0.0788  0.4131 -0.5894
  140MPD2     H 2181   0.912   2.232  13.534 -0.4118 -1.5197  0.7925
  140MPD2    H1 2182   0.583   2.040  13.394  1.6742 -0.9422 -0.7082
  140MPD2    H2 2183   0.538   2.452  13.498 -1.3466 -0.7332 -1.0008
  140MPD2    H3 2184   0.448   2.256  13.405 -0.0623  0.8187 -0.6525
  140MPD2     N 2185   0.841   2.031  13.442  0.1065  0.4919  0.1162
  140MPD2    H5 2186   0.926   2.042  13.498  0.3783  0.0184 -0.1975
  140MPD2    N1 2187   0.784   2.491  13.569 -0.0599 -0.5752 -0.0969
  140MPD2    H7 2188   0.709   2.556  13.592 -0.7885 -1.5784  0.3586
  141TMC2    C1 2189   1.933   4.031  14.274 -0.6886 -0.3762 -0.3292
  141TMC2    C2 2190   1.966   3.919  14.332 -0.3011 -0.2469  0.2487
  141TMC2    C3 2191   2.003   3.925  14.462  0.7077  0.1857  0.0517
  141TMC2    C4 2192   1.941   4.150  14.334  0.0100 -0.0319 -0.4231
  141TMC2    C5 2193   1.997   4.159  14.458 -0.4154 -0.2125  0.6575
  141TMC2    C6 2194   2.014   4.045  14.532  0.0022 -0.0208 -0.0436
  141TMC2     C 2195   1.930   4.039  14.128 -0.2688 -0.4867  0.1952
  141TMC2     O 2196   1.881   4.135  14.077 -0.4364 -0.6002 -0.2958
  141TMC2     H 2197   1.957   3.823  14.282  0.6288 -0.0005 -0.3863
  141TMC2    H1 2198   1.925   4.238  14.273 -0.2133  0.1524 -0.0978
  141TMC2    H2 2199   2.049   4.049  14.634  2.8657 -2.0140 -0.9325
  141TMC2    C7 2200   2.006   4.295  14.519 -0.1885 -0.0443  0.1626
  141TMC2    C8 2201   2.019   3.798  14.526 -0.7631 -0.1672  1.0468
  141TMC2    O1 2202   1.949   4.379  14.454 -0.0369  0.5211 -0.8205
  141TMC2    O2 2203   1.954   3.698  14.493  0.2734  0.3430  0.3619
  141TMC2    O5 2204   2.147   3.793  14.565 -0.3933 -0.1228 -0.0012
  141TMC2    H5 2205   2.209   3.858  14.524  0.7550  0.5552  2.7612
  142TMC2    C1 2206   4.299   2.497   9.210  0.6931  0.0393  0.0498
  142TMC2    C2 2207   4.201   2.541   9.131 -0.2154  0.5542 -0.1750
  142TMC2    C3 2208   4.210   2.666   9.071 -0.3091 -0.5559  0.3444
  142TMC2    C4 2209   4.422   2.562   9.224 -0.0632 -0.5188  0.1766
  142TMC2    C5 2210   4.427   2.690   9.174  0.4670  1.1713 -0.1526
  142TMC2    C6 2211   4.324   2.743   9.096 -0.2200 -0.2687 -0.1857
  142TMC2     C 2212   4.279   2.361   9.267 -0.6416  0.2720  0.4727
  142TMC2     O 2213   4.165   2.318   9.268 -0.1346  0.7358 -0.1794
  142TMC2     H 2214   4.105   2.492   9.144 -0.0105  0.0514 -0.5473
  142TMC2    H1 2215   4.496   2.521   9.291  0.3942 -1.3350 -0.8344
  142TMC2    H2 2216   4.319   2.846   9.061  1.8171  0.0602  0.5124
  142TMC2    C7 2217   4.533   2.770   9.228  0.1099 -0.5712  0.0569
  142TMC2    C8 2218   4.099   2.730   9.012  0.1250 -0.4342 -0.2351
  142TMC2    O1 2219   4.613   2.709   9.300  0.7773  0.0551  0.1525
  142TMC2    O2 2220   4.073   2.851   9.007  0.5180 -0.4845 -0.2354
  142TMC2    O5 2221   4.025   2.631   8.964 -0.4076 -0.7875 -0.3287
  142TMC2    H5 2222   4.065   2.543   8.978 -0.4398 -0.6609  0.6059
  143MPD2     C 2223   4.453   1.978   9.556  0.0122 -0.2128  0.6190
  143MPD2    C1 2224   4.320   2.018   9.524  0.3860  0.2538  0.0606
  143MPD2    C2 2225   4.304   2.127   9.439  0.5044  0.0980 -0.1142
  143MPD2    C3 2226   4.415   2.192   9.384  0.5336  0.0588  0.2080
  143MPD2    C4 2227   4.543   2.149   9.412 -0.0168  0.2366 -0.6835
  143MPD2    C5 2228   4.561   2.050   9.501  0.3101 -0.7013  0.7134
  143MPD2     H 2229   4.202   2.161   9.426  0.1025 -0.7414  0.8251
  143MPD2    H1 2230   4.628   2.194   9.362  2.0328 -0.6473  1.9802
  143MPD2    H2 2231   4.480   1.906   9.631 -0.3292  1.6226  2.5175
  143MPD2    H3 2232   4.658   2.008   9.526 -0.1628 -2.3950 -0.2349
  143MPD2     N 2233   4.396   2.299   9.298  0.2194  0.0441 -0.1876
  143MPD2    H5 2234   4.484   2.339   9.268 -0.5900  0.1352 -2.4790
  143MPD2    N1 2235   4.209   1.953   9.585 -0.0997  0.6881  0.0244
  143MPD2    H7 2236   4.237   1.900   9.667 -2.4061  0.3580  0.5816
  144TMC2    C1 2237   2.466   1.987   0.628 -0.3586  0.1989 -0.2207
  144TMC2    C2 2238   2.512   1.888   0.543  0.2120 -0.2058 -0.6887
  144TMC2    C3 2239   2.632   1.827   0.578  0.2205  0.4689 -0.4082
  144TMC2    C4 2240   2.525   2.025   0.747 -0.2673  0.1781  0.2412
  144TMC2    C5 2241   2.642   1.958   0.781 -0.2068 -0.3106  0.1343
  144TMC2    C6 2242   2.699   1.864   0.696 -1.0737  0.2310  0.2960
  144TMC2     C 2243   2.358   2.063   0.571  0.1533 -0.0757 -0.0266
  144TMC2     O 2244   2.283   2.011   0.487 -0.0211 -0.4918  0.3371
  144TMC2     H 2245   2.467   1.867   0.447  0.9185  0.1681 -1.0989
  144TMC2    H1 2246   2.472   2.091   0.815  1.2860  0.1269  1.5056
  144TMC2    H2 2247   2.798   1.833   0.728 -1.0964 -0.0791  0.0584
  144TMC2    C7 2248   2.717   1.999   0.891  0.6474 -0.3258  0.4299
  144TMC2    C8 2249   2.676   1.715   0.495 -0.3778 -0.1238 -0.5394
  144TMC2    O1 2250   2.799   1.927   0.944  0.2042  0.1412 -0.7337
  144TMC2    O2 2251   2.599   1.641   0.437  0.5684  0.2427  0.4746
  144TMC2    O5 2252   2.797   1.676   0.530 -0.7890  0.1382  0.0781
  144TMC2    H5 2253   2.825   1.729   0.608  1.1398 -1.8920  0.7649
  145MPD2     C 2254   2.046   2.470   0.611  0.1781  0.4891 -0.1826
  145MPD2    C1 2255   2.032   2.352   0.539  0.5241 -0.1633  0.2312
  145MPD2    C2 2256   2.126   2.251   0.551 -0.2313 -0.4682  0.0095
  145MPD2    C3 2257   2.250   2.281   0.616 -0.4972 -0.8171 -0.2861
  145MPD2    C4 2258   2.273   2.409   0.662  0.4852  0.3870  0.3257
  145MPD2    C5 2259   2.163   2.493   0.673 -0.2876  0.2743 -0.5634
  145MPD2     H 2260   2.105   2.156   0.502 -0.3788 -0.0511 -0.7411
  145MPD2    H1 2261   2.368   2.439   0.705  0.7157 -0.3674  0.3418
  145MPD2    H2 2262   1.970   2.547   0.624 -0.0967  0.2899 -0.5878
  145MPD2    H3 2263   2.181   2.590   0.718  3.3594 -0.3735 -0.6008
  145MPD2     N 2264   2.352   2.186   0.631 -0.6207 -0.3573  0.3964
  145MPD2    H5 2265   2.433   2.215   0.685  0.9066 -0.7767 -1.6461
  145MPD2    N1 2266   1.909   2.301   0.477  0.6635  0.0318  0.5462
  145MPD2    H7 2267   1.908   2.206   0.440  1.7021  0.1867  0.1363
  146TMC2    C1 2268   4.120   4.447  12.263 -0.7785 -0.1439  0.4202
  146TMC2    C2 2269   4.097   4.423  12.133 -0.0241 -0.1259  0.2423
  146TMC2    C3 2270   4.196   4.377  12.052  0.3523  0.1560  0.2359
  146TMC2    C4 2271   4.243   4.414  12.310 -0.6034  0.2304  0.1625
  146TMC2    C5 2272   4.337   4.364  12.226 -0.2906 -0.1860  0.3876
  146TMC2    C6 2273   4.324   4.342  12.092 -0.7116 -0.5967 -0.3861
  146TMC2     C 2274   4.017   4.520  12.339 -0.6733  0.0148 -0.0761
  146TMC2     O 2275   3.928   4.575  12.271  0.3848 -0.0866 -0.6564
  146TMC2     H 2276   4.004   4.464  12.095  1.0352  0.8800 -1.2670
  146TMC2    H1 2277   4.275   4.447  12.408 -1.2704  1.1928  0.0519
  146TMC2    H2 2278   4.400   4.307  12.024 -2.5531 -1.8358 -1.8327
  146TMC2    C7 2279   4.476   4.349  12.272  0.5839  0.5726 -0.4963
  146TMC2    C8 2280   4.165   4.385  11.908 -0.7470  0.1577  0.0609
  146TMC2    O1 2281   4.558   4.382  12.190 -0.2205  0.2841  0.1358
  146TMC2    O2 2282   4.255   4.397  11.823  0.2276  0.7932  0.5826
  146TMC2    O5 2283   4.033   4.369  11.867 -0.0870 -0.5380  0.9216
  146TMC2    H5 2284   3.974   4.331  11.935 -2.0814  1.6678  0.4378
  147MPD2     C 2285   0.092   4.333  12.657  0.0295 -0.2198  0.2575
  147MPD2    C1 2286   4.712   4.285  12.705 -0.1751  0.5943 -0.0749
  147MPD2    C2 2287   4.604   4.264  12.616 -0.5425  1.2347 -0.8721
  147MPD2    C3 2288   4.611   4.306  12.486  0.5513 -0.0339  1.1185
  147MPD2    C4 2289   4.732   4.348  12.437  0.0243  0.1741 -0.6825
  147MPD2    C5 2290   0.104   4.362  12.524  0.2767  0.6371  0.7363
  147MPD2     H 2291   4.512   4.220  12.653  1.2477 -2.0349 -0.3520
  147MPD2    H1 2292   0.010   4.385  12.336 -2.7269 -1.8264 -1.8240
  147MPD2    H2 2293   0.184   4.347  12.713 -0.4084  2.3794  0.3093
  147MPD2    H3 2294   0.197   4.386  12.473 -1.2339  1.7460 -1.5076
  147MPD2     N 2295   4.492   4.309  12.407 -0.5868  0.6263  0.1671
  147MPD2    H5 2296   4.408   4.269  12.449  0.5066  0.8028  2.5098
  147MPD2    N1 2297   4.714   4.257  12.843  0.1501  0.4181  0.5650
  147MPD2    H7 2298   0.056   4.287  12.897 -0.4577 -1.0472  2.2380
  148TMC2    C1 2299   4.547   3.382  10.810 -0.2351  0.0855 -0.4291
  148TMC2    C2 2300   4.566   3.496  10.739 -0.4930  0.2407 -0.3493
  148TMC2    C3 2301   4.635   3.479  10.618  0.2545 -1.3006 -0.2189
  148TMC2    C4 2302   4.601   3.263  10.772  0.0335 -0.2860  0.2415
  148TMC2    C5 2303   4.655   3.250  10.648 -0.1996  0.4319  1.2041
  148TMC2    C6 2304   4.662   3.354  10.566 -0.1097 -0.0883  0.2109
  148TMC2     C 2305   4.418   3.374  10.870  0.1766  0.1969 -0.0582
  148TMC2     O 2306   4.379   3.467  10.937 -0.2454 -0.4033  0.0919
  148TMC2     H 2307   4.521   3.592  10.760  1.4903  1.1406 -0.1976
  148TMC2    H1 2308   4.592   3.182  10.844 -0.5093  0.7440  1.3434
  148TMC2    H2 2309   4.696   3.349  10.463 -1.2847  2.4135 -0.2824
  148TMC2    C7 2310   4.622   3.132  10.579  0.1553  0.1829 -0.4272
  148TMC2    C8 2311   4.618   3.587  10.522 -0.2642 -0.7445 -0.1333
  148TMC2    O1 2312   4.524   3.075  10.623  0.7489  0.5375 -0.7522
  148TMC2    O2 2313   4.577   3.557  10.415  0.6066 -0.0892 -0.2359
  148TMC2    O5 2314   4.602   3.707  10.576  0.1578 -0.7603  0.1593
  148TMC2    H5 2315   4.632   3.718  10.669 -3.0973  0.3523  1.0918
  149MPD2     C 2316   4.145   3.295  10.955  0.2800  0.1868 -0.3874
  149MPD2    C1 2317   4.222   3.233  10.854  0.6199  0.0079 -0.5698
  149MPD2    C2 2318   4.165   3.136  10.773  0.5994 -0.1331  0.3344
  149MPD2    C3 2319   4.032   3.105  10.785 -0.1395 -0.8653  0.5758
  149MPD2    C4 2320   3.957   3.167  10.883  0.2732 -0.2193  0.5437
  149MPD2    C5 2321   4.014   3.255  10.970  0.1550  0.4262  0.5559
  149MPD2     H 2322   4.225   3.094  10.693 -0.2026 -1.2752  0.3410
  149MPD2    H1 2323   3.858   3.125  10.897  1.2156 -2.7402 -0.3566
  149MPD2    H2 2324   4.180   3.368  11.027  1.7623 -1.3145  0.4174
  149MPD2    H3 2325   3.957   3.310  11.044 -0.5710 -0.2059  0.4678
  149MPD2     N 2326   3.960   3.010  10.715  0.0301 -0.0458 -0.2478
  149MPD2    H5 2327   3.859   3.005  10.728  0.0416 -0.3990 -0.3023
  149MPD2    N1 2328   4.358   3.260  10.834  0.4232 -0.1441 -0.0826
  149MPD2    H7 2329   4.416   3.206  10.772 -1.5332 -0.1496 -1.8935
  150TMC2    C1 2330   1.514   3.012  12.415 -0.6477 -0.1293  0.4094
  150TMC2    C2 2331   1.467   3.131  12.469  0.1756  0.2726 -0.4058
  150TMC2    C3 2332   1.544   3.198  12.561 -0.5082 -0.3896  0.7446
  150TMC2    C4 2333   1.631   2.954  12.458 -0.4056  0.0454  0.1855
  150TMC2    C5 2334   1.697   3.023  12.556 -0.1488 -0.4046  0.1323
  150TMC2    C6 2335   1.664   3.151  12.601  0.2652 -0.3150 -0.2838
  150TMC2     C 2336   1.423   2.937  12.333 -0.4318 -0.8153 -0.9297
  150TMC2     O 2337   1.441   2.816  12.332 -0.4165 -0.0935  0.3149
  150TMC2     H 2338   1.369   3.163  12.436 -0.3848  1.6108  2.6039
  150TMC2    H1 2339   1.670   2.867  12.407  3.8747  1.5947  0.8003
  150TMC2    H2 2340   1.716   3.203  12.682 -1.2575 -0.6041  0.8806
  150TMC2    C7 2341   1.822   2.967  12.597 -0.0713  0.2029 -0.1928
  150TMC2    C8 2342   1.486   3.310  12.643  0.0447 -0.0646 -0.4239
  150TMC2    O1 2343   1.902   3.044  12.648 -0.2938  0.5205 -0.6713
  150TMC2    O2 2344   1.553   3.384  12.709 -1.1507 -0.1724  0.3133
  150TMC2    O5 2345   1.363   3.343  12.593 -0.1428  0.2581  0.0125
  150TMC2    H5 2346   1.326   3.418  12.643 -2.0966 -0.3077 -0.6055
  151MPD2     C 2347   1.003   2.851  12.047 -0.4944 -0.8292 -0.5682
  151MPD2    C1 2348   1.033   2.988  12.042 -0.0115 -0.0382  0.4312
  151MPD2    C2 2349   1.143   3.039  12.117  0.1018 -0.6050  0.7681
  151MPD2    C3 2350   1.222   2.947  12.182  0.6529  0.2300  0.2693
  151MPD2    C4 2351   1.199   2.810  12.175 -0.3219 -0.4394 -0.6359
  151MPD2    C5 2352   1.086   2.764  12.113  0.3145  0.0535  0.3251
  151MPD2     H 2353   1.161   3.144  12.136 -3.7314  0.0105  1.0307
  151MPD2    H1 2354   1.264   2.738  12.222  0.8445  0.3791 -1.0148
  151MPD2    H2 2355   0.908   2.819  12.007 -0.4667 -2.2234  0.5067
  151MPD2    H3 2356   1.062   2.659  12.102 -0.9093  0.2759  0.7742
  151MPD2     N 2357   1.325   3.007  12.265  0.1117  0.0775  0.5732
  151MPD2    H5 2358   1.345   3.106  12.254 -1.4410  0.2368 -0.7838
  151MPD2    N1 2359   0.941   3.073  11.974 -0.5135 -0.1921  0.2398
  151MPD2    H7 2360   0.855   3.027  11.945  0.5450 -2.4750  0.6975
  152TMC2    C1 2361   1.002   2.671  12.507 -0.5197 -0.0818 -0.8692
  152TMC2    C2 2362   1.066   2.559  12.456 -1.1522  0.6500 -0.5247
  152TMC2    C3 2363   1.201   2.555  12.473 -0.5457 -0.2108 -0.4148
  152TMC2    C4 2364   1.065   2.772  12.576 -0.9737 -0.0596  0.0553
  152TMC2    C5 2365   1.199   2.752  12.600 -0.0425  0.4785  0.4686
  152TMC2    C6 2366   1.272   2.650  12.543  0.0856  0.4283 -0.3133
  152TMC2     C 2367   0.865   2.689  12.494  0.7267 -0.9331  0.1206
  152TMC2     O 2368   0.823   2.802  12.491  0.4358  0.2222 -0.5061
  152TMC2     H 2369   1.029   2.503  12.370 -2.6345 -1.1224  1.2778
  152TMC2    H1 2370   1.009   2.851  12.626  0.7333  1.1346  0.0672
  152TMC2    H2 2371   1.378   2.664  12.526 -0.7831  4.1428 -2.8019
  152TMC2    C7 2372   1.268   2.865  12.661  0.8576 -0.4331  0.2305
  152TMC2    C8 2373   1.280   2.458  12.403 -0.3424 -0.5327  0.2510
  152TMC2    O1 2374   1.208   2.970  12.662  0.0955  0.4113  0.2140
  152TMC2    O2 2375   1.403   2.477  12.399 -0.1523  0.9475  0.0710
  152TMC2    O5 2376   1.208   2.353  12.355 -0.0371  1.0297 -0.0946
  152TMC2    H5 2377   1.113   2.360  12.377 -0.4856 -2.0214 -1.0768
  153MPD2     C 2378   0.609   2.465  12.621  0.2876 -0.2046  0.1771
  153MPD2    C1 2379   0.661   2.589  12.580  0.8745  0.1733 -0.5689
  153MPD2    C2 2380   0.585   2.708  12.595 -1.3408 -0.1707  0.2490
  153MPD2    C3 2381   0.463   2.699  12.660 -0.7929 -1.3159 -0.7906
  153MPD2    C4 2382   0.405   2.575  12.688  0.4018 -0.3746  0.0079
  153MPD2    C5 2383   0.482   2.468  12.669  0.4918 -0.3777 -0.1127
  153MPD2     H 2384   0.621   2.806  12.567 -2.5509 -0.2819 -1.6750
  153MPD2    H1 2385   0.304   2.558  12.725  1.1993 -2.0319  1.4032
  153MPD2    H2 2386   0.674   2.380  12.611 -1.8617 -1.5159 -2.4068
  153MPD2    H3 2387   0.429   2.378  12.699  0.7885 -1.2070 -2.0464
  153MPD2     N 2388   0.393   2.817  12.694  0.0236  0.3613 -0.4533
  153MPD2    H5 2389   0.449   2.901  12.688  1.3508 -0.4268  1.0980
  153MPD2    N1 2390   0.797   2.580  12.528  0.4255  0.9577  0.5446
  153MPD2    H7 2391   0.831   2.486  12.508  0.3593  0.7840  1.2618
  154TMC2    C1 2392   1.991   3.795   0.388  0.2827 -0.1377 -0.2255
  154TMC2    C2 2393   2.061   3.727   0.295  0.5844 -0.3067 -0.1996
  154TMC2    C3 2394   2.198   3.752   0.306 -0.4832  0.3956  0.1516
  154TMC2    C4 2395   2.043   3.895   0.472 -0.0285  0.4997 -0.1054
  154TMC2    C5 2396   2.174   3.911   0.470 -0.0405  0.0216  0.4184
  154TMC2    C6 2397   2.260   3.838   0.396 -0.3474  0.0017 -0.4061
  154TMC2     C 2398   1.886   3.719   0.460  0.0376  0.0941  0.2188
  154TMC2     O 2399   1.867   3.754   0.577  0.1353 -0.1344  0.3165
  154TMC2     H 2400   2.025   3.644   0.236  0.7850 -0.6640  0.1821
  154TMC2    H1 2401   1.979   3.945   0.544 -2.0252  0.7571 -2.0653
  154TMC2    H2 2402   2.365   3.859   0.376 -0.1338  1.8531  2.6864
  154TMC2    C7 2403   2.223   4.027   0.540  0.1915  0.2469  0.1471
  154TMC2    C8 2404   2.278   3.691   0.203  0.3154  0.2287 -0.1204
  154TMC2    O1 2405   2.140   4.101   0.590  0.1921 -0.3392  0.4915
  154TMC2    O2 2406   2.388   3.638   0.221 -0.0623 -0.4138 -0.0473
  154TMC2    O5 2407   2.217   3.707   0.090  0.1629 -0.4758 -0.3548
  154TMC2    H5 2408   2.141   3.769   0.104  0.0938 -0.6446  0.0279
  155MPD2     C 2409   1.632   3.495   0.305  0.1531 -0.7604 -0.5614
  155MPD2    C1 2410   1.696   3.571   0.406  0.3349  0.2737  0.2976
  155MPD2    C2 2411   1.647   3.562   0.538 -0.4514  1.1637 -0.4654
  155MPD2    C3 2412   1.536   3.486   0.563 -0.1568 -0.4764  0.6244
  155MPD2    C4 2413   1.466   3.418   0.470  0.2163  0.3634  0.5246
  155MPD2    C5 2414   1.516   3.422   0.341 -0.0420 -0.1288  0.0168
  155MPD2     H 2415   1.695   3.612   0.622  0.3468  1.0915 -0.8788
  155MPD2    H1 2416   1.371   3.367   0.484 -0.3247  0.9955 -0.8346
  155MPD2    H2 2417   1.673   3.481   0.206  0.9436  2.0417 -0.6049
  155MPD2    H3 2418   1.464   3.374   0.259  0.2802 -0.9755  0.3130
  155MPD2     N 2419   1.482   3.497   0.698 -0.1217  0.1583 -0.0259
  155MPD2    H5 2420   1.517   3.566   0.764 -1.1408  0.5211  0.1499
  155MPD2    N1 2421   1.806   3.645   0.377  0.5777 -0.1332 -0.3717
  155MPD2    H7 2422   1.822   3.657   0.277 -0.7014  2.7194 -0.2276
  156TMC2    C1 2423   0.941   0.152  11.369 -0.4708 -0.6961 -0.0244
  156TMC2    C2 2424   0.922   0.040  11.299  0.3100 -0.1485 -0.3471
  156TMC2    C3 2425   0.874   0.058  11.170  0.1662 -0.2595 -0.6984
  156TMC2    C4 2426   0.928   0.276  11.316 -0.0999 -0.1702 -0.3276
  156TMC2    C5 2427   0.872   0.294  11.200 -0.4970 -0.1863 -0.2426
  156TMC2    C6 2428   0.830   0.181  11.130 -0.6321 -0.1974 -0.2616
  156TMC2     C 2429   0.965   0.149  11.508  0.1806  0.3415 -0.6213
  156TMC2     O 2430   1.020   0.247  11.554  0.3726 -0.5216  0.6324
  156TMC2     H 2431   0.961   4.688  11.346 -0.8201  1.3191  3.3326
  156TMC2    H1 2432   0.926   0.362  11.381 -2.1638 -1.3201  1.1288
  156TMC2    H2 2433   0.778   0.192  11.035 -0.2784 -0.3556 -0.4720
  156TMC2    C7 2434   0.809   0.428  11.180 -0.5298 -0.3419  0.6076
  156TMC2    C8 2435   0.827   4.685  11.085  0.4504  0.6633  0.2227
  156TMC2    O1 2436   0.854   0.522  11.239 -0.6665  0.4339  0.2482
  156TMC2    O2 2437   0.723   4.703  11.021  0.1908  0.8064  0.5373
  156TMC2    O5 2438   0.856   4.577  11.163 -0.1283  0.2479 -0.2529
  156TMC2    H5 2439   0.947   4.576  11.199  0.3229 -2.6397 -1.4251
  157MPD2     C 2440   0.838   4.652  11.771 -0.6358  0.0120  0.2891
  157MPD2    C1 2441   0.911   0.020  11.714 -0.1596 -0.4509 -0.2500
  157MPD2    C2 2442   0.978   0.106  11.800  0.3180  0.3101  0.5469
  157MPD2    C3 2443   0.969   0.093  11.934  0.0339  0.7129 -0.2084
  157MPD2    C4 2444   0.893   4.730  11.993  0.3890 -0.1394 -0.2109
  157MPD2    C5 2445   0.825   4.649  11.912 -0.2547 -0.1086  0.5410
  157MPD2     H 2446   1.032   0.197  11.773  1.3924  0.0966  1.9824
  157MPD2    H1 2447   0.888   4.725  12.101 -0.7457 -2.5190 -0.3868
  157MPD2    H2 2448   0.777   4.588  11.708 -0.9370 -1.2545  1.8726
  157MPD2    H3 2449   0.759   4.576  11.957  0.5160 -0.6659  0.7435
  157MPD2     N 2450   1.032   0.185  12.014  0.5079 -0.0393  0.0839
  157MPD2    H5 2451   1.100   0.239  11.962  1.0797 -1.1407 -0.3061
  157MPD2    N1 2452   0.914   0.038  11.574  0.1650  0.5180 -1.2234
  157MPD2    H7 2453   0.871   4.703  11.518  1.2396 -0.6409 -0.5618
  158TMC2    C1 2454   1.588   3.795  13.574  0.5607  0.0987  0.4893
  158TMC2    C2 2455   1.664   3.761  13.462 -0.4554  1.4027  0.1680
  158TMC2    C3 2456   1.615   3.812  13.343 -0.3608  1.1760 -0.6272
  158TMC2    C4 2457   1.470   3.860  13.572  0.2967 -0.0780  0.6410
  158TMC2    C5 2458   1.430   3.903  13.449  0.2014  0.4365  0.0641
  158TMC2    C6 2459   1.506   3.892  13.332  0.2957 -0.6869 -0.7930
  158TMC2     C 2460   1.642   3.744  13.700 -0.1254  0.4575 -0.5142
  158TMC2     O 2461   1.701   3.640  13.696  0.6581  0.2331  0.0587
  158TMC2     H 2462   1.753   3.701  13.470 -1.2946  0.0261 -0.9044
  158TMC2    H1 2463   1.420   3.895  13.661  1.4621 -0.8840  1.6137
  158TMC2    H2 2464   1.469   3.927  13.236  0.1939  1.4731  0.0301
  158TMC2    C7 2465   1.307   3.980  13.437  0.0718 -0.4350 -0.4166
  158TMC2    C8 2466   1.680   3.779  13.217 -0.1819  0.7095  0.2707
  158TMC2    O1 2467   1.308   4.073  13.359  0.2413 -0.5484  0.4114
  158TMC2    O2 2468   1.669   3.860  13.127 -0.0914  0.3323 -0.4927
  158TMC2    O5 2469   1.782   3.694  13.246 -0.0109  0.5095 -0.5116
  158TMC2    H5 2470   1.752   3.617  13.299  1.8793  0.3378  0.3153
  159MPD2     C 2471   1.659   3.747  14.212  0.8372  0.0959  0.5698
  159MPD2    C1 2472   1.604   3.867  14.178  0.4129  0.6227 -0.0591
  159MPD2    C2 2473   1.578   3.883  14.043  0.1883 -0.9920 -0.1148
  159MPD2    C3 2474   1.623   3.790  13.950 -0.4942  0.2825  0.0023
  159MPD2    C4 2475   1.682   3.674  13.988 -0.1846 -0.5013  0.1761
  159MPD2    C5 2476   1.694   3.651  14.119  0.3177 -0.0861 -0.5825
  159MPD2     H 2477   1.541   3.979  14.005  0.0752 -1.0364 -0.1188
  159MPD2    H1 2478   1.726   3.603  13.919  0.3923 -0.7535  0.8034
  159MPD2    H2 2479   1.664   3.714  14.315 -0.4177  1.7760  1.1695
  159MPD2    H3 2480   1.740   3.558  14.152 -0.1165  0.0156  0.3135
  159MPD2     N 2481   1.606   3.825  13.807 -0.5969 -0.2240  0.3098
  159MPD2    H5 2482   1.565   3.916  13.788 -0.2080  0.0922  1.0110
  159MPD2    N1 2483   1.573   3.958  14.279 -0.0540 -0.2299 -0.1659
  159MPD2    H7 2484   1.580   3.918  14.373 -1.7767  0.9390  0.4605
  160TMC2    C1 2485   0.553   2.159   1.456 -0.2896 -0.0225  0.4293
  160TMC2    C2 2486   0.532   2.093   1.571 -0.9286  0.7267 -0.6087
  160TMC2    C3 2487   0.639   2.090   1.660 -0.3260 -0.7180  0.3375
  160TMC2    C4 2488   0.679   2.195   1.411  0.1098 -0.3510  0.1387
  160TMC2    C5 2489   0.781   2.181   1.502  1.4662 -0.2401  0.3949
  160TMC2    C6 2490   0.765   2.133   1.628  0.3204  0.4324 -0.2487
  160TMC2     C 2491   0.441   2.155   1.356 -0.4023 -0.0641  0.1960
  160TMC2     O 2492   0.373   2.058   1.373  0.7321  0.2398 -0.0521
  160TMC2     H 2493   0.438   2.046   1.596 -1.2379  2.3516  1.2218
  160TMC2    H1 2494   0.692   2.227   1.308 -0.9225  1.5014  0.5765
  160TMC2    H2 2495   0.850   2.093   1.682  0.9015  1.1075 -0.6678
  160TMC2    C7 2496   0.919   2.200   1.457  0.3194  0.8030 -0.5955
  160TMC2    C8 2497   0.634   2.010   1.779  0.1622  0.4985  0.8902
  160TMC2    O1 2498   1.014   2.167   1.534 -0.0897 -0.3036  0.1903
  160TMC2    O2 2499   0.532   1.948   1.808  0.1468  0.1281  0.5233
  160TMC2    O5 2500   0.697   2.081   1.874 -0.6946 -0.2530  0.2720
  160TMC2    H5 2501   0.732   2.170   1.850  0.7418 -0.6447  0.8954
  161MPD2     C 2502   0.252   2.202   1.140 -0.4993 -0.5718  0.4570
  161MPD2    C1 2503   0.340   2.292   1.186 -0.7789 -0.0817  0.4946
  161MPD2    C2 2504   0.335   2.420   1.134  0.1853  0.5975 -0.5271
  161MPD2    C3 2505   0.222   2.448   1.060  0.0907  0.3377 -0.8703
  161MPD2    C4 2506   0.126   2.354   1.023 -0.0614 -0.0074  0.2000
  161MPD2    C5 2507   0.150   2.225   1.057  0.5220  0.3669 -0.5656
  161MPD2     H 2508   0.409   2.494   1.163 -1.1910  0.9172  2.1824
  161MPD2    H1 2509   0.040   2.376   0.961 -2.4712 -0.9110  3.2593
  161MPD2    H2 2510   0.263   2.097   1.165  1.0051 -0.3470  0.7223
  161MPD2    H3 2511   0.092   2.138   1.030  1.4794 -0.6776  0.7845
  161MPD2     N 2512   0.193   2.578   1.017 -0.6417 -0.0410  0.4207
  161MPD2    H5 2513   0.116   2.576   0.950 -2.0502 -0.7074  2.0498
  161MPD2    N1 2514   0.439   2.262   1.279  0.5802 -0.0247 -0.2112
  161MPD2    H7 2515   0.507   2.336   1.296 -1.6924  1.6874  1.3876
  162TMC2    C1 2516   3.558   4.537   0.895  0.1024 -0.2190  0.5312
  162TMC2    C2 2517   3.476   4.633   0.951  0.0312 -0.1825 -0.1964
  162TMC2    C3 2518   3.542   4.722   1.034 -0.5011 -0.3439 -0.7418
  162TMC2    C4 2519   3.694   4.538   0.911 -1.0724 -0.1630 -0.0154
  162TMC2    C5 2520   3.747   4.620   1.008 -0.0666  0.3313 -0.1435
  162TMC2    C6 2521   3.672   4.719   1.066 -0.3462 -0.2298 -0.5367
  162TMC2     C 2522   3.504   4.448   0.792  0.9230 -0.5678  0.3349
  162TMC2     O 2523   3.584   4.383   0.729 -0.1481  0.9311  0.4544
  162TMC2     H 2524   3.368   4.640   0.940 -0.1628 -1.0862  1.0600
  162TMC2    H1 2525   3.749   4.459   0.863  2.0716  2.0328  0.0193
  162TMC2    H2 2526   3.720   0.062   1.120  0.8562 -3.0254  2.5519
  162TMC2    C7 2527   3.898   4.619   1.029 -0.1151 -0.6027  0.5477
  162TMC2    C8 2528   3.461   0.051   1.133  0.5250 -0.2151  0.2160
  162TMC2    O1 2529   3.941   4.712   1.096 -0.2015 -0.0682 -0.2758
  162TMC2    O2 2530   3.499   0.055   1.248 -0.1925 -0.8144  0.2875
  162TMC2    O5 2531   3.423   0.161   1.063 -0.3460 -0.2030 -0.1551
  162TMC2    H5 2532   3.417   0.150   0.966 -1.1559  0.0361 -0.1356
  163MPD2     C 2533   3.120   4.247   0.494  0.5125  0.6947 -0.1168
  163MPD2    C1 2534   3.247   4.280   0.461  0.1060 -0.0499  0.2777
  163MPD2    C2 2535   3.337   4.327   0.558 -0.6411  0.7042 -0.6963
  163MPD2    C3 2536   3.290   4.362   0.688  0.2840  0.9375 -0.2026
  163MPD2    C4 2537   3.156   4.337   0.714  0.4714  0.0973  0.4987
  163MPD2    C5 2538   3.076   4.274   0.621 -0.0741 -0.3903 -0.0924
  163MPD2     H 2539   3.443   4.343   0.540 -0.2583 -0.0939  0.8804
  163MPD2    H1 2540   3.123   4.356   0.815 -0.1882  2.9168 -0.2560
  163MPD2    H2 2541   3.051   4.201   0.425 -0.5549  2.1317  0.0017
  163MPD2    H3 2542   2.981   4.233   0.657 -0.7564  1.4381  0.1674
  163MPD2     N 2543   3.362   4.433   0.792 -0.4440  0.6184 -0.0280
  163MPD2    H5 2544   3.306   4.472   0.867 -0.4613  1.6177 -0.5640
  163MPD2    N1 2545   3.289   4.244   0.327 -0.1383  0.1628  0.6502
  163MPD2    H7 2546   3.219   4.210   0.262  0.0036  0.5917  0.2747
  164TMC2    C1 2547   3.744   2.766  11.355 -0.2314  0.4599  0.3224
  164TMC2    C2 2548   3.854   2.729  11.427 -0.2094 -0.2646  0.2694
  164TMC2    C3 2549   3.887   2.795  11.543  0.3538  0.2915 -0.0833
  164TMC2    C4 2550   3.658   2.864  11.404  0.3575 -0.0513  0.0585
  164TMC2    C5 2551   3.695   2.931  11.525  0.4820  0.3176 -0.3277
  164TMC2    C6 2552   3.817   2.900  11.590  0.1145  0.4693  0.2835
  164TMC2     C 2553   3.686   2.673  11.262  0.1241 -0.4718 -0.5141
  164TMC2     O 2554   3.564   2.673  11.246 -0.4657  0.0062  0.1751
  164TMC2     H 2555   3.918   2.645  11.402  2.8970  1.9000  0.9774
  164TMC2    H1 2556   3.562   2.887  11.359  0.2439 -0.5320  0.0553
  164TMC2    H2 2557   3.842   2.955  11.680  0.2241 -1.7486  1.6073
  164TMC2    C7 2558   3.644   3.064  11.545  0.0103  0.3632 -0.5961
  164TMC2    C8 2559   3.988   2.740  11.629  0.4295 -0.1341  0.0155
  164TMC2    O1 2560   3.612   3.118  11.444  0.7609 -0.0686  0.1236
  164TMC2    O2 2561   4.046   2.810  11.708 -0.4085 -0.0323 -0.5312
  164TMC2    O5 2562   3.977   2.606  11.639 -0.8703  0.4084  0.7226
  164TMC2    H5 2563   3.895   2.581  11.590  0.0494  0.7353 -0.9899
  165TMC2    C1 2564   1.213   1.481   1.612  0.4341 -0.1455 -0.0737
  165TMC2    C2 2565   1.114   1.411   1.671  0.7252  0.5263  0.4339
  165TMC2    C3 2566   0.985   1.444   1.634 -0.1015 -0.2024 -0.4493
  165TMC2    C4 2567   1.183   1.568   1.508  0.3742  0.1282 -0.0730
  165TMC2    C5 2568   1.051   1.604   1.490 -0.0999 -0.1709 -0.0562
  165TMC2    C6 2569   0.949   1.535   1.542 -0.0359 -0.0862 -0.0689
  165TMC2     C 2570   1.345   1.433   1.644 -1.0193  0.4726  0.2368
  165TMC2     O 2571   1.347   1.316   1.680 -0.0882 -0.0718 -0.1520
  165TMC2     H 2572   1.127   1.347   1.757 -3.0908 -1.2100 -0.2882
  165TMC2    H1 2573   1.262   1.625   1.461 -1.8591  2.4636 -1.0329
  165TMC2    H2 2574   0.844   1.536   1.515 -0.4372  0.5715  1.5226
  165TMC2    C7 2575   1.030   1.695   1.382  0.3601  0.2776  0.6743
  165TMC2    C8 2576   0.874   1.369   1.688 -0.5314 -0.6026 -0.1780
  165TMC2    O1 2577   1.132   1.728   1.321  0.3098 -0.2262  0.0462
  165TMC2    O2 2578   0.769   1.424   1.719 -0.5886  0.1192 -0.0554
  165TMC2    O5 2579   0.919   1.256   1.736  0.3178  0.1955 -0.1950
  165TMC2    H5 2580   1.015   1.238   1.725  0.4396  0.5792  0.2090
  166MPD2     C 2581   1.852   1.441   1.569 -0.3227  0.1790 -0.8571
  166MPD2    C1 2582   1.768   1.340   1.597 -0.3830  0.2107 -0.6268
  166MPD2    C2 2583   1.634   1.365   1.611 -0.2751 -0.2293 -0.2282
  166MPD2    C3 2584   1.577   1.489   1.596  0.2271 -0.0606 -0.2823
  166MPD2    C4 2585   1.671   1.589   1.580  0.3784 -0.8158 -0.0284
  166MPD2    C5 2586   1.802   1.566   1.570  0.5679  0.0180 -0.1522
  166MPD2     H 2587   1.564   1.285   1.634 -0.5692  0.1842  0.3234
  166MPD2    H1 2588   1.636   1.691   1.571 -1.0580 -1.3486 -0.5538
  166MPD2    H2 2589   1.958   1.436   1.547 -0.3127 -3.2235 -0.0898
  166MPD2    H3 2590   1.878   1.641   1.553  1.3127 -1.4488 -3.3845
  166MPD2     N 2591   1.439   1.523   1.604  0.1504 -0.2817 -0.0579
  166MPD2    H5 2592   1.416   1.622   1.601  0.0524 -0.3420 -1.2037
  166MPD2    N1 2593   1.822   1.210   1.594  0.0298 -0.4681  0.4793
  166MPD2    H7 2594   1.920   1.202   1.569  0.2786  0.3551  1.1909
  167TMC2    C1 2595   3.678   3.399  13.025  0.5024 -0.0232 -0.7026
  167TMC2    C2 2596   3.645   3.482  13.128 -0.4160 -0.5551 -0.4927
  167TMC2    C3 2597   3.541   3.454  13.212 -0.4640 -0.5158  0.5756
  167TMC2    C4 2598   3.615   3.279  13.010  0.1547 -0.0406  0.0060
  167TMC2    C5 2599   3.521   3.244  13.108 -0.3587 -0.3565  0.3614
  167TMC2    C6 2600   3.476   3.336  13.202  0.1059 -0.4387  0.1135
  167TMC2     C 2601   3.785   3.441  12.935  0.1651  0.6310 -0.2939
  167TMC2     O 2602   3.858   3.532  12.978 -0.7466 -0.4540  0.7322
  167TMC2     H 2603   3.704   3.571  13.149 -4.1207  1.7707 -0.1003
  167TMC2    H1 2604   3.653   3.209  12.936 -0.4917 -1.4842  1.0549
  167TMC2    H2 2605   3.396   3.315  13.272  0.1505 -2.2664 -0.3794
  167TMC2    C7 2606   3.440   3.121  13.092 -0.4182 -0.0224  0.1181
  167TMC2    C8 2607   3.535   3.510  13.341 -0.5416 -0.1764 -0.0707
  167TMC2    O1 2608   3.348   3.107  13.172 -0.0249  0.3792 -0.3736
  167TMC2    O2 2609   3.493   3.449  13.435  0.0021 -0.3274  0.5581
  167TMC2    O5 2610   3.499   3.640  13.317  0.3765 -0.6955 -0.2626
  167TMC2    H5 2611   3.525   3.671  13.228  0.4103 -2.1461 -0.7702
  168MPD2     C 2612   4.030   3.451  12.778 -0.4770  0.0400 -0.4406
  168MPD2    C1 2613   3.923   3.375  12.749 -0.0124 -0.3596  0.0343
  168MPD2    C2 2614   3.922   3.300  12.635 -0.7061  0.0657  0.0682
  168MPD2    C3 2615   4.030   3.301  12.551  0.4440  0.0561  0.4306
  168MPD2    C4 2616   4.134   3.377  12.585 -0.1085 -0.3073  0.0674
  168MPD2    C5 2617   4.139   3.447  12.697  0.1862 -0.1027  0.5937
  168MPD2     H 2618   3.838   3.231  12.629 -1.0470  0.3823  1.2685
  168MPD2    H1 2619   4.221   3.377  12.520 -1.0417  1.7823 -1.2069
  168MPD2    H2 2620   4.042   3.502  12.873  1.0152  0.2126 -0.7243
  168MPD2    H3 2621   4.227   3.507  12.719 -1.7946  3.0358 -0.0479
  168MPD2     N 2622   4.023   3.220  12.430  0.3729  0.1665 -0.4100
  168MPD2    H5 2623   3.938   3.165  12.414 -0.2424  1.0036 -0.0138
  168MPD2    N1 2624   3.803   3.365  12.827 -0.6677 -0.1164  0.4799
  168MPD2    H7 2625   3.729   3.300  12.801  0.3037 -1.2307  0.4986
  169MPD1     C 2626   0.477   2.689   9.504 -0.1186  0.5126  0.5597
  169MPD1    C1 2627   0.582   2.766   9.557  0.0006 -0.3907  0.1564
  169MPD1    C2 2628   0.617   2.735   9.681 -0.1115  0.6443  0.3996
  169MPD1    C3 2629   0.547   2.651   9.764 -0.5954 -0.0471 -0.3129
  169MPD1    C4 2630   0.447   2.574   9.717  0.4251 -0.1512  0.1109
  169MPD1    C5 2631   0.414   2.599   9.584  0.2149  0.3301 -0.3411
  169MPD1     H 2632   0.698   2.792   9.727  1.6741 -0.9574 -0.7763
  169MPD1    H1 2633   0.381   2.504   9.768 -0.4986 -0.2403 -1.2112
  169MPD1    H2 2634   0.437   2.723   9.409 -1.3210 -2.5142  0.0119
  169MPD1    H3 2635   0.320   2.559   9.546 -0.6321  0.4585  1.5983
  169MPD1     N 2636   0.588   2.642   9.902  0.1764  0.0478  0.2234
  169MPD1    H5 2637   0.662   2.707   9.928  1.1891 -1.0861  0.1825
  169MPD1    N1 2638   0.658   2.850   9.484 -0.3220 -0.1545  0.2989
  169MPD1    H6 2639   0.607   2.882   9.402 -1.1744 -2.6176 -0.1279
  169MPD1    H7 2640   0.683   2.930   9.542  1.4228 -2.1210  2.2485
  170MPD1     C 2641   0.775   1.066  12.887 -0.3224  0.0445  0.3212
  170MPD1    C1 2642   0.682   0.973  12.832  0.0715 -0.3781 -0.3913
  170MPD1    C2 2643   0.557   0.970  12.889  0.8502  0.2543 -0.6135
  170MPD1    C3 2644   0.518   1.051  13.000  0.0663  0.0707 -0.2795
  170MPD1    C4 2645   0.615   1.127  13.063 -0.1561 -1.0275  0.1743
  170MPD1    C5 2646   0.740   1.136  13.005  0.0983  0.1481 -0.3803
  170MPD1     H 2647   0.484   0.911  12.834  0.9230  2.1785 -2.7744
  170MPD1    H1 2648   0.593   1.192  13.147 -2.9949 -2.2494  0.4041
  170MPD1    H2 2649   0.874   1.090  12.850  0.4868 -1.4171  1.5252
  170MPD1    H3 2650   0.808   1.210  13.045  1.1744 -0.4424 -1.1100
  170MPD1     N 2651   0.377   1.052  13.042  0.7216 -0.5444 -0.3161
  170MPD1    H5 2652   0.315   0.989  12.991  0.4471 -0.8176  0.3567
  170MPD1    N1 2653   0.713   0.918  12.709 -0.8864 -0.1502 -0.2887
  170MPD1    H6 2654   0.660   0.835  12.686  0.2246 -1.4819  1.9978
  170MPD1    H7 2655   0.811   0.891  12.713 -1.1904 -1.2044 -0.0870
  171MPD1     C 2656   2.441   2.442  15.620  0.3549  0.9150 -0.9111
  171MPD1    C1 2657   2.452   2.338  15.709 -0.0884  0.0754  0.0594
  171MPD1    C2 2658   2.562   2.250  15.712  0.3740 -0.3179  0.5886
  171MPD1    C3 2659   2.665   2.271  15.614 -0.2821  0.2597 -0.8400
  171MPD1    C4 2660   2.661   2.393  15.543  0.0254  0.6478  0.3434
  171MPD1    C5 2661   2.546   2.473  15.542 -0.4794 -0.0531 -0.4549
  171MPD1     H 2662   2.559   2.173  15.788 -0.5807  0.5392  1.4354
  171MPD1    H1 2663   2.740   2.420  15.473  1.2020  1.5712  2.0428
  171MPD1    H2 2664   2.351   2.502  15.610 -0.3037  0.2060  0.7842
  171MPD1    H3 2665   2.539   2.567  15.488 -0.6739  0.2793  0.1459
  171MPD1     N 2666   2.781   2.192  15.602  0.8117 -0.0422  0.1480
  171MPD1    H5 2667   2.851   2.223  15.535  0.1483  1.4645  0.1520
  171MPD1    N1 2668   2.344   2.303  15.785 -0.6396  0.3266  0.0553
  171MPD1    H6 2669   2.367   2.262  15.876 -0.3902  0.4298  0.0386
  171MPD1    H7 2670   2.281   2.382  15.798  0.9752  1.6154  0.1044
  172MPD1     C 2671   1.812   1.842   0.206 -0.2616  0.2974 -0.5757
  172MPD1    C1 2672   1.844   1.938   0.109 -0.4685 -0.2009  0.1099
  172MPD1    C2 2673   1.950   2.015   0.130  1.2341 -0.5118 -0.8721
  172MPD1    C3 2674   2.038   1.991   0.231  0.0711 -0.0420 -0.4590
  172MPD1    C4 2675   2.013   1.892   0.322  0.4129 -1.0749  0.5276
  172MPD1    C5 2676   1.898   1.816   0.309 -0.1169 -0.0836  0.4949
  172MPD1     H 2677   1.972   2.086   0.052 -0.0888  1.4814  0.5488
  172MPD1    H1 2678   2.078   1.869   0.405  1.3545  0.8246  0.3188
  172MPD1    H2 2679   1.724   1.778   0.203  0.0982 -0.2590  0.5595
  172MPD1    H3 2680   1.884   1.741   0.386 -0.8158  2.1811  2.5784
  172MPD1     N 2681   2.149   2.075   0.251  0.1287  0.2754  0.4138
  172MPD1    H5 2682   2.218   2.042   0.317 -0.1720 -0.5531  0.3109
  172MPD1    N1 2683   1.792   1.928  17.724  0.2841 -0.6287 -0.3764
  172MPD1    H6 2684   1.809   2.018  17.680  2.3040 -0.8607 -0.1032
  172MPD1    H7 2685   1.691   1.921  17.730  0.0408  2.5128 -0.6949
  173MPD1     C 2686   4.428   1.079  13.715 -0.0121  0.3016 -0.0225
  173MPD1    C1 2687   4.325   1.001  13.666  0.1205 -0.3320 -0.8931
  173MPD1    C2 2688   4.223   0.951  13.748 -0.4013  0.4846  0.4300
  173MPD1    C3 2689   4.220   0.985  13.884 -0.5348 -0.1654 -0.2187
  173MPD1    C4 2690   4.328   1.053  13.933 -0.0763 -0.2439 -0.0074
  173MPD1    C5 2691   4.428   1.091  13.849  0.3590 -0.0113 -0.5150
  173MPD1     H 2692   4.159   0.872  13.709 -0.3664  0.1864  0.9802
  173MPD1    H1 2693   4.344   1.074  14.038 -0.3020  0.5713 -0.1286
  173MPD1    H2 2694   4.507   1.106  13.646 -0.1734  0.9540  0.0541
  173MPD1    H3 2695   4.513   1.140  13.895  1.2634 -1.4689 -0.6382
  173MPD1     N 2696   4.121   0.931  13.964  0.6789  0.4611 -0.2153
  173MPD1    H5 2697   4.049   0.880  13.913  2.0327  1.6927 -3.3668
  173MPD1    N1 2698   4.331   0.970  13.529 -0.3604 -0.1822 -0.9004
  173MPD1    H6 2699   4.373   1.051  13.482  0.5581 -0.2184 -0.1456
  173MPD1    H7 2700   4.245   0.938  13.486  0.7621  0.3686 -3.6104
  174MPD1     C 2701   3.699   0.063  13.881 -0.2140 -0.0381 -0.3981
  174MPD1    C1 2702   3.701   0.183  13.814  0.0610  0.0729 -0.4144
  174MPD1    C2 2703   3.744   0.293  13.886  0.5055 -0.0544  1.0277
  174MPD1    C3 2704   3.767   0.292  14.021  0.1767 -0.0187 -0.3924
  174MPD1    C4 2705   3.756   0.172  14.088 -1.0321  0.5244  1.0090
  174MPD1    C5 2706   3.729   0.057  14.018  0.3143  0.3948  0.3199
  174MPD1     H 2707   3.765   0.380  13.825  2.9689 -1.2943  0.0858
  174MPD1    H1 2708   3.787   0.169  14.191 -0.2808  1.7370  0.8208
  174MPD1    H2 2709   3.667   4.712  13.828  2.2115 -1.2544  0.1606
  174MPD1    H3 2710   3.725   4.698  14.068  0.8805 -0.3894 -1.1552
  174MPD1     N 2711   3.828   0.398  14.091  0.4306 -0.4121 -0.6471
  174MPD1    H5 2712   3.860   0.376  14.185 -0.7594  0.1532 -0.1009
  174MPD1    N1 2713   3.695   0.193  13.669  0.4632  0.0573  0.6658
  174MPD1    H6 2714   3.636   0.117  13.636  2.3332 -1.5152  0.8867
  174MPD1    H7 2715   3.643   0.278  13.649  0.4769 -0.3702 -1.2020
  175MPD1     C 2716   2.064   2.657  15.357 -0.4192 -0.3679 -0.7204
  175MPD1    C1 2717   1.990   2.746  15.428 -0.5163  0.3019 -0.6614
  175MPD1    C2 2718   1.890   2.708  15.511 -1.2775  0.2077 -0.6327
  175MPD1    C3 2719   1.842   2.577  15.513 -0.4784 -1.1116 -0.2844
  175MPD1    C4 2720   1.922   2.483  15.447 -0.1344 -0.1473 -0.4492
  175MPD1    C5 2721   2.026   2.521  15.362 -0.4729  0.5072  0.4779
  175MPD1     H 2722   1.841   2.790  15.563  0.1766 -0.1865  1.3500
  175MPD1    H1 2723   1.907   2.375  15.448 -2.4250  0.1902  0.9878
  175MPD1    H2 2724   2.145   2.687  15.291  1.7225 -3.5184  0.4755
  175MPD1    H3 2725   2.069   2.438  15.307 -0.0818  0.1997  1.2376
  175MPD1     N 2726   1.749   2.526  15.604 -0.1539  0.0538  0.7395
  175MPD1    H5 2727   1.750   2.427  15.627  0.0181 -0.5429 -1.8114
  175MPD1    N1 2728   2.016   2.883  15.405 -0.4368 -0.2476  0.2246
  175MPD1    H6 2729   1.993   2.947  15.480  1.4593 -1.9842  2.2887
  175MPD1    H7 2730   2.109   2.895  15.365  0.5798  1.0227  2.9766
  176MPD1     C 2731   2.613   4.280  17.405  1.0120  0.4881 -0.2926
  176MPD1    C1 2732   2.737   4.276  17.344  1.1488  0.1959 -0.0409
  176MPD1    C2 2733   2.832   4.370  17.380  0.1617  0.3938 -0.0080
  176MPD1    C3 2734   2.801   4.467  17.475  0.0616  1.1244 -0.4076
  176MPD1    C4 2735   2.670   4.473  17.525 -0.3165  0.1298  0.3577
  176MPD1    C5 2736   2.581   4.378  17.494  0.0443 -0.0439  0.0821
  176MPD1     H 2737   2.926   4.372  17.328 -1.3950  3.0390 -2.7395
  176MPD1    H1 2738   2.637   4.550  17.594 -0.4854  0.8543 -0.5210
  176MPD1    H2 2739   2.530   4.218  17.374  1.1449  0.1354  0.0534
  176MPD1    H3 2740   2.485   4.383  17.545 -0.5389  0.7314 -1.0948
  176MPD1     N 2741   2.906   4.562  17.494  0.3455  0.5801 -0.2310
  176MPD1    H5 2742   2.989   4.544  17.439  0.0050 -0.2086 -0.4879
  176MPD1    N1 2743   2.761   4.194  17.232  0.3861 -0.2931 -0.4339
  176MPD1    H6 2744   2.705   4.109  17.223 -0.2291  0.0124  0.5409
  176MPD1    H7 2745   2.857   4.173  17.206  1.1426 -0.0343  2.1348
  177MPD1     C 2746   2.961   2.877   9.563  0.8504  0.1832  0.5825
  177MPD1    C1 2747   2.841   2.849   9.500 -0.1916  0.3289 -0.7304
  177MPD1    C2 2748   2.726   2.921   9.520  0.9978 -0.5460 -0.7795
  177MPD1    C3 2749   2.725   3.013   9.616 -0.5468 -0.7295 -0.9063
  177MPD1    C4 2750   2.841   3.040   9.688  0.0640 -0.4877  0.0908
  177MPD1    C5 2751   2.963   2.969   9.662 -0.0513 -0.0679  0.8069
  177MPD1     H 2752   2.632   2.899   9.470 -0.5492  0.8335  1.5349
  177MPD1    H1 2753   2.837   3.117   9.764 -2.2912  1.1016 -1.6290
  177MPD1    H2 2754   3.054   2.833   9.531  0.4228  0.3452 -0.8857
  177MPD1    H3 2755   3.055   3.000   9.712 -0.3192  2.8490 -0.4744
  177MPD1     N 2756   2.600   3.070   9.652 -0.3035  0.1856  0.2985
  177MPD1    H5 2757   2.517   3.054   9.595  0.3059 -0.3886 -0.4260
  177MPD1    N1 2758   2.844   2.759   9.392  0.3510  0.1497  0.1866
  177MPD1    H6 2759   2.909   2.685   9.418  1.4511  0.8131 -0.7098
  177MPD1    H7 2760   2.748   2.727   9.382  0.3004  0.5291 -0.5013
  178MPD1     C 2761   4.655   1.012  17.646 -0.2139  0.2420  0.3084
  178MPD1    C1 2762   4.546   0.954  17.593  0.5308 -1.1353 -0.0510
  178MPD1    C2 2763   4.561   0.835  17.520 -0.1625  0.3063 -0.0854
  178MPD1    C3 2764   4.684   0.791  17.467  0.0101 -0.1598  0.1113
  178MPD1    C4 2765   0.054   0.862  17.512 -0.0648  0.2488 -0.8051
  178MPD1    C5 2766   0.038   0.965  17.601  0.6141  0.4176  0.5021
  178MPD1     H 2767   4.471   0.783  17.490 -2.1074  3.0866  0.8842
  178MPD1    H1 2768   0.152   0.817  17.498  0.9226  1.5898  1.8162
  178MPD1    H2 2769   4.646   1.095  17.715 -0.5521  0.4285  0.0394
  178MPD1    H3 2770   0.121   1.022  17.641 -0.5842  0.5439  2.7585
  178MPD1     N 2771   4.709   0.676  17.391  0.1741 -1.1324 -0.6679
  178MPD1    H5 2772   0.066   0.662  17.358  1.2816 -2.1153  2.9047
  178MPD1    N1 2773   4.419   1.004  17.626  0.3930 -0.3520  0.5030
  178MPD1    H6 2774   4.430   1.105  17.636 -1.8867  0.0479 -0.9997
  178MPD1    H7 2775   4.346   0.982  17.559  2.1255  0.3580 -1.6044
  179MPD1     C 2776   4.346   3.325  15.664 -0.8079  0.0301 -0.9723
  179MPD1    C1 2777   4.323   3.363  15.790 -0.9277  0.2635  0.7527
  179MPD1    C2 2778   4.246   3.283  15.867  0.6267 -0.8645 -0.0167
  179MPD1    C3 2779   4.186   3.171  15.819 -1.1952 -0.6106 -0.2565
  179MPD1    C4 2780   4.204   3.134  15.688 -0.0352  0.4842 -1.3478
  179MPD1    C5 2781   4.290   3.211  15.609  0.5945  0.5338  1.0918
  179MPD1     H 2782   4.230   3.307  15.972  1.2763 -0.2340 -0.0624
  179MPD1    H1 2783   4.153   3.052  15.640  2.8880 -2.4356  0.5525
  179MPD1    H2 2784   4.403   3.388  15.597 -1.9196  0.1407 -1.8035
  179MPD1    H3 2785   4.318   3.178  15.510 -0.4085 -2.6569  1.8556
  179MPD1     N 2786   4.117   3.078  15.902 -0.6202 -0.8419 -0.3213
  179MPD1    H5 2787   4.066   3.003  15.856 -0.8555 -0.3811 -0.8133
  179MPD1    N1 2788   4.392   3.464  15.853 -0.5508  0.2594  0.0598
  179MPD1    H6 2789   4.435   3.539  15.801 -3.3129  1.6162 -0.2538
  179MPD1    H7 2790   4.336   3.514  15.922  0.4534 -1.2637  1.9979
  180MPD1     C 2791   3.790   4.680  15.108  0.7508 -0.0584  0.0040
  180MPD1    C1 2792   3.912   4.656  15.044  0.1958  0.2325 -0.0471
  180MPD1    C2 2793   3.920   4.569  14.935  0.0941 -1.1759 -0.1256
  180MPD1    C3 2794   3.805   4.501  14.892  0.1032  0.4387  0.1249
  180MPD1    C4 2795   3.691   4.512  14.969  0.4193  0.2697 -0.0687
  180MPD1    C5 2796   3.683   4.606  15.073  0.4617  0.1381  0.1357
  180MPD1     H 2797   4.010   4.553  14.878 -0.1124 -1.0391 -0.4884
  180MPD1    H1 2798   3.603   4.453  14.949  0.8919 -0.7423  0.8270
  180MPD1    H2 2799   3.787   0.011  15.193 -0.2704  1.1465 -1.0025
  180MPD1    H3 2800   3.590   4.615  15.128  0.2096 -0.0483 -0.2635
  180MPD1     N 2801   3.818   4.416  14.773  0.3392 -0.3371 -0.0096
  180MPD1    H5 2802   3.903   4.427  14.718  0.2697 -0.1063 -0.0731
  180MPD1    N1 2803   4.019   0.002  15.070  0.3442  0.5273 -0.0882
  180MPD1    H6 2804   4.000   0.057  15.153  0.5808 -0.0927  0.3701
  180MPD1    H7 2805   4.112   4.697  15.069 -0.8060 -1.9818 -0.7677
  181MPD1     C 2806   0.326   0.852   9.516 -0.3329  0.6465 -0.6013
  181MPD1    C1 2807   0.313   0.938   9.615  0.7621  0.0025 -0.2881
  181MPD1    C2 2808   0.422   1.005   9.671 -0.4572 -0.1569 -0.1870
  181MPD1    C3 2809   0.551   0.987   9.609  0.9670 -0.1231  0.5537
  181MPD1    C4 2810   0.558   0.919   9.490 -1.1520 -0.3361 -0.5087
  181MPD1    C5 2811   0.446   0.843   9.455  0.1259  1.0370  0.5913
  181MPD1     H 2812   0.400   1.063   9.760  0.3097  3.2564 -2.1935
  181MPD1    H1 2813   0.650   0.892   9.439 -0.9695  0.0830 -0.4043
  181MPD1    H2 2814   0.241   0.794   9.482 -1.3055  2.2022 -0.8419
  181MPD1    H3 2815   0.455   0.773   9.372 -1.1529  2.8401 -1.0710
  181MPD1     N 2816   0.679   1.033   9.653  0.0215  0.1044  0.5646
  181MPD1    H5 2817   0.761   1.021   9.594  1.1540 -0.2269  2.2000
  181MPD1    N1 2818   0.188   0.951   9.678  0.4263 -0.0323 -0.6675
  181MPD1    H6 2819   0.110   0.916   9.623 -1.1330  0.4856  1.1818
  181MPD1    H7 2820   0.174   1.051   9.692 -0.3391 -0.0200 -1.5649
  182MPD1     C 2821   2.013   0.568   0.508 -0.3720  0.4275 -0.3103
  182MPD1    C1 2822   1.998   0.705   0.490  0.4898  0.4460  0.4459
  182MPD1    C2 2823   1.916   0.776   0.576  0.4411 -0.1664 -0.0660
  182MPD1    C3 2824   1.827   0.709   0.660  0.7181 -0.1298 -0.2162
  182MPD1    C4 2825   1.833   0.574   0.662 -0.1032 -0.2463 -0.3169
  182MPD1    C5 2826   1.929   0.506   0.599  0.0330 -0.5424 -0.5328
  182MPD1     H 2827   1.912   0.881   0.552  0.9987 -0.1647 -0.1453
  182MPD1    H1 2828   1.769   0.509   0.722  0.3947 -1.3037 -0.9322
  182MPD1    H2 2829   2.075   0.504   0.446  1.7904  0.7801  1.5093
  182MPD1    H3 2830   1.937   0.401   0.624 -0.8733  0.0514  2.2748
  182MPD1     N 2831   1.715   0.769   0.720 -0.0741 -0.0425  0.0381
  182MPD1    H5 2832   1.635   0.708   0.736  0.1624 -0.1892  0.6667
  182MPD1    N1 2833   2.062   0.768   0.386 -0.7317 -0.1138  0.8936
  182MPD1    H6 2834   2.097   0.702   0.318  0.6042 -0.4169  1.8824
  182MPD1    H7 2835   2.009   0.848   0.350  3.3596  1.6031 -1.3072
  183MPD1     C 2836   3.351   1.279   9.464  0.2237  0.6026 -0.0889
  183MPD1    C1 2837   3.342   1.187   9.561 -0.5424  0.2278 -0.5669
  183MPD1    C2 2838   3.218   1.124   9.579  0.1427 -0.2195  0.7651
  183MPD1    C3 2839   3.106   1.161   9.511 -0.3300  0.2032  0.0980
  183MPD1    C4 2840   3.118   1.260   9.420  0.8345 -0.6898  0.1499
  183MPD1    C5 2841   3.240   1.321   9.391  0.2047  0.0974 -0.1779
  183MPD1     H 2842   3.214   1.051   9.659 -2.0940 -0.3877  0.5102
  183MPD1    H1 2843   3.031   1.302   9.371 -0.3939 -0.2761  2.6590
  183MPD1    H2 2844   3.448   1.325   9.451 -0.0526  1.4950  1.0031
  183MPD1    H3 2845   3.251   1.398   9.315  3.0199  0.3858  0.5280
  183MPD1     N 2846   2.994   1.081   9.525 -0.6497 -0.6515  0.3942
  183MPD1    H5 2847   3.001   1.006   9.593  2.1139 -0.4106  0.3728
  183MPD1    N1 2848   3.462   1.137   9.620  0.4220 -0.0271  0.4150
  183MPD1    H6 2849   3.541   1.186   9.580 -0.7159  0.4441 -1.2344
  183MPD1    H7 2850   3.479   1.045   9.580 -0.7687  0.0677 -0.3274
  184MPD1     C 2851   0.631   3.632  10.686 -0.0042  0.0935 -0.8048
  184MPD1    C1 2852   0.768   3.601  10.684  0.6015 -0.3975  0.2463
  184MPD1    C2 2853   0.834   3.573  10.565 -0.1584  0.4924 -0.1734
  184MPD1    C3 2854   0.766   3.558  10.444 -0.2252  0.2787 -0.3570
  184MPD1    C4 2855   0.630   3.587  10.445 -0.4075 -0.6236 -0.0041
  184MPD1    C5 2856   0.566   3.623  10.563 -0.2352  0.4300  0.1174
  184MPD1     H 2857   0.941   3.556  10.565 -0.4198 -1.1616  1.9307
  184MPD1    H1 2858   0.573   3.581  10.353  1.1754  0.7007 -1.0695
  184MPD1    H2 2859   0.569   3.668  10.767  1.1392  1.3820 -0.5043
  184MPD1    H3 2860   0.463   3.654  10.551 -1.2313 -2.2917  1.7429
  184MPD1     N 2861   0.830   3.540  10.323  0.3106  0.2547 -0.0662
  184MPD1    H5 2862   0.771   3.543  10.241  0.4847 -1.4865 -0.2677
  184MPD1    N1 2863   0.837   3.632  10.800 -0.1256 -0.1024 -0.4175
  184MPD1    H6 2864   0.925   3.584  10.817 -0.6446 -0.4686  1.3434
  184MPD1    H7 2865   0.779   3.625  10.884  1.2898 -0.5712  0.5288
  185MPD1     C 2866   0.458   3.707   9.557  0.4245 -0.7789 -0.0460
  185MPD1    C1 2867   0.565   3.633   9.501 -0.1393 -0.5883 -0.9310
  185MPD1    C2 2868   0.664   3.595   9.591  0.0393  0.7612  0.3065
  185MPD1    C3 2869   0.653   3.626   9.727 -0.1183  0.7667 -0.1715
  185MPD1    C4 2870   0.551   3.703   9.768  0.0610  0.0457  0.1543
  185MPD1    C5 2871   0.453   3.747   9.681  0.2579  0.2286  0.9139
  185MPD1     H 2872   0.747   3.537   9.552 -1.1143 -1.1922  0.7554
  185MPD1    H1 2873   0.550   3.734   9.872 -0.2358  0.8966 -0.1010
  185MPD1    H2 2874   0.372   3.733   9.496  0.2501 -1.9984 -0.3291
  185MPD1    H3 2875   0.376   3.818   9.710  1.1446  2.2674 -1.6785
  185MPD1     N 2876   0.741   3.588   9.827 -0.4202  0.3659 -0.0853
  185MPD1    H5 2877   0.727   3.617   9.924 -2.5242 -1.3278  0.1229
  185MPD1    N1 2878   0.559   3.593   9.368  0.5303  0.3605 -0.5703
  185MPD1    H6 2879   0.506   3.663   9.315 -0.9991 -2.2387 -2.4845
  185MPD1    H7 2880   0.650   3.599   9.323  1.1041  0.7735  0.6607
  186MPD1     C 2881   4.452   2.756  15.832  0.1027  0.1039 -0.2917
  186MPD1    C1 2882   4.534   2.834  15.745  0.0221 -0.2658 -0.2714
  186MPD1    C2 2883   4.559   2.966  15.780  1.0480 -0.2538  0.1258
  186MPD1    C3 2884   4.532   3.018  15.912 -0.1048 -0.3085 -0.3451
  186MPD1    C4 2885   4.452   2.935  15.996 -0.2529  0.8246 -0.0347
  186MPD1    C5 2886   4.406   2.818  15.948 -0.4760  0.2638  0.0627
  186MPD1     H 2887   4.617   3.026  15.712 -0.2368 -0.4219 -1.1276
  186MPD1    H1 2888   4.407   2.972  16.087 -1.2518  0.5043 -0.3970
  186MPD1    H2 2889   4.406   2.662  15.806  1.5679 -0.6835 -0.0506
  186MPD1    H3 2890   4.338   2.754  16.004  0.5854 -2.3744 -1.6523
  186MPD1     N 2891   4.572   3.140  15.962 -0.0861 -0.2429 -0.5299
  186MPD1    H5 2892   4.530   3.163  16.052  0.2013  0.0835 -0.4759
  186MPD1    N1 2893   4.559   2.786  15.613 -0.1092  0.3469  0.8407
  186MPD1    H6 2894   4.565   2.685  15.617  1.7975  0.4617  0.9832
  186MPD1    H7 2895   4.644   2.828  15.575 -0.3623  1.1912  1.2029
  187MPD1     C 2896   3.798   0.450  17.657  0.5870 -0.1921 -0.1179
  187MPD1    C1 2897   3.773   0.579  17.668  0.1957  0.2181 -0.3293
  187MPD1    C2 2898   3.803   0.658  17.556  0.6008  0.0155 -0.0027
  187MPD1    C3 2899   3.847   0.602  17.440 -0.1953  0.1018 -0.1567
  187MPD1    C4 2900   3.881   0.471  17.433  0.3981 -0.2970 -0.0523
  187MPD1    C5 2901   3.858   0.395  17.548  0.0789  0.4631 -0.2520
  187MPD1     H 2902   3.783   0.765  17.567  3.3675  0.8058 -2.9794
  187MPD1    H1 2903   3.941   0.432  17.352 -0.0507 -0.4633 -0.3077
  187MPD1    H2 2904   3.784   0.392  17.747 -0.4887  2.4513  1.4247
  187MPD1    H3 2905   3.876   0.288  17.547  0.7334  0.5831 -1.2937
  187MPD1     N 2906   3.856   0.680  17.319  0.4846  0.9742 -0.1152
  187MPD1    H5 2907   3.899   0.633  17.240 -0.0040 -0.8739  0.7356
  187MPD1    N1 2908   3.761   0.634   0.049  0.1509  0.2936  0.1678
  187MPD1    H6 2909   3.720   0.727   0.055 -1.2832 -0.2689 -0.8881
  187MPD1    H7 2910   3.706   0.566   0.102 -0.1212 -0.1065 -0.6243
  188MPD1     C 2911   3.655   0.227  10.677 -0.3148  0.5514 -0.3490
  188MPD1    C1 2912   3.761   0.139  10.687  0.1938  0.5300  1.0944
  188MPD1    C2 2913   3.749   0.028  10.600 -0.0823  0.3034  0.5541
  188MPD1    C3 2914   3.630   0.006  10.530 -0.2066  0.0324 -0.3584
  188MPD1    C4 2915   3.540   0.104  10.511 -0.7099 -0.1500  0.0895
  188MPD1    C5 2916   3.552   0.210  10.596 -0.2043 -0.1145  0.5085
  188MPD1     H 2917   3.836   4.701  10.607  0.2393  0.5778 -0.9110
  188MPD1    H1 2918   3.443   0.092  10.465 -0.5493  1.9177 -0.7936
  188MPD1    H2 2919   3.669   0.325  10.721  1.3628  0.3027 -0.3098
  188MPD1    H3 2920   3.474   0.285  10.592  1.0225  1.1293  0.1440
  188MPD1     N 2921   3.613   4.617  10.461 -0.4488  0.5847  0.8452
  188MPD1    H5 2922   3.533   4.604  10.399  0.0381 -2.2001  0.7962
  188MPD1    N1 2923   3.886   0.171  10.747  0.3535  0.4120  0.3520
  188MPD1    H6 2924   3.876   0.230  10.829  1.5229  0.8066  0.2131
  188MPD1    H7 2925   3.934   0.086  10.778 -0.7936 -0.7779 -1.1429
  189MPD1     C 2926   0.512   1.828   0.481  0.0609 -0.1218 -0.3253
  189MPD1    C1 2927   0.391   1.765   0.474  0.2355 -0.0880  0.4478
  189MPD1    C2 2928   0.291   1.838   0.409  0.0541 -0.7856 -0.0567
  189MPD1    C3 2929   0.302   1.967   0.368  0.0052  0.7840 -0.4435
  189MPD1    C4 2930   0.424   2.031   0.377 -0.7365  0.5831  0.4319
  189MPD1    C5 2931   0.532   1.958   0.427 -0.4959 -0.4053 -0.1710
  189MPD1     H 2932   0.195   1.789   0.396 -0.8409  0.7425  0.7463
  189MPD1    H1 2933   0.442   2.134   0.351  1.4121  0.4916  1.5691
  189MPD1    H2 2934   0.600   1.788   0.529  1.0175  1.3307 -0.8753
  189MPD1    H3 2935   0.627   2.006   0.443 -1.9115  0.9991  4.1436
  189MPD1     N 2936   0.192   2.039   0.310  0.3206 -0.7494 -0.0483
  189MPD1    H5 2937   0.112   1.978   0.293 -0.8060  1.0287 -1.0421
  189MPD1    N1 2938   0.365   1.635   0.525  0.6765 -0.0233 -0.0652
  189MPD1    H6 2939   0.449   1.578   0.529  0.2472 -0.7777 -1.8885
  189MPD1    H7 2940   0.300   1.580   0.470  1.3091  1.2589 -2.0761
  190MPD1     C 2941   4.487   4.120  15.694 -0.2887 -0.0471  0.0229
  190MPD1    C1 2942   4.592   4.125  15.608 -0.0448  0.0297 -0.1433
  190MPD1    C2 2943   4.671   4.236  15.617 -0.2860  0.3172 -0.6262
  190MPD1    C3 2944   4.655   4.329  15.710 -1.2741  1.3029  1.0336
  190MPD1    C4 2945   4.550   4.323  15.801 -0.2512 -0.4905 -0.4312
  190MPD1    C5 2946   4.465   4.213  15.793 -0.8106 -0.7905  0.0289
  190MPD1     H 2947   0.018   4.255  15.552  0.1204  0.6319 -0.0047
  190MPD1    H1 2948   4.528   4.392  15.883  3.2968 -1.7509  1.5773
  190MPD1    H2 2949   4.410   4.045  15.682 -1.3045  0.9812  0.0620
  190MPD1    H3 2950   4.379   4.212  15.859 -0.9508  0.4152 -0.1305
  190MPD1     N 2951   0.022   4.421  15.711 -0.4493  0.0318 -0.3464
  190MPD1    H5 2952   0.077   4.420  15.626 -2.1471 -0.3381 -1.4335
  190MPD1    N1 2953   4.602   4.049  15.488  0.0082 -0.4322  0.4755
  190MPD1    H6 2954   4.550   3.962  15.487  2.1143 -1.6035 -3.2240
  190MPD1    H7 2955   4.698   4.038  15.458  0.0047  1.6274 -0.3236
  191MPD1     C 2956   3.206   0.847  11.806 -0.3558 -0.5800 -0.2678
  191MPD1    C1 2957   3.260   0.943  11.891  0.3685  0.3129  0.1398
  191MPD1    C2 2958   3.362   1.020  11.841  0.4168  0.4260  0.6882
  191MPD1    C3 2959   3.403   1.021  11.712  0.3772  0.2379  0.2818
  191MPD1    C4 2960   3.341   0.931  11.629  0.0920 -0.5276  0.3014
  191MPD1    C5 2961   3.260   0.841  11.682 -0.4088  0.0683 -0.3371
  191MPD1     H 2962   3.413   1.083  11.913 -0.9145  1.2547  0.9038
  191MPD1    H1 2963   3.356   0.929  11.521 -1.5491  0.5121  0.0477
  191MPD1    H2 2964   3.136   0.772  11.840  1.6077 -1.2906  2.2305
  191MPD1    H3 2965   3.218   0.757  11.629 -0.2192  0.5041 -1.1666
  191MPD1     N 2966   3.509   1.100  11.664  0.0110 -0.6761 -0.3765
  191MPD1    H5 2967   3.550   1.162  11.734 -1.9199  1.2546 -0.9314
  191MPD1    N1 2968   3.213   0.956  12.021 -0.1684  0.3233 -0.1041
  191MPD1    H6 2969   3.129   1.013  12.022  0.2988  0.9985  0.2882
  191MPD1    H7 2970   3.277   1.014  12.075 -0.9521  0.4766  0.6484
  192MPD1     C 2971   4.053   1.551  10.801  0.3698  0.0122  0.0391
  192MPD1    C1 2972   3.983   1.436  10.803  0.1251 -0.0401 -0.1034
  192MPD1    C2 2973   3.914   1.410  10.920  0.6312 -0.2595 -0.2710
  192MPD1    C3 2974   3.919   1.487  11.040  0.2274 -0.2323 -1.0177
  192MPD1    C4 2975   3.997   1.597  11.035  0.7055 -0.1215 -0.4737
  192MPD1    C5 2976   4.062   1.626  10.915 -0.0297 -0.6218  0.1650
  192MPD1     H 2977   3.847   1.325  10.919  0.6641 -0.2820 -0.4845
  192MPD1    H1 2978   4.009   1.662  11.121 -1.7928  1.2409 -1.1667
  192MPD1    H2 2979   4.105   1.580  10.711  0.9173 -1.4968 -0.1443
  192MPD1    H3 2980   4.131   1.709  10.915  0.7980 -1.3128 -0.0310
  192MPD1     N 2981   3.854   1.459  11.158  0.0251  0.1050  0.3726
  192MPD1    H5 2982   3.881   1.521  11.233  0.0204 -2.0630  2.1860
  192MPD1    N1 2983   3.979   1.347  10.697 -0.5773  0.3728  0.4465
  192MPD1    H6 2984   3.904   1.279  10.687 -0.7017  0.3315  1.6856
  192MPD1    H7 2985   3.999   1.391  10.607 -2.3585 -1.0696 -0.6257
  193MPD1     C 2986   2.767   1.910  16.109  0.0528  0.3982  0.1369
  193MPD1    C1 2987   2.780   1.982  16.222 -0.2746  0.1419  0.0873
  193MPD1    C2 2988   2.889   1.955  16.298  0.1822  0.8958  0.1044
  193MPD1    C3 2989   2.986   1.865  16.262  0.7786  0.6091  0.5493
  193MPD1    C4 2990   2.970   1.796  16.145  0.4594 -0.5251 -0.0838
  193MPD1    C5 2991   2.862   1.827  16.065  0.1063  0.9550 -0.3572
  193MPD1     H 2992   2.888   2.005  16.395  0.6689 -2.4409  1.8362
  193MPD1    H1 2993   3.043   1.727  16.106  1.7934  0.5002  0.5982
  193MPD1    H2 2994   2.678   1.915  16.047  1.0559  0.9326 -1.2738
  193MPD1    H3 2995   2.848   1.773  15.972  0.0239 -0.6103  0.5640
  193MPD1     N 2996   3.098   1.839  16.342  0.3121  0.2474  0.0028
  193MPD1    H5 2997   3.160   1.763  16.316  0.4038  0.7173 -1.1276
  193MPD1    N1 2998   2.678   2.066  16.272  0.3669 -0.1224 -0.2823
  193MPD1    H6 2999   2.727   2.141  16.320  0.0449  0.5986 -1.0770
  193MPD1    H7 3000   2.617   2.100  16.198 -1.9099  1.5463  2.3570
  194MPD1     C 3001   0.726   4.370  16.325  0.2086  0.5283 -0.5197
  194MPD1    C1 3002   0.723   4.435  16.450 -0.9033 -0.0307 -0.0882
  194MPD1    C2 3003   0.787   4.380  16.557  0.6102 -0.2467  0.9034
  194MPD1    C3 3004   0.862   4.257  16.540  0.4650 -0.1541 -0.6873
  194MPD1    C4 3005   0.859   4.195  16.420  0.3726  0.3031  0.0226
  194MPD1    C5 3006   0.807   4.259  16.311 -0.0580 -0.0675 -0.0740
  194MPD1     H 3007   0.761   4.406  16.659 -0.6144  1.9464  0.0486
  194MPD1    H1 3008   0.895   4.093  16.409  2.1340  0.9640 -0.3197
  194MPD1    H2 3009   0.681   4.414  16.237  0.2700 -0.5052 -1.0671
  194MPD1    H3 3010   0.813   4.209  16.215  0.8106 -0.0585 -0.0208
  194MPD1     N 3011   0.915   4.182  16.647 -0.1796 -0.5931 -0.3377
  194MPD1    H5 3012   0.935   4.084  16.625 -0.8838 -0.5232 -1.2992
  194MPD1    N1 3013   0.624   4.531  16.465 -0.1134 -0.3778  0.1110
  194MPD1    H6 3014   0.646   4.597  16.539 -0.2325  0.6637 -0.7779
  194MPD1    H7 3015   0.607   4.580  16.377 -2.2080 -0.2238  0.6192
  195MPD1     C 3016   2.618   0.599   1.517 -0.1414  0.4225  0.1135
  195MPD1    C1 3017   2.504   0.562   1.460  0.1103 -0.4950  0.3335
  195MPD1    C2 3018   2.517   0.507   1.332  0.4708  0.2478 -0.4971
  195MPD1    C3 3019   2.637   0.466   1.283 -0.7175  0.1975 -0.1891
  195MPD1    C4 3020   2.748   0.508   1.349  0.3578  0.1436 -0.0145
  195MPD1    C5 3021   2.735   0.570   1.470  0.4607  0.8378  0.8037
  195MPD1     H 3022   2.426   0.493   1.275  2.2951 -0.9539 -3.0912
  195MPD1    H1 3023   2.847   0.474   1.321  0.2161  0.5964 -1.0524
  195MPD1    H2 3024   2.620   0.648   1.614  0.0043  0.1227  0.2649
  195MPD1    H3 3025   2.821   0.598   1.529  1.8258 -1.4862 -0.1021
  195MPD1     N 3026   2.662   0.405   1.157 -0.9408 -0.1127 -0.2033
  195MPD1    H5 3027   2.759   0.404   1.128 -1.0234  1.7819 -0.5673
  195MPD1    N1 3028   2.375   0.610   1.509 -0.4715  0.2639 -0.1524
  195MPD1    H6 3029   2.294   0.555   1.480 -0.2781 -0.2324  0.2576
  195MPD1    H7 3030   2.367   0.622   1.609 -0.4092  3.4204 -0.5236
  196MPD1     C 3031   1.127   0.707  17.039  0.7568  0.8422 -0.3876
  196MPD1    C1 3032   1.084   0.804  17.126 -0.2675  0.1742 -0.2815
  196MPD1    C2 3033   1.157   0.819  17.250  0.5321 -0.8767 -0.1675
  196MPD1    C3 3034   1.261   0.739  17.278  0.3269 -0.6208  0.4992
  196MPD1    C4 3035   1.295   0.641  17.188  0.7014 -0.2223  0.3432
  196MPD1    C5 3036   1.230   0.627  17.074 -0.1919 -0.2687  0.4113
  196MPD1     H 3037   1.113   0.885  17.324 -0.2668 -1.7716  0.1617
  196MPD1    H1 3038   1.385   0.581  17.203  2.1501  1.6728 -0.7126
  196MPD1    H2 3039   1.088   0.685  16.940  0.8507 -0.4075 -0.1508
  196MPD1    H3 3040   1.261   0.545  17.009  0.7090 -1.1468  1.9597
  196MPD1     N 3041   1.343   0.760  17.394 -0.1823 -0.1572 -0.5347
  196MPD1    H5 3042   1.428   0.704  17.403 -1.1205 -1.0640  2.4086
  196MPD1    N1 3043   0.961   0.861  17.105  0.3016 -0.2534 -0.6425
  196MPD1    H6 3044   0.951   0.947  17.158  1.0868 -0.1432 -0.6729
  196MPD1    H7 3045   0.935   0.874  17.007 -0.3715  2.1250 -0.1430
  197MPD1     C 3046   1.621   2.448  17.649 -0.1395 -0.2676 -0.5112
  197MPD1    C1 3047   1.755   2.462  17.686 -0.3034  0.6660 -0.2788
  197MPD1    C2 3048   1.855   2.503  17.598  0.0588 -0.1901  0.2595
  197MPD1    C3 3049   1.817   2.535  17.461 -0.2903 -0.0791 -0.3988
  197MPD1    C4 3050   1.682   2.520  17.428  0.3383 -0.3948 -0.2740
  197MPD1    C5 3051   1.589   2.473  17.517  0.0996  0.0632  0.5558
  197MPD1     H 3052   1.960   2.510  17.626 -0.0988 -1.8197  1.2732
  197MPD1    H1 3053   1.647   2.547  17.329  1.7050 -1.3166 -1.0191
  197MPD1    H2 3054   1.545   2.408  17.715 -0.9302 -0.7028 -1.6915
  197MPD1    H3 3055   1.486   2.459  17.486 -0.2716  0.8053  1.4494
  197MPD1     N 3056   1.901   2.592  17.365  0.1207 -0.0678  0.8871
  197MPD1    H5 3057   1.860   2.589  17.272 -3.0711  1.6323  2.2236
  197MPD1    N1 3058   1.797   2.426   0.070  0.0166 -0.0819  0.7404
  197MPD1    H6 3059   1.891   2.388   0.081 -0.3680 -1.9595 -2.1912
  197MPD1    H7 3060   1.737   2.352   0.107 -0.2950  0.7943  1.9676
  198MPD1     C 3061   3.727   0.661  15.615 -0.3662 -0.5122 -0.7878
  198MPD1    C1 3062   3.758   0.639  15.743  0.3595  0.0206  0.2651
  198MPD1    C2 3063   3.872   0.696  15.786 -0.4277  0.2967  0.1146
  198MPD1    C3 3064   3.962   0.750  15.695 -0.2089  0.3710  0.3427
  198MPD1    C4 3065   3.932   0.762  15.563  0.4049  0.0125 -0.8900
  198MPD1    C5 3066   3.817   0.715  15.522  0.0050 -0.6653 -0.8277
  198MPD1     H 3067   3.896   0.682  15.891  2.0806 -1.6871 -0.7258
  198MPD1    H1 3068   4.002   0.800  15.489  2.5380 -1.1047  0.5717
  198MPD1    H2 3069   3.632   0.626  15.576 -0.4523 -0.6867 -0.4253
  198MPD1    H3 3070   3.804   0.707  15.415  0.3819 -0.8658 -0.8579
  198MPD1     N 3071   4.086   0.786  15.752  0.1973 -0.1470 -0.3829
  198MPD1    H5 3072   4.101   0.763  15.849 -0.3769 -0.3130 -0.3361
  198MPD1    N1 3073   3.658   0.588  15.830  0.2873  0.9276 -0.3236
  198MPD1    H6 3074   3.578   0.541  15.788 -1.2401  1.1125  2.3114
  198MPD1    H7 3075   3.697   0.532  15.906 -1.5315  0.3415  0.2043
  199MPD1     C 3076   2.361   2.443  10.589  0.1212 -0.3746 -0.5209
  199MPD1    C1 3077   2.254   2.492  10.670  0.3442  0.1860 -0.5096
  199MPD1    C2 3078   2.129   2.431  10.641 -0.2800 -0.5903  0.1526
  199MPD1    C3 3079   2.112   2.333  10.546  0.7499 -0.1759  0.2728
  199MPD1    C4 3080   2.220   2.287  10.472  1.0745  0.5545  0.0567
  199MPD1    C5 3081   2.342   2.346  10.496  0.0861 -0.2440  0.1267
  199MPD1     H 3082   2.046   2.465  10.701 -0.7141 -0.5453 -0.4727
  199MPD1    H1 3083   2.207   2.209  10.398 -0.6095  1.6536 -0.8093
  199MPD1    H2 3084   2.466   2.467  10.594 -0.2497  0.5862  3.0727
  199MPD1    H3 3085   2.419   2.317  10.426 -2.1320 -0.8357 -2.0746
  199MPD1     N 3086   1.982   2.273  10.518 -0.3118 -0.6709  0.0944
  199MPD1    H5 3087   1.981   2.195  10.453 -0.2431 -0.7767  0.2208
  199MPD1    N1 3088   2.276   2.583  10.770 -0.0905  0.6418 -0.0510
  199MPD1    H6 3089   2.375   2.606  10.767 -0.1728  0.9405 -0.4914
  199MPD1    H7 3090   2.226   2.670  10.752  0.1386  0.5463 -1.1572
  200MPD1     C 3091   0.730   2.194  15.968  0.0706 -0.6656  0.3045
  200MPD1    C1 3092   0.676   2.298  15.891 -1.0280  0.1110  0.0161
  200MPD1    C2 3093   0.752   2.331  15.780 -0.4630 -0.5411 -0.0889
  200MPD1    C3 3094   0.848   2.242  15.735 -0.7427  0.4983  0.0647
  200MPD1    C4 3095   0.903   2.148  15.815  0.0274  0.7681  0.1321
  200MPD1    C5 3096   0.849   2.127  15.934 -0.3631  0.1137 -0.3218
  200MPD1     H 3097   0.725   2.416  15.719 -0.1672  0.5473  1.2885
  200MPD1    H1 3098   0.975   2.076  15.778 -1.0575 -1.2006  1.8626
  200MPD1    H2 3099   0.675   2.159  16.054  0.4168  0.4455  0.9763
  200MPD1    H3 3100   0.874   2.042  15.996  2.6782  2.6056  1.9123
  200MPD1     N 3101   0.896   2.266  15.611 -0.1256  0.1575 -0.3702
  200MPD1    H5 3102   0.856   2.346  15.563  0.2494  0.4208 -0.2466
  200MPD1    N1 3103   0.568   2.376  15.933  0.0616 -0.4874 -0.0013
  200MPD1    H6 3104   0.496   2.322  15.981  1.4944 -0.3366  2.3275
  200MPD1    H7 3105   0.517   2.401  15.849  1.0535  0.0390 -0.4435
  201MPD1     C 3106   2.597   0.870  13.034  0.7585  0.0464 -0.7048
  201MPD1    C1 3107   2.655   0.765  12.971  0.4736 -0.1382 -0.6562
  201MPD1    C2 3108   2.686   0.655  13.046 -0.2813 -0.2774  0.2483
  201MPD1    C3 3109   2.640   0.639  13.173 -0.1792 -0.6895 -0.6336
  201MPD1    C4 3110   2.573   0.745  13.232  0.2786 -0.3868  0.1758
  201MPD1    C5 3111   2.552   0.861  13.162 -0.2261  0.2465  0.3664
  201MPD1     H 3112   2.734   0.570  12.999  0.0250 -0.1162  0.2707
  201MPD1    H1 3113   2.533   0.739  13.333  0.8117 -2.4835  0.2486
  201MPD1    H2 3114   2.579   0.965  12.985  2.2244  1.8217  2.1695
  201MPD1    H3 3115   2.502   0.949  13.203 -1.6982 -2.0334  3.4776
  201MPD1     N 3116   2.675   0.515  13.237 -0.1215  0.0155 -0.1036
  201MPD1    H5 3117   2.713   0.441  13.179  1.0736 -1.1659  2.2362
  201MPD1    N1 3118   2.705   0.787  12.844  0.3068  0.0411  0.0663
  201MPD1    H6 3119   2.640   0.842  12.789 -0.2604 -0.0339  0.6551
  201MPD1    H7 3120   2.719   0.697  12.799 -1.4562 -0.4439  0.5055
  202MPD1     C 3121   2.241   4.350   9.302  0.7857  0.0778  0.0271
  202MPD1    C1 3122   2.275   4.487   9.305  0.7086 -0.4896 -0.2330
  202MPD1    C2 3123   2.400   4.513   9.362 -0.4873  0.5369 -0.1201
  202MPD1    C3 3124   2.459   4.431   9.455 -0.2084 -0.0305 -0.3598
  202MPD1    C4 3125   2.404   4.303   9.471 -0.6300  0.0664  0.3159
  202MPD1    C5 3126   2.298   4.260   9.386  0.2785  0.4421 -1.3634
  202MPD1     H 3127   2.436   4.614   9.345  1.1406  0.2678  1.8259
  202MPD1    H1 3128   2.452   4.223   9.526  0.5516  0.0816 -0.6721
  202MPD1    H2 3129   2.166   4.312   9.235  1.3805  0.6931 -0.9893
  202MPD1    H3 3130   2.261   4.159   9.381  2.6859 -0.4114 -2.1983
  202MPD1     N 3131   2.570   4.461   9.538  0.1675 -0.3432 -0.3014
  202MPD1    H5 3132   2.591   4.402   9.619 -1.0011 -0.7309 -0.2808
  202MPD1    N1 3133   2.224   4.571   9.203  0.1176  0.0020  0.0368
  202MPD1    H6 3134   2.232   4.671   9.220 -1.1008 -0.4024  2.9580
  202MPD1    H7 3135   2.123   4.564   9.192  0.4247 -0.9539 -2.3163
  203MPD1     C 3136   1.879   1.655  12.148 -0.2693  0.6378 -0.0554
  203MPD1    C1 3137   1.887   1.564  12.045  0.9666 -0.3950  0.0928
  203MPD1    C2 3138   1.882   1.430  12.085 -0.8076  0.3411  0.4517
  203MPD1    C3 3139   1.858   1.391  12.218 -0.1487 -0.2589 -0.5347
  203MPD1    C4 3140   1.847   1.488  12.317 -1.1054 -0.1808 -0.3250
  203MPD1    C5 3141   1.861   1.622  12.283  0.4224 -0.0319  0.6103
  203MPD1     H 3142   1.905   1.352  12.013  0.3411  1.2627 -0.1733
  203MPD1    H1 3143   1.820   1.468  12.420 -1.0923 -0.5628 -0.3960
  203MPD1    H2 3144   1.899   1.759  12.127  0.0363  0.2054 -1.9571
  203MPD1    H3 3145   1.854   1.702  12.356  0.8635  0.8359 -0.3086
  203MPD1     N 3146   1.839   1.254  12.250 -0.3479  0.1598 -0.2594
  203MPD1    H5 3147   1.829   1.191  12.172  0.0802  0.2487 -0.3809
  203MPD1    N1 3148   1.931   1.589  11.914 -0.1403  0.0152 -0.4403
  203MPD1    H6 3149   1.896   1.521  11.848 -0.2038 -0.2008 -0.1857
  203MPD1    H7 3150   1.900   1.677  11.875  1.2970  0.0165 -1.5698
  204MPD1     C 3151   0.403   3.408  17.402  0.2383  0.4671  0.1873
  204MPD1    C1 3152   0.519   3.403  17.327  0.5910 -0.0862  0.2608
  204MPD1    C2 3153   0.589   3.282  17.328 -0.1261 -0.0595 -0.1412
  204MPD1    C3 3154   0.533   3.171  17.378 -0.8101  0.3094  0.1642
  204MPD1    C4 3155   0.409   3.176  17.449  0.0183  0.1745 -1.5712
  204MPD1    C5 3156   0.344   3.299  17.455 -0.0369 -0.2093  0.1691
  204MPD1     H 3157   0.685   3.271  17.279  0.3352 -0.0071  0.7406
  204MPD1    H1 3158   0.365   3.087  17.494  0.4750  0.5229 -0.4356
  204MPD1    H2 3159   0.347   3.501  17.408  1.3227  1.1229  0.0924
  204MPD1    H3 3160   0.250   3.311  17.508  0.9633 -3.4901  2.6575
  204MPD1     N 3161   0.607   3.052  17.363 -0.2682 -0.4341 -0.0685
  204MPD1    H5 3162   0.688   3.056  17.301  0.4613  0.8745  0.9864
  204MPD1    N1 3163   0.582   3.520  17.293 -0.7260 -0.0360  0.1751
  204MPD1    H6 3164   0.517   3.591  17.260 -0.5450  0.1229  0.1602
  204MPD1    H7 3165   0.652   3.503  17.221 -0.3136 -1.0059  0.8046
  205MPD1     C 3166   1.529   1.604   0.262 -0.1495  0.6871 -0.3833
  205MPD1    C1 3167   1.451   1.710   0.304  0.1812 -0.4387 -0.9815
  205MPD1    C2 3168   1.327   1.731   0.253 -0.2222 -0.4110  0.0421
  205MPD1    C3 3169   1.271   1.643   0.165 -0.4254  0.4041  1.0598
  205MPD1    C4 3170   1.339   1.528   0.136  0.2392 -0.1322 -0.5940
  205MPD1    C5 3171   1.468   1.514   0.179  0.0755  0.5270 -0.7439
  205MPD1     H 3172   1.268   1.821   0.266  0.5755  0.1815 -0.4749
  205MPD1    H1 3173   1.307   1.452   0.065  0.4319 -0.7801  0.0123
  205MPD1    H2 3174   1.633   1.586   0.288 -0.0811  0.8926 -0.5106
  205MPD1    H3 3175   1.530   1.431   0.148 -0.2067 -0.0316  0.2028
  205MPD1     N 3176   1.142   1.668   0.120  0.2305 -0.1582 -0.0390
  205MPD1    H5 3177   1.094   1.750   0.156  1.0318  0.8085 -1.1482
  205MPD1    N1 3178   1.509   1.819   0.370  0.1961  0.4563  0.5948
  205MPD1    H6 3179   1.584   1.805   0.437  0.7742  0.6924  0.0050
  205MPD1    H7 3180   1.431   1.862   0.418  0.1390 -1.2944  2.0336
  206MPD1     C 3181   1.158   3.463  16.178  0.0319 -0.2158  0.9433
  206MPD1    C1 3182   1.051   3.526  16.114 -0.9838  0.0810 -0.7396
  206MPD1    C2 3183   1.050   3.667  16.111 -0.5445  0.9736 -0.9463
  206MPD1    C3 3184   1.146   3.732  16.189  0.1809  0.1613  0.0674
  206MPD1    C4 3185   1.240   3.660  16.266 -0.1299  0.2286 -0.5413
  206MPD1    C5 3186   1.241   3.526  16.258  0.1188  0.4719 -0.3919
  206MPD1     H 3187   0.974   3.722  16.057 -0.6013  1.5312 -0.3041
  206MPD1    H1 3188   1.319   3.704  16.325 -0.5229  1.7211 -1.1447
  206MPD1    H2 3189   1.177   3.356  16.174  1.0689 -0.0346  1.1339
  206MPD1    H3 3190   1.307   3.465  16.319 -0.4645  0.9957  0.7799
  206MPD1     N 3191   1.150   3.873  16.200  0.1104 -0.1951  0.0360
  206MPD1    H5 3192   1.228   3.902  16.259  0.3718  0.1672 -0.4856
  206MPD1    N1 3193   0.962   3.457  16.033  0.5182 -0.4877  0.0935
  206MPD1    H6 3194   0.871   3.503  16.037  1.2267  0.9085 -0.1782
  206MPD1    H7 3195   0.948   3.364  16.073  1.2683 -0.6923 -0.1265
  207MPD1     C 3196   3.266   2.270   9.686  0.0717  0.3763 -0.0138
  207MPD1    C1 3197   3.327   2.211   9.797  0.1466 -0.2971 -0.1555
  207MPD1    C2 3198   3.434   2.122   9.783  0.2942 -0.0896 -0.0408
  207MPD1    C3 3199   3.487   2.096   9.660  0.2836 -0.0349  0.4533
  207MPD1    C4 3200   3.434   2.163   9.550  0.3117 -0.1912  0.4688
  207MPD1    C5 3201   3.319   2.244   9.564 -0.1008  0.7689 -0.9652
  207MPD1     H 3202   3.460   2.076   9.877 -2.6945  0.4349  1.0647
  207MPD1    H1 3203   3.475   2.148   9.451 -1.0470  0.3957 -0.1853
  207MPD1    H2 3204   3.172   2.325   9.688  0.0925  0.3402  1.9977
  207MPD1    H3 3205   3.278   2.289   9.474 -0.0509  0.0904 -1.3359
  207MPD1     N 3206   3.602   2.005   9.631  0.3650 -0.2871 -0.1545
  207MPD1    H5 3207   3.639   2.000   9.537  1.1126 -0.1039  0.1305
  207MPD1    N1 3208   3.269   2.226   9.922 -0.5013 -0.4495 -0.7653
  207MPD1    H6 3209   3.340   2.237   9.994 -1.0336 -1.7919 -0.0214
  207MPD1    H7 3210   3.215   2.312   9.919  0.3485  0.0675 -1.0856
  208MPD1     C 3211   0.534   4.583   0.086  0.5256 -0.1633  0.0602
  208MPD1    C1 3212   0.574   4.652   0.202 -0.4242  0.3434  0.3254
  208MPD1    C2 3213   0.624   0.041   0.190  0.0702 -0.3218  1.5665
  208MPD1    C3 3214   0.602   0.123   0.080 -1.0449 -0.4321  0.1654
  208MPD1    C4 3215   0.548   0.061  17.718  0.6689 -0.5568  0.4688
  208MPD1    C5 3216   0.522   4.662  17.723  0.2948 -0.0485 -0.6458
  208MPD1     H 3217   0.664   0.085   0.281  0.0163  1.3495  0.7788
  208MPD1    H1 3218   0.559   0.104  17.619 -2.2018  1.0809  0.8827
  208MPD1    H2 3219   0.517   4.476   0.076  2.2583 -0.3269 -1.0527
  208MPD1    H3 3220   0.496   4.614  17.629  0.2558  0.5469 -0.9410
  208MPD1     N 3221   0.653   0.257   0.078  0.1307 -0.3633 -0.2637
  208MPD1    H5 3222   0.694   0.290   0.165 -1.8813 -0.2752  0.6543
  208MPD1    N1 3223   0.617   4.580   0.313  0.3654 -0.8516  0.3817
  208MPD1    H6 3224   0.561   4.499   0.337  0.8131 -1.3819 -0.3634
  208MPD1    H7 3225   0.612   4.639   0.396  0.1696  0.5103 -0.5942
  209MPD1     C 3226   3.597   0.615  10.651  0.5298  0.0314 -0.4391
  209MPD1    C1 3227   3.582   0.663  10.521 -0.4158  0.6677  0.2067
  209MPD1    C2 3228   3.680   0.757  10.480  0.2098  0.2673 -0.2203
  209MPD1    C3 3229   3.781   0.798  10.569 -0.0277  0.0733 -1.0964
  209MPD1    C4 3230   3.793   0.744  10.696 -0.0931 -0.4681 -1.0488
  209MPD1    C5 3231   3.697   0.658  10.735  0.0816  0.2879 -0.0782
  209MPD1     H 3232   3.685   0.795  10.378  0.9621 -1.2381 -0.7473
  209MPD1    H1 3233   3.870   0.771  10.768 -0.3097 -2.5949 -0.0192
  209MPD1    H2 3234   3.531   0.536  10.685  1.5361 -0.4573  0.3568
  209MPD1    H3 3235   3.707   0.613  10.833  0.9741 -1.2519 -0.8711
  209MPD1     N 3236   3.880   0.886  10.517  0.4317  0.0742 -0.6323
  209MPD1    H5 3237   3.886   0.898  10.416 -1.4726 -0.0352 -0.7550
  209MPD1    N1 3238   3.497   0.603  10.426  0.3752  0.6747 -0.0422
  209MPD1    H6 3239   3.461   0.666  10.354  0.4692  0.8676  0.0779
  209MPD1    H7 3240   3.413   0.558  10.462  0.3592  0.8306  0.1166
  210MPD1     C 3241   0.103   1.410  10.616 -0.0869  1.1382 -0.1058
  210MPD1    C1 3242   0.035   1.334  10.707  0.5900 -0.5160  0.4012
  210MPD1    C2 3243   4.668   1.257  10.659 -0.4022  0.1007 -0.4963
  210MPD1    C3 3244   4.629   1.260  10.524 -0.1755  0.2120 -0.2615
  210MPD1    C4 3245   4.697   1.344  10.437 -0.3197 -0.7439  0.1322
  210MPD1    C5 3246   0.067   1.407  10.481  1.5246  0.0863  0.8681
  210MPD1     H 3247   4.617   1.185  10.723 -0.1120  0.9338  0.6818
  210MPD1    H1 3248   4.670   1.346  10.332  0.1408 -1.5571 -0.0077
  210MPD1    H2 3249   0.192   1.465  10.645  0.3407  0.1531  0.4141
  210MPD1    H3 3250   0.132   1.469  10.421  0.9748 -0.4984 -0.3420
  210MPD1     N 3251   4.523   1.182  10.471 -0.4485 -0.3791 -0.6840
  210MPD1    H5 3252   4.520   1.194  10.371 -4.0468  1.7900 -0.3075
  210MPD1    N1 3253   0.075   1.316  10.840 -0.4199  0.2585 -0.0270
  210MPD1    H6 3254   0.125   1.390  10.889 -3.0982  2.2011 -0.2413
  210MPD1    H7 3255   0.002   1.279  10.900 -1.4580  1.0736 -0.8006
  211MPD1     C 3256   2.053   1.515  15.709  0.1023  0.5771  0.2379
  211MPD1    C1 3257   1.930   1.527  15.649  0.0793  0.8644  0.1127
  211MPD1    C2 3258   1.818   1.534  15.727  0.0873  0.7757 -0.0397
  211MPD1    C3 3259   1.820   1.499  15.860 -0.4513 -0.0178 -0.5857
  211MPD1    C4 3260   1.943   1.464  15.919 -0.1115  0.2437  0.2793
  211MPD1    C5 3261   2.053   1.476  15.838  0.3082 -0.1716  0.0727
  211MPD1     H 3262   1.724   1.574  15.692  0.0010  1.0033  0.4404
  211MPD1    H1 3263   1.951   1.429  16.021  2.3289 -0.1826 -0.0545
  211MPD1    H2 3264   2.145   1.515  15.653  1.0474 -0.9548  1.7682
  211MPD1    H3 3265   2.143   1.451  15.893 -1.0350 -2.4106  1.2325
  211MPD1     N 3266   1.696   1.503  15.929 -0.0765 -0.5993  0.8808
  211MPD1    H5 3267   1.626   1.543  15.868  1.6352 -0.6535 -1.1265
  211MPD1    N1 3268   1.923   1.567  15.515 -0.1196 -0.4441 -0.2492
  211MPD1    H6 3269   2.011   1.550  15.467  0.6201 -2.0265  1.6476
  211MPD1    H7 3270   1.845   1.525  15.465 -0.9518 -1.0053  1.5029
  212MPD1     C 3271   0.861   4.225  17.344  0.3916  0.1908 -0.2984
  212MPD1    C1 3272   0.834   4.092  17.381  0.1438 -0.1785 -0.4251
  212MPD1    C2 3273   0.755   4.023  17.288  0.2666 -0.4598 -0.5457
  212MPD1    C3 3274   0.726   4.065  17.158 -0.3667  0.7844 -0.4143
  212MPD1    C4 3275   0.766   4.199  17.126 -0.0436  0.0641 -0.3353
  212MPD1    C5 3276   0.833   4.281  17.221 -0.2739  0.7136 -0.4012
  212MPD1     H 3277   0.731   3.921  17.319  0.4105  0.6770  3.3364
  212MPD1    H1 3278   0.733   4.233  17.028 -1.2372  1.7490  0.6560
  212MPD1    H2 3279   0.910   4.290  17.415  0.7619 -0.5289  0.1114
  212MPD1    H3 3280   0.863   4.380  17.191  0.3611  0.4946 -0.4810
  212MPD1     N 3281   0.671   3.982  17.054 -0.5729 -0.1683  0.8489
  212MPD1    H5 3282   0.625   4.022  16.973 -0.4996 -0.9928  0.4016
  212MPD1    N1 3283   0.856   4.055  17.515 -0.2042 -0.1524  0.7379
  212MPD1    H6 3284   0.887   3.958  17.514 -0.8768 -0.3588 -2.2750
  212MPD1    H7 3285   0.930   4.114  17.553 -0.6185  0.9422 -0.1253
  213MPD1     C 3286   0.154   1.111  14.834  1.0735  0.1853  0.0241
  213MPD1    C1 3287   0.019   1.112  14.792  0.0169  0.6125  0.0118
  213MPD1    C2 3288   4.666   1.033  14.863 -0.2472 -0.0589  0.0871
  213MPD1    C3 3289   4.691   0.992  14.989 -0.5379 -0.1392  0.4818
  213MPD1    C4 3290   0.082   1.015  15.043  0.1424  0.6476 -0.2008
  213MPD1    C5 3291   0.179   1.069  14.962  0.9822 -0.4679  0.1274
  213MPD1     H 3292   4.572   1.011  14.814  1.3434 -0.8880 -2.5683
  213MPD1    H1 3293   0.101   0.982  15.144 -0.2917  0.6122 -0.1319
  213MPD1    H2 3294   0.233   1.157  14.775  0.7965  0.5161 -0.0872
  213MPD1    H3 3295   0.279   1.074  15.004  1.9211  1.6276 -2.3839
  213MPD1     N 3296   4.609   0.911  15.067  0.1092 -0.3316  0.3299
  213MPD1    H5 3297   4.653   0.885  15.155 -0.7536  0.7628  1.0817
  213MPD1    N1 3298   4.730   1.138  14.661  0.4674  0.0865 -0.2193
  213MPD1    H6 3299   4.631   1.153  14.644  0.9384  2.8846 -0.5920
  213MPD1    H7 3300   0.046   1.217  14.626  0.2775 -0.6498 -2.1704
  214MPD1     C 3301   0.180   0.259  15.447  0.3158  0.0082  0.1172
  214MPD1    C1 3302   0.062   0.253  15.519  0.3077 -0.2390 -0.5033
  214MPD1    C2 3303   4.716   0.361  15.510 -0.6569 -0.3921  0.9810
  214MPD1    C3 3304   0.005   0.469  15.429  0.1103  0.5024 -0.2457
  214MPD1    C4 3305   0.128   0.475  15.362 -0.5573 -0.2249 -0.6061
  214MPD1    C5 3306   0.208   0.368  15.369 -0.0008 -0.7178  1.0697
  214MPD1     H 3307   4.619   0.354  15.557 -1.1297 -1.5720 -0.1676
  214MPD1    H1 3308   0.150   0.549  15.286  1.4875 -0.3036 -0.0948
  214MPD1    H2 3309   0.263   0.190  15.454 -0.8182 -1.3729 -0.0598
  214MPD1    H3 3310   0.304   0.371  15.319 -0.0839 -0.9763  0.8929
  214MPD1     N 3311   4.647   0.571  15.389  0.4384  0.2039  0.0046
  214MPD1    H5 3312   4.682   0.628  15.313 -1.9440  2.0621  0.3194
  214MPD1    N1 3313   0.037   0.152  15.615  0.1335  0.1841 -0.1698
  214MPD1    H6 3314   0.067   0.059  15.584  2.7099  1.4438 -1.4940
  214MPD1    H7 3315   4.673   0.146  15.619  0.2280 -3.0117 -2.2957
  215MPD1     C 3316   2.897   0.615  11.015  0.5185  0.4261  0.2481
  215MPD1    C1 3317   2.928   0.729  11.089  0.1931 -0.0517 -0.5505
  215MPD1    C2 3318   3.021   0.814  11.041 -0.2954  0.1568  0.2530
  215MPD1    C3 3319   3.083   0.792  10.918 -0.2557  0.3327 -0.2225
  215MPD1    C4 3320   3.033   0.692  10.833  0.5058  0.1073  0.3970
  215MPD1    C5 3321   2.948   0.604  10.889  0.1965 -0.5374  0.0090
  215MPD1     H 3322   3.059   0.897  11.100  0.2043 -0.2131  0.4459
  215MPD1    H1 3323   3.068   0.693  10.731  1.3686 -0.4589  0.6861
  215MPD1    H2 3324   2.824   0.542  11.048  0.6238  0.6505  0.9913
  215MPD1    H3 3325   2.914   0.519  10.832  0.1130 -0.1774 -0.4819
  215MPD1     N 3326   3.196   0.875  10.884  0.2404  0.0504 -0.5685
  215MPD1    H5 3327   3.215   0.941  10.958 -1.7012  1.1306 -1.0277
  215MPD1    N1 3328   2.881   0.748  11.219 -0.3889 -0.3246  0.0888
  215MPD1    H6 3329   2.797   0.706  11.257 -0.9631 -0.8301 -1.6974
  215MPD1    H7 3330   2.871   0.848  11.229  2.0823  0.1805 -2.1967
  216MPD1     C 3331   0.013   4.697  17.686  0.6027 -1.1992 -0.0715
  216MPD1    C1 3332   0.145   4.658  17.715  0.0502 -1.2368 -0.0434
  216MPD1    C2 3333   0.179   4.533  17.669 -0.4170  0.5553  0.8107
  216MPD1    C3 3334   0.098   4.462  17.584  0.4704 -0.1980 -0.9353
  216MPD1    C4 3335   4.712   4.511  17.540  0.0464 -0.0679 -0.3640
  216MPD1    C5 3336   4.672   4.624  17.605  0.1101  0.3956  0.8125
  216MPD1     H 3337   0.261   4.486  17.722 -1.9984 -1.5215  1.4024
  216MPD1    H1 3338   4.643   4.448  17.486  0.1386 -0.0086 -0.5502
  216MPD1    H2 3339   4.712   0.045  17.741  0.0214 -1.9781  0.7273
  216MPD1    H3 3340   4.567   4.649  17.599  0.1136 -0.1049 -1.1815
  216MPD1     N 3341   0.145   4.339  17.552 -0.6050  0.1614  0.1758
  216MPD1    H5 3342   0.230   4.308  17.597 -1.0625 -1.3459  0.0023
  216MPD1    N1 3343   0.216   4.713   0.072 -0.2058 -0.0337 -0.0081
  216MPD1    H6 3344   0.193   0.075   0.080  0.3635  0.3210 -3.1026
  216MPD1    H7 3345   0.317   4.713   0.057 -0.1277  0.4587  0.4841
  217MPD1     C 3346   0.687   4.197   8.814 -0.5970  0.2629  0.2860
  217MPD1    C1 3347   0.748   4.144   8.925 -0.2201 -0.5552  0.3139
  217MPD1    C2 3348   0.866   4.201   8.968 -0.9580  0.9618 -0.5021
  217MPD1    C3 3349   0.916   4.306   8.893 -1.0553 -0.4368  0.5598
  217MPD1    C4 3350   0.863   4.352   8.783  0.7319 -0.4761  0.5591
  217MPD1    C5 3351   0.746   4.294   8.743 -0.6536 -0.0776 -0.0345
  217MPD1     H 3352   0.901   4.183   9.069 -0.6428  0.3265 -0.7265
  217MPD1    H1 3353   0.904   4.433   8.724 -0.8210 -0.7776 -0.9119
  217MPD1    H2 3354   0.605   4.147   8.764 -0.3058  1.8944 -1.8361
  217MPD1    H3 3355   0.693   4.344   8.662 -0.2124  0.2008 -0.1455
  217MPD1     N 3356   1.035   4.378   8.933 -0.8089  1.0138 -0.1297
  217MPD1    H5 3357   1.061   4.460   8.879 -0.8584  0.4982 -0.9228
  217MPD1    N1 3358   0.682   4.057   9.013  0.2527 -0.0061  0.1446
  217MPD1    H6 3359   0.631   3.985   8.962  1.4671 -0.3145 -0.6290
  217MPD1    H7 3360   0.759   4.013   9.062 -0.2574 -0.3600  0.6376
  218MPD1     C 3361   2.963   4.517  12.740  0.1431  0.1272 -0.6701
  218MPD1    C1 3362   2.926   4.619  12.828 -0.1467  0.6100  0.1352
  218MPD1    C2 3363   2.944   0.011  12.794  0.1783 -0.8121 -1.0730
  218MPD1    C3 3364   2.996   0.045  12.670  0.1920 -0.3081  0.3048
  218MPD1    C4 3365   3.027   4.688  12.580  0.8912 -0.0513  0.0699
  218MPD1    C5 3366   3.012   4.558  12.621  0.5572 -0.3456 -0.3380
  218MPD1     H 3367   2.926   0.091  12.865 -1.6199 -2.5347  0.3941
  218MPD1    H1 3368   3.074   4.708  12.485  1.1019  1.4919  0.5037
  218MPD1    H2 3369   2.948   4.410  12.748 -2.0582  0.5449  1.1161
  218MPD1    H3 3370   3.035   4.484  12.545  0.9977  0.2835 -0.8244
  218MPD1     N 3371   3.023   0.181  12.630 -0.3862  0.9951 -0.0610
  218MPD1    H5 3372   3.073   0.197  12.543  0.5837  0.5249  0.3982
  218MPD1    N1 3373   2.903   4.574  12.959 -0.1203 -0.1121  0.4868
  218MPD1    H6 3374   2.869   4.478  12.961 -2.2331  0.5832 -0.9454
  218MPD1    H7 3375   2.835   4.636  13.004  1.4455  1.3264  0.8820
  219MPD1     C 3376   2.551   1.071  12.507  0.3284 -0.5268 -0.3267
  219MPD1    C1 3377   2.669   1.092  12.575 -0.6325  0.1858 -0.3260
  219MPD1    C2 3378   2.749   0.987  12.592 -0.1129  0.0146  0.6372
  219MPD1    C3 3379   2.737   0.866  12.528 -0.5802  0.0571  1.0173
  219MPD1    C4 3380   2.623   0.849  12.454 -0.1126 -0.0676 -0.1718
  219MPD1    C5 3381   2.533   0.949  12.457  0.2188 -1.0961 -1.2163
  219MPD1     H 3382   2.823   1.002  12.669  2.0004 -0.8333 -1.2373
  219MPD1    H1 3383   2.599   0.757  12.402  0.9952 -0.5145  0.1030
  219MPD1    H2 3384   2.468   1.137  12.485 -0.0045  0.0341  2.5127
  219MPD1    H3 3385   2.445   0.932  12.396 -0.1337 -0.5276 -0.8669
  219MPD1     N 3386   2.822   0.755  12.548  0.7844  0.0996 -0.9795
  219MPD1    H5 3387   2.811   0.667  12.499 -1.6649  0.3377 -0.8344
  219MPD1    N1 3388   2.691   1.208  12.657  0.1063 -0.7270  0.1260
  219MPD1    H6 3389   2.658   1.289  12.604  1.7915  0.8805  1.5707
  219MPD1    H7 3390   2.790   1.231  12.652  0.4284 -1.9075  1.3149
  220MPD1     C 3391   3.463   1.949   9.263 -0.7667 -0.1894 -0.2178
  220MPD1    C1 3392   3.565   1.883   9.324  1.2745  0.2238  0.1331
  220MPD1    C2 3393   3.532   1.792   9.417  0.4563  0.2192  0.6237
  220MPD1    C3 3394   3.405   1.765   9.456  0.8723 -0.1213 -0.1152
  220MPD1    C4 3395   3.308   1.837   9.393 -0.1869  0.3384 -0.5228
  220MPD1    C5 3396   3.339   1.925   9.299 -0.3407 -0.3350 -0.1834
  220MPD1     H 3397   3.611   1.744   9.474  0.8390 -2.2416 -1.9529
  220MPD1    H1 3398   3.204   1.836   9.425 -0.7764  0.8989 -2.4029
  220MPD1    H2 3399   3.481   2.031   9.195  0.7549  1.4907  2.1652
  220MPD1    H3 3400   3.261   1.976   9.244  1.1882  0.8634 -1.2380
  220MPD1     N 3401   3.378   1.670   9.556  0.5263  0.1498 -0.2005
  220MPD1    H5 3402   3.464   1.629   9.592  0.7942  0.6919 -0.2225
  220MPD1    N1 3403   3.699   1.924   9.314 -0.8135  0.2946 -0.0408
  220MPD1    H6 3404   3.707   1.957   9.218  1.9404  1.1444  0.4778
  220MPD1    H7 3405   3.758   1.846   9.342 -0.5360  1.3810  2.4019
  221MPD1     C 3406   2.004   0.331  16.848  1.1840 -0.1581 -0.7873
  221MPD1    C1 3407   1.871   0.317  16.869  0.2010  0.4104 -0.3388
  221MPD1    C2 3408   1.798   0.438  16.876 -0.6680  0.3240 -0.1543
  221MPD1    C3 3409   1.866   0.554  16.899 -0.4651  0.4715 -0.5725
  221MPD1    C4 3410   2.001   0.556  16.881 -0.4328  0.7174  0.7817
  221MPD1    C5 3411   2.074   0.449  16.845  0.4826 -0.3635  0.3838
  221MPD1     H 3412   1.690   0.441  16.886 -0.3757  1.5133  2.6679
  221MPD1    H1 3413   2.060   0.646  16.892 -1.3865  1.7352 -2.4627
  221MPD1    H2 3414   2.069   0.244  16.839 -1.1039 -1.8677 -0.7184
  221MPD1    H3 3415   2.182   0.452  16.834  0.3372 -1.2479 -1.2667
  221MPD1     N 3416   1.807   0.684  16.917  0.0054  0.3478 -1.0420
  221MPD1    H5 3417   1.868   0.764  16.929 -1.6760  1.1048  2.4873
  221MPD1    N1 3418   1.808   0.198  16.852  0.0063 -0.0513 -0.3465
  221MPD1    H6 3419   1.720   0.200  16.904  1.4483  0.9605  2.0725
  221MPD1    H7 3420   1.858   0.118  16.891 -0.0824  0.8392  1.6077
  222MPD1     C 3421   0.494   4.112   0.402  0.1939  0.2305 -0.6073
  222MPD1    C1 3422   0.523   4.187   0.521 -0.3767  0.4709 -0.6642
  222MPD1    C2 3423   0.473   4.313   0.523  0.1543  0.3818 -0.0634
  222MPD1    C3 3424   0.380   4.363   0.432  0.0504 -0.1151  0.8816
  222MPD1    C4 3425   0.339   4.285   0.325 -0.3398 -0.1846  0.3918
  222MPD1    C5 3426   0.398   4.165   0.314 -0.3415 -0.0535 -0.4127
  222MPD1     H 3427   0.486   4.374   0.612  1.5115  0.5111 -0.3378
  222MPD1    H1 3428   0.262   4.319   0.257  0.0534  2.0271  1.0534
  222MPD1    H2 3429   0.536   4.014   0.382 -1.5111 -0.7674  0.6806
  222MPD1    H3 3430   0.363   4.100   0.235 -1.5428  1.9824 -1.5126
  222MPD1     N 3431   0.326   4.494   0.438  0.4170 -0.7680 -0.2490
  222MPD1    H5 3432   0.256   4.527   0.373 -1.0069  1.1351  2.2860
  222MPD1    N1 3433   0.617   4.148   0.617 -0.4288 -0.2106 -1.5794
  222MPD1    H6 3434   0.620   4.049   0.638  0.8044  0.5070  1.6583
  222MPD1    H7 3435   0.638   4.207   0.698  0.2896 -0.0887 -1.8530
  223MPD1     C 3436   4.269   4.625   0.168  0.3039  0.1033 -0.0299
  223MPD1    C1 3437   4.376   4.534   0.145  0.4464 -0.5504  0.5973
  223MPD1    C2 3438   4.493   4.558   0.209  0.0732  0.3125 -0.0350
  223MPD1    C3 3439   4.522   4.682   0.272  0.1323  0.3219  0.6869
  223MPD1    C4 3440   4.420   0.037   0.287 -0.9164  0.1208  0.1989
  223MPD1    C5 3441   4.297   0.009   0.230  0.7599 -0.2661 -0.1089
  223MPD1     H 3442   4.575   4.486   0.206 -1.1169 -0.9616 -1.9920
  223MPD1    H1 3443   4.426   0.130   0.342 -1.8518  1.6869 -2.3244
  223MPD1    H2 3444   4.171   4.611   0.125  1.2058 -2.8468 -1.1822
  223MPD1    H3 3445   4.217   0.079   0.252  0.1254 -0.6156 -1.2941
  223MPD1     N 3446   4.654   4.709   0.320  0.1442 -0.1034 -0.3133
  223MPD1    H5 3447   4.727   4.640   0.306  0.7008  0.2956  0.6618
  223MPD1    N1 3448   4.346   4.414   0.080 -0.9959 -0.3454  0.4590
  223MPD1    H6 3449   4.422   4.384   0.019 -0.7002  0.5835  0.3716
  223MPD1    H7 3450   4.261   4.410   0.024 -0.3096  0.0806 -0.6267
  224MPD1     C 3451   1.357   0.048   8.863 -0.6235 -0.4342  0.2699
  224MPD1    C1 3452   1.290   0.168   8.876 -0.8036 -0.7365 -0.0164
  224MPD1    C2 3453   1.345   0.273   8.942 -1.1216  0.0693  0.1626
  224MPD1    C3 3454   1.470   0.254   9.006 -0.3882  0.7545  0.2558
  224MPD1    C4 3455   1.528   0.133   8.998  0.1309 -0.0055 -0.2925
  224MPD1    C5 3456   1.475   0.035   8.923 -0.1461  0.0679  0.1869
  224MPD1     H 3457   1.290   0.363   8.967 -1.8745 -0.2839 -0.2190
  224MPD1    H1 3458   1.620   0.112   9.052  0.9009  4.1281  0.0348
  224MPD1    H2 3459   1.325   4.706   8.796 -4.0538  1.5052 -0.4043
  224MPD1    H3 3460   1.534   4.683   8.907 -1.2351 -0.6362  0.1029
  224MPD1     N 3461   1.549   0.348   9.080  0.0346 -0.0660 -0.1943
  224MPD1    H5 3462   1.643   0.316   9.096  0.0445 -0.6169 -1.4177
  224MPD1    N1 3463   1.177   0.186   8.806 -0.0747  0.3106  0.0772
  224MPD1    H6 3464   1.122   0.263   8.845 -2.9330 -1.4988 -0.3989
  224MPD1    H7 3465   1.115   0.106   8.808 -0.1923  0.4075  0.3527
  225MPD1     C 3466   3.769   1.847  12.284  0.3956  0.1336 -0.2406
  225MPD1    C1 3467   3.713   1.755  12.194  0.4866 -0.1014 -0.2493
  225MPD1    C2 3468   3.577   1.767  12.156 -0.1415 -0.3181  0.4714
  225MPD1    C3 3469   3.505   1.872  12.207 -0.2132 -0.4548  0.6512
  225MPD1    C4 3470   3.559   1.966  12.289  0.8052 -0.1120 -0.0504
  225MPD1    C5 3471   3.691   1.954  12.323  0.4355 -0.3562 -0.0973
  225MPD1     H 3472   3.530   1.680  12.113  0.5843  1.0086 -2.9651
  225MPD1    H1 3473   3.496   2.041  12.334 -0.7594 -0.8219 -1.0604
  225MPD1    H2 3474   3.863   1.827  12.333 -0.3654  1.2141  1.6560
  225MPD1    H3 3475   3.733   2.025  12.393 -1.5630  1.0742 -0.3483
  225MPD1     N 3476   3.366   1.880  12.185  0.0422  0.0398  0.6023
  225MPD1    H5 3477   3.319   1.949  12.244  0.6937  1.6418 -0.7629
  225MPD1    N1 3478   3.782   1.638  12.175 -0.1291  0.2063  0.0020
  225MPD1    H6 3479   3.752   1.594  12.088  1.7720 -1.3625  0.1457
  225MPD1    H7 3480   3.883   1.651  12.175 -0.1110  0.2065  2.3927
  226MPD1     C 3481   2.517   1.927   9.523  0.2542  0.2381 -0.2655
  226MPD1    C1 3482   2.497   1.800   9.460 -0.0015  0.5761  0.4274
  226MPD1    C2 3483   2.367   1.743   9.482  0.5389 -0.2700 -0.2203
  226MPD1    C3 3484   2.277   1.799   9.560 -0.2056 -0.2048 -0.8964
  226MPD1    C4 3485   2.307   1.915   9.629 -0.2106 -0.6712 -0.0262
  226MPD1    C5 3486   2.423   1.981   9.603 -0.4614  0.5805  0.0912
  226MPD1     H 3487   2.327   1.657   9.430  2.1961 -0.2176 -1.5657
  226MPD1    H1 3488   2.231   1.963   9.688  0.5191 -0.3136  0.6261
  226MPD1    H2 3489   2.608   1.985   9.515  0.7383  0.0466  3.9711
  226MPD1    H3 3490   2.430   2.081   9.643 -1.1868  1.1518 -1.2415
  226MPD1     N 3491   2.150   1.727   9.580 -0.9850 -0.7422 -0.3003
  226MPD1    H5 3492   2.125   1.639   9.537 -0.3661 -0.8230 -0.5062
  226MPD1    N1 3493   2.595   1.743   9.380  0.0357 -0.4219  0.2153
  226MPD1    H6 3494   2.603   1.643   9.399  1.2404  0.0068  1.9697
  226MPD1    H7 3495   2.688   1.783   9.390 -0.4945  1.3527 -2.0422
  227MPD1     C 3496   1.120   1.751   9.350 -0.3370 -0.4715  0.0282
  227MPD1    C1 3497   1.177   1.625   9.328 -0.1459  0.0859 -0.5157
  227MPD1    C2 3498   1.300   1.599   9.383 -0.3422  0.1680  0.3245
  227MPD1    C3 3499   1.366   1.694   9.459  0.4258  0.3234 -0.3553
  227MPD1    C4 3500   1.298   1.812   9.489 -0.0966  0.5397  0.6952
  227MPD1    C5 3501   1.181   1.840   9.429 -0.6240 -0.3333  0.3441
  227MPD1     H 3502   1.346   1.501   9.374  1.4187  1.0190  0.1616
  227MPD1    H1 3503   1.345   1.893   9.543  1.8438 -0.6940  0.9015
  227MPD1    H2 3504   1.033   1.778   9.292 -0.0159 -0.0786 -0.2655
  227MPD1    H3 3505   1.127   1.934   9.437 -0.4829 -0.0429 -2.3158
  227MPD1     N 3506   1.491   1.662   9.516 -0.0212  0.4031 -0.1228
  227MPD1    H5 3507   1.535   1.575   9.488 -1.0196  0.0692 -0.6651
  227MPD1    N1 3508   1.130   1.555   9.218  0.1009  0.4684  0.5143
  227MPD1    H6 3509   1.030   1.572   9.216  0.0449  0.1231  0.4021
  227MPD1    H7 3510   1.145   1.456   9.237 -1.5426 -0.0674 -1.0462
  228MPD1     C 3511   0.313   0.057  13.356 -0.1518  0.1421 -0.0024
  228MPD1    C1 3512   0.369   4.700  13.268  0.5811 -0.1823 -0.9711
  228MPD1    C2 3513   0.299   4.595  13.225  0.4105  0.2613 -0.4322
  228MPD1    C3 3514   0.203   4.548  13.310 -0.8176  0.4973 -0.0699
  228MPD1    C4 3515   0.177   4.612  13.424  0.1912 -0.3490  0.2485
  228MPD1    C5 3516   0.220   0.008  13.440 -0.3789 -0.1111  0.3747
  228MPD1     H 3517   0.320   4.544  13.131 -1.7209  0.2311 -0.9021
  228MPD1    H1 3518   0.106   4.581  13.500 -1.0685 -1.7443 -1.4953
  228MPD1    H2 3519   0.357   0.155  13.369  0.2220 -0.0357  0.0746
  228MPD1    H3 3520   0.181   0.067  13.521  0.4428 -0.6290  1.1445
  228MPD1     N 3521   0.131   4.428  13.274  0.0716 -0.3697 -0.6736
  228MPD1    H5 3522   0.164   4.375  13.194  3.1266 -0.3759  0.5779
  228MPD1    N1 3523   0.490   0.001  13.205 -0.4102 -0.0850 -0.4217
  228MPD1    H6 3524   0.544   4.658  13.173  0.8866  0.2964  0.8123
  228MPD1    H7 3525   0.558   0.053  13.260  0.3290 -1.9693  0.4778
  229MPD1     C 3526   4.076   3.534  14.633 -0.2008 -0.5407  0.2524
  229MPD1    C1 3527   4.140   3.483  14.520  0.5371  0.1569  0.1390
  229MPD1    C2 3528   4.245   3.391  14.543 -0.6318 -0.1536  0.1206
  229MPD1    C3 3529   4.281   3.353  14.670  0.3747 -0.2217 -0.1024
  229MPD1    C4 3530   4.219   3.413  14.778 -1.3695  0.5222  0.6547
  229MPD1    C5 3531   4.117   3.504  14.758 -0.1131 -0.8705  0.4422
  229MPD1     H 3532   4.304   3.344  14.465  0.2061 -0.7296  1.0949
  229MPD1    H1 3533   4.242   3.384  14.881 -0.4666 -0.3496  0.2086
  229MPD1    H2 3534   3.998   3.609  14.621  0.8843  0.4756 -0.3845
  229MPD1    H3 3535   4.067   3.550  14.842  1.3511  0.4278  0.5937
  229MPD1     N 3536   4.384   3.259  14.696 -0.3494  0.1907 -0.2647
  229MPD1    H5 3537   4.412   3.243  14.792 -0.0311  0.4326 -0.3175
  229MPD1    N1 3538   4.093   3.507  14.390  0.1919  0.3822  0.0603
  229MPD1    H6 3539   4.170   3.518  14.325  0.7800 -0.0868  0.6732
  229MPD1    H7 3540   4.032   3.589  14.388 -1.8237 -1.0788  1.2096
  230MPD1     C 3541   0.017   3.110  15.488 -0.0146  0.3686 -0.1810
  230MPD1    C1 3542   0.078   3.003  15.432 -0.4076 -0.5496  0.2805
  230MPD1    C2 3543   0.077   2.999  15.286 -1.0141  0.0149  0.0508
  230MPD1    C3 3544   0.016   3.098  15.209 -0.1282 -0.5862 -0.4731
  230MPD1    C4 3545   4.693   3.203  15.274  0.2320 -0.6207 -0.3649
  230MPD1    C5 3546   4.691   3.205  15.408  0.6167 -0.0105 -0.0735
  230MPD1     H 3547   0.116   2.913  15.234  0.8262  0.6678  0.3288
  230MPD1    H1 3548   4.653   3.288  15.220 -0.2967  1.2713  3.0002
  230MPD1    H2 3549   0.019   3.113  15.597 -0.4079  1.2904 -0.1989
  230MPD1    H3 3550   4.638   3.290  15.450  2.4140 -0.2895  2.7143
  230MPD1     N 3551   0.003   3.077  15.071 -0.1771 -0.5068  0.1660
  230MPD1    H5 3552   0.019   2.981  15.045 -1.2363 -1.3115  2.4309
  230MPD1    N1 3553   0.103   2.888  15.508 -0.5161 -0.2997 -0.2169
  230MPD1    H6 3554   0.132   2.904  15.604 -2.3184 -1.7091  0.5774
  230MPD1    H7 3555   0.169   2.826  15.461 -1.5215 -1.6079  0.0964
  231MPD1     C 3556   3.024   0.335  15.705  0.8131 -0.1139  0.2753
  231MPD1    C1 3557   2.980   0.375  15.582 -0.1846 -0.1622  0.6006
  231MPD1    C2 3558   3.062   0.341  15.470  0.1926  0.2238 -0.4977
  231MPD1    C3 3559   3.188   0.291  15.482  0.2312 -0.3516  1.0178
  231MPD1    C4 3560   3.224   0.263  15.613 -0.0549  0.0407  0.6581
  231MPD1    C5 3561   3.145   0.281  15.720 -0.4598 -0.0247  0.3977
  231MPD1     H 3562   3.009   0.353  15.377 -1.4306  0.9850  0.5239
  231MPD1    H1 3563   3.326   0.233  15.632  0.2283  1.2306  1.0260
  231MPD1    H2 3564   2.958   0.348  15.791 -1.5751 -0.5898 -1.4890
  231MPD1    H3 3565   3.177   0.249  15.818 -0.1191  0.2890  0.3898
  231MPD1     N 3566   3.262   0.248  15.366 -0.0127 -0.1410  0.0491
  231MPD1    H5 3567   3.212   0.261  15.279  0.6504  2.5395  0.0548
  231MPD1    N1 3568   2.861   0.446  15.564 -0.0438 -0.6799 -0.0337
  231MPD1    H6 3569   2.826   0.487  15.650 -0.3418 -1.2928  0.1390
  231MPD1    H7 3570   2.858   0.527  15.502  0.5252  0.8331  1.9120
  232MPD1     C 3571   4.481   3.702   0.100 -0.4686 -0.1973  0.9401
  232MPD1    C1 3572   4.370   3.774   0.061  0.4220  0.3023  0.3174
  232MPD1    C2 3573   4.270   3.709  17.733 -0.7504 -0.0134  0.4291
  232MPD1    C3 3574   4.269   3.575  17.709  0.0459  0.3921 -0.2503
  232MPD1    C4 3575   4.372   3.504   0.017  0.3102  0.9091 -0.6942
  232MPD1    C5 3576   4.479   3.569   0.070  0.2781 -0.3959  0.5828
  232MPD1     H 3577   4.177   3.759  17.711  0.0847  1.3783  0.0609
  232MPD1    H1 3578   4.384   3.400  17.737  1.6237  0.0209  3.2288
  232MPD1    H2 3579   4.567   3.744   0.152  0.1625  0.4571 -0.6200
  232MPD1    H3 3580   4.561   3.500   0.087  1.2973  0.7336  0.1516
  232MPD1     N 3581   4.165   3.511  17.637 -0.6890  0.1036 -0.2403
  232MPD1    H5 3582   4.093   3.568  17.594 -0.5266  1.2194  0.9528
  232MPD1    N1 3583   4.370   3.905   0.097 -0.5185  0.1959  0.1236
  232MPD1    H6 3584   4.370   3.917   0.198 -0.1611 -0.4581  0.2045
  232MPD1    H7 3585   4.292   3.960   0.061 -1.5574 -1.8699 -0.7946
  233MPD1     C 3586   0.838   1.198   1.266  0.1905  0.4027 -0.3523
  233MPD1    C1 3587   0.955   1.146   1.329  0.0203 -0.0152 -0.7063
  233MPD1    C2 3588   1.073   1.210   1.292 -0.2764  0.0976 -0.7923
  233MPD1    C3 3589   1.091   1.317   1.214 -0.0187 -0.7674 -0.7940
  233MPD1    C4 3590   0.981   1.361   1.147  0.4486  0.4945  0.6978
  233MPD1    C5 3591   0.856   1.298   1.174 -0.0044 -0.5123 -0.0351
  233MPD1     H 3592   1.160   1.166   1.340 -0.9715 -1.1183 -0.6443
  233MPD1    H1 3593   0.991   1.434   1.067  3.2912 -0.0410  0.5612
  233MPD1    H2 3594   0.742   1.154   1.293 -0.0675  0.7907 -0.6468
  233MPD1    H3 3595   0.766   1.317   1.117  0.1459 -0.9388 -0.4080
  233MPD1     N 3596   1.209   1.385   1.198  0.1758 -0.1882 -0.0226
  233MPD1    H5 3597   1.214   1.448   1.119 -1.0022  0.8929  0.7617
  233MPD1    N1 3598   0.957   1.022   1.396  0.0153  0.2244 -0.3588
  233MPD1    H6 3599   0.873   1.019   1.453  0.7144  0.0500  0.6514
  233MPD1    H7 3600   1.046   1.021   1.445  0.8924  0.6888 -1.9181
  234MPD1     C 3601   2.521   3.986  10.140 -0.3065 -0.2030 -0.1904
  234MPD1    C1 3602   2.383   3.987  10.133  0.3822  0.1120 -0.3664
  234MPD1    C2 3603   2.327   4.090  10.051 -0.6945  0.0184  0.1666
  234MPD1    C3 3604   2.396   4.181   9.979 -0.1390  0.3690 -0.3509
  234MPD1    C4 3605   2.537   4.166   9.983  0.0981 -0.4941 -0.5378
  234MPD1    C5 3606   2.595   4.071  10.071 -0.1138 -0.1641 -0.2712
  234MPD1     H 3607   2.219   4.096  10.040 -0.7173 -1.1365 -0.1912
  234MPD1    H1 3608   2.603   4.240   9.938 -0.1226 -1.7093 -2.8630
  234MPD1    H2 3609   2.577   3.914  10.199 -1.9951 -0.8069  0.6733
  234MPD1    H3 3610   2.703   4.062  10.083 -0.0805 -1.8651 -1.7851
  234MPD1     N 3611   2.330   4.279   9.905 -0.2089 -0.5761 -0.4480
  234MPD1    H5 3612   2.229   4.276   9.898 -0.0699  0.5500 -2.9487
  234MPD1    N1 3613   2.306   3.881  10.187 -0.4295 -0.1566 -0.3523
  234MPD1    H6 3614   2.342   3.840  10.273 -1.4339  0.3663  0.3096
  234MPD1    H7 3615   2.205   3.888  10.190 -0.4368 -0.5555  0.2193
  235MPD1     C 3616   3.925   1.681  10.116  0.4312  0.0621  0.4640
  235MPD1    C1 3617   3.848   1.777  10.054 -0.0541 -0.5541 -0.4621
  235MPD1    C2 3618   3.913   1.896  10.016 -0.3028 -0.1643 -0.6539
  235MPD1    C3 3619   4.056   1.899  10.013 -0.3291  0.4595 -0.4163
  235MPD1    C4 3620   4.129   1.795  10.054 -0.2894  0.2816  0.8144
  235MPD1    C5 3621   4.058   1.686  10.100  0.6307  0.3658 -0.1133
  235MPD1     H 3622   3.869   1.987   9.976 -1.2483 -0.4845 -0.3470
  235MPD1    H1 3623   4.237   1.786  10.052 -0.4422 -0.8669 -3.1067
  235MPD1    H2 3624   3.893   1.587  10.160  0.7657 -0.4541 -0.4136
  235MPD1    H3 3625   4.118   1.599  10.127  2.7521  2.3458  1.5065
  235MPD1     N 3626   4.108   2.026   9.971 -0.3525  0.5330 -0.0945
  235MPD1    H5 3627   4.039   2.089   9.932 -1.8876  0.2050  2.0966
  235MPD1    N1 3628   3.706   1.772  10.062  0.2082  0.1027 -0.3446
  235MPD1    H6 3629   3.661   1.809   9.978 -0.1253 -1.0339 -0.6728
  235MPD1    H7 3630   3.671   1.676  10.066 -1.4315  0.7219  0.0753
  236MPD1     C 3631   3.435   3.086   9.940  0.4162  0.3675 -0.5084
  236MPD1    C1 3632   3.482   3.162  10.048 -0.1634 -0.0220 -0.2234
  236MPD1    C2 3633   3.535   3.090  10.150 -0.2908 -0.5164 -0.7528
  236MPD1    C3 3634   3.532   2.944  10.152  0.3028  0.0569 -0.1041
  236MPD1    C4 3635   3.466   2.874  10.054 -0.5779 -0.0403 -0.4768
  236MPD1    C5 3636   3.422   2.951   9.947  0.2930 -0.1782  0.1331
  236MPD1     H 3637   3.581   3.146  10.231 -2.0896  0.7031 -0.5695
  236MPD1    H1 3638   3.446   2.768  10.055  2.0027 -0.5309 -2.1876
  236MPD1    H2 3639   3.411   3.140   9.849  0.1713  0.3815 -0.4339
  236MPD1    H3 3640   3.369   2.888   9.877 -0.9241  0.8097  0.1779
  236MPD1     N 3641   3.603   2.869  10.251  0.5314 -0.3616  0.8722
  236MPD1    H5 3642   3.584   2.769  10.256 -0.2870 -0.2165  0.6105
  236MPD1    N1 3643   3.499   3.306  10.040  0.2136  0.5049  0.2210
  236MPD1    H6 3644   3.486   3.350  10.131 -0.9060 -1.4076  0.9915
  236MPD1    H7 3645   3.442   3.361   9.976  0.3818 -0.4272 -0.7380
  237MPD1     C 3646   3.434   1.035  15.421  0.2746 -0.2943  0.1517
  237MPD1    C1 3647   3.384   1.030  15.291 -0.0043 -0.7472 -0.4896
  237MPD1    C2 3648   3.305   1.131  15.245 -0.8818 -0.4359 -0.1212
  237MPD1    C3 3649   3.289   1.243  15.320 -1.0892 -0.5625 -0.4949
  237MPD1    C4 3650   3.351   1.258  15.442  0.3404 -0.4769  0.3704
  237MPD1    C5 3651   3.413   1.144  15.492 -0.0218 -0.0163  0.0986
  237MPD1     H 3652   3.264   1.122  15.146 -0.7222  0.2059 -0.2478
  237MPD1    H1 3653   3.334   1.343  15.507  3.2188  0.8626 -0.6204
  237MPD1    H2 3654   3.496   0.956  15.461 -1.0060 -1.0256  0.6837
  237MPD1    H3 3655   3.440   1.137  15.597 -2.1092 -1.3667  0.5448
  237MPD1     N 3656   3.214   1.355  15.279  1.1777  0.0380 -0.2672
  237MPD1    H5 3657   3.210   1.427  15.351  2.4802 -1.8520  1.6963
  237MPD1    N1 3658   3.395   0.914  15.217  0.3859  0.8453  0.8051
  237MPD1    H6 3659   3.487   0.873  15.236 -0.8929 -1.6595  1.6166
  237MPD1    H7 3660   3.379   0.919  15.117 -0.5671  1.1161  0.9744
  238MPD1     C 3661   0.500   0.051  15.187 -0.4151  0.0500 -0.1098
  238MPD1    C1 3662   0.457   0.141  15.084 -0.4426 -0.3904 -0.4896
  238MPD1    C2 3663   0.328   0.125  15.051 -0.5412  0.2178 -0.3400
  238MPD1    C3 3664   0.247   0.011  15.075  0.0913 -0.4250  0.1327
  238MPD1    C4 3665   0.300   4.651  15.160  0.1447  0.4294  0.2260
  238MPD1    C5 3666   0.426   4.679  15.210 -0.3092 -0.4034 -0.6415
  238MPD1     H 3667   0.284   0.198  14.985 -1.0417 -0.4749 -0.7702
  238MPD1    H1 3668   0.252   4.555  15.174  3.5998 -1.2187  0.6327
  238MPD1    H2 3669   0.589   0.066  15.247 -0.6176 -2.2444  0.7830
  238MPD1    H3 3670   0.466   4.608  15.281  0.8575  1.5430  0.6379
  238MPD1     N 3671   0.114   4.735  15.021 -0.5682  0.6680 -0.2648
  238MPD1    H5 3672   0.061   4.649  15.035 -2.4103  1.7163 -0.7526
  238MPD1    N1 3673   0.543   0.248  15.048  0.1055 -0.2023  0.2558
  238MPD1    H6 3674   0.529   0.276  14.952  0.8152  1.4931  0.6515
  238MPD1    H7 3675   0.642   0.238  15.065 -0.0476  0.3693  1.5437
  239MPD1     C 3676   4.718   1.567  14.361 -0.9158 -0.1485  0.7054
  239MPD1    C1 3677   4.708   1.600  14.228  0.1390 -0.2214  0.5073
  239MPD1    C2 3678   4.591   1.559  14.164 -0.2221  0.4126 -0.1056
  239MPD1    C3 3679   4.491   1.473  14.227 -0.0399 -0.4574  0.2486
  239MPD1    C4 3680   4.525   1.427  14.352  0.1931 -0.0305 -0.6184
  239MPD1    C5 3681   4.637   1.472  14.420 -0.5681  0.0607  0.1553
  239MPD1     H 3682   4.578   1.586  14.060  0.2337 -1.7603 -0.7317
  239MPD1    H1 3683   4.456   1.356  14.396  2.0985 -2.3767 -1.4777
  239MPD1    H2 3684   0.069   1.603  14.412 -1.6363  3.4590 -0.5541
  239MPD1    H3 3685   4.644   1.454  14.527 -0.3888  2.2832  0.5049
  239MPD1     N 3686   4.372   1.428  14.167 -0.0963 -0.8210  0.2842
  239MPD1    H5 3687   4.320   1.353  14.210  1.6298 -0.8927  2.2520
  239MPD1    N1 3688   0.064   1.691  14.165  0.5974  0.6340 -0.1527
  239MPD1    H6 3689   0.150   1.679  14.218 -1.0023 -2.1108  1.8429
  239MPD1    H7 3690   0.079   1.654  14.071  1.1017  0.3266  0.0458
  240MPD1     C 3691   4.607   0.975  14.132 -0.2973 -0.7800  0.4578
  240MPD1    C1 3692   4.594   0.978  14.271  0.3595 -1.0319  0.1208
  240MPD1    C2 3693   4.539   0.863  14.326 -0.0569  1.3585  0.8550
  240MPD1    C3 3694   4.487   0.759  14.254  0.1981 -0.1667 -0.2781
  240MPD1    C4 3695   4.500   0.760  14.119 -0.1245  0.0443  0.2993
  240MPD1    C5 3696   4.569   0.864  14.067 -0.1357  0.0123  0.3121
  240MPD1     H 3697   4.547   0.849  14.433  0.9442  3.3215  1.0436
  240MPD1    H1 3698   4.459   0.684  14.052 -1.5493 -1.0683  2.4249
  240MPD1    H2 3699   4.654   1.054  14.075 -1.1729  0.4185  1.4071
  240MPD1    H3 3700   4.571   0.875  13.959 -0.7143  0.1309  0.3138
  240MPD1     N 3701   4.405   0.664  14.325  0.0172  0.0231 -0.6576
  240MPD1    H5 3702   4.388   0.685  14.423  0.7054  0.2220 -0.5804
  240MPD1    N1 3703   4.649   1.081  14.357 -0.0617 -0.1154  0.3181
  240MPD1    H6 3704   4.669   1.169  14.310  1.2577 -0.7456 -0.3185
  240MPD1    H7 3705   4.586   1.091  14.436 -2.1731 -3.2919 -0.9697
  241MPD1     C 3706   4.469   0.251  15.191 -0.3992 -0.1121  0.6985
  241MPD1    C1 3707   4.551   0.274  15.087 -0.2779 -0.0506  0.3063
  241MPD1    C2 3708   4.499   0.294  14.958 -0.4613 -0.1629  0.4900
  241MPD1    C3 3709   4.366   0.273  14.937 -0.2652  0.0830  0.5020
  241MPD1    C4 3710   4.290   0.218  15.041  0.6110 -0.1274 -0.5262
  241MPD1    C5 3711   4.345   0.211  15.167  0.2282 -0.1563  0.2072
  241MPD1     H 3712   4.572   0.305  14.879 -0.4184 -0.2691  0.5158
  241MPD1    H1 3713   4.188   0.187  15.025  0.0654  0.7807  1.2900
  241MPD1    H2 3714   4.504   0.236  15.293  0.1773  2.5882  0.8939
  241MPD1    H3 3715   4.284   0.188  15.254 -1.3169 -0.3009 -0.9030
  241MPD1     N 3716   4.307   0.284  14.809  0.3983 -0.0023 -0.1536
  241MPD1    H5 3717   4.216   0.241  14.800  0.2622  1.2248 -4.4705
  241MPD1    N1 3718   4.685   0.306  15.111  0.2431  0.4163  0.4853
  241MPD1    H6 3719   4.737   0.288  15.025  0.0190 -2.4456  0.9694
  241MPD1    H7 3720   4.721   0.245  15.183  1.7823 -1.1057 -1.5576
  242MPD1     C 3721   3.949   4.396  15.808  0.4880  1.0495  0.5174
  242MPD1    C1 3722   3.844   4.310  15.760  0.0454  0.5482 -0.4166
  242MPD1    C2 3723   3.890   4.213  15.676 -0.0489  0.7643 -0.2523
  242MPD1    C3 3724   4.014   4.210  15.622 -0.2466 -0.2734  0.4090
  242MPD1    C4 3725   4.108   4.300  15.659 -0.3162 -0.4061 -0.1720
  242MPD1    C5 3726   4.075   4.390  15.759  0.4704  0.0562 -0.0321
  242MPD1     H 3727   3.822   4.137  15.639  0.3153 -0.6481  1.9672
  242MPD1    H1 3728   4.206   4.316  15.616 -0.8868  1.6469 -0.6803
  242MPD1    H2 3729   3.929   4.478  15.876  2.2256  2.3736 -0.5711
  242MPD1    H3 3730   4.148   4.460  15.798  1.3047 -0.6643 -0.3151
  242MPD1     N 3731   4.060   4.126  15.518 -0.2336  0.1156  0.4433
  242MPD1    H5 3732   4.160   4.133  15.502 -0.1866  0.6390  0.9559
  242MPD1    N1 3733   3.724   4.305  15.826 -0.8947 -0.0540 -0.3472
  242MPD1    H6 3734   3.649   4.272  15.766 -0.6952  2.5621 -2.0191
  242MPD1    H7 3735   3.696   4.397  15.861  2.0423 -0.0020  1.8948
  243MPD1     C 3736   0.193   2.595  17.518 -0.0041  0.4722 -0.4743
  243MPD1    C1 3737   0.227   2.461  17.535 -0.3454  0.2893  0.1684
  243MPD1    C2 3738   0.334   2.413  17.472 -0.2589 -0.4593  0.7869
  243MPD1    C3 3739   0.393   2.478  17.367 -0.3000  0.1759  0.2361
  243MPD1    C4 3740   0.363   2.613  17.348 -0.3624  0.0593 -0.3136
  243MPD1    C5 3741   0.263   2.668  17.424  0.3880  0.2307 -0.0810
  243MPD1     H 3742   0.368   2.311  17.492  0.9016  0.2410  2.4698
  243MPD1    H1 3743   0.426   2.682  17.292 -0.6950 -1.2626 -2.3254
  243MPD1    H2 3744   0.111   2.644  17.571  0.2209  1.1906 -0.7873
  243MPD1    H3 3745   0.244   2.775  17.433  1.7407  0.6756 -2.5979
  243MPD1     N 3746   0.494   2.412  17.294 -0.4386 -0.6024  0.2229
  243MPD1    H5 3747   0.522   2.319  17.323  0.3885 -0.3229  0.3413
  243MPD1    N1 3748   0.161   2.394  17.642  0.2226 -0.4719  0.2370
  243MPD1    H6 3749   0.066   2.427  17.654 -0.3711 -1.8643 -0.6989
  243MPD1    H7 3750   0.156   2.293  17.635 -0.6277 -0.3383 -1.1153
  244MPD1     C 3751   1.197   1.742  17.249  0.4110  0.1794 -0.8739
  244MPD1    C1 3752   1.223   1.792  17.127 -0.2876 -0.2919  0.3684
  244MPD1    C2 3753   1.137   1.890  17.084  1.1315 -0.4079 -0.5541
  244MPD1    C3 3754   1.021   1.922  17.153 -0.2029  0.0067  0.1931
  244MPD1    C4 3755   1.000   1.858  17.271 -0.1232  0.0131 -0.4512
  244MPD1    C5 3756   1.091   1.768  17.326  0.7444  0.1965  0.4789
  244MPD1     H 3757   1.154   1.947  16.994  1.8526 -1.7998 -1.3004
  244MPD1    H1 3758   0.906   1.870  17.325  0.1302  0.1100 -0.0306
  244MPD1    H2 3759   1.271   1.675  17.291 -0.5467 -0.2631  0.1181
  244MPD1    H3 3760   1.073   1.721  17.421 -0.6684  0.7768  0.4932
  244MPD1     N 3761   0.934   2.028  17.115 -0.3302 -1.5956  0.0003
  244MPD1    H5 3762   0.962   2.073  17.029  0.5407 -0.3012  0.9774
  244MPD1    N1 3763   1.346   1.768  17.058 -0.3988 -0.9865 -0.5881
  244MPD1    H6 3764   1.337   1.789  16.959  2.0676 -0.1121 -0.6247
  244MPD1    H7 3765   1.364   1.668  17.062 -1.2179 -1.1708 -1.7294
  245MPD1     C 3766   2.591   2.498  13.332 -0.2147 -0.3181 -0.2564
  245MPD1    C1 3767   2.539   2.535  13.452 -0.1188  0.3816  0.1782
  245MPD1    C2 3768   2.586   2.653  13.504  0.6387  0.9776 -0.0433
  245MPD1    C3 3769   2.642   2.746  13.420  0.0207 -0.5892  0.2287
  245MPD1    C4 3770   2.681   2.717  13.290 -0.8985 -0.2645  0.5329
  245MPD1    C5 3771   2.657   2.586  13.254 -0.3583  0.5432 -0.5125
  245MPD1     H 3772   2.549   2.682  13.601 -2.1290 -1.5783 -0.3463
  245MPD1    H1 3773   2.737   2.778  13.221 -0.2761 -1.0047  0.3833
  245MPD1    H2 3774   2.566   2.398  13.298  1.8510 -1.3046  1.1072
  245MPD1    H3 3775   2.690   2.549  13.157  0.8140 -1.3376  0.6016
  245MPD1     N 3776   2.666   2.871  13.483  0.3822 -0.5382 -0.1390
  245MPD1    H5 3777   2.628   2.881  13.576  0.2257  0.7345 -0.3413
  245MPD1    N1 3778   2.465   2.447  13.532 -0.0446 -0.9066 -0.1071
  245MPD1    H6 3779   2.411   2.504  13.598  0.6523  0.6168 -0.8744
  245MPD1    H7 3780   2.413   2.383  13.472 -0.9383  0.6364 -0.9683
  246MPD1     C 3781   4.031   3.952  10.211 -0.5686 -0.1824 -0.4594
  246MPD1    C1 3782   4.058   4.071  10.139 -0.6869  0.4048  0.4443
  246MPD1    C2 3783   4.073   4.048  10.007  0.1779  0.0023 -0.5186
  246MPD1    C3 3784   4.086   3.925   9.941  0.2396  1.1418 -0.3459
  246MPD1    C4 3785   4.087   3.813  10.024 -0.1439 -0.3206 -0.0828
  246MPD1    C5 3786   4.053   3.824  10.159  0.4835  0.6003 -0.3035
  246MPD1     H 3787   4.081   4.137   9.947  1.6910  0.9137  1.0542
  246MPD1    H1 3788   4.097   3.712   9.986  0.4227  0.0443 -0.9054
  246MPD1    H2 3789   3.988   3.957  10.310 -0.3704  0.2777 -0.3977
  246MPD1    H3 3790   4.027   3.739  10.220  1.9636  0.4021  0.0432
  246MPD1     N 3791   4.115   3.924   9.805  0.1501 -0.0320  0.1626
  246MPD1    H5 3792   4.107   4.012   9.754 -0.7235 -0.0718  0.2224
  246MPD1    N1 3793   4.030   4.195  10.193  0.0326  0.8216  0.6639
  246MPD1    H6 3794   4.036   4.195  10.295  1.9668  1.0207  0.5544
  246MPD1    H7 3795   4.088   4.268  10.153  0.7394 -0.3960 -0.5182
  247MPD1     C 3796   1.849   2.671  16.181 -0.4775 -0.3900 -0.5846
  247MPD1    C1 3797   1.730   2.737  16.162  0.1420  0.4105 -0.1989
  247MPD1    C2 3798   1.713   2.814  16.043 -0.1728  0.2769 -0.5535
  247MPD1    C3 3799   1.819   2.837  15.958 -0.1305 -0.4089  1.4616
  247MPD1    C4 3800   1.933   2.761  15.973  0.4354 -0.3978 -0.0092
  247MPD1    C5 3801   1.949   2.689  16.087  0.2581  0.1223  0.2600
  247MPD1     H 3802   1.613   2.852  16.027 -0.6742 -1.7022 -2.2333
  247MPD1    H1 3803   2.017   2.786  15.909 -0.6165 -1.3137 -1.7521
  247MPD1    H2 3804   1.863   2.604  16.265  0.0590 -1.3328 -1.4219
  247MPD1    H3 3805   2.039   2.629  16.095  1.0786  1.2661 -0.4898
  247MPD1     N 3806   1.816   2.934  15.862 -0.2428 -0.0035 -0.2401
  247MPD1    H5 3807   1.903   2.955  15.813 -0.8540  0.8813 -0.9508
  247MPD1    N1 3808   1.636   2.731  16.264  0.5631 -0.1383  0.4822
  247MPD1    H6 3809   1.695   2.747  16.345  2.6466 -1.8232 -0.6790
  247MPD1    H7 3810   1.578   2.814  16.262  0.3237 -0.3061  0.5363
  248MPD1     C 3811   2.581   4.244   0.833 -0.4876 -0.4737 -0.2387
  248MPD1    C1 3812   2.631   4.123   0.781  0.1198  0.4607  0.8824
  248MPD1    C2 3813   2.559   4.052   0.688 -0.7695 -0.2463 -0.1086
  248MPD1    C3 3814   2.428   4.092   0.658  0.0263 -0.4802  0.0846
  248MPD1    C4 3815   2.378   4.207   0.717  0.4169 -0.7740 -0.4515
  248MPD1    C5 3816   2.453   4.282   0.809 -0.5062  0.5720 -0.3245
  248MPD1     H 3817   2.607   3.969   0.638 -1.2982 -0.2953 -0.5393
  248MPD1    H1 3818   2.285   4.256   0.691 -0.1010 -1.7877 -0.4952
  248MPD1    H2 3819   2.644   4.302   0.900 -1.8043  1.8057 -0.9798
  248MPD1    H3 3820   2.419   4.376   0.851 -2.6426  0.0920 -0.9598
  248MPD1     N 3821   2.357   4.014   0.570 -0.1780 -0.2172  0.1062
  248MPD1    H5 3822   2.404   3.929   0.542  1.1261  0.8570 -0.9515
  248MPD1    N1 3823   2.765   4.094   0.803  0.1190  0.4015  0.1245
  248MPD1    H6 3824   2.780   3.994   0.795  0.6875  0.4416  0.7607
  248MPD1    H7 3825   2.800   4.136   0.889  0.4445 -0.7544  0.5486
  249MPD1     C 3826   4.349   0.659  10.236 -0.0649 -0.1780 -0.4285
  249MPD1    C1 3827   4.429   0.767  10.265 -0.6649  0.5637 -0.4807
  249MPD1    C2 3828   4.386   0.894  10.216  0.3065  0.3356 -0.3936
  249MPD1    C3 3829   4.299   0.896  10.113 -0.1641  0.1356 -0.0224
  249MPD1    C4 3830   4.223   0.783  10.079 -0.0775 -0.2488  0.0558
  249MPD1    C5 3831   4.249   0.665  10.146  0.6223  0.6471  0.1556
  249MPD1     H 3832   4.439   0.984  10.246 -0.2685  0.9349 -1.1756
  249MPD1    H1 3833   4.138   0.783  10.011 -0.6465  1.6959  0.7436
  249MPD1    H2 3834   4.351   0.563  10.286 -3.0385 -0.5427 -1.0058
  249MPD1    H3 3835   4.189   0.578  10.125 -0.1608  1.2176  0.0185
  249MPD1     N 3836   4.310   1.018  10.034 -0.0396 -0.3804 -0.8154
  249MPD1    H5 3837   4.375   1.093  10.055  0.4026 -1.1854  0.6719
  249MPD1    N1 3838   4.522   0.762  10.367  0.2255 -0.4672  0.4589
  249MPD1    H6 3839   4.570   0.672  10.365  1.3419  0.1234  0.8811
  249MPD1    H7 3840   4.591   0.837  10.361 -0.8849  0.2879 -2.8541
  250MPD2     C 3841   1.517   1.515  12.559  0.2144 -0.1319 -0.3978
  250MPD2    C1 3842   1.431   1.608  12.520  0.3668 -0.8467 -0.0094
  250MPD2    C2 3843   1.316   1.567  12.454  1.0778  0.3175 -0.4651
  250MPD2    C3 3844   1.282   1.430  12.430 -0.0868 -0.9881  0.3868
  250MPD2    C4 3845   1.370   1.338  12.473 -0.5603  0.5175 -0.4476
  250MPD2    C5 3846   1.489   1.382  12.531  0.2587  1.2494  0.3552
  250MPD2     H 3847   1.248   1.645  12.423  0.8942  0.0455 -0.7435
  250MPD2    H1 3848   1.352   1.232  12.466 -1.3066  0.4657  2.1417
  250MPD2    H2 3849   1.609   1.547  12.606  0.3245 -0.6278 -0.2729
  250MPD2    H3 3850   1.557   1.306  12.567 -0.1317  0.2987 -0.9296
  250MPD2     N 3851   1.172   1.378  12.357  0.4570 -0.8402  0.6097
  250MPD2    H5 3852   1.163   1.279  12.338  1.7523 -0.6579 -0.9193
  250MPD2    N1 3853   1.455   1.743  12.559 -0.5962 -0.1241  0.8205
  250MPD2    H7 3854   1.542   1.756  12.610 -0.4180 -1.7728  0.9351
  251TMC3    C1 3855   1.435   1.973  12.605  0.2632  0.7585  0.1854
  251TMC3    C2 3856   1.355   2.080  12.588 -0.4937 -0.4711  0.2743
  251TMC3    C3 3857   1.354   2.191  12.674  0.0964 -0.2431  0.1598
  251TMC3    C4 3858   1.510   1.963  12.713  0.0184 -0.7409  0.4752
  251TMC3    C5 3859   1.511   2.067  12.801  0.3715  0.1619  0.1667
  251TMC3    C6 3860   1.443   2.182  12.777 -0.8493 -0.4745 -0.5641
  251TMC3     C 3861   1.383   1.854  12.540  0.5563  0.2893  0.2884
  251TMC3     O 3862   1.267   1.872  12.504 -0.1651  0.1138  0.5529
  251TMC3     H 3863   1.281   2.082  12.509 -1.1026 -0.3632  0.8448
  251TMC3    H1 3864   1.564   1.874  12.745 -1.0943 -2.3147 -2.0129
  251TMC3    H2 3865   1.443   2.262  12.850 -5.2933 -0.8722 -0.0934
  251TMC3    C7 3866   1.499   2.015  12.932  0.9496 -0.7144 -0.1266
  251TMC3    C8 3867   1.217   2.236  12.712 -0.4041  0.2228  0.2565
  251TMC3    O1 3868   1.459   1.903  12.943  0.0012  0.2215 -0.7595
  251TMC3    O2 3869   1.124   2.174  12.663  0.5972 -0.1072  0.2279
  252TMC3    C1 3870   0.608   2.576  10.122 -0.2117  1.0119  0.3487
  252TMC3    C2 3871   0.680   2.690  10.144 -0.0075  0.5748  0.4340
  252TMC3    C3 3872   0.797   2.680  10.214  0.2239  0.8496  0.1535
  252TMC3    C4 3873   0.641   2.458  10.190  0.1975 -0.3787  0.0726
  252TMC3    C5 3874   0.757   2.456  10.258  0.8315  0.5625 -0.4827
  252TMC3    C6 3875   0.839   2.561  10.274  0.0819  0.3281 -0.0680
  252TMC3     C 3876   0.541   2.554   9.996  0.5314 -0.1717  0.1027
  252TMC3     O 3877   0.494   2.444   9.965 -0.1054  0.2265  0.6333
  252TMC3     H 3878   0.651   2.779  10.090  1.3545  0.0599 -1.1278
  252TMC3    H1 3879   0.596   2.363  10.164 -0.3158 -0.6683  2.0823
  252TMC3    H2 3880   0.931   2.555  10.331  0.9004  3.5874 -1.0425
  252TMC3    C7 3881   0.787   2.331  10.330  0.2656  0.4719 -0.0104
  252TMC3    C8 3882   0.895   2.743  10.128  0.4436 -0.4438  0.4019
  252TMC3    O1 3883   0.688   2.262  10.362  0.0478 -0.2589  0.2072
  252TMC3    O2 3884   0.867   2.763  10.014 -0.1158 -0.1502 -0.6106
  253MPD2     C 3885   2.506   1.837  15.666  0.2416 -0.0773  0.1966
  253MPD2    C1 3886   2.389   1.817  15.603 -0.5411 -0.2199  0.7479
  253MPD2    C2 3887   2.276   1.813  15.679  0.5323 -0.6137  0.3805
  253MPD2    C3 3888   2.276   1.833  15.814  0.4439 -0.9970  0.3985
  253MPD2    C4 3889   2.396   1.843  15.883  0.4922  0.2967  0.3454
  253MPD2    C5 3890   2.508   1.853  15.800  0.0885 -0.2185  0.9632
  253MPD2     H 3891   2.186   1.777  15.629  0.3579  0.1803  0.1319
  253MPD2    H1 3892   2.407   1.865  15.989 -1.1326  0.7858  0.4085
  253MPD2    H2 3893   2.603   1.831  15.619 -1.0593  3.6796 -2.9401
  253MPD2    H3 3894   2.602   1.840  15.853  0.3195  0.9682  0.8479
  253MPD2     N 3895   2.158   1.835  15.889  0.5092 -0.2931 -0.1031
  253MPD2    H5 3896   2.167   1.837  15.990  1.6443  0.1405 -0.2157
  253MPD2    N1 3897   2.381   1.783  15.468 -0.1397  0.2388 -0.9963
  253MPD2    H7 3898   2.292   1.770  15.420 -1.7990  1.5952  1.6868
  254TMC3    C1 3899   1.927   1.853  15.938 -0.0562 -0.2870 -0.3493
  254TMC3    C2 3900   1.803   1.868  15.883 -0.4945  0.4078  0.1135
  254TMC3    C3 3901   1.697   1.853  15.965  0.2467 -0.6163  0.2560
  254TMC3    C4 3902   1.948   1.831  16.071  0.0955 -0.7619  0.7269
  254TMC3    C5 3903   1.830   1.826  16.151  0.3637 -0.1750 -0.7695
  254TMC3    C6 3904   1.702   1.844  16.097  0.6083  0.1425  0.1035
  254TMC3     C 3905   2.033   1.850  15.842 -0.1859 -0.1235  0.0401
  254TMC3     O 3906   2.010   1.898  15.732  0.0040  0.2850 -0.2213
  254TMC3     H 3907   1.783   1.872  15.776 -1.5020 -0.7277  0.2513
  254TMC3    H1 3908   2.040   1.807  16.124  0.3672  0.4371  0.7935
  254TMC3    H2 3909   1.612   1.853  16.157  0.8466 -0.4424  0.5471
  254TMC3    C7 3910   1.845   1.841  16.294  0.3148  0.8960 -0.4179
  254TMC3    C8 3911   1.571   1.907  15.929 -0.9988  0.3032 -0.1788
  254TMC3    O1 3912   1.953   1.810  16.343 -0.0432  0.1027  0.3142
  254TMC3    O2 3913   1.476   1.857  15.991  0.6301  0.3128 -0.1846
  255MPD2     C 3914   1.095   4.592  10.567  0.2611  0.1345  0.5145
  255MPD2    C1 3915   1.048   4.705  10.507  0.2838 -0.1160 -0.8878
  255MPD2    C2 3916   1.063   4.720  10.375 -0.2245 -0.0610  0.2828
  255MPD2    C3 3917   1.110   4.625  10.289  0.1870 -0.0200 -0.1109
  255MPD2    C4 3918   1.142   4.499  10.345  0.2018 -0.5427  0.0320
  255MPD2    C5 3919   1.135   4.491  10.482 -0.4629  0.3658  0.1285
  255MPD2     H 3920   1.024   0.070  10.323 -1.4730 -0.3319  0.7673
  255MPD2    H1 3921   1.163   4.413  10.282  0.4782 -0.4481 -0.0046
  255MPD2    H2 3922   1.105   4.583  10.674 -0.8795 -1.2601  0.5008
  255MPD2    H3 3923   1.182   4.400  10.518 -2.2606 -1.1889 -1.4525
  255MPD2     N 3924   1.091   4.661  10.153 -0.3897 -0.0515 -0.5373
  255MPD2    H5 3925   1.066   0.021  10.136  0.6346  0.7792  2.7456
  255MPD2    N1 3926   0.985   0.066  10.588 -0.0648  0.0573  0.1334
  255MPD2    H7 3927   0.962   0.033  10.681 -1.0546  0.4167  0.0105
  256TMC3    C1 3928   0.852   0.247  10.651 -0.8450 -0.3424 -0.2911
  256TMC3    C2 3929   0.842   0.382  10.659  1.2480 -0.0058  0.7892
  256TMC3    C3 3930   0.733   0.445  10.700  0.2401 -0.1199 -1.1874
  256TMC3    C4 3931   0.743   0.171  10.670 -0.3956  0.0726  0.0933
  256TMC3    C5 3932   0.630   0.234  10.714  1.0551  0.0985 -0.4470
  256TMC3    C6 3933   0.632   0.371  10.737  0.2949 -0.1670  0.1931
  256TMC3     C 3934   0.952   0.194  10.556 -0.2326 -0.2773  0.0133
  256TMC3     O 3935   0.985   0.268  10.466 -0.2030 -0.1332  0.4626
  256TMC3     H 3936   0.930   0.438  10.633  0.1174  2.6421  2.6484
  256TMC3    H1 3937   0.739   0.065  10.651  1.6095 -0.2547  1.5002
  256TMC3    H2 3938   0.539   0.411  10.775 -0.9431 -2.3935 -0.5380
  256TMC3    C7 3939   0.511   0.161  10.749  0.1862 -0.3389 -0.5097
  256TMC3    C8 3940   0.691   0.561  10.622  0.2470 -0.6103  0.5734
  256TMC3    O1 3941   0.456   0.199  10.848  0.4896  0.1205  0.2796
  256TMC3    O2 3942   0.589   0.617  10.654 -0.2155 -0.0749 -0.9597
  257MPD2     C 3943   4.204   1.089  12.669  0.2127 -0.0900 -1.0237
  257MPD2    C1 3944   4.314   1.166  12.658  0.4076 -0.2870  0.1310
  257MPD2    C2 3945   4.420   1.160  12.748 -0.0468  0.3856 -0.9555
  257MPD2    C3 3946   4.411   1.074  12.859  0.2914  0.0437 -0.3159
  257MPD2    C4 3947   4.292   1.011  12.874 -0.1256  0.4277  0.1092
  257MPD2    C5 3948   4.196   1.013  12.781 -0.3638  0.0614  0.4038
  257MPD2     H 3949   4.511   1.218  12.735  1.0064 -1.4011 -1.4992
  257MPD2    H1 3950   4.264   0.948  12.957 -0.5337  0.3822 -0.0649
  257MPD2    H2 3951   4.124   1.097  12.597  0.3054 -1.0782 -1.2389
  257MPD2    H3 3952   4.104   0.965  12.813 -0.7503 -0.1984 -1.1006
  257MPD2     N 3953   4.500   1.062  12.968  0.2446 -1.1101  0.4856
  257MPD2    H5 3954   4.463   1.015  13.051 -1.6462  0.4170  0.5157
  257MPD2    N1 3955   4.312   1.259  12.550 -0.2303 -0.0236  0.3795
  257MPD2    H7 3956   4.229   1.262  12.492 -0.3121 -1.0477  0.4429
  258TMC3    C1 3957   4.713   1.079  13.076 -0.6240  0.4103 -0.2099
  258TMC3    C2 3958   0.112   1.086  13.067  0.2484 -0.3289 -0.0445
  258TMC3    C3 3959   0.182   1.102  13.176 -0.2938  0.2605 -0.5827
  258TMC3    C4 3960   4.655   1.105  13.199  0.2652  0.8271  0.3882
  258TMC3    C5 3961   4.735   1.140  13.306  0.1221  0.1216 -0.5219
  258TMC3    C6 3962   0.132   1.124  13.301  0.5185  0.5769  0.5184
  258TMC3     C 3963   4.637   1.098  12.959 -0.0753 -0.9560 -0.0575
  258TMC3     O 3964   4.707   1.136  12.868 -0.4898  0.1643 -0.9523
  258TMC3     H 3965   0.164   1.073  12.972  1.5299 -0.3301  0.6606
  258TMC3    H1 3966   4.549   1.093  13.218  0.0978 -0.3918 -1.3733
  258TMC3    H2 3967   0.210   1.153  13.369  1.9161 -0.0684 -0.7958
  258TMC3    C7 3968   4.686   1.204  13.429  0.8893 -0.3021 -0.2871
  258TMC3    C8 3969   0.329   1.118  13.153 -0.3639  0.1947 -0.1159
  258TMC3    O1 3970   4.580   1.262  13.419 -0.5210 -0.2707 -0.5036
  258TMC3    O2 3971   0.390   1.180  13.240 -0.3757  0.2839  0.4403
  259MPD2     C 3972   2.863   4.137   0.144 -0.4271  0.4550  0.0682
  259MPD2    C1 3973   2.948   4.029   0.166 -0.0612 -0.7537  0.3235
  259MPD2    C2 3974   2.994   3.959   0.055  0.2504 -0.1740  0.4804
  259MPD2    C3 3975   2.951   3.986  17.679  0.5790 -0.3454 -0.0778
  259MPD2    C4 3976   2.864   4.096  17.655  1.0351 -0.6996  0.7766
  259MPD2    C5 3977   2.822   4.171   0.016 -0.1733  0.4843  0.3925
  259MPD2     H 3978   3.048   3.866   0.071 -0.9437 -1.1822 -1.3033
  259MPD2    H1 3979   2.812   4.102  17.560 -1.8625 -0.5763  2.3710
  259MPD2    H2 3980   2.841   4.203   0.227 -1.2867  2.2221 -1.5856
  259MPD2    H3 3981   2.761   4.258  17.743 -0.9911 -0.0063  0.7502
  259MPD2     N 3982   2.991   3.886  17.586  0.0044  0.0528  0.0397
  259MPD2    H5 3983   3.055   3.813  17.615  1.0818  0.9856  0.0073
  259MPD2    N1 3984   2.986   3.982   0.297 -0.1522 -0.2959 -0.0211
  259MPD2    H7 3985   2.934   4.007   0.380 -0.6949 -1.1380 -0.1047
  260TMC3    C1 3986   3.040   3.781  17.386 -0.0791 -0.4032 -0.4674
  260TMC3    C2 3987   3.112   3.819  17.277  0.3651 -0.1892  0.1036
  260TMC3    C3 3988   3.184   3.716  17.209  0.3680 -0.1920  0.9028
  260TMC3    C4 3989   3.041   3.652  17.448  0.9486  0.4393  0.3788
  260TMC3    C5 3990   3.122   3.563  17.386  0.6127 -0.1868 -0.4628
  260TMC3    C6 3991   3.191   3.588  17.270  0.3235  0.0089  0.0639
  260TMC3     C 3992   2.959   3.887  17.452 -0.2156  0.2249  0.4568
  260TMC3     O 3993   2.909   3.979  17.389 -0.3555 -0.3844 -0.3169
  260TMC3     H 3994   3.096   3.916  17.232  2.7471 -0.0818 -0.5304
  260TMC3    H1 3995   2.974   3.632  17.530  0.9519 -1.1099  0.0041
  260TMC3    H2 3996   3.259   3.515  17.228 -1.5187 -2.4937  1.4172
  260TMC3    C7 3997   3.165   3.452  17.471  0.6055  0.1154  0.6025
  260TMC3    C8 3998   3.307   3.762  17.136  0.0716 -0.3576  0.7920
  260TMC3    O1 3999   3.129   3.471  17.586  0.4880  0.1681 -0.0779
  260TMC3    O2 4000   3.313   3.883  17.131  0.5575 -0.0226  0.1449
  261MPD2     C 4001   0.495   1.496  11.816  0.0662  0.3486  0.6362
  261MPD2    C1 4002   0.591   1.565  11.891 -0.8013 -0.5628 -0.9813
  261MPD2    C2 4003   0.610   1.703  11.866 -0.2472  0.2081  0.2849
  261MPD2    C3 4004   0.528   1.776  11.776  0.7140  0.2694 -0.9899
  261MPD2    C4 4005   0.433   1.708  11.706 -0.1583  0.0431 -0.2108
  261MPD2    C5 4006   0.415   1.571  11.733  0.1827 -0.4087 -0.2175
  261MPD2     H 4007   0.693   1.758  11.908 -0.1219 -0.2166  0.5896
  261MPD2    H1 4008   0.366   1.764  11.641  1.9519  2.2668 -0.5075
  261MPD2    H2 4009   0.465   1.395  11.840 -0.5483  0.6083  0.9409
  261MPD2    H3 4010   0.331   1.532  11.677 -1.0342 -0.1541  1.4055
  261MPD2     N 4011   0.556   1.913  11.749  0.3187 -0.4436  0.6561
  261MPD2    H5 4012   0.644   1.956  11.776  2.4461 -3.1170 -1.9130
  261MPD2    N1 4013   0.668   1.519  12.000 -0.1277 -0.2243  0.5936
  261MPD2    H7 4014   0.712   1.593  12.054  1.1994  0.3255 -1.2680
  262TMC3    C1 4015   0.560   2.125  11.652  0.4556 -0.2047 -1.0428
  262TMC3    C2 4016   0.518   2.254  11.659  0.3891  0.1454 -0.4059
  262TMC3    C3 4017   0.612   2.350  11.612 -0.3647 -0.1278  0.4660
  262TMC3    C4 4018   0.680   2.091  11.598 -0.3560  0.1611 -0.3379
  262TMC3    C5 4019   0.767   2.186  11.552  0.3392  0.7336  0.1388
  262TMC3    C6 4020   0.729   2.318  11.555  0.1580  0.1247 -0.0136
  262TMC3     C 4021   0.479   2.008  11.689  0.2742 -0.3878  0.0358
  262TMC3     O 4022   0.361   2.004  11.654  0.3095  0.1554 -0.6760
  262TMC3     H 4023   0.436   2.284  11.724  2.3857  2.9261  0.8369
  262TMC3    H1 4024   0.715   1.989  11.589  1.0462  0.5275  0.9142
  262TMC3    H2 4025   0.803   2.393  11.530  0.7394 -0.6379 -0.6050
  262TMC3    C7 4026   0.893   2.148  11.500  0.0364 -0.3261 -0.1583
  262TMC3    C8 4027   0.578   2.492  11.616 -0.6781 -0.4512  0.3383
  262TMC3    O1 4028   0.936   2.039  11.527  0.2154 -0.7392 -0.1365
  262TMC3    O2 4029   0.660   2.571  11.571 -0.1080  0.4463  0.3864
  263MPD2     C 4030   1.452   0.507  11.488  0.3623 -0.2622 -0.0553
  263MPD2    C1 4031   1.574   0.525  11.434  0.2161 -0.0541 -0.2609
  263MPD2    C2 4032   1.574   0.577  11.302 -0.1051  0.1749  0.1748
  263MPD2    C3 4033   1.463   0.625  11.243  0.6092  0.7591  0.0942
  263MPD2    C4 4034   1.340   0.598  11.300 -0.0744  0.2855  0.0355
  263MPD2    C5 4035   1.339   0.544  11.424 -0.9470  0.2465 -0.1482
  263MPD2     H 4036   1.667   0.602  11.251 -0.3356  1.5045  0.4029
  263MPD2    H1 4037   1.244   0.614  11.253  0.4317  0.4338 -0.9629
  263MPD2    H2 4038   1.438   0.459  11.584  0.7438  0.5531  0.4174
  263MPD2    H3 4039   1.239   0.532  11.466 -0.6734 -1.9250 -0.1014
  263MPD2     N 4040   1.478   0.706  11.131  0.3787 -0.3461 -0.1115
  263MPD2    H5 4041   1.570   0.716  11.088 -0.4504  0.3017 -1.7164
  263MPD2    N1 4042   1.683   0.468  11.497  0.5353 -0.0539 -0.0696
  263MPD2    H7 4043   1.679   0.443  11.595 -0.4543  1.0664  0.1741
  264TMC3    C1 4044   1.425   0.851  10.956 -0.3208 -0.0507 -0.4424
  264TMC3    C2 4045   1.362   0.973  10.950 -0.1731  0.1270 -0.1083
  264TMC3    C3 4046   1.421   1.061  10.861  1.2310 -0.0514  0.3077
  264TMC3    C4 4047   1.529   0.819  10.872 -0.7882 -0.8905  0.0282
  264TMC3    C5 4048   1.561   0.903  10.770 -0.1896  0.2624  0.6180
  264TMC3    C6 4049   1.519   1.027  10.778 -0.2410 -0.6898 -0.8331
  264TMC3     C 4050   1.377   0.765  11.059  0.0097  0.1802 -0.2855
  264TMC3     O 4051   1.256   0.767  11.080  0.4561  0.2237 -0.0271
  264TMC3     H 4052   1.268   0.985  11.003 -0.0351 -2.0576  0.6562
  264TMC3    H1 4053   1.573   0.720  10.880  1.8922  0.3784  0.7754
  264TMC3    H2 4054   1.563   1.090  10.702  0.1972 -0.8099 -0.6809
  264TMC3    C7 4055   1.692   0.882  10.720 -0.3644 -0.6451 -0.3064
  264TMC3    C8 4056   1.444   1.198  10.912  0.5372  0.9337 -0.8386
  264TMC3    O1 4057   1.729   0.774  10.683  0.0771 -0.0675  0.8842
  264TMC3    O2 4058   1.504   1.266  10.834 -0.1471 -0.2074  0.7646
  265MPD2     C 4059   3.100   1.903  15.021 -0.4906  0.1654 -0.7703
  265MPD2    C1 4060   3.161   1.823  15.117 -0.1732 -0.1866 -0.4829
  265MPD2    C2 4061   3.250   1.728  15.081  0.0249 -0.1518 -0.1748
  265MPD2    C3 4062   3.263   1.695  14.950 -0.4334  0.1080  0.2319
  265MPD2    C4 4063   3.192   1.768  14.850 -0.2090 -0.4619  0.1098
  265MPD2    C5 4064   3.116   1.871  14.890  0.0939 -0.0741 -0.4368
  265MPD2     H 4065   3.300   1.666  15.154 -1.7761  0.7753  1.8615
  265MPD2    H1 4066   3.178   1.736  14.747 -0.2515 -0.6925  0.1874
  265MPD2    H2 4067   3.032   1.986  15.039 -1.0033 -0.5316  0.5204
  265MPD2    H3 4068   3.058   1.928  14.819 -1.0062 -0.0498  0.4813
  265MPD2     N 4069   3.336   1.578  14.907 -0.4088  0.3723  0.1704
  265MPD2    H5 4070   3.323   1.546  14.812  0.5183  0.9432 -0.1444
  265MPD2    N1 4071   3.145   1.845  15.259 -0.5294 -0.5872 -0.3386
  265MPD2    H7 4072   3.180   1.771  15.319  1.6923 -0.6487 -1.6946
  266TMC3    C1 4073   3.050   1.952  15.452  0.2291  0.6463 -0.1357
  266TMC3    C2 4074   3.150   1.903  15.531  0.2899 -0.4839  0.1853
  266TMC3    C3 4075   3.117   1.898  15.667  0.1345  0.2165 -0.0832
  266TMC3    C4 4076   2.944   2.012  15.504  0.2512  0.4090 -0.0384
  266TMC3    C5 4077   2.924   2.023  15.636  0.1024 -0.0739  0.0231
  266TMC3    C6 4078   3.010   1.963  15.721 -0.6417  0.1222 -0.0938
  266TMC3     C 4079   3.067   1.947  15.305  0.1100  0.9972  0.1934
  266TMC3     O 4080   3.025   2.049  15.253  0.1187 -0.5984 -0.3456
  266TMC3     H 4081   3.252   1.880  15.503  0.0417  2.1978 -2.8839
  266TMC3    H1 4082   2.867   2.029  15.430  2.1071  1.4997 -1.7144
  266TMC3    H2 4083   2.988   1.953  15.827 -0.0979 -0.1606 -0.0111
  266TMC3    C7 4084   2.813   2.088  15.688 -0.0128 -0.2882 -0.4442
  266TMC3    C8 4085   3.222   1.864  15.760  0.0714  0.0003 -0.1719
  266TMC3    O1 4086   2.760   2.051  15.789  0.3358  0.5060 -0.0102
  266TMC3    O2 4087   3.276   1.759  15.734  0.5051  0.1838 -0.1111
  267MPD2     C 4088   0.446   3.499   0.215 -0.0540 -0.5914  0.2004
  267MPD2    C1 4089   0.506   3.619   0.179 -0.5479 -0.0466 -0.3105
  267MPD2    C2 4090   0.437   3.710   0.103  0.6002 -0.4598  0.1651
  267MPD2    C3 4091   0.303   3.683   0.065 -0.2202  0.1227 -0.4448
  267MPD2    C4 4092   0.250   3.564   0.101  0.6497 -0.2225  0.4835
  267MPD2    C5 4093   0.318   3.472   0.178 -0.4898 -0.2461 -0.5514
  267MPD2     H 4094   0.472   3.806   0.066  0.7639 -0.0971  1.2796
  267MPD2    H1 4095   0.156   3.529   0.059  0.0106  2.2982 -0.2030
  267MPD2    H2 4096   0.506   3.431   0.273 -1.6483 -1.2024  1.1310
  267MPD2    H3 4097   0.277   3.375   0.206  2.2015 -1.6302 -1.3819
  267MPD2     N 4098   0.231   3.764  17.723 -0.0190 -0.3672  0.3254
  267MPD2    H5 4099   0.167   3.718  17.660  1.0860 -1.6932  0.1679
  267MPD2    N1 4100   0.641   3.636   0.211  0.6179  0.0500  0.0118
  267MPD2    H7 4101   0.682   3.562   0.268  2.6383  1.2186  0.0403
  268TMC3    C1 4102   0.859   3.734   0.225 -0.1410 -0.4760  0.4472
  268TMC3    C2 4103   0.967   3.786   0.149  0.3042  0.4274  0.4826
  268TMC3    C3 4104   1.093   3.771   0.185 -0.4025 -0.2287 -0.5549
  268TMC3    C4 4105   0.886   3.667   0.340 -0.6923  0.4087 -0.0839
  268TMC3    C5 4106   1.021   3.644   0.370 -0.0779 -0.6478  0.5204
  268TMC3    C6 4107   1.125   3.678   0.287  0.0402  0.5452  0.7575
  268TMC3     C 4108   0.725   3.735   0.166 -0.4709  0.0459  0.4491
  268TMC3     O 4109   0.712   3.816   0.076 -0.2509  0.2876 -0.0496
  268TMC3     H 4110   0.936   3.865   0.081 -1.3631 -0.6723 -0.0306
  268TMC3    H1 4111   0.802   3.656   0.407  1.1214 -1.4584  1.9033
  268TMC3    H2 4112   1.226   3.674   0.324 -0.2041  1.6145  1.5283
  268TMC3    C7 4113   1.055   3.552   0.480  0.4416  0.7251 -0.6098
  268TMC3    C8 4114   1.201   3.817   0.102 -0.8115 -0.4860 -0.2975
  268TMC3    O1 4115   1.168   3.510   0.488  0.4674 -0.3386 -0.1301
  268TMC3    O2 4116   1.309   3.788   0.146  0.2172 -0.0568  0.1251
  269MPD2     C 4117   1.737   2.031  15.331 -0.4419 -0.4805  0.0320
  269MPD2    C1 4118   1.610   2.079  15.370 -0.4857 -0.2112 -0.9355
  269MPD2    C2 4119   1.569   2.210  15.338  0.5245 -0.4051  0.4146
  269MPD2    C3 4120   1.654   2.291  15.269  0.5215  0.0781 -0.0556
  269MPD2    C4 4121   1.782   2.249  15.255 -1.0491  0.3148 -0.0473
  269MPD2    C5 4122   1.825   2.118  15.277  0.3166 -0.1760 -0.3395
  269MPD2     H 4123   1.469   2.251  15.350  1.0987  1.1197 -0.0678
  269MPD2    H1 4124   1.853   2.319  15.212 -2.5147 -0.5063 -3.8316
  269MPD2    H2 4125   1.771   1.929  15.342 -0.3249 -0.3600  0.8260
  269MPD2    H3 4126   1.926   2.086  15.256  0.3977  0.1281 -0.4204
  269MPD2     N 4127   1.618   2.419  15.251  0.1245 -0.3044 -0.9244
  269MPD2    H5 4128   1.518   2.429  15.269  0.5872  0.6564  1.1821
  269MPD2    N1 4129   1.524   1.993  15.444  0.6935  0.5378 -0.2864
  269MPD2    H7 4130   1.571   1.905  15.465  0.8358  0.3921 -1.2017
  270TMC3    C1 4131   1.322   1.905  15.518 -0.3841  0.1741  0.6132
  270TMC3    C2 4132   1.203   1.865  15.464 -0.1561  1.3347  0.0267
  270TMC3    C3 4133   1.134   1.764  15.523 -0.5146  0.0226  0.7168
  270TMC3    C4 4134   1.372   1.839  15.624 -0.0727  0.3269 -0.4574
  270TMC3    C5 4135   1.304   1.729  15.679 -0.0469 -0.3237  0.0805
  270TMC3    C6 4136   1.181   1.699  15.632  0.2896  0.4808 -0.1795
  270TMC3     C 4137   1.390   2.016  15.450 -0.1799  0.1382  0.1538
  270TMC3     O 4138   1.329   2.083  15.367 -0.3900  0.4756 -0.7663
  270TMC3     H 4139   1.168   1.918  15.377  1.0376  0.1100 -1.2115
  270TMC3    H1 4140   1.474   1.851  15.658  0.3770  0.4724 -1.8792
  270TMC3    H2 4141   1.131   1.613  15.675 -1.3279  0.5344 -1.9467
  270TMC3    C7 4142   1.387   1.608  15.692 -1.0836  0.0735 -0.0452
  270TMC3    C8 4143   1.037   1.691  15.443  0.4285  0.0593 -0.1479
  270TMC3    O1 4144   1.496   1.622  15.755 -0.1864  0.0279 -0.1756
  270TMC3    O2 4145   0.958   1.617  15.502  1.1433  0.1706  1.2039
  271MPD2     C 4146   0.488   1.348  13.695  0.7733 -0.0206 -0.0515
  271MPD2    C1 4147   0.478   1.430  13.807  0.3739 -0.4694  0.6755
  271MPD2    C2 4148   0.377   1.528  13.806  0.0570 -0.1958 -0.1588
  271MPD2    C3 4149   0.297   1.555  13.696 -0.8314 -0.0954  0.0145
  271MPD2    C4 4150   0.315   1.470  13.589  0.6097  0.4204  0.1296
  271MPD2    C5 4151   0.407   1.370  13.587  0.0374 -0.1494 -0.0666
  271MPD2     H 4152   0.362   1.571  13.905  0.3442 -0.4734  0.0057
  271MPD2    H1 4153   0.236   1.470  13.514 -0.3789 -1.1204  1.1575
  271MPD2    H2 4154   0.554   1.263  13.701  0.2131 -0.4831 -0.4875
  271MPD2    H3 4155   0.410   1.295  13.508  0.8181  1.0588 -1.1754
  271MPD2     N 4156   0.191   1.649  13.690  0.8126 -0.3454  0.3633
  271MPD2    H5 4157   0.125   1.655  13.613 -1.7235  1.0094  2.6447
  271MPD2    N1 4158   0.567   1.421  13.915 -0.6390 -0.1500  1.2441
  271MPD2    H7 4159   0.562   1.493  13.986  0.7600 -0.1438  1.3382
  272TMC3    C1 4160   0.754   1.364  14.050 -0.0158  0.2433 -0.9055
  272TMC3    C2 4161   0.886   1.324  14.048  0.2432  0.2577  0.1437
  272TMC3    C3 4162   0.960   1.330  14.167  1.1697  0.0666 -0.9343
  272TMC3    C4 4163   0.692   1.405  14.161  0.2159  0.2706  0.2988
  272TMC3    C5 4164   0.772   1.421  14.274  0.0971  0.7124 -0.6446
  272TMC3    C6 4165   0.901   1.373  14.280 -0.1418  0.1218  0.1110
  272TMC3     C 4166   0.678   1.343  13.925 -0.3840  0.1621  0.2092
  272TMC3     O 4167   0.727   1.261  13.847  0.2123 -0.0648 -0.1588
  272TMC3     H 4168   0.923   1.267  13.964 -2.0360 -3.0044  1.3312
  272TMC3    H1 4169   0.587   1.429  14.159  0.3079  0.5992 -0.5761
  272TMC3    H2 4170   0.956   1.385  14.373 -0.4454  2.3391 -0.0016
  272TMC3    C7 4171   0.716   1.489  14.394  0.3489  0.3741 -1.0135
  272TMC3    C8 4172   1.092   1.273  14.174  0.5435 -0.0449 -0.7667
  272TMC3    O1 4173   0.598   1.473  14.418 -0.4025 -0.5614 -0.9042
  272TMC3    O2 4174   1.147   1.275  14.065  0.2699 -0.3052 -0.2166
  273MPD2     C 4175   1.690   4.320  11.518 -0.3428 -0.0676 -0.4599
  273MPD2    C1 4176   1.821   4.365  11.529  0.0255  0.0294  0.1953
  273MPD2    C2 4177   1.913   4.337  11.430  0.1494 -0.0432  0.4182
  273MPD2    C3 4178   1.876   4.276  11.317  0.7229  0.1455  0.1004
  273MPD2    C4 4179   1.752   4.227  11.301 -0.3938  0.2334 -0.3683
  273MPD2    C5 4180   1.662   4.242  11.400 -0.0366  0.6209 -0.8848
  273MPD2     H 4181   2.012   4.380  11.438 -1.2413  3.3476 -0.6581
  273MPD2    H1 4182   1.732   4.180  11.205 -1.1612 -2.1989  1.0031
  273MPD2    H2 4183   1.612   4.344  11.589  0.7053 -2.6843  1.5601
  273MPD2    H3 4184   1.558   4.215  11.386  1.3339 -4.4845 -1.1240
  273MPD2     N 4185   1.963   4.248  11.211 -0.4155 -0.1917  0.7941
  273MPD2    H5 4186   1.925   4.174  11.153  0.8179 -1.3732  1.4837
  273MPD2    N1 4187   1.858   4.451  11.642 -0.4510  0.3203  0.0314
  273MPD2    H7 4188   1.787   4.495  11.701 -1.2205 -1.8143  0.7102
  274TMC3    C1 4189   2.171   4.260  11.088  0.0664 -0.2760  0.1953
  274TMC3    C2 4190   2.105   4.276  10.967 -0.2567 -0.6353  0.0099
  274TMC3    C3 4191   2.167   4.336  10.869 -0.5928 -0.9018  0.4159
  274TMC3    C4 4192   2.293   4.307  11.110 -0.3137 -0.3230 -0.6485
  274TMC3    C5 4193   2.361   4.370  11.009  0.3992  0.4621 -0.0074
  274TMC3    C6 4194   2.298   4.379  10.886  0.1569  0.0914  0.3929
  274TMC3     C 4195   2.094   4.294  11.205  1.1139 -0.2436  0.8764
  274TMC3     O 4196   2.144   4.382  11.276 -0.1060 -0.1432 -0.1347
  274TMC3     H 4197   2.001   4.252  10.948  0.1216 -1.9381 -0.4405
  274TMC3    H1 4198   2.343   4.291  11.205 -3.6134  1.1790  1.3241
  274TMC3    H2 4199   2.328   4.458  10.819 -0.3916 -1.1892 -1.3549
  274TMC3    C7 4200   2.432   4.489  11.047  0.5350 -0.2023  0.5563
  274TMC3    C8 4201   2.093   4.369  10.750 -0.0933 -0.2543 -0.8189
  274TMC3    O1 4202   2.495   4.543  10.959  0.3519 -0.3039 -0.6366
  274TMC3    O2 4203   1.982   4.319  10.733  0.0497  0.4191 -0.1753
  275MPD2     C 4204   1.790   2.961  14.357 -0.2096  0.2282  0.1827
  275MPD2    C1 4205   1.816   2.831  14.387  0.0308 -0.3972  0.3240
  275MPD2    C2 4206   1.729   2.734  14.347  0.5672 -0.2858  0.3106
  275MPD2    C3 4207   1.610   2.770  14.278  0.3051  0.7593  0.9619
  275MPD2    C4 4208   1.576   2.902  14.258 -0.3418 -0.3961 -0.0871
  275MPD2    C5 4209   1.668   2.994  14.293  0.8070 -0.9421 -0.8436
  275MPD2     H 4210   1.753   2.629  14.338 -1.5632 -0.8090  0.7119
  275MPD2    H1 4211   1.486   2.933  14.207  1.1848 -0.5635 -2.8845
  275MPD2    H2 4212   1.855   3.042  14.387 -1.3874  2.1548 -2.4673
  275MPD2    H3 4213   1.642   3.096  14.268  2.9505  0.6645  3.3113
  275MPD2     N 4214   1.526   2.685  14.211 -0.0639 -0.2854  0.3701
  275MPD2    H5 4215   1.441   2.727  14.173 -1.6898 -3.7851  0.1388
  275MPD2    N1 4216   1.923   2.777  14.458  0.9053 -0.1106 -0.5345
  275MPD2    H7 4217   1.933   2.676  14.461 -0.2055 -0.2387 -1.3689
  276TMC3    C1 4218   2.106   2.766  14.594  0.4713  0.0464 -0.7664
  276TMC3    C2 4219   2.131   2.638  14.534  0.0594 -0.7546  0.3993
  276TMC3    C3 4220   2.196   2.538  14.605 -0.3086 -0.0038  0.0216
  276TMC3    C4 4221   2.159   2.796  14.714  0.0875  0.1047  0.4077
  276TMC3    C5 4222   2.220   2.699  14.784  0.5860  0.3175 -0.3946
  276TMC3    C6 4223   2.251   2.570  14.727  0.2407  0.7779  0.0408
  276TMC3     C 4224   2.018   2.852  14.527  0.5764 -0.0013  0.0952
  276TMC3     O 4225   2.014   2.963  14.574 -0.7175  0.8114 -0.4123
  276TMC3     H 4226   2.104   2.614  14.432  1.6540 -1.0574  0.0352
  276TMC3    H1 4227   2.148   2.896  14.753 -0.4940  0.6072 -1.0524
  276TMC3    H2 4228   2.328   2.509  14.772 -0.2274  1.7511  2.1407
  276TMC3    C7 4229   2.284   2.732  14.909  0.1616  0.0828 -0.5665
  276TMC3    C8 4230   2.216   2.402  14.549  0.4977  1.2494 -0.5769
  276TMC3    O1 4231   2.308   2.850  14.913  0.2376 -0.0988  0.7766
  276TMC3    O2 4232   2.188   2.385  14.432 -0.2706  0.0616  0.2057
  277MPD2     C 4233   3.647   1.490  13.091  0.5613  0.4439  0.9475
  277MPD2    C1 4234   3.545   1.541  13.174  0.7634 -0.1842  0.1188
  277MPD2    C2 4235   3.489   1.451  13.263  0.3957  0.0620 -0.0790
  277MPD2    C3 4236   3.545   1.328  13.274  0.1510 -0.4524  0.1240
  277MPD2    C4 4237   3.652   1.284  13.207  0.5147 -0.7220  0.5340
  277MPD2    C5 4238   3.707   1.366  13.113  0.1662 -0.2852 -0.3949
  277MPD2     H 4239   3.411   1.472  13.335  0.2124  1.0490 -0.5693
  277MPD2    H1 4240   3.705   1.193  13.231 -0.5685 -1.2805  0.8209
  277MPD2    H2 4241   3.690   1.539  13.004  1.8342  0.6681  1.7018
  277MPD2    H3 4242   3.789   1.335  13.049 -0.0702  0.8342 -1.2511
  277MPD2     N 4243   3.483   1.243  13.368  0.7537  0.1142  0.2521
  277MPD2    H5 4244   3.405   1.271  13.427  0.2922  0.6711 -0.6195
  277MPD2    N1 4245   3.502   1.678  13.157  0.4351  0.0048 -0.0392
  277MPD2    H7 4246   3.545   1.736  13.086 -1.1804  1.6945  0.3808
  278TMC3    C1 4247   3.456   1.064  13.518  0.4754 -0.1778  0.3428
  278TMC3    C2 4248   3.459   0.930  13.534 -0.2090  0.2727 -0.1451
  278TMC3    C3 4249   3.415   0.875  13.654  0.0770 -0.6061  0.7681
  278TMC3    C4 4250   3.395   1.142  13.611 -0.1819  0.3944  0.2318
  278TMC3    C5 4251   3.323   1.082  13.715  0.3036 -0.7048  0.0526
  278TMC3    C6 4252   3.341   0.946  13.736  0.0499  0.2077  0.3692
  278TMC3     C 4253   3.534   1.116  13.402 -0.3142  0.1404 -0.5930
  278TMC3     O 4254   3.632   1.053  13.371  0.1179  0.2019  0.1609
  278TMC3     H 4255   3.510   0.875  13.455  1.2553 -2.6004  2.7813
  278TMC3    H1 4256   3.375   1.249  13.604 -5.8270 -0.6924  0.0680
  278TMC3    H2 4257   3.295   0.895  13.820  0.8934  1.4846  1.6173
  278TMC3    C7 4258   3.211   1.154  13.776 -0.1556  0.4426 -0.9229
  278TMC3    C8 4259   3.401   0.728  13.647  0.2421  0.4008 -1.2765
  278TMC3    O1 4260   3.206   1.279  13.768  0.3835  0.2098 -0.1407
  278TMC3    O2 4261   3.380   0.683  13.534  0.4322  0.7654 -0.3396
  279MPD2     C 4262   2.839   1.968   0.314 -0.3480 -0.3132 -0.1359
  279MPD2    C1 4263   2.773   2.016   0.206  0.3178 -1.0189 -0.4055
  279MPD2    C2 4264   2.799   1.977   0.080  0.9038 -0.8086 -0.5759
  279MPD2    C3 4265   2.900   1.886   0.059 -0.5928 -0.0914  0.1420
  279MPD2    C4 4266   2.970   1.843   0.167  0.3960 -0.2716  0.2728
  279MPD2    C5 4267   2.943   1.884   0.295 -0.9761 -0.0117 -0.2741
  279MPD2     H 4268   2.744   2.026   0.000  1.6337 -3.3899 -2.6623
  279MPD2    H1 4269   3.049   1.771   0.150 -0.7627 -1.9834  2.0869
  279MPD2    H2 4270   2.823   2.006   0.414  0.7900 -0.5034  0.1182
  279MPD2    H3 4271   3.005   1.845   0.375 -2.1269  2.3102  1.7577
  279MPD2     N 4272   2.934   1.864  17.673 -0.7655  0.2690 -0.0104
  279MPD2    H5 4273   2.876   1.896  17.596  1.3985  1.3360 -1.1763
  279MPD2    N1 4274   2.654   2.107   0.211 -0.5392  0.7273 -0.1716
  279MPD2    H7 4275   2.607   2.125   0.123 -2.3036  0.2848  0.6960
  280TMC3    C1 4276   2.495   2.254   0.301  0.6821  0.3491  1.5902
  280TMC3    C2 4277   2.394   2.190   0.244  0.2132  0.9174  0.2844
  280TMC3    C3 4278   2.282   2.271   0.232  0.0700 -0.0574  0.2581
  280TMC3    C4 4279   2.496   2.386   0.333  0.5818 -0.3483 -0.1935
  280TMC3    C5 4280   2.386   2.461   0.323 -0.5339  0.5680 -0.0743
  280TMC3    C6 4281   2.273   2.404   0.265  0.1404  0.0273  0.4119
  280TMC3     C 4282   2.618   2.180   0.322 -0.9506  0.1610 -0.2421
  280TMC3     O 4283   2.656   2.184   0.438  0.1857  0.1074  0.0752
  280TMC3     H 4284   2.397   2.089   0.203  1.7500  1.1284 -0.1293
  280TMC3    H1 4285   2.590   2.423   0.373  0.1654 -1.1253  1.4761
  280TMC3    H2 4286   2.175   2.451   0.264  0.4555  0.7336  1.7458
  280TMC3    C7 4287   2.404   2.607   0.306 -0.3766 -0.0066  0.1317
  280TMC3    C8 4288   2.163   2.202   0.201  0.5697  0.9228 -0.1638
  280TMC3    O1 4289   2.499   2.666   0.348 -0.8695  0.1463  0.1455
  280TMC3    O2 4290   2.095   2.274   0.131  0.0782  0.2731  0.0831
  281TMC3    C1 4291   0.936   1.824  13.407 -0.3682 -0.0150 -0.7204
  281TMC3    C2 4292   1.036   1.857  13.496  0.0196  0.1445 -0.5742
  281TMC3    C3 4293   1.151   1.786  13.489  0.3623 -0.8345 -0.6934
  281TMC3    C4 4294   0.942   1.706  13.340  0.3614  0.8400 -0.1462
  281TMC3    C5 4295   1.064   1.639  13.328  0.2121 -0.3185  0.4576
  281TMC3    C6 4296   1.165   1.682  13.399  0.2279  0.4012  0.1869
  281TMC3     C 4297   0.816   1.910  13.384  0.1108 -0.7229 -0.1596
  281TMC3     O 4298   0.729   1.866  13.306  0.2554 -0.1836 -0.0522
  281TMC3     H 4299   1.021   1.919  13.583  0.2258 -0.1838 -0.3036
  281TMC3    H1 4300   0.863   1.668  13.278  0.4086  1.8477 -0.8197
  281TMC3    H2 4301   1.260   1.629  13.396 -0.5561 -0.9421 -1.0247
  281TMC3    C7 4302   1.059   1.491  13.334 -0.3942  0.1606  0.0295
  281TMC3    C8 4303   1.260   1.879  13.504 -0.4138  0.0245  0.7142
  281TMC3    O1 4304   1.164   1.422  13.346 -0.3269  0.2723 -0.5080
  281TMC3    O2 4305   1.280   1.942  13.607 -0.2520 -0.3647 -0.3711
  282MPD2     C 4306   3.629   3.155  15.417  0.2723 -0.2223 -0.0259
  282MPD2    C1 4307   3.497   3.172  15.404 -0.4753 -0.5485  0.4341
  282MPD2    C2 4308   3.441   3.167  15.283 -0.2933 -0.5800 -0.5819
  282MPD2    C3 4309   3.518   3.159  15.171 -0.2832 -0.3781 -0.2054
  282MPD2    C4 4310   3.654   3.148  15.188 -0.2240 -0.1011  1.2010
  282MPD2    C5 4311   3.707   3.142  15.312  0.1510  0.2852 -0.4065
  282MPD2     H 4312   3.334   3.179  15.273 -0.1173  0.0238 -1.7965
  282MPD2    H1 4313   3.714   3.141  15.098 -0.3040 -0.3809  1.1683
  282MPD2    H2 4314   3.680   3.140  15.511  2.2513  0.4275 -0.9872
  282MPD2    H3 4315   3.812   3.129  15.335  0.0772  2.5975  1.3150
  282MPD2     N 4316   3.459   3.172  15.043 -0.0655 -0.3803  0.4866
  282MPD2    H5 4317   3.368   3.217  15.045 -0.1572 -0.5519  0.3122
  282MPD2    N1 4318   3.409   3.191  15.512  0.1002  0.2774 -0.4470
  282MPD2    H7 4319   3.310   3.177  15.494 -0.5290  3.2501  0.8350
  283TMC3    C1 4320   3.336   3.271  15.710 -0.0798  0.1558  0.0267
  283TMC3    C2 4321   3.340   3.399  15.759  0.8624  0.2918  0.1281
  283TMC3    C3 4322   3.224   3.443  15.824  0.5824  0.2181  0.6599
  283TMC3    C4 4323   3.218   3.194  15.703 -0.6421  0.1540  0.2518
  283TMC3    C5 4324   3.113   3.242  15.773  0.0159 -0.6129  0.1955
  283TMC3    C6 4325   3.114   3.368  15.828  0.2008 -0.6674 -0.3060
  283TMC3     C 4326   3.454   3.239  15.631  0.4178  0.0823 -0.4343
  283TMC3     O 4327   3.562   3.286  15.664 -0.1716  0.4485 -0.0502
  283TMC3     H 4328   3.431   3.458  15.754  0.2617  1.3271  1.3784
  283TMC3    H1 4329   3.225   3.093  15.664 -0.7172 -0.1082  0.9185
  283TMC3    H2 4330   3.026   3.392  15.888 -0.4629 -0.7286 -1.2569
  283TMC3    C7 4331   2.982   3.182  15.768 -0.2300  0.5197  0.2369
  283TMC3    C8 4332   3.193   3.583  15.834  0.6074  0.6841 -0.3495
  283TMC3    O1 4333   2.885   3.251  15.788  0.8033  0.5051 -0.3048
  283TMC3    O2 4334   3.116   3.617  15.926  0.0490  0.2321  0.3247
  284MPD2     C 4335   1.686   2.337  12.243  0.1875 -0.1604  0.1633
  284MPD2    C1 4336   1.742   2.284  12.128 -0.0157 -0.6334  0.2913
  284MPD2    C2 4337   1.822   2.170  12.137 -0.0263  0.0428  0.3472
  284MPD2    C3 4338   1.858   2.122  12.262  0.2844 -1.1429 -0.0254
  284MPD2    C4 4339   1.801   2.171  12.375  0.2644  0.0446  0.2623
  284MPD2    C5 4340   1.719   2.280  12.363 -0.4511 -0.0165 -0.4255
  284MPD2     H 4341   1.858   2.116  12.050  2.2330 -0.4902  1.6096
  284MPD2    H1 4342   1.814   2.140  12.478 -1.4323 -1.7382 -0.0517
  284MPD2    H2 4343   1.617   2.421  12.237  0.5325  0.0301 -1.1376
  284MPD2    H3 4344   1.664   2.315  12.450  1.4472 -0.5146  0.9661
  284MPD2     N 4345   1.968   2.024  12.265 -0.1181 -0.3766  0.3875
  284MPD2    H5 4346   2.013   1.998  12.178 -0.3233  1.6229 -0.3185
  284MPD2    N1 4347   1.705   2.338  12.001 -0.1838  0.1581  0.2311
  284MPD2    H7 4348   1.643   2.418  11.992 -0.1982  0.0557 -0.5146
  285TMC3    C1 4349   1.719   2.390  11.774 -0.2096  0.5217 -0.6048
  285TMC3    C2 4350   1.778   2.329  11.662  0.0598  0.2579  0.0120
  285TMC3    C3 4351   1.876   2.392  11.589 -0.1488  0.1529 -0.0469
  285TMC3    C4 4352   1.760   2.520  11.811 -0.9067  0.0345  0.5741
  285TMC3    C5 4353   1.859   2.574  11.732 -0.6465  0.6727 -0.2046
  285TMC3    C6 4354   1.922   2.517  11.620 -0.7475 -0.2300  0.0913
  285TMC3     C 4355   1.744   2.294  11.877 -0.2867  0.2053 -0.0373
  285TMC3     O 4356   1.803   2.191  11.853  0.1048  0.1468 -0.0108
  285TMC3     H 4357   1.736   2.235  11.630  0.4354 -0.2213  0.9218
  285TMC3    H1 4358   1.710   2.564  11.897 -0.2427  0.7680  0.5844
  285TMC3    H2 4359   2.003   2.570  11.570 -1.3325  0.9043  0.3408
  285TMC3    C7 4360   1.930   2.672  11.799  0.2399 -0.6344  0.3901
  285TMC3    C8 4361   1.950   2.298  11.493 -0.3562 -0.4284 -0.2930
  285TMC3    O1 4362   1.949   2.651  11.919  0.3846  0.0115  0.0223
  285TMC3    O2 4363   1.882   2.200  11.461 -0.4273 -0.8463 -0.1153
  286MPD2     C 4364   1.710   2.094   0.753  0.1390  0.4568 -0.8081
  286MPD2    C1 4365   1.589   2.033   0.732 -0.1555  0.3832 -0.6248
  286MPD2    C2 4366   1.590   1.898   0.697 -0.0543  0.2659  0.3006
  286MPD2    C3 4367   1.710   1.825   0.688  0.9318 -0.2098  0.0088
  286MPD2    C4 4368   1.828   1.893   0.708 -0.4688 -0.1587  0.0256
  286MPD2    C5 4369   1.830   2.026   0.738 -0.4206  0.6433  0.1305
  286MPD2     H 4370   1.496   1.844   0.688  0.5694 -0.4192 -1.9416
  286MPD2    H1 4371   1.911   1.824   0.700 -0.2902  0.2360 -1.5498
  286MPD2    H2 4372   1.721   2.199   0.775 -0.7029  0.4867 -0.5490
  286MPD2    H3 4373   1.920   2.082   0.758 -1.6794  1.7473  2.7052
  286MPD2     N 4374   1.728   1.690   0.655 -0.3020 -0.1373 -0.2025
  286MPD2    H5 4375   1.819   1.647   0.649 -0.8739 -1.1353 -1.7877
  286MPD2    N1 4376   1.471   2.111   0.753  0.0777 -0.5877 -0.1072
  286MPD2    H7 4377   1.478   2.200   0.802  1.6679 -0.8731  0.1865
  287TMC3    C1 4378   1.694   1.474   0.621 -0.0491  0.0032 -0.2566
  287TMC3    C2 4379   1.635   1.383   0.543 -0.6688  0.4873 -0.6227
  287TMC3    C3 4380   1.707   1.267   0.503 -0.1203 -0.4606  0.2227
  287TMC3    C4 4381   1.817   1.456   0.679  0.8960  0.1932 -0.0154
  287TMC3    C5 4382   1.877   1.332   0.650 -0.4130  0.5470  0.4707
  287TMC3    C6 4383   1.835   1.246   0.554  0.2948  0.4390 -0.0803
  287TMC3     C 4384   1.634   1.598   0.627  0.0483 -0.1668  0.5617
  287TMC3     O 4385   1.517   1.616   0.611 -0.2382 -0.2828  0.3402
  287TMC3     H 4386   1.529   1.392   0.522 -0.6433  1.2418 -0.4499
  287TMC3    H1 4387   1.854   1.516   0.762  1.7597 -0.0220 -0.2431
  287TMC3    H2 4388   1.898   1.163   0.524  1.3712  0.6264  1.6450
  287TMC3    C7 4389   1.993   1.297   0.726  0.1827 -0.5311  0.5621
  287TMC3    C8 4390   1.646   1.153   0.438 -0.0362 -0.2965 -0.2624
  287TMC3    O1 4391   2.046   1.387   0.788 -0.3823 -0.3840 -0.3615
  287TMC3    O2 4392   1.711   1.051   0.436 -0.8115  0.8930 -0.6884
  288TMC3    C1 4393   3.913   0.622  14.127 -0.2790 -0.7234 -0.4146
  288TMC3    C2 4394   3.893   0.612  14.264  0.0821  0.9274 -0.0828
  288TMC3    C3 4395   3.932   0.722  14.331 -0.9950  0.9313  0.0532
  288TMC3    C4 4396   3.976   0.731  14.072 -0.3579  0.9304  0.0051
  288TMC3    C5 4397   4.019   0.829  14.150  0.6590 -0.2173 -0.5927
  288TMC3    C6 4398   3.993   0.831  14.279 -0.0131  1.0007  0.7172
  288TMC3     C 4399   3.839   0.528  14.042  0.2465  0.4801  0.5622
  288TMC3     O 4400   3.807   0.579  13.936 -0.0097 -0.3214 -0.1925
  288TMC3     H 4401   3.840   0.524  14.298 -0.4551  1.4846  0.5225
  288TMC3    H1 4402   3.969   0.735  13.963 -2.6425 -1.2531  0.0617
  288TMC3    H2 4403   4.021   0.917  14.340  1.7610  1.5505 -0.8816
  288TMC3    C7 4404   4.107   0.928  14.102 -0.3271 -0.0574  0.7085
  288TMC3    C8 4405   3.974   0.696  14.465 -0.8922 -0.7465 -0.2810
  288TMC3    O1 4406   4.162   0.986  14.193 -0.0423 -0.5224 -0.4979
  288TMC3    O2 4407   4.050   0.780  14.516 -0.5177  0.2897 -0.0596
  289MPD2     C 4408   3.794   0.022  14.631  0.0071  0.5477 -0.1303
  289MPD2    C1 4409   3.809   0.128  14.545 -0.2720 -0.0399 -0.1364
  289MPD2    C2 4410   3.697   0.179  14.478  0.0920 -0.3985 -0.0959
  289MPD2    C3 4411   3.571   0.115  14.496 -0.0176  0.3466 -0.2582
  289MPD2    C4 4412   3.559   0.012  14.588 -0.8794  0.1250  0.1304
  289MPD2    C5 4413   3.670   4.713  14.659  0.4914 -0.3234 -0.2826
  289MPD2     H 4414   3.705   0.268  14.416 -0.2675 -0.5518 -0.3650
  289MPD2    H1 4415   3.460   4.710  14.604 -0.6505 -0.3358  0.4117
  289MPD2    H2 4416   3.883   4.721  14.679 -0.1306 -0.4540 -0.6677
  289MPD2    H3 4417   3.664   4.629  14.728 -0.2732 -0.8132 -0.9345
  289MPD2     N 4418   3.459   0.146  14.419  0.0734  0.4841  0.1114
  289MPD2    H5 4419   3.378   0.088  14.442  0.5291 -0.4074 -0.5350
  289MPD2    N1 4420   3.938   0.189  14.537  0.0428 -0.5159 -0.1462
  289MPD2    H7 4421   4.011   0.138  14.585  0.0985  0.3778  0.7231
  290TMC3    C1 4422   3.327   0.247  14.266  0.8048  0.0555 -0.8102
  290TMC3    C2 4423   3.275   0.362  14.217 -0.2452  0.1949 -0.3686
  290TMC3    C3 4424   3.152   0.363  14.149 -0.4070  0.2761  0.0921
  290TMC3    C4 4425   3.263   0.126  14.245 -0.3009  0.2119 -0.4555
  290TMC3    C5 4426   3.148   0.124  14.174  0.4557  0.2599 -0.5154
  290TMC3    C6 4427   3.094   0.242  14.119  0.1163  0.6589 -0.0180
  290TMC3     C 4428   3.453   0.254  14.335 -0.5033  0.2646 -0.0363
  290TMC3     O 4429   3.524   0.349  14.314  0.3680 -0.1551 -0.2067
  290TMC3     H 4430   3.304   0.454  14.266  3.2824 -0.0101 -2.0268
  290TMC3    H1 4431   3.309   0.032  14.270  0.7813  1.0472  0.6530
  290TMC3    H2 4432   3.007   0.239  14.055 -0.6892  2.5578  0.9888
  290TMC3    C7 4433   3.057   0.008  14.180  0.2596  0.2957  0.4298
  290TMC3    C8 4434   3.073   0.485  14.123  0.2527 -0.1440 -0.3972
  290TMC3    O1 4435   2.939   0.028  14.155  0.4890  0.4799 -0.1466
  290TMC3    O2 4436   2.956   0.467  14.088  0.1025 -0.0498 -0.0983
  291MPD2     C 4437   1.932   0.063   0.560 -0.0937 -0.1342  0.0483
  291MPD2    C1 4438   2.044   0.057   0.478  0.5417 -0.5366  0.4145
  291MPD2    C2 4439   2.163   0.114   0.529  0.2080 -0.3503  0.0145
  291MPD2    C3 4440   2.167   0.168   0.652  0.0814 -0.5078  0.4469
  291MPD2    C4 4441   2.052   0.178   0.733 -0.4902  0.0177  1.1577
  291MPD2    C5 4442   1.934   0.135   0.677  0.3309 -0.5713 -0.0337
  291MPD2     H 4443   2.245   0.132   0.461  0.6423 -2.1506  0.0682
  291MPD2    H1 4444   2.049   0.226   0.830  1.7716  1.0253  0.7183
  291MPD2    H2 4445   1.838   0.010   0.544 -1.0832  1.2653  1.1314
  291MPD2    H3 4446   1.839   0.142   0.728  1.6123  0.5615  2.1833
  291MPD2     N 4447   2.293   0.210   0.708  0.5765  0.4174  0.3989
  291MPD2    H5 4448   2.281   0.238   0.805 -2.3246  1.5200 -0.2563
  291MPD2    N1 4449   2.054   4.730   0.350  0.4341 -0.4490 -0.4358
  291MPD2    H7 4450   2.143   4.731   0.300  0.0727  0.1051 -1.0652
  292TMC3    C1 4451   1.967   4.633   0.152  0.0088  0.7748 -0.1103
  292TMC3    C2 4452   1.850   4.613   0.074  0.5511 -0.3614 -0.1015
  292TMC3    C3 4453   1.857   4.541  17.705  0.9142 -0.6602 -0.1836
  292TMC3    C4 4454   2.085   4.561   0.117  0.5595  0.2187  0.5742
  292TMC3    C5 4455   2.086   4.496  17.742 -0.0215 -0.3603  0.4240
  292TMC3    C6 4456   1.975   4.482  17.669 -0.1736  0.7248  0.8766
  292TMC3     C 4457   1.946   4.670   0.291  0.3881  0.9309 -0.2885
  292TMC3     O 4458   1.837   4.639   0.338  0.2290  0.0772  0.3446
  292TMC3     H 4459   1.760   4.665   0.105  0.4897 -1.0870  0.9464
  292TMC3    H1 4460   2.172   4.562   0.182 -0.2336  2.4314  1.6138
  292TMC3    H2 4461   1.980   4.419  17.581  2.1133 -1.0597  2.2859
  292TMC3    C7 4462   2.189   4.397  17.720  0.0225  0.1703 -0.6027
  292TMC3    C8 4463   1.749   4.461  17.683  0.2855  0.6206  0.0763
  292TMC3    O1 4464   2.196   4.347  17.609  0.4928  0.8081 -0.3134
  292TMC3    O2 4465   1.746   4.373  17.593 -0.4235 -0.3019  0.3083
  293MPD2     C 4466   0.086   1.443  12.326  0.1238 -0.3357  0.2073
  293MPD2    C1 4467   0.012   1.348  12.386 -0.3492 -0.1886 -0.5600
  293MPD2    C2 4468   4.729   1.346  12.524  0.2804  0.0463 -0.4642
  293MPD2    C3 4469   0.063   1.430  12.603  0.2334 -0.6824 -0.0009
  293MPD2    C4 4470   0.155   1.509  12.543  0.0103  0.2850 -0.9851
  293MPD2    C5 4471   0.157   1.521  12.405 -0.3881  0.5819 -0.6885
  293MPD2     H 4472   4.659   1.277  12.571  1.1139 -0.8467 -0.5339
  293MPD2    H1 4473   0.224   1.576  12.593 -0.3192 -1.5987  1.9799
  293MPD2    H2 4474   0.091   1.439  12.218  3.1499 -1.3449  0.3662
  293MPD2    H3 4475   0.223   1.590  12.353 -1.5943 -0.9099 -4.1614
  293MPD2     N 4476   0.038   1.420  12.744  0.0485 -0.4086 -0.7116
  293MPD2    H5 4477   4.704   1.355  12.777  0.7729 -0.7889  0.1068
  293MPD2    N1 4478   4.674   1.270  12.295  0.0351  0.2200  0.5908
  293MPD2    H7 4479   4.673   1.306  12.200 -0.3286 -2.3264 -0.3665
  294TMC3    C1 4480   4.503   1.120  12.216  0.5266 -0.2322  0.1980
  294TMC3    C2 4481   4.377   1.067  12.240 -0.3074 -0.5794 -0.3244
  294TMC3    C3 4482   4.287   1.045  12.139  0.3144 -0.0695 -0.3512
  294TMC3    C4 4483   4.548   1.149  12.084  0.4888  0.5169  0.0278
  294TMC3    C5 4484   4.468   1.106  11.984 -0.2647  0.3520  0.1865
  294TMC3    C6 4485   4.334   1.067  12.009  0.8942  0.5474 -0.3203
  294TMC3     C 4486   4.591   1.161  12.330  0.1186  0.3360  0.0938
  294TMC3     O 4487   4.562   1.106  12.436  0.2947 -0.6249  0.7400
  294TMC3     H 4488   4.367   1.045  12.346 -2.0484 -0.5178 -0.4868
  294TMC3    H1 4489   4.649   1.181  12.062  0.4715 -0.0046 -0.7979
  294TMC3    H2 4490   4.268   1.047  11.925 -0.5487 -0.7992  1.1318
  294TMC3    C7 4491   4.508   1.130  11.843  0.5763  0.6088 -0.3611
  294TMC3    C8 4492   4.194   0.939  12.157  0.0372  0.0620 -0.1088
  294TMC3    O1 4493   4.419   1.179  11.775 -0.5791 -0.0840  0.0165
  294TMC3    O2 4494   4.162   0.929  12.273 -0.2128 -0.5730  0.1303
  295MPD2     C 4495   1.115   1.007   0.969  0.0453  0.1077  0.4429
  295MPD2    C1 4496   1.054   0.907   0.898 -0.2369  0.4380  0.5054
  295MPD2    C2 4497   1.078   0.774   0.935  0.4424 -0.1666 -0.1060
  295MPD2    C3 4498   1.173   0.739   1.036  0.0000  0.2451 -0.1757
  295MPD2    C4 4499   1.231   0.843   1.098 -0.0937  0.6374 -0.1845
  295MPD2    C5 4500   1.211   0.974   1.064  0.1253  0.5004  0.1186
  295MPD2     H 4501   1.054   0.691   0.869  0.6696  0.3376 -0.8292
  295MPD2    H1 4502   1.301   0.810   1.174 -0.3678  0.3367 -0.0647
  295MPD2    H2 4503   1.089   1.111   0.959 -2.3214 -0.5610 -0.3852
  295MPD2    H3 4504   1.264   1.047   1.124  3.0161 -0.3970 -1.3474
  295MPD2     N 4505   1.204   0.610   1.071 -0.1319 -0.2152 -1.2064
  295MPD2    H5 4506   1.292   0.580   1.112 -1.0718 -1.5157 -0.1203
  295MPD2    N1 4507   0.960   0.929   0.791  0.2211  0.6446  0.1252
  295MPD2    H7 4508   0.918   0.849   0.745  0.2406 -0.4911  2.0908
  296TMC3    C1 4509   1.189   0.379   1.034 -0.0212  0.2414  0.5938
  296TMC3    C2 4510   1.287   0.349   1.124  0.7581 -1.1175  0.3590
  296TMC3    C3 4511   1.318   0.212   1.135 -0.5338 -0.5883 -1.3619
  296TMC3    C4 4512   1.133   0.285   0.958 -0.5030  0.5577 -0.0566
  296TMC3    C5 4513   1.172   0.158   0.959 -0.0797  0.7436  0.3447
  296TMC3    C6 4514   1.264   0.116   1.051 -0.3445 -0.2161 -0.4196
  296TMC3     C 4515   1.122   0.505   1.038 -0.0933  0.3028 -0.2987
  296TMC3     O 4516   1.006   0.505   1.002 -0.7095  0.2423  0.0248
  296TMC3     H 4517   1.326   0.423   1.194  2.1485 -1.5495  0.0418
  296TMC3    H1 4518   1.063   0.316   0.880 -1.1921 -0.1113  0.2949
  296TMC3    H2 4519   1.300   0.013   1.051 -0.2905 -0.1961  0.5872
  296TMC3    C7 4520   1.121   0.064   0.863  0.1410 -0.1563  0.2577
  296TMC3    C8 4521   1.434   0.171   1.214 -0.0868  0.0953 -0.4786
  296TMC3    O1 4522   1.126   0.105   0.750  0.8391 -0.0241 -0.2292
  296TMC3    O2 4523   1.457   0.049   1.218  0.2877 -0.2186 -1.2832
  297MPD2     C 4524   2.017   2.178  16.159 -0.0793  0.7064  0.0661
  297MPD2    C1 4525   2.014   2.298  16.086  0.2168  0.2649  0.9813
  297MPD2    C2 4526   2.136   2.362  16.073 -0.1848 -0.4841 -0.1756
  297MPD2    C3 4527   2.258   2.302  16.112 -0.3492 -0.4387  0.1505
  297MPD2    C4 4528   2.254   2.174  16.164 -0.1351  0.2935 -0.0913
  297MPD2    C5 4529   2.135   2.115  16.193  0.0839 -1.0305 -0.1118
  297MPD2     H 4530   2.143   2.456  16.019 -0.1975 -1.0611 -1.1799
  297MPD2    H1 4531   2.345   2.117  16.185  0.6941  2.3917  1.9798
  297MPD2    H2 4532   1.926   2.122  16.181 -0.2636  0.5349 -1.1283
  297MPD2    H3 4533   2.118   2.018  16.238 -0.8138 -0.1489  1.4544
  297MPD2     N 4534   2.370   2.382  16.119  0.0506  0.0686  0.0421
  297MPD2    H5 4535   2.359   2.483  16.117  1.3299  0.2210  0.3139
  297MPD2    N1 4536   1.901   2.361  16.040 -0.0418 -0.1931 -0.4541
  297MPD2    H7 4537   1.914   2.446  15.986  1.2623 -0.0596  0.0849
  298TMC3    C1 4538   1.689   2.418  15.996  0.0326  0.0500  0.4394
  298TMC3    C2 4539   1.717   2.465  15.872 -0.5277  0.2605  0.1775
  298TMC3    C3 4540   1.626   2.540  15.809 -0.2994 -0.1447 -0.1639
  298TMC3    C4 4541   1.571   2.449  16.066  0.3224 -0.3422  0.1195
  298TMC3    C5 4542   1.476   2.527  15.995 -0.1488 -0.1836  0.7725
  298TMC3    C6 4543   1.508   2.573  15.870  0.1582 -0.6963  0.1246
  298TMC3     C 4544   1.774   2.325  16.060 -0.6751 -0.1281  0.0736
  298TMC3     O 4545   1.727   2.253  16.145 -0.3621 -0.2140 -0.1463
  298TMC3     H 4546   1.815   2.451  15.827  0.2727  1.3300  1.6043
  298TMC3    H1 4547   1.555   2.405  16.164 -1.5287  0.3536  0.1377
  298TMC3    H2 4548   1.431   2.620  15.810 -0.7471 -0.2086  1.6749
  298TMC3    C7 4549   1.369   2.584  16.072  0.2302  0.0192 -0.5139
  298TMC3    C8 4550   1.671   2.608  15.684 -0.0033 -0.3147 -0.2534
  298TMC3    O1 4551   1.336   2.527  16.174  0.0728  0.1341  0.5092
  298TMC3    O2 4552   1.630   2.714  15.647 -0.3779  0.5012  0.2261
  299MPD2     C 4553   3.359   1.888  10.112  0.7083  0.6664  0.1988
  299MPD2    C1 4554   3.369   1.785  10.201  0.8892  0.7861  0.5092
  299MPD2    C2 4555   3.269   1.686  10.196 -0.7712  0.0548  0.7878
  299MPD2    C3 4556   3.162   1.694  10.119 -0.3743  0.0323  0.3750
  299MPD2    C4 4557   3.153   1.802  10.033  0.6283  0.2810 -0.8006
  299MPD2    C5 4558   3.250   1.901  10.034 -1.2577 -0.1185  0.5019
  299MPD2     H 4559   3.270   1.600  10.262  1.7007 -1.0934 -0.7614
  299MPD2    H1 4560   3.066   1.826   9.973  0.9141 -1.0143 -1.7368
  299MPD2    H2 4561   3.438   1.962  10.105  0.8516  0.3051 -1.9238
  299MPD2    H3 4562   3.241   1.983   9.963  0.2127 -1.1741 -0.8888
  299MPD2     N 4563   3.054   1.601  10.130 -0.6940 -0.3435  0.1864
  299MPD2    H5 4564   2.972   1.630  10.078 -1.5659 -0.6593  1.3906
  299MPD2    N1 4565   3.483   1.787  10.294 -0.5064 -0.0584  0.6316
  299MPD2    H7 4566   3.562   1.850  10.284 -1.7443  1.5078  0.6443
  300TMC3    C1 4567   2.932   1.416  10.236 -0.2875  0.3140  0.3328
  300TMC3    C2 4568   2.819   1.462  10.170 -0.2216 -0.3888 -0.3126
  300TMC3    C3 4569   2.699   1.457  10.242  0.7596 -0.1969  0.1941
  300TMC3    C4 4570   2.934   1.362  10.355  0.5782  0.1761 -1.2153
  300TMC3    C5 4571   2.819   1.370  10.428  0.0611 -0.3152 -0.1771
  300TMC3    C6 4572   2.700   1.413  10.374  0.3496  0.2640  0.3228
  300TMC3     C 4573   3.057   1.475  10.201 -0.5528  0.3806 -0.2636
  300TMC3     O 4574   3.156   1.424  10.255 -0.1461  0.1719  0.1638
  300TMC3     H 4575   2.813   1.492  10.066  0.6694  0.2752 -0.1699
  300TMC3    H1 4576   3.021   1.313  10.396  0.7008 -0.5803 -2.3579
  300TMC3    H2 4577   2.606   1.409  10.426  0.9729  0.0046  1.4215
  300TMC3    C7 4578   2.838   1.393  10.570 -0.1566  0.1099 -0.3078
  300TMC3    C8 4579   2.562   1.472  10.193  0.6998 -0.8180  0.6631
  300TMC3    O1 4580   2.956   1.392  10.606  0.7628  0.0313  0.7931
  300TMC3    O2 4581   2.475   1.407  10.250 -0.3656 -0.4433  0.1467
  301MPD2     C 4582   0.510   3.572   1.037  0.0810 -0.0280  0.3340
  301MPD2    C1 4583   0.447   3.538   0.913 -0.2012 -0.3050 -0.3874
  301MPD2    C2 4584   0.435   3.411   0.884 -0.4186  0.0611 -0.2479
  301MPD2    C3 4585   0.448   3.312   0.979 -0.6429 -0.8618 -0.2900
  301MPD2    C4 4586   0.503   3.341   1.097 -0.4565 -0.1159  0.0028
  301MPD2    C5 4587   0.539   3.469   1.126 -0.7872 -0.4110  0.4665
  301MPD2     H 4588   0.385   3.387   0.791 -1.9449 -0.0977  0.6165
  301MPD2    H1 4589   0.511   3.265   1.175 -0.2568 -0.6096 -0.4957
  301MPD2    H2 4590   0.521   3.677   1.062 -1.0197  0.5152 -1.5093
  301MPD2    H3 4591   0.575   3.484   1.228  0.6908  1.6641 -0.3603
  301MPD2     N 4592   0.393   3.184   0.956 -0.6221 -0.0137  0.3238
  301MPD2    H5 4593   0.383   3.125   1.038 -1.6017 -0.9807 -0.4837
  301MPD2    N1 4594   0.406   3.636   0.817 -0.2653 -0.2672  0.5044
  301MPD2    H7 4595   0.380   3.588   0.731 -1.9212  1.8885 -0.1976
  302TMC3    C1 4596   0.256   3.019   0.854  1.4384 -0.6070  0.4029
  302TMC3    C2 4597   0.294   2.916   0.939 -0.2078 -0.0062  0.3731
  302TMC3    C3 4598   0.220   2.801   0.948  0.2137  0.2551 -0.1089
  302TMC3    C4 4599   0.156   3.001   0.764 -0.0075 -0.4098  0.5081
  302TMC3    C5 4600   0.089   2.882   0.760  0.2379 -0.6759  0.7135
  302TMC3    C6 4601   0.126   2.784   0.846  1.0061 -0.1861  0.2700
  302TMC3     C 4602   0.338   3.138   0.841 -0.4456  0.3293 -0.1623
  302TMC3     O 4603   0.344   3.186   0.726  0.5976 -0.4197 -0.3650
  302TMC3     H 4604   0.376   2.931   1.008 -0.2305 -2.1140  0.8376
  302TMC3    H1 4605   0.131   3.081   0.696 -1.5417 -0.1926  1.3232
  302TMC3    H2 4606   0.067   2.693   0.837  0.4905  0.1882 -0.1743
  302TMC3    C7 4607   4.725   2.863   0.659  0.5621  0.3446  0.1296
  302TMC3    C8 4608   0.268   2.694   1.030  0.0777 -0.7722  0.8423
  302TMC3    O1 4609   4.732   2.752   0.605  0.2835 -0.3921 -0.1952
  302TMC3    O2 4610   0.373   2.715   1.085  0.7053  0.3393  0.9290
  303MPD2     C 4611   0.790   2.275   9.927  0.3914 -0.4269  0.8179
  303MPD2    C1 4612   0.716   2.160   9.889  0.3632  0.9989  0.4643
  303MPD2    C2 4613   0.777   2.041   9.858 -0.2518 -0.2852  0.2022
  303MPD2    C3 4614   0.912   2.027   9.872 -0.4483  0.1611  0.0357
  303MPD2    C4 4615   0.978   2.128   9.929 -0.3273  0.2777  0.1115
  303MPD2    C5 4616   0.925   2.253   9.954 -0.6649 -0.7615  0.3349
  303MPD2     H 4617   0.715   1.958   9.826 -0.6883 -0.5981  1.8649
  303MPD2    H1 4618   1.084   2.124   9.950 -0.6057  0.5788  1.5680
  303MPD2    H2 4619   0.751   2.374   9.946 -0.2109 -0.3257 -0.9573
  303MPD2    H3 4620   0.993   2.333   9.982 -1.0348  0.1735 -1.4123
  303MPD2     N 4621   0.980   1.906   9.835  0.2313 -0.3273  0.2360
  303MPD2    H5 4622   1.077   1.906   9.865  0.6140  0.8641 -0.9692
  303MPD2    N1 4623   0.578   2.181   9.892 -0.5482  0.0416  0.3991
  303MPD2    H7 4624   0.551   2.278   9.903  0.6304  0.1658  2.2183
  304TMC3    C1 4625   0.354   2.144   9.889 -0.6328  0.8186 -0.4536
  304TMC3    C2 4626   0.333   2.224   9.782  0.2417  0.9448  0.0823
  304TMC3    C3 4627   0.216   2.210   9.717  0.3011  0.1715 -0.1223
  304TMC3    C4 4628   0.255   2.071   9.944 -0.1123  0.4646  0.2500
  304TMC3    C5 4629   0.130   2.073   9.886 -0.3346 -0.3934 -0.0376
  304TMC3    C6 4630   0.112   2.144   9.769 -0.3721  0.4833  0.2775
  304TMC3     C 4631   0.483   2.086   9.893 -0.5528 -0.7058 -0.1329
  304TMC3     O 4632   0.496   1.965   9.882 -0.4665 -0.4246  0.0285
  304TMC3     H 4633   0.412   2.265   9.720 -0.9392  2.7761 -0.2449
  304TMC3    H1 4634   0.277   2.029  10.041  0.9045  0.1998 -0.0954
  304TMC3    H2 4635   0.015   2.140   9.721 -0.3151  0.4897  0.1620
  304TMC3    C7 4636   0.075   1.939   9.862  0.5676  0.0922  0.5199
  304TMC3    C8 4637   0.235   2.174   9.578 -0.5086 -0.0757  0.3877
  304TMC3    O1 4638   0.040   1.918   9.746  0.1083  0.1997 -0.2733
  304TMC3    O2 4639   0.290   2.258   9.510 -0.6875  0.0216 -0.4711
  305MPD2     C 4640   3.437   3.504  13.962 -0.3983  0.1005 -0.3119
  305MPD2    C1 4641   3.493   3.386  13.985  0.3398  0.1626 -0.4216
  305MPD2    C2 4642   3.499   3.290  13.881 -0.4219 -0.2043 -0.1865
  305MPD2    C3 4643   3.475   3.325  13.751  0.0565 -0.1430 -0.1240
  305MPD2    C4 4644   3.423   3.442  13.732  0.7302  0.1448 -0.6203
  305MPD2    C5 4645   3.398   3.530  13.837  0.0280 -0.9774 -0.3378
  305MPD2     H 4646   3.552   3.198  13.900  2.1281  1.8602  2.8087
  305MPD2    H1 4647   3.387   3.484  13.638 -2.6250  0.4973  0.8331
  305MPD2    H2 4648   3.426   3.582  14.036 -3.5535  0.1051 -0.8235
  305MPD2    H3 4649   3.345   3.623  13.818  1.8623  0.2362  0.4766
  305MPD2     N 4650   3.484   3.239  13.637 -0.0591  0.0332  0.0964
  305MPD2    H5 4651   3.470   3.292  13.552  1.0006 -2.0019 -1.3551
  305MPD2    N1 4652   3.537   3.372  14.114  0.4135  0.6124 -0.0168
  305MPD2    H7 4653   3.542   3.461  14.164 -1.7985  1.1977 -0.8457
  306TMC3    C1 4654   3.684   3.296  14.268  0.1070  0.1105 -0.4431
  306TMC3    C2 4655   3.778   3.207  14.309 -0.1074 -0.9338  0.5512
  306TMC3    C3 4656   3.847   3.230  14.429 -0.0976 -0.1132  0.3453
  306TMC3    C4 4657   3.647   3.396  14.352  0.7463 -1.1436  0.1244
  306TMC3    C5 4658   3.711   3.411  14.471  0.0633 -0.3208  0.3642
  306TMC3    C6 4659   3.819   3.333  14.508 -0.3560 -0.3436  0.2486
  306TMC3     C 4660   3.606   3.261  14.160  0.6720  1.0481  0.4708
  306TMC3     O 4661   3.629   3.149  14.117 -0.1657 -0.2800 -0.8793
  306TMC3     H 4662   3.807   3.128  14.241 -1.8157 -0.7901 -0.3423
  306TMC3    H1 4663   3.571   3.467  14.324 -0.0087 -2.2766 -0.7328
  306TMC3    H2 4664   3.888   3.346  14.591  2.7931  0.7015 -2.5614
  306TMC3    C7 4665   3.629   3.475  14.580 -0.1651  0.4075 -0.0920
  306TMC3    C8 4666   3.963   3.144  14.444 -0.4448 -0.5816  0.3629
  306TMC3    O1 4667   3.511   3.491  14.549  0.4102 -0.6363  0.1710
  306TMC3    O2 4668   3.987   3.070  14.350  0.4719 -0.0029  0.2000
  307MPD2     C 4669   1.051   2.005   0.422 -0.0818  0.0127 -0.1690
  307MPD2    C1 4670   0.985   2.124   0.390  0.0794  0.4406  0.7879
  307MPD2    C2 4671   0.880   2.167   0.471  0.0806 -0.3963  0.6504
  307MPD2    C3 4672   0.841   2.092   0.581 -0.6258  0.5911  0.3413
  307MPD2    C4 4673   0.899   1.973   0.604 -0.1045 -0.0565 -0.3493
  307MPD2    C5 4674   1.005   1.926   0.524  0.0424 -0.4626  0.6818
  307MPD2     H 4675   0.842   2.267   0.458 -0.4505 -0.9637 -2.0473
  307MPD2    H1 4676   0.860   1.909   0.682  1.2930 -1.0410 -0.4734
  307MPD2    H2 4677   1.136   1.968   0.365  0.5752 -2.1271  2.1947
  307MPD2    H3 4678   1.053   1.831   0.543 -0.6489 -1.2777 -1.6323
  307MPD2     N 4679   0.743   2.158   0.659 -0.0081 -0.7344 -0.3044
  307MPD2    H5 4680   0.720   2.252   0.628  1.1290 -0.9038 -1.6710
  307MPD2    N1 4681   1.015   2.207   0.281  0.2719  0.3964  0.5293
  307MPD2    H7 4682   0.957   2.290   0.270  0.0574  0.3803  1.5004
  308TMC3    C1 4683   0.303   2.174   0.733  0.0568  0.2433  0.2885
  308TMC3    C2 4684   0.304   2.310   0.734 -0.3715  0.6835  0.1214
  308TMC3    C3 4685   0.416   2.374   0.766 -0.2221  0.2847 -0.3262
  308TMC3    C4 4686   0.423   2.105   0.743 -0.3569  0.4055  0.4263
  308TMC3    C5 4687   0.535   2.172   0.779  0.4380 -0.4460 -0.4810
  308TMC3    C6 4688   0.537   2.309   0.787 -0.6337  0.1047 -0.9549
  308TMC3     C 4689   0.190   2.102   0.701  0.0165 -0.3190 -0.1440
  308TMC3     O 4690   0.178   1.988   0.732  0.3821 -0.3575  0.8136
  308TMC3     H 4691   0.212   2.367   0.735 -1.0376 -0.4006  0.5816
  308TMC3    H1 4692   0.431   1.998   0.724 -0.6205  0.6473 -1.0337
  308TMC3    H2 4693   0.631   2.359   0.805 -0.2453 -0.3833 -1.6610
  308TMC3    C7 4694   0.660   2.099   0.744  0.0730  0.3342 -0.0285
  308TMC3    C8 4695   0.419   2.510   0.716 -0.6140 -0.1820 -0.7812
  308TMC3    O1 4696   0.651   1.981   0.785  0.2446 -0.1426  0.4623
  308TMC3    O2 4697   0.328   2.555   0.646 -0.2233 -0.4051  0.7425
  309MPD2     C 4698   0.330   2.146  17.019  0.0257  0.0670  0.2446
  309MPD2    C1 4699   0.249   2.150  16.904 -0.6109  0.0589 -0.2679
  309MPD2    C2 4700   0.116   2.192  16.914 -0.5161 -0.0087 -0.4588
  309MPD2    C3 4701   0.065   2.232  17.036  0.0086 -0.0651 -0.3509
  309MPD2    C4 4702   0.147   2.214  17.152 -0.0160  0.2228  0.4496
  309MPD2    C5 4703   0.277   2.171  17.143 -0.3588  0.0098  0.3537
  309MPD2     H 4704   0.064   2.192  16.820 -2.1603  0.0876  0.4458
  309MPD2    H1 4705   0.121   2.265  17.244  0.4010 -0.1609  0.7814
  309MPD2    H2 4706   0.436   2.121  17.025  0.0294  0.6455  2.5022
  309MPD2    H3 4707   0.335   2.181  17.234  0.4383 -0.4353 -0.1050
  309MPD2     N 4708   4.669   2.286  17.055 -0.2996 -0.0408 -0.6321
  309MPD2    H5 4709   4.659   2.312  17.153 -1.4119  1.3734 -1.1108
  309MPD2    N1 4710   0.295   2.113  16.775 -0.2151 -0.1921  0.2432
  309MPD2    H7 4711   0.238   2.137  16.695 -0.8807 -2.3163  0.0850
  310TMC3    C1 4712   0.458   2.039  16.617 -0.1632  0.2416  0.4035
  310TMC3    C2 4713   0.361   2.034  16.518  0.2792 -0.2344 -0.5286
  310TMC3    C3 4714   0.412   2.020  16.395 -0.7246 -0.0683  0.5662
  310TMC3    C4 4715   0.591   2.024  16.602  0.5252 -0.5162 -0.1078
  310TMC3    C5 4716   0.629   1.999  16.473 -0.0473  0.2024 -0.3832
  310TMC3    C6 4717   0.544   1.992  16.367  0.0253  0.4172  0.2871
  310TMC3     C 4718   0.411   2.047  16.755 -0.4878 -0.5281  0.2560
  310TMC3     O 4719   0.476   1.991  16.839  0.0745  0.1070  0.0735
  310TMC3     H 4720   0.255   2.025  16.537  0.1702  1.0336 -0.5331
  310TMC3    H1 4721   0.665   2.035  16.680  1.2156 -0.0186 -0.8200
  310TMC3    H2 4722   0.576   1.960  16.269 -2.4972  1.9265 -1.0434
  310TMC3    C7 4723   0.763   1.952  16.444  0.7752 -0.9786 -0.5078
  310TMC3    C8 4724   0.318   1.993  16.286 -0.0160 -0.1648 -0.0490
  310TMC3    O1 4725   0.775   1.883  16.341 -0.0612  0.2274 -0.3397
  310TMC3    O2 4726   0.364   1.953  16.179 -0.5261 -0.4671  0.6784
  311MPD2     C 4727   2.768   2.695  12.771 -0.0935  0.2973  0.1944
  311MPD2    C1 4728   2.729   2.829  12.778 -0.3947 -0.1210  0.0553
  311MPD2    C2 4729   2.612   2.859  12.844 -0.1392 -0.3891 -0.0305
  311MPD2    C3 4730   2.527   2.756  12.889  0.5300  0.2680  0.1729
  311MPD2    C4 4731   2.565   2.623  12.880 -0.3092 -0.2904 -0.2653
  311MPD2    C5 4732   2.685   2.593  12.813  0.0983 -0.4718 -0.4127
  311MPD2     H 4733   2.581   2.963  12.845 -1.2224 -0.6861 -1.8947
  311MPD2    H1 4734   2.504   2.546  12.924 -0.6878  1.0151  1.4856
  311MPD2    H2 4735   2.860   2.670  12.720  0.5889 -1.4158  2.2425
  311MPD2    H3 4736   2.715   2.489  12.810 -1.5567 -0.9484 -0.8311
  311MPD2     N 4737   2.404   2.787  12.960 -0.0513  0.2828 -0.4732
  311MPD2    H5 4738   2.383   2.885  12.980 -1.0913 -0.1056  0.3195
  311MPD2    N1 4739   2.811   2.935  12.734  0.2694  0.0184 -0.4638
  311MPD2    H7 4740   2.779   3.029  12.755 -0.2364  0.2020 -2.0983
  312TMC3    C1 4741   2.192   2.761  13.040 -0.6479 -0.3277 -0.7938
  312TMC3    C2 4742   2.067   2.720  13.010  0.1251 -0.2796  0.1005
  312TMC3    C3 4743   1.966   2.793  13.064 -0.7985  0.0126  0.9819
  312TMC3    C4 4744   2.223   2.863  13.125 -0.7334 -0.3499  0.1040
  312TMC3    C5 4745   2.112   2.928  13.172  0.2850 -0.5905  0.0687
  312TMC3    C6 4746   1.987   2.898  13.145  1.2699  0.0997  0.6470
  312TMC3     C 4747   2.304   2.697  12.982 -0.3486  0.5124  0.1094
  312TMC3     O 4748   2.302   2.572  12.985  0.0851 -0.2723  0.0515
  312TMC3     H 4749   2.058   2.631  12.949 -1.6083  0.7447 -1.1502
  312TMC3    H1 4750   2.324   2.895  13.149 -0.3908 -0.0603 -1.7246
  312TMC3    H2 4751   1.907   2.937  13.207  2.8810  1.9430  1.5392
  312TMC3    C7 4752   2.138   3.040  13.270 -0.1736  0.6724 -0.1026
  312TMC3    C8 4753   1.839   2.785  12.996 -0.0504  0.3350 -0.4662
  312TMC3    O1 4754   2.077   3.146  13.265 -0.1845  0.2026  0.7559
  312TMC3    O2 4755   1.805   2.686  12.929 -0.6523  0.3905  0.2306
  313MPD2     C 4756   2.239   1.915  10.721  0.1425 -0.6125 -0.5771
  313MPD2    C1 4757   2.139   2.000  10.769  0.1451  0.0837 -0.6556
  313MPD2    C2 4758   2.008   1.956  10.756 -0.7415  0.2183  0.2022
  313MPD2    C3 4759   1.976   1.841  10.687 -0.1334  0.1869  0.8655
  313MPD2    C4 4760   2.077   1.770  10.627 -0.5692  0.4651  0.0125
  313MPD2    C5 4761   2.211   1.807  10.646 -0.0215 -0.2954  0.3248
  313MPD2     H 4762   1.932   2.009  10.813 -1.1368 -0.3324  0.1849
  313MPD2    H1 4763   2.052   1.682  10.569 -1.1523  1.3005 -0.9953
  313MPD2    H2 4764   2.346   1.927  10.736 -0.3567  0.4655  2.0550
  313MPD2    H3 4765   2.294   1.753  10.602  1.2379  1.2487  0.7875
  313MPD2     N 4766   1.843   1.791  10.681  0.2997  0.6872  0.2998
  313MPD2    H5 4767   1.819   1.720  10.612 -0.3724 -1.3199  2.6411
  313MPD2    N1 4768   2.165   2.116  10.840  0.3342 -0.1511  0.4192
  313MPD2    H7 4769   2.083   2.163  10.877 -0.1569 -0.6275 -0.0801
  314TMC3    C1 4770   2.295   2.296  10.943 -0.1335  0.1427 -0.2851
  314TMC3    C2 4771   2.414   2.331  10.996  0.0382 -0.1513 -0.4749
  314TMC3    C3 4772   2.423   2.418  11.102 -0.1245  0.5943 -0.0904
  314TMC3    C4 4773   2.178   2.354  10.986  0.2534 -0.0249 -0.0021
  314TMC3    C5 4774   2.183   2.430  11.096 -0.6064  0.3379 -0.0809
  314TMC3    C6 4775   2.304   2.454  11.160 -0.9436  0.5960 -0.1853
  314TMC3     C 4776   2.290   2.179  10.855  0.4098  0.4412  0.2057
  314TMC3     O 4777   2.398   2.138  10.817 -0.0010  0.1147 -0.7030
  314TMC3     H 4778   2.503   2.297  10.945  1.9206  1.6555  1.6205
  314TMC3    H1 4779   2.079   2.336  10.947  0.0432  2.0786 -0.4002
  314TMC3    H2 4780   2.306   2.526  11.240  0.6896 -1.6491  1.7956
  314TMC3    C7 4781   2.099   2.545  11.102 -0.3088  0.5524  0.1247
  314TMC3    C8 4782   2.505   2.532  11.081 -0.2768 -0.5922  0.1092
  314TMC3    O1 4783   2.090   2.600  11.211 -0.8575 -0.0631 -0.5629
  314TMC3    O2 4784   2.493   2.628  11.161 -0.6270  0.6341 -0.1533
  315MPD2     C 4785   1.295   2.698   0.268 -0.5342 -0.1725  0.1940
  315MPD2    C1 4786   1.425   2.647   0.279  0.2643  0.1766 -0.0423
  315MPD2    C2 4787   1.523   2.703   0.197  0.6027  0.2342  0.9084
  315MPD2    C3 4788   1.487   2.796   0.103 -0.1492 -0.3741 -0.8022
  315MPD2    C4 4789   1.358   2.847   0.094 -0.3609 -0.3350  0.3165
  315MPD2    C5 4790   1.266   2.809   0.184 -0.0835  0.0893  0.6323
  315MPD2     H 4791   1.626   2.674   0.216  1.7336  1.8285 -2.9723
  315MPD2    H1 4792   1.330   2.912   0.012  0.5732  1.1027  1.1347
  315MPD2    H2 4793   1.204   2.660   0.314 -1.3517  0.5969 -0.7855
  315MPD2    H3 4794   1.162   2.837   0.174 -0.2718 -0.4310  1.1423
  315MPD2     N 4795   1.591   2.825   0.014 -0.1037  0.3442 -0.1890
  315MPD2    H5 4796   1.685   2.792   0.033 -0.2172 -0.2684 -0.6768
  315MPD2    N1 4797   1.465   2.541   0.360  0.0212 -0.3754 -0.1424
  315MPD2    H7 4798   1.563   2.514   0.359  0.4060  1.0048 -0.1224
  316TMC3    C1 4799   1.695   2.889  17.559  0.1572 -0.5323 -0.2939
  316TMC3    C2 4800   1.798   2.938  17.621  0.3415 -0.3137  0.5739
  316TMC3    C3 4801   1.897   3.003  17.554  0.6089  0.0166  0.0014
  316TMC3    C4 4802   1.683   2.893  17.425  0.7226 -0.3474  0.9320
  316TMC3    C5 4803   1.789   2.942  17.350 -0.1735 -0.0317  0.8958
  316TMC3    C6 4804   1.898   3.003  17.414 -0.2580 -0.2959 -0.6403
  316TMC3     C 4805   1.576   2.863  17.626  0.2447  0.1294 -0.3325
  316TMC3     O 4806   1.476   2.894  17.568 -0.2123 -0.4743  0.1466
  316TMC3     H 4807   1.792   2.949  17.729  0.3158  0.5129  0.4929
  316TMC3    H1 4808   1.597   2.851  17.374 -0.2428 -0.6466  2.8046
  316TMC3    H2 4809   1.981   3.044  17.359 -1.1623 -0.2361 -1.9612
  316TMC3    C7 4810   1.787   2.933  17.207  0.2980 -0.3374  0.0982
  316TMC3    C8 4811   2.025   3.038  17.617  0.0966 -0.1664 -0.6573
  316TMC3    O1 4812   1.904   2.937  17.163  0.2504 -0.2988 -0.2283
  316TMC3    O2 4813   2.101   3.118  17.564  0.1204 -0.0704 -0.0312
  317MPD2     C 4814   3.892   4.701  12.536 -0.1668  0.4316 -0.1885
  317MPD2    C1 4815   3.985   4.608  12.567 -0.3260  0.2081 -0.2104
  317MPD2    C2 4816   4.030   4.594  12.698 -0.1570  0.6826 -0.1053
  317MPD2    C3 4817   3.976   4.669  12.798 -0.8991 -0.1260  0.4445
  317MPD2    C4 4818   3.869   0.012  12.764 -0.0240  0.3423  0.0037
  317MPD2    C5 4819   3.822   0.015  12.637  0.4234  0.7041  0.0863
  317MPD2     H 4820   4.104   4.516  12.715 -1.0477  0.0368  0.8374
  317MPD2    H1 4821   3.821   0.064  12.846 -0.5430 -2.1232  1.2693
  317MPD2    H2 4822   3.849   4.710  12.437  1.1152  0.4200 -0.7466
  317MPD2    H3 4823   3.737   0.082  12.627  0.3027  0.2503 -1.9371
  317MPD2     N 4824   4.032   4.648  12.931  0.4945 -0.2997 -0.0494
  317MPD2    H5 4825   4.107   4.581  12.940  1.1760  0.9789  3.9121
  317MPD2    N1 4826   4.055   4.530  12.470 -0.1215  0.0469  0.0169
  317MPD2    H7 4827   4.134   4.480  12.509 -0.0799  0.9297  1.0539
  318TMC3    C1 4828   4.051   4.651  13.157 -0.6446 -0.1936  0.5418
  318TMC3    C2 4829   4.049   4.514  13.149 -0.3962  0.3504  0.4344
  318TMC3    C3 4830   4.091   4.441  13.259  0.0828 -0.1122  0.6544
  318TMC3    C4 4831   4.082   4.717  13.275 -0.1763 -0.4908 -0.3177
  318TMC3    C5 4832   4.125   4.642  13.383 -0.5631  0.3037 -0.8625
  318TMC3    C6 4833   4.133   4.503  13.376 -0.1301 -0.0951  0.4713
  318TMC3     C 4834   4.004   4.723  13.039 -0.0399  0.0138 -0.3774
  318TMC3     O 4835   3.928   0.086  13.054 -0.0391  0.0438  0.3011
  318TMC3     H 4836   4.023   4.461  13.058 -0.8948  2.0627 -0.4147
  318TMC3    H1 4837   4.083   0.088  13.273 -1.9899 -0.4344  2.0454
  318TMC3    H2 4838   4.130   4.443  13.466 -4.5368  0.4072  0.6668
  318TMC3    C7 4839   4.226   4.717  13.469 -0.3100  0.3272  0.3208
  318TMC3    C8 4840   4.037   4.304  13.273 -0.3530 -0.2754  0.7160
  318TMC3    O1 4841   4.229   0.103  13.471  0.6249  0.0782 -0.2605
  318TMC3    O2 4842   4.091   4.236  13.358 -0.5526 -0.3883  0.4187
  319MPD2     C 4843   4.563   1.524  16.332 -0.0009  0.2011  0.6692
  319MPD2    C1 4844   4.437   1.514  16.389  0.0023  0.8255  0.8484
  319MPD2    C2 4845   4.334   1.453  16.313  0.1844 -0.1714  0.1921
  319MPD2    C3 4846   4.352   1.406  16.186 -0.7285 -0.1223 -1.0443
  319MPD2    C4 4847   4.473   1.423  16.127 -0.2184  0.8607  0.0967
  319MPD2    C5 4848   4.579   1.478  16.202  0.1235  0.2515  0.2412
  319MPD2     H 4849   4.235   1.458  16.357 -1.7550 -0.7536 -4.0971
  319MPD2    H1 4850   4.485   1.400  16.022  2.7208 -0.3722  0.6930
  319MPD2    H2 4851   4.646   1.562  16.390  0.9657 -0.9684  0.0484
  319MPD2    H3 4852   4.678   1.487  16.158  0.5017 -0.9296  0.8560
  319MPD2     N 4853   4.244   1.357  16.104 -0.1490 -0.5449 -0.3836
  319MPD2    H5 4854   4.273   1.323  16.013  1.2642  1.9874 -0.8948
  319MPD2    N1 4855   4.410   1.549  16.519  0.1694 -0.0919  0.4512
  319MPD2    H7 4856   4.317   1.532  16.555  0.3062 -0.4380  0.6450
  320TMC3    C1 4857   4.036   1.273  16.042  0.8188 -0.0546  0.2273
  320TMC3    C2 4858   4.059   1.277  15.910 -0.3827  0.2427  0.3001
  320TMC3    C3 4859   4.003   1.184  15.832  0.9190  0.0601 -0.7178
  320TMC3    C4 4860   3.964   1.180  16.102 -0.5235  0.7478 -0.2837
  320TMC3    C5 4861   3.918   1.074  16.022 -0.1424  0.2144 -0.1947
  320TMC3    C6 4862   3.937   1.074  15.885  0.1339 -0.4549 -0.3778
  320TMC3     C 4863   4.110   1.348  16.135 -0.3843  0.3137 -0.4236
  320TMC3     O 4864   4.051   1.383  16.238  0.1623  0.5487 -0.1973
  320TMC3     H 4865   4.125   1.355  15.875  0.1254 -0.7030 -0.8612
  320TMC3    H1 4866   3.944   1.193  16.208  2.1683  1.2324  0.1660
  320TMC3    H2 4867   3.898   0.998  15.818  0.3336 -0.5828 -0.3483
  320TMC3    C7 4868   3.908   0.946  16.096 -0.5383 -0.3888 -0.7372
  320TMC3    C8 4869   3.949   1.221  15.703  0.2941  0.3643 -0.0804
  320TMC3    O1 4870   3.969   0.848  16.055  0.1445 -0.4917 -0.5164
  320TMC3    O2 4871   3.928   1.133  15.622 -0.2733 -0.0501  0.0787
  321TMC3    C1 4872   4.438   1.652  16.735  0.0892 -0.3687  0.5147
  321TMC3    C2 4873   4.379   1.556  16.805  0.5901 -0.0212  0.4174
  321TMC3    C3 4874   4.343   1.577  16.935  0.1138  0.1025 -1.0302
  321TMC3    C4 4875   4.469   1.778  16.789  0.4237  0.0713 -0.7376
  321TMC3    C5 4876   4.418   1.798  16.917  0.3049 -0.5650 -0.2193
  321TMC3    C6 4877   4.365   1.698  16.989  0.0410  0.3135 -0.7736
  321TMC3     C 4878   4.482   1.624  16.601 -0.0327  0.3693 -0.0294
  321TMC3     O 4879   4.578   1.698  16.576 -0.4728  0.0291 -0.0871
  321TMC3     H 4880   4.392   1.454  16.770  0.0099  0.3560 -0.8764
  321TMC3    H1 4881   4.527   1.858  16.744 -0.1807  0.5980 -0.5798
  321TMC3    H2 4882   4.337   1.719  17.091  1.6867  0.5611 -0.3736
  321TMC3    C7 4883   4.519   1.864  17.002  0.1486 -0.0766 -0.1753
  321TMC3    C8 4884   4.403   1.463  17.002  0.1639 -0.1422  0.3043
  321TMC3    O1 4885   4.625   1.803  17.024 -0.1188 -0.2979 -0.4676
  321TMC3    O2 4886   4.364   1.351  16.980 -0.1501  0.0726 -0.1947
  322MPD2     C 4887   3.238   2.468  13.626  0.5547  0.3930  0.5272
  322MPD2    C1 4888   3.315   2.441  13.735 -0.3160  0.1719  0.3935
  322MPD2    C2 4889   3.366   2.313  13.749  0.3878  0.1180  0.5713
  322MPD2    C3 4890   3.330   2.207  13.665  0.2644 -0.5500  0.0086
  322MPD2    C4 4891   3.247   2.235  13.562 -0.2174  0.2429 -0.1022
  322MPD2    C5 4892   3.201   2.365  13.540 -0.1201 -0.2480 -0.0591
  322MPD2     H 4893   3.433   2.283  13.829  1.9315  1.6856 -0.1414
  322MPD2    H1 4894   3.212   2.162  13.490 -0.2339 -0.1083  0.2588
  322MPD2    H2 4895   3.182   2.560  13.619 -1.1450 -0.7291 -0.7157
  322MPD2    H3 4896   3.114   2.374  13.478 -0.5313 -1.3729  0.3547
  322MPD2     N 4897   3.390   2.086  13.695  0.5361 -0.0748  0.1027
  322MPD2    H5 4898   3.465   2.091  13.763  2.0082 -0.7242 -1.4405
  322MPD2    N1 4899   3.352   2.552  13.810 -0.7850 -0.0149  0.5533
  322MPD2    H7 4900   3.325   2.644  13.777  0.7954  0.1737 -0.2524
  323TMC3    C1 4901   3.453   2.657  13.993  1.0549  0.9067  0.5818
  323TMC3    C2 4902   3.521   2.744  13.918  0.7181  0.0951  0.3703
  323TMC3    C3 4903   3.592   2.839  13.986  0.4042 -0.4731  1.2282
  323TMC3    C4 4904   3.442   2.661  14.126  0.4737 -0.1822  0.3521
  323TMC3    C5 4905   3.507   2.760  14.195 -0.5475  0.2786  0.1255
  323TMC3    C6 4906   3.587   2.847  14.127 -0.5795 -0.0859  0.8316
  323TMC3     C 4907   3.414   2.536  13.930 -0.0097  0.7302  0.5018
  323TMC3     O 4908   3.418   2.434  13.998 -0.0063 -0.2133  0.0047
  323TMC3     H 4909   3.539   2.735  13.812 -3.3913  0.7789 -0.3853
  323TMC3    H1 4910   3.376   2.590  14.173 -0.9172  0.8368 -0.0562
  323TMC3    H2 4911   3.653   2.919  14.175 -1.3352  1.3685 -0.3124
  323TMC3    C7 4912   3.564   2.716  14.316 -0.6769  0.3616  0.1837
  323TMC3    C8 4913   3.726   2.866  13.938  0.4073 -0.6429 -0.7869
  323TMC3    O1 4914   3.566   2.596  14.334 -0.0513  0.3252  0.2226
  323TMC3    O2 4915   3.762   2.786  13.854 -0.0078  0.0627  0.3491
  324MPD2     C 4916   0.698   4.026  14.760  0.1768  0.1206  0.6399
  324MPD2    C1 4917   0.658   4.132  14.678 -0.3274 -0.2491  0.5874
  324MPD2    C2 4918   0.549   4.114  14.596  1.1327  0.3558  0.0078
  324MPD2    C3 4919   0.468   4.000  14.602  0.6676 -0.2903 -0.1604
  324MPD2    C4 4920   0.507   3.903  14.686 -0.6019  0.3874 -0.2369
  324MPD2    C5 4921   0.627   3.914  14.765 -0.0061  0.1231 -1.3655
  324MPD2     H 4922   0.529   4.197  14.530  0.2967  0.5827  0.5505
  324MPD2    H1 4923   0.443   3.816  14.702  0.3222  0.0835  1.8265
  324MPD2    H2 4924   0.796   4.026  14.806 -1.0597  0.5910  3.2389
  324MPD2    H3 4925   0.656   3.828  14.823 -2.3638  0.1367 -0.1767
  324MPD2     N 4926   0.351   3.980  14.522 -0.2102  0.1298 -0.4476
  324MPD2    H5 4927   0.310   3.887  14.531 -0.0009  0.0489 -0.3123
  324MPD2    N1 4928   0.749   4.247  14.652 -0.8111  0.2258 -0.0131
  324MPD2    H7 4929   0.739   4.302  14.567  0.3505  2.3933  1.2682
  325TMC3    C1 4930   0.194   4.006  14.342 -0.1746  0.4864 -0.7004
  325TMC3    C2 4931   0.151   3.878  14.364  0.1203 -0.4901 -0.2037
  325TMC3    C3 4932   0.024   3.841  14.326  0.1749  0.6247 -0.0010
  325TMC3    C4 4933   0.112   4.098  14.273  0.0115  0.5735  0.3702
  325TMC3    C5 4934   0.002   4.052  14.224 -0.1244 -0.9619  0.2151
  325TMC3    C6 4935   4.684   3.928  14.253  0.5745  0.5888  0.0308
  325TMC3     C 4936   0.300   4.063  14.424 -0.5656 -0.0803 -0.1735
  325TMC3     O 4937   0.328   4.180  14.405 -0.3232  0.0842 -0.1178
  325TMC3     H 4938   0.212   3.801  14.411  0.5490  0.4951  0.8631
  325TMC3    H1 4939   0.147   4.196  14.243  0.5845  0.3119  0.1760
  325TMC3    H2 4940   4.605   3.893  14.187  0.8587  3.0054 -1.6344
  325TMC3    C7 4941   4.657   4.157  14.159  0.2470 -0.7627  0.0699
  325TMC3    C8 4942   4.712   3.700  14.338  0.5493 -0.4944 -0.3402
  325TMC3    O1 4943   4.717   4.243  14.096  0.3611  0.3146 -0.1091
  325TMC3    O2 4944   0.055   3.616  14.378  0.4724  0.3256 -0.0902
  326MPD2     C 4945   1.560   4.600  11.206  0.8216 -0.6968 -0.9269
  326MPD2    C1 4946   1.603   4.628  11.081  0.2883 -0.1215  0.7219
  326MPD2    C2 4947   1.730   4.680  11.064  0.1459  0.3564  0.5835
  326MPD2    C3 4948   1.816   4.694  11.173  0.2557  0.4865  0.7360
  326MPD2    C4 4949   1.769   4.670  11.299 -0.5711  0.0377  0.7486
  326MPD2    C5 4950   1.641   4.621  11.314  0.6555  0.0603  0.2329
  326MPD2     H 4951   1.769   4.711  10.967  0.5461  0.0815  0.6551
  326MPD2    H1 4952   1.824   4.688  11.391 -1.4915  1.6274  0.9826
  326MPD2    H2 4953   1.454   4.580  11.219  0.1961  2.7322 -0.8603
  326MPD2    H3 4954   1.608   4.611  11.417 -0.1830  0.0237 -0.0370
  326MPD2     N 4955   1.944   0.015  11.152  0.3109 -0.2311 -0.1752
  326MPD2    H5 4956   1.994   0.036  11.238  0.1107 -1.4076  0.2235
  326MPD2    N1 4957   1.511   4.622  10.972 -0.5538  0.0345 -0.0047
  326MPD2    H7 4958   1.414   4.601  10.993 -0.8715 -0.3146 -1.8231
  327TMC3    C1 4959   1.459   4.667  10.743 -0.5622 -0.7083  0.7063
  327TMC3    C2 4960   1.398   0.050  10.744  0.7628 -0.3730  0.2501
  327TMC3    C3 4961   1.370   0.106  10.626  0.1183 -0.6606  0.2827
  327TMC3    C4 4962   1.495   4.605  10.627  0.4244  0.2346 -0.5393
  327TMC3    C5 4963   1.484   4.674  10.511 -0.6688 -0.1714 -0.4961
  327TMC3    C6 4964   1.412   0.055  10.504  1.3154  0.6144  0.0977
  327TMC3     C 4965   1.556   4.640  10.840 -0.2887  0.1895 -0.1540
  327TMC3     O 4966   1.667   4.624  10.793 -0.0099  0.2005  0.7781
  327TMC3     H 4967   1.372   0.089  10.841 -0.1643 -0.9884  0.2499
  327TMC3    H1 4968   1.545   4.510  10.637  1.4830  0.9388  0.9276
  327TMC3    H2 4969   1.397   0.106  10.410  0.5876 -0.1328 -0.1909
  327TMC3    C7 4970   1.610   4.683  10.435  0.2717 -0.1657 -1.1389
  327TMC3    C8 4971   1.318   0.242  10.623  0.6391 -0.6487 -0.2856
  327TMC3    O1 4972   1.623   0.020  10.334  0.3187 -0.0074  0.2856
  327TMC3    O2 4973   1.347   0.317  10.531  0.0193 -0.2340  0.0230
  328MPD2     C 4974   3.611   0.264  17.282 -0.3086 -0.1526  0.1831
  328MPD2    C1 4975   3.485   0.225  17.250  0.3622 -0.1154  0.0775
  328MPD2    C2 4976   3.447   0.235  17.117  0.4229 -0.1156  0.5185
  328MPD2    C3 4977   3.529   0.284  17.018 -0.3039 -0.4486 -0.0766
  328MPD2    C4 4978   3.654   0.331  17.058 -0.2798 -0.6031  0.1056
  328MPD2    C5 4979   3.691   0.313  17.189  0.4571  0.2223  0.1800
  328MPD2     H 4980   3.345   0.212  17.091  0.7993 -0.6312 -0.4726
  328MPD2    H1 4981   3.736   0.347  16.990 -0.2761  0.5420  0.3722
  328MPD2    H2 4982   3.656   0.256  17.381  0.3944  1.0032 -0.0463
  328MPD2    H3 4983   3.791   0.349  17.208  0.5189 -0.3612  0.9554
  328MPD2     N 4984   3.501   0.290  16.880 -0.6273 -0.1871 -0.4096
  328MPD2    H5 4985   3.568   0.344  16.826 -0.1870 -2.4685 -2.1542
  328MPD2    N1 4986   3.394   0.184  17.351  0.3170  0.4353 -0.5082
  328MPD2    H7 4987   3.423   0.205  17.446  1.8802  1.8720 -1.3099
  329TMC3    C1 4988   3.189   0.120  17.451 -0.1578  0.5902  0.3459
  329TMC3    C2 4989   3.216   0.200  17.558  0.7878 -0.0198  0.0466
  329TMC3    C3 4990   3.131   0.189  17.669 -0.6616 -0.5456 -0.3555
  329TMC3    C4 4991   3.090   0.029  17.452 -0.5470 -0.5230  0.0861
  329TMC3    C5 4992   3.016   0.024  17.564  0.0209  0.3775  0.4954
  329TMC3    C6 4993   3.033   0.095  17.674 -0.4991  0.3415  0.0136
  329TMC3     C 4994   3.270   0.123  17.332 -0.1983 -0.0805 -0.3618
  329TMC3     O 4995   3.226   0.067  17.232  0.1394 -0.0162  0.3179
  329TMC3     H 4996   3.289   0.281  17.562 -0.5897  1.1744  0.9617
  329TMC3    H1 4997   3.065   4.695  17.374 -1.4146  1.0862 -1.1275
  329TMC3    H2 4998   2.961   0.104   0.007  1.1784 -0.6730  1.6089
  329TMC3    C7 4999   2.903   4.668  17.586  0.3416  0.4796 -0.2127
  329TMC3    C8 5000   3.150   0.275   0.035 -0.2193  0.5737  0.2921
  329TMC3    O1 5001   2.835   4.670  17.688 -0.8910 -0.9502  0.4531
  329TMC3    O2 5002   3.222   0.374   0.019 -0.2005 -0.1607  0.1192
  330TMC3    C1 5003   2.296   3.404   9.735 -0.3922 -0.8810  0.3086
  330TMC3    C2 5004   2.188   3.322   9.713 -0.8747  0.0472  0.5306
  330TMC3    C3 5005   2.220   3.190   9.720  0.3259  0.4079 -0.1702
  330TMC3    C4 5006   2.423   3.360   9.750 -0.3780 -0.0088 -0.3314
  330TMC3    C5 5007   2.447   3.226   9.746  0.3243  0.2668  0.0740
  330TMC3    C6 5008   2.349   3.137   9.731  0.1706 -0.1734 -0.2598
  330TMC3     C 5009   2.275   3.539   9.785 -0.0240 -0.3964  0.0948
  330TMC3     O 5010   2.362   3.595   9.853 -0.2084 -0.0329 -0.0703
  330TMC3     H 5011   2.090   3.360   9.687  0.7032  3.1486 -0.9112
  330TMC3    H1 5012   2.501   3.433   9.767  1.1448 -1.2047 -2.2876
  330TMC3    H2 5013   2.363   3.029   9.728 -0.7776 -0.3212  0.5156
  330TMC3    C7 5014   2.586   3.182   9.737  0.5315 -0.6141 -0.1340
  330TMC3    C8 5015   2.110   3.095   9.704  0.1713  1.0077 -0.7029
  330TMC3    O1 5016   2.663   3.237   9.815 -0.2844  0.2957  0.5431
  330TMC3    O2 5017   2.138   2.986   9.651  0.0779 -0.5049 -0.7385
  331MPD2     C 5018   0.811   3.425  13.239  0.2305  0.1219  0.0273
  331MPD2    C1 5019   0.808   3.463  13.106  0.0672 -0.3275 -0.0943
  331MPD2    C2 5020   0.717   3.394  13.019 -0.4131 -0.7146  0.4579
  331MPD2    C3 5021   0.618   3.309  13.070  0.0486 -0.3867  0.0404
  331MPD2    C4 5022   0.626   3.283  13.207  0.0020  0.0506  0.2388
  331MPD2    C5 5023   0.721   3.340  13.291 -0.1369 -0.0170 -0.0880
  331MPD2     H 5024   0.727   3.409  12.912 -2.5011 -2.5703 -0.0007
  331MPD2    H1 5025   0.562   3.212  13.258 -1.7654  0.8934 -0.8046
  331MPD2    H2 5026   0.878   3.460  13.317 -0.8010  0.3308  0.8119
  331MPD2    H3 5027   0.721   3.313  13.396 -1.1925 -0.1086 -0.1145
  331MPD2     N 5028   0.522   3.256  12.980 -0.0884  0.5118 -0.1618
  331MPD2    H5 5029   0.531   3.278  12.881  1.2930  1.0085  0.0723
  331MPD2    N1 5030   0.904   3.563  13.069  0.4018 -0.1196 -0.1898
  331MPD2    H7 5031   0.981   3.577  13.133 -1.8944  0.6558  2.4247
  332TMC3    C1 5032   0.339   3.126  12.891 -0.2151 -0.2478  0.5175
  332TMC3    C2 5033   0.316   3.217  12.789  0.0781  0.1329 -0.4394
  332TMC3    C3 5034   0.251   3.170  12.678 -0.2405  0.1946 -0.0497
  332TMC3    C4 5035   0.296   2.991  12.886  0.2704  1.0663  0.3007
  332TMC3    C5 5036   0.234   2.960  12.777 -0.1245  0.9335 -0.5761
  332TMC3    C6 5037   0.215   3.040  12.665 -0.6611 -0.2468 -0.3762
  332TMC3     C 5038   0.431   3.153  13.008 -0.2172 -0.2474 -0.7188
  332TMC3     O 5039   0.408   3.093  13.113  0.3977 -0.0761 -0.2783
  332TMC3     H 5040   0.350   3.320  12.800  1.0368 -0.4289  1.8279
  332TMC3    H1 5041   0.327   2.923  12.964 -0.7783 -0.5165 -0.6531
  332TMC3    H2 5042   0.194   3.000  12.566  1.3019  0.3647 -1.0519
  332TMC3    C7 5043   0.266   2.825  12.748 -0.1917  0.2531 -0.2110
  332TMC3    C8 5044   0.239   3.251  12.565 -0.0636  0.4597 -0.1931
  332TMC3    O1 5045   0.192   2.735  12.789 -0.2350 -0.1149 -0.2470
  332TMC3    O2 5046   0.339   3.312  12.529 -0.0024  0.1970 -0.4090
  333MPD2     C 5047   4.453   3.229  11.220  0.6499 -0.3205 -0.4005
  333MPD2    C1 5048   4.571   3.152  11.231 -0.3165 -0.3463 -0.1274
  333MPD2    C2 5049   4.561   3.026  11.291 -0.3284 -0.3100  0.3442
  333MPD2    C3 5050   4.438   2.970  11.323 -0.3209 -0.6508  0.2973
  333MPD2    C4 5051   4.325   3.041  11.304 -0.4293  0.0408 -0.6031
  333MPD2    C5 5052   4.337   3.164  11.239  0.0510 -0.4216  0.0009
  333MPD2     H 5053   4.650   2.965  11.302 -0.6137 -0.9202 -0.7839
  333MPD2    H1 5054   4.227   2.996  11.309 -0.2979 -0.1008  0.7982
  333MPD2    H2 5055   4.447   3.328  11.175 -1.3332  0.2370  1.1055
  333MPD2    H3 5056   4.245   3.215  11.215  0.2628  0.5042  1.1709
  333MPD2     N 5057   4.437   2.840  11.376 -0.0335  0.4419 -0.4006
  333MPD2    H5 5058   4.526   2.791  11.384 -0.0049  0.7929  1.5285
  333MPD2    N1 5059   4.693   3.218  11.200  0.4918  0.1736 -0.5386
  333MPD2    H7 5060   4.691   3.319  11.187 -2.2230  0.3642  1.2911
  334TMC3    C1 5061   0.189   3.236  11.164 -0.3979 -0.4434 -0.0697
  334TMC3    C2 5062   0.307   3.204  11.224  0.5549 -0.4601 -0.1984
  334TMC3    C3 5063   0.412   3.290  11.218 -0.0025  0.5683  0.3023
  334TMC3    C4 5064   0.179   3.345  11.080 -0.2279  0.0300  0.3967
  334TMC3    C5 5065   0.289   3.422  11.069  0.3441 -0.5427 -0.5699
  334TMC3    C6 5066   0.407   3.401  11.138 -0.2452 -0.0972 -0.0904
  334TMC3     C 5067   0.078   3.155  11.199 -0.3057  0.5627 -0.6659
  334TMC3     O 5068   0.104   3.038  11.220  0.4873  0.4366  0.1326
  334TMC3     H 5069   0.308   3.123  11.296 -2.0256 -2.1728 -2.1012
  334TMC3    H1 5070   0.088   3.383  11.033  1.4697  0.5765 -2.4433
  334TMC3    H2 5071   0.496   3.463  11.131 -0.3390 -0.0679 -1.0626
  334TMC3    C7 5072   0.283   3.542  11.005  0.2042 -0.3143  0.7258
  334TMC3    C8 5073   0.534   3.234  11.272  0.0563  0.1432 -0.2912
  334TMC3    O1 5074   0.347   3.632  11.053 -0.0352 -0.3886  0.3340
  334TMC3    O2 5075   0.515   3.170  11.371 -0.0759 -0.7624 -0.6960
  335TMC3    C1 5076   4.672   0.495  17.238  0.0912 -0.3288 -0.6623
  335TMC3    C2 5077   4.571   0.426  17.177  0.2495  0.6189 -0.1694
  335TMC3    C3 5078   4.594   0.303  17.125 -0.1492  0.4502 -0.4420
  335TMC3    C4 5079   0.064   0.437  17.257  0.4207 -0.2225 -0.4352
  335TMC3    C5 5080   0.081   0.310  17.209  0.9054  0.1379 -0.6045
  335TMC3    C6 5081   4.719   0.238  17.141 -0.1535 -0.3855  0.6688
  335TMC3     C 5082   4.612   0.589  17.341  0.1894 -0.1184 -0.2066
  335TMC3     O 5083   4.494   0.580  17.362 -0.2355 -0.5028 -0.3218
  335TMC3     H 5084   4.471   0.467  17.172  0.8716  2.2204  0.8227
  335TMC3    H1 5085   0.145   0.488  17.309 -0.5510 -1.3167  2.1694
  335TMC3    H2 5086   0.004   0.140  17.101  1.1517  0.0771  0.2726
  335TMC3    C7 5087   0.214   0.242  17.230  0.1119 -0.1449 -0.1694
  335TMC3    C8 5088   4.499   0.249  17.032  0.4632 -0.3966 -0.1788
  335TMC3    O1 5089   0.303   0.316  17.262 -0.2348  0.0648  0.0236
  335TMC3    O2 5090   4.407   0.328  17.005 -0.5155 -0.8014 -0.9508
  336MPD2     C 5091   4.340   2.448  16.379 -0.3364  0.9402  0.3307
  336MPD2    C1 5092   4.296   2.435  16.247  0.0619  0.7041 -0.7150
  336MPD2    C2 5093   4.313   2.312  16.189 -0.1550  0.1637 -0.3842
  336MPD2    C3 5094   4.356   2.202  16.264  0.0707  0.4862  0.7950
  336MPD2    C4 5095   4.411   2.226  16.397  0.4284  0.2799  0.7413
  336MPD2    C5 5096   4.394   2.348  16.449 -0.4791  0.1650 -0.1860
  336MPD2     H 5097   4.289   2.303  16.083 -1.3324 -0.7607 -0.0444
  336MPD2    H1 5098   4.447   2.141  16.453 -0.2808 -0.7611 -0.3869
  336MPD2    H2 5099   4.314   2.532  16.443 -0.9743  0.4425  0.7246
  336MPD2    H3 5100   4.410   2.368  16.554  1.4736 -1.5335 -0.1680
  336MPD2     N 5101   4.357   2.067  16.220  0.0182  0.1713  0.0751
  336MPD2    H5 5102   4.407   2.010  16.287  0.9900 -2.3433 -2.7756
  336MPD2    N1 5103   4.228   2.533  16.178 -1.0277  0.0347  0.5845
  336MPD2    H7 5104   4.177   2.500  16.097  0.7994 -0.1184 -0.5212
  337TMC3    C1 5105   4.122   2.747  16.165  0.1075  0.2214 -0.1547
  337TMC3    C2 5106   4.021   2.679  16.104  1.3069  0.3385 -0.0691
  337TMC3    C3 5107   3.933   2.762  16.043 -0.3405  0.0474 -0.0901
  337TMC3    C4 5108   4.142   2.879  16.164  0.7548  0.8142  0.3361
  337TMC3    C5 5109   4.057   2.954  16.084  1.0614  0.3929 -0.0054
  337TMC3    C6 5110   3.944   2.900  16.020 -0.0702 -0.7708 -0.1631
  337TMC3     C 5111   4.231   2.666  16.216 -0.4868  0.2423 -0.1003
  337TMC3     O 5112   4.305   2.716  16.297  0.6606  0.5809 -0.3257
  337TMC3     H 5113   4.004   2.572  16.107 -0.8008  0.6973  0.4855
  337TMC3    H1 5114   4.237   2.918  16.200  1.1117 -0.9147  1.2571
  337TMC3    H2 5115   3.863   2.969  15.997 -1.4238 -2.1307  0.5149
  337TMC3    C7 5116   4.120   3.076  16.038  0.4410  1.1380 -0.1271
  337TMC3    C8 5117   3.794   2.718  16.026  0.7896  0.1053  0.0746
  337TMC3    O1 5118   4.190   3.139  16.121 -1.0402  0.4077  0.2350
  337TMC3    O2 5119   3.758   2.614  16.084  0.0857 -0.3679  0.0137
  338MPD2     C 5120   4.118   2.957   0.726 -0.8167 -0.5753 -0.2383
  338MPD2    C1 5121   4.056   2.962   0.601 -0.1807  0.1372  0.3267
  338MPD2    C2 5122   3.930   3.021   0.599  0.6169 -0.6027  0.7228
  338MPD2    C3 5123   3.870   3.074   0.714 -0.2390 -0.2654  0.1351
  338MPD2    C4 5124   3.941   3.081   0.829 -0.0141  0.0653  0.0383
  338MPD2    C5 5125   4.066   3.034   0.834 -0.4254 -0.1409  0.3992
  338MPD2     H 5126   3.892   3.029   0.497  1.5313 -0.5618  0.3832
  338MPD2    H1 5127   3.898   3.126   0.917 -0.8296  2.0604 -1.3622
  338MPD2    H2 5128   4.214   2.910   0.744 -1.1640  0.1348  3.6215
  338MPD2    H3 5129   4.114   3.026   0.931 -1.5681 -0.0533  0.9714
  338MPD2     N 5130   3.740   3.130   0.701  0.0811 -0.2089 -0.2857
  338MPD2    H5 5131   3.696   3.125   0.610 -0.0825 -0.2498 -0.2053
  338MPD2    N1 5132   4.101   2.889   0.492 -0.2474  0.2278 -0.0633
  338MPD2    H7 5133   4.038   2.877   0.413 -0.5858  0.3635  0.1878
  339TMC3    C1 5134   3.524   3.200   0.740  0.6493  0.5309  0.1366
  339TMC3    C2 5135   3.436   3.109   0.794  1.2399 -0.5969  0.2124
  339TMC3    C3 5136   3.361   3.029   0.709 -0.2585 -0.3471  0.3481
  339TMC3    C4 5137   3.533   3.197   0.606  0.0709 -0.4669  0.5677
  339TMC3    C5 5138   3.477   3.101   0.524  0.1732 -0.8123 -1.0364
  339TMC3    C6 5139   3.385   3.016   0.575 -0.2436  0.1221  0.5722
  339TMC3     C 5140   3.659   3.184   0.794  0.0516  0.0437  0.1517
  339TMC3     O 5141   3.675   3.186   0.918  0.1735 -0.0362  0.0898
  339TMC3     H 5142   3.430   3.099   0.902  0.7528  1.8410  0.4070
  339TMC3    H1 5143   3.599   3.265   0.552 -0.7591  0.7829  1.1237
  339TMC3    H2 5144   3.324   2.948   0.516 -1.0786  1.6757 -0.3665
  339TMC3    C7 5145   3.536   3.083   0.395 -0.3404 -0.0878  0.4889
  339TMC3    C8 5146   3.252   2.957   0.770 -0.8693  0.0707  0.7943
  339TMC3    O1 5147   3.623   3.168   0.370 -0.3061 -0.1120  0.1036
  339TMC3    O2 5148   3.200   3.010   0.868  0.2257 -0.4857  0.1826
  340MPD2     C 5149   0.124   4.574  10.677  0.8738  0.3353 -0.4929
  340MPD2    C1 5150   0.211   4.563  10.572 -0.1159 -0.0873  0.6618
  340MPD2    C2 5151   0.331   4.635  10.576 -0.1279 -0.5014 -0.0076
  340MPD2    C3 5152   0.360   4.718  10.680 -0.2113  0.3868 -0.5099
  340MPD2    C4 5153   0.267   4.725  10.789 -0.3337  0.2637 -0.4341
  340MPD2    C5 5154   0.152   4.661  10.786  0.3566 -1.0247  0.1593
  340MPD2     H 5155   0.387   4.625  10.484  1.9480 -1.9676  1.4179
  340MPD2    H1 5156   0.269   0.056  10.873  1.2310  2.1284 -1.9970
  340MPD2    H2 5157   0.033   4.516  10.665 -0.9135  2.8503  0.9826
  340MPD2    H3 5158   0.087   4.668  10.872 -1.0947  0.0418 -1.0400
  340MPD2     N 5159   0.476   0.057  10.670 -0.1084 -0.3800  0.3439
  340MPD2    H5 5160   0.542   0.037  10.595 -2.8573 -0.4440 -2.0742
  340MPD2    N1 5161   0.199   4.469  10.467  0.4833 -0.3391  0.3485
  340MPD2    H7 5162   0.279   4.458  10.405 -0.6364  0.7946 -1.3015
  341TMC3    C1 5163   0.125   4.302  10.335 -0.4548  0.5166  0.8609
  341TMC3    C2 5164   0.082   4.170  10.340  0.0394  0.1320  0.3673
  341TMC3    C3 5165   0.058   4.115  10.222 -0.3359 -0.2220  0.4945
  341TMC3    C4 5166   0.134   4.378  10.225 -0.6087  0.1255  0.1339
  341TMC3    C5 5167   0.087   4.310  10.116  0.4105 -0.0691  0.3019
  341TMC3    C6 5168   0.056   4.181  10.103  0.3835 -0.3593  0.0543
  341TMC3     C 5169   0.104   4.373  10.463 -0.2356 -0.0057 -0.3090
  341TMC3     O 5170   0.039   4.326  10.556 -0.3397 -0.5614 -0.4128
  341TMC3     H 5171   0.082   4.110  10.430 -0.9913  2.0462  1.6574
  341TMC3    H1 5172   0.151   4.485  10.213  2.2396 -0.4106 -0.5970
  341TMC3    H2 5173   0.038   4.133  10.008 -0.8591 -0.7591  0.4983
  341TMC3    C7 5174   0.070   4.387   9.998 -0.5876 -0.2712 -0.0566
  341TMC3    C8 5175   0.031   3.972  10.224 -0.5661  0.4915 -0.4746
  341TMC3    O1 5176   0.166   4.459   9.960 -0.4832  0.4003 -0.2021
  341TMC3    O2 5177   4.735   3.923  10.333 -0.4416  0.2462  0.4154
  342MPD2     C 5178   2.629   2.977  17.490  0.6698 -0.7795  0.7519
  342MPD2    C1 5179   2.634   3.046  17.368  0.0322 -0.7214  0.1735
  342MPD2    C2 5180   2.577   3.174  17.362  0.7475  0.3830  0.1335
  342MPD2    C3 5181   2.549   3.245  17.482 -0.3128  0.0596  0.0781
  342MPD2    C4 5182   2.558   3.183  17.599 -0.8568  0.4204 -0.0386
  342MPD2    C5 5183   2.592   3.046  17.605  0.3388  0.3465  0.4764
  342MPD2     H 5184   2.586   3.227  17.268 -2.9303  2.5362  1.0060
  342MPD2    H1 5185   2.544   3.234  17.693  4.1695 -0.6878  1.3269
  342MPD2    H2 5186   2.663   2.875  17.501 -1.8933 -1.9813 -2.6414
  342MPD2    H3 5187   2.594   2.997  17.702 -1.7099  0.0018  0.3393
  342MPD2     N 5188   2.510   3.384  17.479  0.6025  0.1328 -0.3493
  342MPD2    H5 5189   2.478   3.425  17.567 -1.6744  0.6480 -1.4426
  342MPD2    N1 5190   2.682   2.993  17.252 -0.8231 -0.0212 -0.0387
  342MPD2    H7 5191   2.681   3.042  17.164 -1.5052  0.9872  0.5317
  343TMC3    C1 5192   2.797   2.840  17.101 -0.4286  0.4950  0.5652
  343TMC3    C2 5193   2.911   2.766  17.091 -0.3913 -0.0898  0.1759
  343TMC3    C3 5194   2.916   2.648  17.018 -0.2997  1.6123  0.0664
  343TMC3    C4 5195   2.686   2.775  17.044  0.9145 -0.5755  0.4472
  343TMC3    C5 5196   2.686   2.647  16.987 -0.3504 -0.2583  0.3344
  343TMC3    C6 5197   2.804   2.590  16.967  0.5563  0.3123 -0.4690
  343TMC3     C 5198   2.756   2.876  17.238  0.4385 -0.0938  0.4901
  343TMC3     O 5199   2.776   2.785  17.316  0.3793 -0.9122 -0.0272
  343TMC3     H 5200   2.993   2.809  17.147 -0.0097  1.3429 -1.4852
  343TMC3    H1 5201   2.589   2.813  17.074  1.0409  2.0254 -2.4096
  343TMC3    H2 5202   2.805   2.489  16.928 -0.3391 -0.9872  2.9213
  343TMC3    C7 5203   2.595   2.555  17.044 -0.4082 -0.2546  0.3900
  343TMC3    C8 5204   3.052   2.594  17.001 -0.3447  0.2635  0.4477
  343TMC3    O1 5205   2.552   2.456  16.986 -0.1385  0.2667 -0.6269
  343TMC3    O2 5206   3.135   2.672  17.050  0.1746  0.1671  0.1142
  344MPD2     C 5207   4.188   1.954  10.348  0.1345 -0.2106 -0.7148
  344MPD2    C1 5208   4.064   2.003  10.334  0.7221 -0.4842 -0.0036
  344MPD2    C2 5209   4.044   2.129  10.275  0.0309  0.2348 -0.0606
  344MPD2    C3 5210   4.156   2.207  10.242  0.4763 -0.0394 -0.2492
  344MPD2    C4 5211   4.281   2.156  10.274 -0.6489  0.4553  0.2273
  344MPD2    C5 5212   4.296   2.033  10.324 -0.8293 -0.4364  0.1859
  344MPD2     H 5213   3.938   2.151  10.266  0.0757 -0.2283 -1.7587
  344MPD2    H1 5214   4.375   2.202  10.246 -0.4580 -0.2693 -0.3368
  344MPD2    H2 5215   4.202   1.853  10.387 -0.1875  0.2941  0.7287
  344MPD2    H3 5216   4.399   2.004  10.339 -1.2104 -1.7604  0.2844
  344MPD2     N 5217   4.160   2.336  10.189  0.2653  0.2269  0.2492
  344MPD2    H5 5218   4.249   2.383  10.191  0.9788 -1.0498 -1.7179
  344MPD2    N1 5219   3.948   1.931  10.379 -0.2823  0.4652 -0.2652
  344MPD2    H7 5220   3.860   1.960  10.338 -1.5439 -1.7422  0.8867
  345TMC3    C1 5221   4.064   2.544  10.136  0.1226  0.3429  0.1770
  345TMC3    C2 5222   4.172   2.596  10.201  0.1192  0.0526  0.0372
  345TMC3    C3 5223   4.168   2.733  10.229  0.1147  0.4497  0.0861
  345TMC3    C4 5224   3.956   2.617  10.094  0.5171 -0.0865 -0.3580
  345TMC3    C5 5225   3.965   2.756  10.109  0.2373 -0.0420 -0.1407
  345TMC3    C6 5226   4.063   2.813  10.182 -0.3185 -0.6989  0.8585
  345TMC3     C 5227   4.047   2.402  10.136 -0.2753  0.0067 -0.4985
  345TMC3     O 5228   3.931   2.361  10.119 -0.6140  0.0469  0.2798
  345TMC3     H 5229   4.249   2.540  10.251  1.0109 -1.5942 -3.1887
  345TMC3    H1 5230   3.882   2.573  10.028  2.2110 -2.4030 -0.7125
  345TMC3    H2 5231   4.055   2.917  10.213  0.3135 -0.8767  1.6059
  345TMC3    C7 5232   3.876   2.846  10.038  0.0035 -0.2868 -0.9059
  345TMC3    C8 5233   4.276   2.809  10.291 -0.2662 -0.0138  0.4740
  345TMC3    O1 5234   3.890   2.959  10.076  0.2724 -0.2718  0.1189
  345TMC3    O2 5235   4.253   2.926  10.314 -0.0420  0.1188  0.0585
  346MPD2     C 5236   3.346   4.047  13.841  0.6426 -0.1330  0.1150
  346MPD2    C1 5237   3.450   3.963  13.872  0.6683 -0.4189 -0.5741
  346MPD2    C2 5238   3.525   3.983  13.990 -0.5149 -0.4510 -0.2666
  346MPD2    C3 5239   3.497   4.097  14.067  0.9045 -0.0460 -0.3047
  346MPD2    C4 5240   3.384   4.178  14.037 -0.1321  0.3031  0.0026
  346MPD2    C5 5241   3.318   4.156  13.922 -0.5950 -0.8808  0.2519
  346MPD2     H 5242   3.610   3.921  14.014 -1.2232 -0.8218  1.2864
  346MPD2    H1 5243   3.345   4.260  14.097 -0.7133 -0.1547  0.2380
  346MPD2    H2 5244   3.287   4.038  13.750  1.4631 -2.5311 -0.1710
  346MPD2    H3 5245   3.243   4.226  13.889  1.5001 -0.6457 -4.0282
  346MPD2     N 5246   3.581   4.122  14.180  0.0175 -0.6579  0.2945
  346MPD2    H5 5247   3.657   4.055  14.187 -0.5427 -1.5147 -1.7723
  346MPD2    N1 5248   3.485   3.855  13.779  0.1665 -0.2349  0.0694
  346MPD2    H7 5249   3.566   3.798  13.800  0.2074  0.1408  0.9221
  347TMC3    C1 5250   3.667   4.241  14.365  0.7424 -0.1106 -0.0358
  347TMC3    C2 5251   3.796   4.241  14.309  0.5626  0.0581 -0.6038
  347TMC3    C3 5252   3.891   4.263  14.404 -0.5110  0.3943  0.2248
  347TMC3    C4 5253   3.638   4.294  14.492 -0.5478 -0.0687  0.5522
  347TMC3    C5 5254   3.742   4.307  14.574  0.0126 -0.2924 -0.8022
  347TMC3    C6 5255   3.873   4.296  14.531  0.7927 -0.3177 -0.2324
  347TMC3     C 5256   3.563   4.228  14.274 -0.0610  0.6863 -0.6175
  347TMC3     O 5257   3.473   4.311  14.287  0.0570  0.3397  0.4358
  347TMC3     H 5258   3.821   4.206  14.210  1.3315 -1.8072  0.2423
  347TMC3    H1 5259   3.534   4.304  14.519  0.0085  2.0525  1.9211
  347TMC3    H2 5260   3.954   4.299  14.603  1.6374  0.3420 -1.2227
  347TMC3    C7 5261   3.710   4.348  14.715 -0.1438 -0.0960 -0.7214
  347TMC3    C8 5262   4.033   4.235  14.374 -0.6637 -0.1714 -0.0362
  347TMC3    O1 5263   3.593   4.343  14.749  0.1932 -0.0574  0.3604
  347TMC3    O2 5264   4.108   4.183  14.454 -0.3665  0.4916  0.7088
  348MPD2     C 5265   2.247   3.545  12.256 -0.2444  0.6265 -0.0693
  348MPD2    C1 5266   2.360   3.579  12.178 -0.1834 -0.5796  0.0124
  348MPD2    C2 5267   2.338   3.660  12.064  0.9010 -0.8145  0.2278
  348MPD2    C3 5268   2.213   3.702  12.029  0.8097  0.8102  0.1610
  348MPD2    C4 5269   2.099   3.658  12.104  0.4927  0.0855  0.4395
  348MPD2    C5 5270   2.123   3.585  12.221  0.7082 -0.0404  0.0035
  348MPD2     H 5271   2.427   3.694  12.013 -0.5442 -1.3850 -2.6884
  348MPD2    H1 5272   1.998   3.691  12.081 -0.0139 -0.7742  1.4252
  348MPD2    H2 5273   2.259   3.486  12.346 -1.8874 -2.3251 -1.7990
  348MPD2    H3 5274   2.039   3.568  12.288  1.3877 -0.6051  0.7149
  348MPD2     N 5275   2.203   3.789  11.916  0.0225 -0.4875 -0.4847
  348MPD2    H5 5276   2.291   3.829  11.886 -1.1412  1.0441 -1.8823
  348MPD2    N1 5277   2.493   3.551  12.220 -0.4242 -0.1964 -0.3251
  348MPD2    H7 5278   2.570   3.604  12.183  1.1038 -1.9540  0.3173
  349TMC3    C1 5279   2.670   3.431  12.312  0.0890 -1.1212 -0.0268
  349TMC3    C2 5280   2.703   3.296  12.303 -0.6934  0.5791 -0.9287
  349TMC3    C3 5281   2.809   3.259  12.225 -0.5105  0.1129 -0.1708
  349TMC3    C4 5282   2.737   3.526  12.238 -0.3894 -0.3292 -0.0073
  349TMC3    C5 5283   2.831   3.481  12.144 -0.4290  0.1207 -0.7468
  349TMC3    C6 5284   2.875   3.353  12.146  0.0838  0.8217 -0.5366
  349TMC3     C 5285   2.528   3.447  12.313 -0.1329 -0.0139  0.5591
  349TMC3     O 5286   2.463   3.355  12.362 -0.1148 -0.1534  0.5861
  349TMC3     H 5287   2.647   3.214  12.347 -1.3134  1.6574  0.2805
  349TMC3    H1 5288   2.720   3.632  12.248  0.2238 -0.0684 -1.6812
  349TMC3    H2 5289   2.957   3.325  12.080  0.1512  3.3046 -1.5093
  349TMC3    C7 5290   2.814   3.520  12.005 -0.1954 -0.1371  0.0509
  349TMC3    C8 5291   2.867   3.129  12.237  0.7063 -0.5211  0.3026
  349TMC3    O1 5292   2.781   3.443  11.919  0.2510 -0.3767  0.1726
  349TMC3    O2 5293   2.989   3.115  12.259  0.0157 -0.5611  0.2356
  350MPD2     C 5294   1.082   1.657  10.095  0.0322 -0.9070 -0.3932
  350MPD2    C1 5295   1.120   1.528  10.132 -0.0472 -0.4628 -0.2957
  350MPD2    C2 5296   1.197   1.509  10.244  0.8585  0.4806  0.7470
  350MPD2    C3 5297   1.242   1.627  10.305  0.5528 -0.1938 -0.4192
  350MPD2    C4 5298   1.207   1.759  10.272  0.2810  0.5095 -0.5353
  350MPD2    C5 5299   1.122   1.771  10.164 -0.4597 -1.2458 -0.1143
  350MPD2     H 5300   1.211   1.412  10.291 -1.6226 -0.3687 -0.2722
  350MPD2    H1 5301   1.243   1.844  10.328 -0.5760 -0.2416  1.1498
  350MPD2    H2 5302   1.013   1.668  10.012 -1.0835  0.3260  0.6911
  350MPD2    H3 5303   1.082   1.869  10.139  0.0827 -0.9122  0.3421
  350MPD2     N 5304   1.315   1.604  10.426 -0.0657 -0.5247 -0.0802
  350MPD2    H5 5305   1.314   1.511  10.464  0.0355 -0.0153  1.1666
  350MPD2    N1 5306   1.077   1.414  10.063 -0.0795 -0.5054  0.1743
  350MPD2    H7 5307   1.124   1.325  10.072 -0.5011 -0.7262  0.1609
  351TMC3    C1 5308   0.970   1.289   9.902 -0.0436  0.4843  0.0549
  351TMC3    C2 5309   1.082   1.220   9.874  0.1157  0.1958  0.5240
  351TMC3    C3 5310   1.059   1.099   9.813 -0.4543  0.1374  0.6287
  351TMC3    C4 5311   0.842   1.260   9.861  0.1462  0.3579  0.8766
  351TMC3    C5 5312   0.830   1.142   9.796 -0.2000 -0.2887  0.0027
  351TMC3    C6 5313   0.937   1.052   9.779  0.3669  0.4356 -0.6730
  351TMC3     C 5314   0.973   1.413   9.972  0.0885 -0.4774 -0.8131
  351TMC3     O 5315   0.893   1.499   9.944 -0.4341  0.5426 -0.0389
  351TMC3     H 5316   1.179   1.270   9.873  0.1708  0.0590 -1.1284
  351TMC3    H1 5317   0.761   1.331   9.866  0.4583  0.8119 -0.5893
  351TMC3    H2 5318   0.914   0.960   9.727  1.0675 -0.6668  0.9440
  351TMC3    C7 5319   0.692   1.108   9.767  0.1298 -0.2126  0.2816
  351TMC3    C8 5320   1.171   1.025   9.759  0.3980  0.6070  0.2028
  351TMC3    O1 5321   0.609   1.148   9.848 -0.3826  0.3074  0.0390
  351TMC3    O2 5322   1.150   0.954   9.661  0.2014 -0.0426  0.5807
  352MPD2     C 5323   0.027   4.609   0.795  0.3632  0.2390 -0.3585
  352MPD2    C1 5324   4.691   4.510   0.731 -0.0940 -0.1299 -0.3217
  352MPD2    C2 5325   0.020   4.392   0.732 -0.3005  0.0086  0.4945
  352MPD2    C3 5326   0.152   4.379   0.784  0.3670  0.6813  0.2463
  352MPD2    C4 5327   0.222   4.493   0.833 -0.3033 -0.1621 -0.8358
  352MPD2    C5 5328   0.152   4.609   0.849  0.5823  0.8114 -0.2991
  352MPD2     H 5329   4.704   4.304   0.698  1.0566 -1.3228  1.8782
  352MPD2    H1 5330   0.317   4.477   0.884 -1.6203  0.0651  1.6535
  352MPD2    H2 5331   4.705   4.700   0.797 -1.8385 -1.2288  1.2999
  352MPD2    H3 5332   0.188   4.692   0.909 -0.5492  0.4283  0.8942
  352MPD2     N 5333   0.218   4.253   0.767 -0.0924 -0.1819 -0.0904
  352MPD2    H5 5334   0.317   4.249   0.791  0.3750 -4.0716 -2.7190
  352MPD2    N1 5335   4.568   4.531   0.673  0.3008 -0.0740 -1.0159
  352MPD2    H7 5336   4.520   4.618   0.693 -0.1645 -0.2190 -1.5201
  353TMC3    C1 5337   0.254   4.049   0.651  0.4299  0.1118  0.2531
  353TMC3    C2 5338   0.334   3.978   0.739 -0.3520 -0.4592  0.4429
  353TMC3    C3 5339   0.323   3.841   0.733 -0.2475  0.0342 -1.2178
  353TMC3    C4 5340   0.176   3.989   0.556  0.5321  0.4425  0.8275
  353TMC3    C5 5341   0.169   3.850   0.560  0.3751 -0.4265  0.4982
  353TMC3    C6 5342   0.239   3.775   0.648  0.2482  0.2395  0.1894
  353TMC3     C 5343   0.158   4.131   0.727  0.4250  0.9933 -0.5725
  353TMC3     O 5344   0.040   4.103   0.702  0.3270  0.0134 -0.7514
  353TMC3     H 5345   0.395   4.035   0.808 -0.4904  0.1123  0.0882
  353TMC3    H1 5346   0.116   4.046   0.486  1.5930  0.5717  0.0378
  353TMC3    H2 5347   0.227   3.668   0.659  0.9312  0.0378 -1.0746
  353TMC3    C7 5348   0.050   3.803   0.493 -0.6338  0.5439 -0.0864
  353TMC3    C8 5349   0.392   3.774   0.835  0.0160 -0.3004 -0.0119
  353TMC3    O1 5350   0.043   3.687   0.457 -0.3803 -0.2666 -0.8278
  353TMC3    O2 5351   0.430   3.850   0.923 -0.2474  0.4176 -0.3096
  354TMC3    C1 5352   1.849   0.342  13.472  0.0616 -0.1167  0.7384
  354TMC3    C2 5353   1.842   0.477  13.466  0.0075 -0.3835  0.0100
  354TMC3    C3 5354   1.887   0.540  13.352  0.3054 -0.9512  0.1316
  354TMC3    C4 5355   1.916   0.274  13.370 -0.0445  0.1712 -0.2296
  354TMC3    C5 5356   1.944   0.341  13.257 -0.3940  1.1618 -0.4249
  354TMC3    C6 5357   1.931   0.474  13.241  0.6489  0.0070 -0.1786
  354TMC3     C 5358   1.846   0.286  13.606  0.1247  0.7113 -0.0835
  354TMC3     O 5359   1.789   0.353  13.692  0.5786 -0.0784  0.6568
  354TMC3     H 5360   1.772   0.531  13.530 -0.6154 -1.3785  0.1741
  354TMC3    H1 5361   1.901   0.167  13.371  1.0011  0.0293  0.2547
  354TMC3    H2 5362   1.970   0.523  13.152  0.8139  1.1251  0.5121
  354TMC3    C7 5363   1.947   0.254  13.134  0.0999  0.2467  0.7992
  354TMC3    C8 5364   1.844   0.675  13.331 -0.2041  0.2647  0.2516
  354TMC3    O1 5365   1.869   0.157  13.137  0.4279 -0.0388  0.0212
  354TMC3    O2 5366   1.847   0.755  13.425 -0.5906 -0.1819  0.4778
  355MPD2     C 5367   1.667   0.912  11.511  0.2354 -0.4580 -0.4020
  355MPD2    C1 5368   1.755   0.920  11.406 -0.4180 -0.3388 -0.5533
  355MPD2    C2 5369   1.888   0.898  11.427 -0.8041  0.2458  0.6977
  355MPD2    C3 5370   1.934   0.907  11.555  0.1024 -0.0539  0.6113
  355MPD2    C4 5371   1.849   0.920  11.661  0.1179  0.1474 -0.2593
  355MPD2    C5 5372   1.718   0.912  11.640 -0.1427 -0.1652 -0.0241
  355MPD2     H 5373   1.951   0.893  11.338  0.3718 -0.3830  1.5656
  355MPD2    H1 5374   1.883   0.934  11.763  2.7069  0.0524 -1.1093
  355MPD2    H2 5375   1.560   0.920  11.495 -0.1840 -1.0601  2.0978
  355MPD2    H3 5376   1.644   0.913  11.720 -1.1759 -0.8815 -0.9785
  355MPD2     N 5377   2.080   0.913  11.577  0.1616  0.4382  0.1173
  355MPD2    H5 5378   2.109   0.916  11.674  0.6990  1.0472 -0.0641
  355MPD2    N1 5379   1.700   0.925  11.275  0.6290  0.0652 -0.4477
  355MPD2    H7 5380   1.605   0.892  11.264  0.6936 -0.3499  0.2718
  356TMC3    C1 5381   2.303   0.974  11.519  0.0336  0.0331  0.4529
  356TMC3    C2 5382   2.406   0.954  11.431  0.3272 -0.8401  0.0868
  356TMC3    C3 5383   2.523   1.016  11.464  0.2751  0.5128  0.3906
  356TMC3    C4 5384   2.327   1.024  11.645  0.6322 -0.0864 -0.1947
  356TMC3    C5 5385   2.449   1.081  11.673  0.2343  0.3403 -0.5042
  356TMC3    C6 5386   2.549   1.087  11.584  0.1608  0.0001 -0.2275
  356TMC3     C 5387   2.177   0.920  11.480  0.1573 -0.7767 -0.9305
  356TMC3     O 5388   2.169   0.878  11.364  0.3756  0.1944  0.5722
  356TMC3     H 5389   2.392   0.892  11.344  0.6847  1.5148 -1.6472
  356TMC3    H1 5390   2.248   1.027  11.719 -0.4562 -2.2259 -1.2820
  356TMC3    H2 5391   2.652   1.114  11.608  0.1416 -0.5692  0.4839
  356TMC3    C7 5392   2.461   1.131  11.810 -0.0983  0.1644 -0.4873
  356TMC3    C8 5393   2.630   1.013  11.361  0.9957 -0.0134 -0.5580
  356TMC3    O1 5394   2.374   1.096  11.889 -0.2668 -0.3372 -0.2690
  356TMC3    O2 5395   2.658   0.911  11.306 -0.0381 -0.3107 -0.0623
  357MPD2     C 5396   1.110   1.475   0.808 -0.0610  0.6418  0.2052
  357MPD2    C1 5397   1.238   1.453   0.825 -0.8933 -0.2832 -0.3200
  357MPD2    C2 5398   1.318   1.557   0.873  0.1500  0.2224 -0.0771
  357MPD2    C3 5399   1.266   1.674   0.916 -0.1070 -0.7309 -0.3894
  357MPD2    C4 5400   1.130   1.699   0.907  0.9963 -0.0686  0.2462
  357MPD2    C5 5401   1.057   1.603   0.831 -0.3955 -0.2387  0.4952
  357MPD2     H 5402   1.427   1.553   0.869  0.0482 -2.0204 -0.4540
  357MPD2    H1 5403   1.080   1.787   0.945 -0.0931 -0.7927  0.4722
  357MPD2    H2 5404   1.052   1.396   0.761  0.5412 -0.1698  0.8308
  357MPD2    H3 5405   0.953   1.621   0.807 -0.3410 -2.6355 -1.4548
  357MPD2     N 5406   1.345   1.775   0.975 -0.1808 -0.0907  0.2721
  357MPD2    H5 5407   1.306   1.868   0.981  0.9325  0.4057 -0.2627
  357MPD2    N1 5408   1.287   1.326   0.797 -0.1383 -0.2389 -0.3463
  357MPD2    H7 5409   1.214   1.267   0.758  0.2091 -1.1730  0.4388
  358TMC3    C1 5410   1.423   1.137   0.784 -0.6740  0.4484 -0.2207
  358TMC3    C2 5411   1.328   1.070   0.717  0.8244 -0.6310 -0.8781
  358TMC3    C3 5412   1.347   0.941   0.684  0.4259 -0.4068 -0.6665
  358TMC3    C4 5413   1.545   1.073   0.803 -0.2775 -0.0058 -0.3025
  358TMC3    C5 5414   1.567   0.943   0.767  0.6369  0.0533 -0.0094
  358TMC3    C6 5415   1.465   0.870   0.705  0.0853  0.2752 -0.0638
  358TMC3     C 5416   1.410   1.276   0.817 -0.1046  0.3424  0.3239
  358TMC3     O 5417   1.501   1.314   0.893 -0.2005 -0.1526 -0.3973
  358TMC3     H 5418   1.238   1.119   0.683  1.2557  0.4774 -0.4171
  358TMC3    H1 5419   1.630   1.127   0.844 -0.0911  0.2023 -0.9669
  358TMC3    H2 5420   1.481   0.776   0.654  0.8673 -0.2340  1.1286
  358TMC3    C7 5421   1.706   0.906   0.735 -0.2229  0.0461  0.4451
  358TMC3    C8 5422   1.240   0.874   0.612 -0.2949 -0.4324 -0.2769
  358TMC3    O1 5423   1.788   0.996   0.737 -0.5727 -0.4277  0.1183
  358TMC3    O2 5424   1.172   0.926   0.525 -0.1416  0.0019 -0.4595
  359MPD2     C 5425   1.627   0.222  12.094  0.6646 -0.8367 -0.6040
  359MPD2    C1 5426   1.615   0.122  12.002  0.4867  0.3375  0.8437
  359MPD2    C2 5427   1.507   0.035  12.006 -0.3185 -0.3358 -0.1869
  359MPD2    C3 5428   1.410   0.046  12.102  0.8523  0.1893  0.2212
  359MPD2    C4 5429   1.418   0.150  12.194  0.0093 -0.0973  0.3027
  359MPD2    C5 5430   1.528   0.236  12.188 -0.0711  0.0402  0.1061
  359MPD2     H 5431   1.498   4.704  11.922 -1.5709 -0.5893  0.1406
  359MPD2    H1 5432   1.346   0.162  12.274 -1.0219  0.6502 -0.7348
  359MPD2    H2 5433   1.717   0.282  12.091  0.6535 -0.7525  0.6916
  359MPD2    H3 5434   1.548   0.311  12.263  3.9072 -0.0994 -0.7980
  359MPD2     N 5435   1.307   4.685  12.125  0.0264  0.1348  0.3025
  359MPD2    H5 5436   1.249   4.704  12.207 -0.6109 -2.6498  0.4967
  359MPD2    N1 5437   1.715   0.092  11.905  0.0143  0.0029  0.0642
  359MPD2    H7 5438   1.692   0.018  11.838 -3.2879  0.3267  0.8295
  360TMC3    C1 5439   1.935   0.082  11.824 -0.5105  0.3546  0.1336
  360TMC3    C2 5440   2.063   0.109  11.857 -0.4192  0.1586  0.1298
  360TMC3    C3 5441   2.169   0.026  11.818  0.2892 -0.1260  0.1345
  360TMC3    C4 5442   1.908   4.703  11.756 -0.5076 -0.4492  0.6121
  360TMC3    C5 5443   2.013   4.610  11.727 -0.2001 -0.2510 -1.1962
  360TMC3    C6 5444   2.146   4.645  11.753  0.1885  0.8763  0.0051
  360TMC3     C 5445   1.830   0.159  11.883  0.4163 -0.5402 -0.1410
  360TMC3     O 5446   1.864   0.262  11.935  0.5156  0.1867 -0.2119
  360TMC3     H 5447   2.088   0.187  11.928  3.4547  0.2627 -1.3452
  360TMC3    H1 5448   1.802   4.680  11.745 -0.0785 -1.6634 -0.9332
  360TMC3    H2 5449   2.226   4.578  11.722  2.4353  1.5909  4.2329
  360TMC3    C7 5450   1.986   4.479  11.670 -0.6851 -0.2183  1.0175
  360TMC3    C8 5451   2.302   0.080  11.835  0.9661  0.2350  0.6289
  360TMC3    O1 5452   2.085   4.412  11.653  0.4056  0.3385  0.1840
  360TMC3    O2 5453   2.310   0.200  11.856  0.5200  0.0697  1.1834
  361MPD2     C 5454   3.028   3.139  16.495  0.3890  0.1253  0.3332
  361MPD2    C1 5455   3.092   3.258  16.530  0.4262 -0.3427  0.0230
  361MPD2    C2 5456   3.228   3.274  16.520 -0.4176  0.1582 -0.0293
  361MPD2    C3 5457   3.312   3.167  16.478 -0.2105  0.5637  0.1438
  361MPD2    C4 5458   3.246   3.049  16.451  0.1671  0.0843  0.0038
  361MPD2    C5 5459   3.108   3.037  16.455 -0.7223  0.3641 -0.9511
  361MPD2     H 5460   3.274   3.368  16.547  0.7848 -0.7647  1.1122
  361MPD2    H1 5461   3.294   2.956  16.424 -1.2814 -1.2706  2.1942
  361MPD2    H2 5462   2.921   3.125  16.499  0.7780 -2.1679  2.2381
  361MPD2    H3 5463   3.055   2.948  16.423  0.2968 -0.5342 -0.1406
  361MPD2     N 5464   3.452   3.189  16.463  0.3582  0.6711 -0.1258
  361MPD2    H5 5465   3.499   3.112  16.417  1.3033  0.8601  0.5404
  361MPD2    N1 5466   3.010   3.371  16.567 -0.3513 -0.0575 -0.0222
  361MPD2    H7 5467   3.058   3.460  16.562  1.0399 -0.8311 -0.3209
  362TMC3    C1 5468   2.816   3.498  16.614  0.1260 -0.0035  0.9149
  362TMC3    C2 5469   2.713   3.514  16.699 -0.3150  0.4819  0.2456
  362TMC3    C3 5470   2.645   3.636  16.690 -0.0746 -0.0021 -0.1952
  362TMC3    C4 5471   2.837   3.573  16.503  0.1991  0.7878  0.6492
  362TMC3    C5 5472   2.763   3.687  16.492  0.4012 -0.2340 -0.6843
  362TMC3    C6 5473   2.667   3.726  16.588 -0.5025 -0.4638  0.6342
  362TMC3     C 5474   2.877   3.367  16.604  0.0731 -0.1899  0.2057
  362TMC3     O 5475   2.808   3.280  16.654  0.4713 -0.4836 -0.1182
  362TMC3     H 5476   2.709   3.447  16.785  2.6155  2.3573  1.8280
  362TMC3    H1 5477   2.908   3.550  16.425  0.5219 -1.3290  1.5508
  362TMC3    H2 5478   2.615   3.819  16.571  0.6364  0.4287  2.0353
  362TMC3    C7 5479   2.764   3.765  16.369  0.0674  0.3832 -0.7425
  362TMC3    C8 5480   2.554   3.657  16.798  0.0329 -0.9184  1.4393
  362TMC3    O1 5481   2.761   3.884  16.377 -0.3840  0.6492 -0.0149
  362TMC3    O2 5482   2.522   3.563  16.870  0.1020  0.7260 -0.0840
  363TMC3    C1 5483   2.767   1.031   9.507  1.0659  0.5296  0.8534
  363TMC3    C2 5484   2.798   0.898   9.501 -0.3965 -0.1177  0.2244
  363TMC3    C3 5485   2.703   0.804   9.528 -0.2211  0.2256  0.0487
  363TMC3    C4 5486   2.643   1.077   9.545  0.3180  0.3398 -0.1742
  363TMC3    C5 5487   2.556   0.983   9.582 -0.8576 -0.2767 -0.8270
  363TMC3    C6 5488   2.576   0.845   9.587  0.1706 -0.5807  0.6663
  363TMC3     C 5489   2.873   1.131   9.483  0.1111 -0.1586  0.4994
  363TMC3     O 5490   2.837   1.240   9.437 -0.2573 -0.1309  0.1313
  363TMC3     H 5491   2.891   0.868   9.455 -1.9772 -1.6643 -1.9939
  363TMC3    H1 5492   2.633   1.183   9.565 -0.1010  0.3570 -0.4716
  363TMC3    H2 5493   2.502   0.767   9.600  1.2423 -1.3981  1.7455
  363TMC3    C7 5494   2.418   1.037   9.580  0.0507 -0.2091  0.4486
  363TMC3    C8 5495   2.749   0.675   9.565  0.2994 -0.3446 -0.0414
  363TMC3    O1 5496   2.402   1.148   9.534  0.4842  0.1961  0.1623
  363TMC3    O2 5497   2.669   0.584   9.559 -0.0890  0.9273  0.0111
  364MPD2     C 5498   1.083   0.647  10.825 -0.2878  0.1699  0.7772
  364MPD2    C1 5499   1.174   0.641  10.727 -0.1909  0.6226 -0.4384
  364MPD2    C2 5500   1.222   0.515  10.696  0.6022  0.2613 -0.0578
  364MPD2    C3 5501   1.195   0.400  10.764 -0.1695 -0.0343 -0.4291
  364MPD2    C4 5502   1.112   0.413  10.877 -0.2654 -0.0026 -0.2326
  364MPD2    C5 5503   1.055   0.535  10.901  0.5421  0.2527  0.0146
  364MPD2     H 5504   1.279   0.518  10.604 -2.1638  0.0188 -1.8102
  364MPD2    H1 5505   1.093   0.327  10.941  0.2921  0.2498  0.2635
  364MPD2    H2 5506   1.021   0.732  10.851 -1.8655  0.0092 -2.4500
  364MPD2    H3 5507   0.996   0.550  10.991 -0.5650 -1.5066 -0.4147
  364MPD2     N 5508   1.245   0.272  10.734 -0.3369  0.9769 -0.8176
  364MPD2    H5 5509   1.226   0.190  10.791  3.3484  1.1412  0.6184
  364MPD2    N1 5510   1.206   0.762  10.650 -0.4879  0.0031  0.0480
  364MPD2    H7 5511   1.160   0.847  10.683  0.9892  1.3225 -1.2805
  365TMC3    C1 5512   1.326   0.903  10.509 -1.0500  0.9325 -0.0069
  365TMC3    C2 5513   1.456   0.911  10.448  0.0820 -0.3036  0.2723
  365TMC3    C3 5514   1.503   1.028  10.406 -0.0858 -0.0730  0.2037
  365TMC3    C4 5515   1.245   1.013  10.534 -0.0249 -0.0830  0.5317
  365TMC3    C5 5516   1.297   1.132  10.488  0.0099 -0.6499  0.4202
  365TMC3    C6 5517   1.423   1.141  10.426  0.0066 -0.8004  0.1667
  365TMC3     C 5518   1.310   0.770  10.556 -0.3220  0.2024  0.6352
  365TMC3     O 5519   1.405   0.690  10.541 -0.8530  0.5270 -0.1785
  365TMC3     H 5520   1.526   0.829  10.441 -1.1910 -1.4447  0.7346
  365TMC3    H1 5521   1.150   1.000  10.584  0.4138 -0.7099  1.2204
  365TMC3    H2 5522   1.465   1.240  10.413  0.4238 -1.1608 -1.2661
  365TMC3    C7 5523   1.243   1.252  10.541  0.0018  0.1136  0.4156
  365TMC3    C8 5524   1.633   1.042  10.343  0.0678 -0.0852  0.2959
  365TMC3    O1 5525   1.305   1.355  10.515  0.0384  0.2693  0.8388
  365TMC3    O2 5526   1.683   1.152  10.361  0.2637  0.1293  0.3538
  366MPD2     C 5527   3.883   1.478  14.692 -0.0550  0.9467 -0.6706
  366MPD2    C1 5528   3.909   1.518  14.824  0.2232  0.0537 -0.1328
  366MPD2    C2 5529   4.030   1.478  14.885 -0.5717  0.8689 -0.4776
  366MPD2    C3 5530   4.129   1.422  14.811  0.6798 -0.1895 -0.2215
  366MPD2    C4 5531   4.102   1.389  14.677 -0.4825  0.3112  0.6459
  366MPD2    C5 5532   3.983   1.421  14.622 -0.3624  0.3802 -0.1716
  366MPD2     H 5533   4.040   1.506  14.989 -0.2391 -0.9294 -0.0229
  366MPD2    H1 5534   4.170   1.328  14.619 -1.6534  1.1749 -1.6039
  366MPD2    H2 5535   3.795   1.519  14.643 -1.3482 -1.1245 -0.0921
  366MPD2    H3 5536   3.956   1.399  14.519 -0.5013  0.6110 -0.1850
  366MPD2     N 5537   4.261   1.412  14.868  0.2354  0.3229  0.4647
  366MPD2    H5 5538   4.271   1.432  14.967 -0.1806 -0.4983  0.6732
  366MPD2    N1 5539   3.826   1.597  14.912 -0.3908  0.7133  0.3589
  366MPD2    H7 5540   3.853   1.572  15.007  0.5528  0.6062  0.0594
  367TMC3    C1 5541   3.647   1.734  14.995 -0.2749 -0.0890 -0.1075
  367TMC3    C2 5542   3.711   1.722  15.113 -0.0090 -0.5018 -0.1932
  367TMC3    C3 5543   3.711   1.824  15.198 -0.0107 -0.5905 -0.1923
  367TMC3    C4 5544   3.574   1.847  14.958 -0.1288 -0.3267  0.1054
  367TMC3    C5 5545   3.579   1.950  15.053  0.1724  0.8460 -0.2917
  367TMC3    C6 5546   3.657   1.938  15.166  0.3911  0.2081 -0.3045
  367TMC3     C 5547   3.711   1.667  14.880  0.0859 -0.1599  0.5168
  367TMC3     O 5548   3.664   1.686  14.769  0.1644  0.3610 -0.1968
  367TMC3     H 5549   3.778   1.642  15.140 -0.8792 -1.9989 -2.5379
  367TMC3    H1 5550   3.530   1.859  14.859  3.5537  0.6167 -1.4482
  367TMC3    H2 5551   3.644   2.018  15.238  0.5707 -0.7871  0.8167
  367TMC3    C7 5552   3.540   2.091  15.025  0.0959 -0.3082 -0.0585
  367TMC3    C8 5553   3.841   1.846  15.260  0.0022 -0.0230  0.3964
  367TMC3    O1 5554   3.604   2.182  15.075  0.2082  0.2348  0.2742
  367TMC3    O2 5555   3.915   1.754  15.296  0.0360  0.4794  0.3648
  368MPD2     C 5556   1.142   3.532  13.366 -0.2070 -0.1976 -0.1121
  368MPD2    C1 5557   1.097   3.643  13.305 -0.0073  0.0308  0.6272
  368MPD2    C2 5558   1.160   3.692  13.194 -0.4518  0.8597  0.5096
  368MPD2    C3 5559   1.282   3.639  13.145  0.5787  0.0178 -0.7061
  368MPD2    C4 5560   1.326   3.528  13.213 -0.0947  1.1005 -0.2979
  368MPD2    C5 5561   1.256   3.476  13.314 -0.3760 -0.2163 -0.4057
  368MPD2     H 5562   1.125   3.780  13.142  0.7671  0.9520 -0.1564
  368MPD2    H1 5563   1.421   3.480  13.193  1.0452  2.2037  2.4395
  368MPD2    H2 5564   1.095   3.488  13.454  0.6411 -3.2897 -1.1896
  368MPD2    H3 5565   1.295   3.388  13.365 -2.0526 -0.7274  0.0041
  368MPD2     N 5566   1.351   3.684  13.032  0.1757  0.3932  0.2534
  368MPD2    H5 5567   1.421   3.628  12.985 -1.5094 -2.3262  0.9985
  368MPD2    N1 5568   0.966   3.697  13.350  0.0705 -0.3893  0.2371
  368MPD2    H7 5569   0.918   3.651  13.426  0.8054  0.5763  1.2804
  369TMC3    C1 5570   0.761   3.839  13.344 -0.2472  0.4368 -0.1020
  369TMC3    C2 5571   0.719   3.946  13.270  0.3660  0.3326 -0.5128
  369TMC3    C3 5572   0.600   3.934  13.196 -0.6959  0.5201 -0.2407
  369TMC3    C4 5573   0.687   3.729  13.363 -0.0685 -0.4091 -0.0479
  369TMC3    C5 5574   0.569   3.715  13.287 -0.2869  0.2952 -0.4940
  369TMC3    C6 5575   0.530   3.817  13.204 -0.4874 -0.1626 -0.9190
  369TMC3     C 5576   0.908   3.815  13.301  0.0705 -0.3122 -0.2357
  369TMC3     O 5577   0.956   3.895  13.223  0.0545  0.4784 -0.5230
  369TMC3     H 5578   0.787   4.028  13.251 -1.1852  0.6142 -5.0458
  369TMC3    H1 5579   0.709   3.662  13.445  0.8641  0.6829  0.6056
  369TMC3    H2 5580   0.436   3.795  13.155 -0.3594 -0.3510 -1.0737
  369TMC3    C7 5581   0.461   3.641  13.348  0.3597  0.5780 -0.2263
  369TMC3    C8 5582   0.619   3.992  13.066  0.2444  0.3417  0.0843
  369TMC3    O1 5583   0.473   3.624  13.469 -0.0526 -0.5313 -0.1128
  369TMC3    O2 5584   0.525   4.053  13.021 -0.0867  0.6680  0.3983
  370TMC3    C1 5585   0.247   4.224  15.882  0.8859  1.0314 -0.1663
  370TMC3    C2 5586   0.166   4.203  15.990  0.4771 -0.0720 -0.3513
  370TMC3    C3 5587   0.070   4.101  15.972  0.1197 -0.0285 -0.4473
  370TMC3    C4 5588   0.244   4.153  15.767 -0.4699 -0.1585  0.4047
  370TMC3    C5 5589   0.157   4.049  15.757 -0.7706 -0.1818 -0.4117
  370TMC3    C6 5590   0.081   4.010  15.866 -0.2499  0.1810 -0.1052
  370TMC3     C 5591   0.346   4.326  15.899  0.6418  1.0016  0.0999
  370TMC3     O 5592   0.417   4.341  15.802  0.0106  0.2446 -0.8351
  370TMC3     H 5593   0.165   4.259  16.082  0.1308  0.6537 -0.8039
  370TMC3    H1 5594   0.317   4.166  15.688 -0.1627 -0.4205  0.6462
  370TMC3    H2 5595   0.014   3.925  15.864  1.4111 -1.1793  1.5172
  370TMC3    C7 5596   0.189   3.932  15.674 -0.5033 -0.0012  0.2065
  370TMC3    C8 5597   4.735   4.058  16.094 -0.8667  0.6137 -0.5636
  370TMC3    O1 5598   0.148   3.928  15.557  0.0460  0.5772 -0.1647
  370TMC3    O2 5599   4.687   3.943  16.096  0.1939  0.6333 -0.0149
  371TMC3    C1 5600   1.614   2.637  15.213  0.5432  0.1253  0.3855
  371TMC3    C2 5601   1.478   2.626  15.236  0.2656 -0.0233 -0.0262
  371TMC3    C3 5602   1.414   2.717  15.312  0.5929  0.9403  0.0995
  371TMC3    C4 5603   1.685   2.750  15.240 -0.2888 -0.7163 -0.4447
  371TMC3    C5 5604   1.615   2.846  15.309 -0.0204  0.5808  0.4433
  371TMC3    C6 5605   1.488   2.827  15.356  0.0876  0.0555 -0.4659
  371TMC3     C 5606   1.684   2.517  15.187  0.1691 -0.1527 -0.2127
  371TMC3     O 5607   1.777   2.519  15.109  0.7093  0.6329  0.0661
  371TMC3     H 5608   1.416   2.549  15.193  0.0293  1.4029 -2.2358
  371TMC3    H1 5609   1.789   2.766  15.211 -0.7985 -1.2316 -2.5726
  371TMC3    H2 5610   1.435   2.894  15.423 -1.1300 -0.7446 -0.6371
  371TMC3    C7 5611   1.651   2.986  15.305 -0.0041  0.3315 -0.3530
  371TMC3    C8 5612   1.318   2.664  15.412  0.3317  0.2730 -0.0314
  371TMC3    O1 5613   1.582   3.063  15.366 -0.1172 -0.5288 -1.0738
  371TMC3    O2 5614   1.318   2.540  15.413  0.5110 -0.5610 -0.1341
  372MPD2     C 5615   1.019   4.064  13.467  0.2638  0.0373 -0.9201
  372MPD2    C1 5616   1.077   3.975  13.550 -0.0001 -0.0477 -0.7097
  372MPD2    C2 5617   1.002   3.921  13.649  0.0926  0.1778 -0.1909
  372MPD2    C3 5618   0.869   3.961  13.669 -0.8731 -0.8892  0.1866
  372MPD2    C4 5619   0.814   4.061  13.593 -0.7354 -0.0412  0.0682
  372MPD2    C5 5620   0.885   4.101  13.490 -0.3928  0.6408 -0.0091
  372MPD2     H 5621   1.050   3.847  13.712  2.3875  1.7024 -0.1118
  372MPD2    H1 5622   0.713   4.097  13.609 -1.0038  0.5540 -3.0965
  372MPD2    H2 5623   1.072   4.104  13.381  2.4567 -1.2003 -0.1552
  372MPD2    H3 5624   0.844   4.175  13.423 -0.7701  0.1119 -0.3659
  372MPD2     N 5625   0.797   3.910  13.779 -1.2532 -0.3561 -0.4343
  372MPD2    H5 5626   0.851   3.859  13.848 -0.8613 -0.6989 -0.9964
  372MPD2    N1 5627   1.210   3.934  13.532  0.2342 -0.3946  0.0575
  372MPD2    H7 5628   1.234   3.853  13.589  0.1670 -0.5458 -0.1305
  373TMC3    C1 5629   0.638   3.814  13.917 -0.2844 -0.2683 -0.1619
  373TMC3    C2 5630   0.724   3.851  14.010 -0.1528 -0.2925  0.0513
  373TMC3    C3 5631   0.775   3.749  14.088 -0.9388 -0.5438  0.0906
  373TMC3    C4 5632   0.616   3.688  13.877 -0.3994 -0.2854  0.6147
  373TMC3    C5 5633   0.663   3.592  13.959 -0.1544 -0.2374 -0.8826
  373TMC3    C6 5634   0.747   3.618  14.060 -0.3859 -0.0229 -0.5127
  373TMC3     C 5635   0.663   3.893  13.801  0.0545  1.2804 -0.0976
  373TMC3     O 5636   0.576   3.921  13.718  0.4690 -0.1446  0.0868
  373TMC3     H 5637   0.734   3.958  14.020  1.1708 -0.6035  2.0528
  373TMC3    H1 5638   0.550   3.670  13.792  0.9648 -1.3666 -0.2142
  373TMC3    H2 5639   0.795   3.537  14.115  0.1131  0.2191 -0.5880
  373TMC3    C7 5640   0.653   3.448  13.926  0.4995 -0.0693 -0.2700
  373TMC3    C8 5641   0.853   3.791  14.203 -0.2570 -0.6442  0.1081
  373TMC3    O1 5642   0.713   3.367  13.997 -0.1043 -0.0872 -0.1419
  373TMC3    O2 5643   0.904   3.901  14.189  0.1868  0.0024 -0.5028
  374TMC3    C1 5644   0.991   3.501  10.154  0.0238  0.0636 -0.0425
  374TMC3    C2 5645   1.122   3.500  10.126  0.1940 -0.0653  0.7825
  374TMC3    C3 5646   1.159   3.491   9.992  0.2628  0.0603  0.0936
  374TMC3    C4 5647   0.895   3.490  10.054  0.2160 -0.6660  0.3933
  374TMC3    C5 5648   0.943   3.489   9.926 -0.2181  0.0471  0.3443
  374TMC3    C6 5649   1.074   3.473   9.891  0.9903  0.5328 -0.0703
  374TMC3     C 5650   0.959   3.512  10.291 -0.0692  0.0834  0.4884
  374TMC3     O 5651   1.056   3.502  10.368  0.3145  0.2608  0.1970
  374TMC3     H 5652   1.198   3.495  10.203 -1.0748  0.8603  2.0898
  374TMC3    H1 5653   0.789   3.484  10.074 -0.4704  2.3665 -2.2833
  374TMC3    H2 5654   1.106   3.461   9.788  1.5909 -0.8287  0.2809
  374TMC3    C7 5655   0.857   3.508   9.810  0.8025 -0.1806  0.8088
  374TMC3    C8 5656   1.295   3.479   9.957 -0.2309 -0.3532 -0.5104
  374TMC3    O1 5657   0.886   3.460   9.705  0.4779 -0.0398  0.2870
  374TMC3    O2 5658   1.320   3.420   9.852  0.9092 -0.1248  0.7141
  375MPD2     C 5659   1.464   4.427  17.369  1.0908 -0.2697 -1.2159
  375MPD2    C1 5660   1.396   4.528  17.300 -0.2145 -0.1786  0.1254
  375MPD2    C2 5661   1.441   4.570  17.180 -0.4897  0.4937 -0.1894
  375MPD2    C3 5662   1.542   4.511  17.115  0.4317 -0.7901  0.1496
  375MPD2    C4 5663   1.622   4.421  17.187  0.1506  1.1177  0.3458
  375MPD2    C5 5664   1.582   4.395  17.313 -0.2747  0.3723 -0.3118
  375MPD2     H 5665   1.397   4.654  17.127 -0.7625  0.5712  0.1530
  375MPD2    H1 5666   1.703   4.366  17.140  0.4770  0.5909  1.5406
  375MPD2    H2 5667   1.444   4.389  17.468  2.5278 -1.6818 -1.4631
  375MPD2    H3 5668   1.628   4.312  17.367 -1.8739 -0.3157  0.0079
  375MPD2     N 5669   1.569   4.533  16.975 -0.4880 -0.3621 -0.1837
  375MPD2    H5 5670   1.651   4.495  16.931 -0.8389 -0.3525 -0.8445
  375MPD2    N1 5671   1.290   4.604  17.357 -0.2119 -0.0246 -0.0462
  375MPD2    H7 5672   1.254   4.678  17.299 -0.6979 -0.8341 -0.7847
  376TMC3    C1 5673   1.530   4.599  16.753  0.1525 -0.5665 -0.1392
  376TMC3    C2 5674   1.663   4.614  16.718 -0.0418  0.4073 -0.8617
  376TMC3    C3 5675   1.704   4.663  16.597 -0.1637  0.2403  0.4084
  376TMC3    C4 5676   1.439   4.636  16.657  0.1223  0.6000  0.0742
  376TMC3    C5 5677   1.479   4.672  16.528  0.9896 -0.3377 -0.3864
  376TMC3    C6 5678   1.612   4.681  16.493  0.1731 -0.2888  0.5212
  376TMC3     C 5679   1.476   4.587  16.890  0.1415  0.2735 -0.2574
  376TMC3     O 5680   1.361   4.620  16.908 -0.2747 -0.3393 -0.2841
  376TMC3     H 5681   1.739   4.613  16.795 -0.6318  0.0041 -0.2856
  376TMC3    H1 5682   1.337   4.659  16.685  0.8821  1.3526  2.2518
  376TMC3    H2 5683   1.650   4.723  16.401  1.0276 -2.5851 -0.1852
  376TMC3    C7 5684   1.389   4.736  16.440 -0.1487 -0.1760  0.3361
  376TMC3    C8 5685   1.847   4.665  16.558  0.0358  0.3194 -0.4933
  376TMC3    O1 5686   1.440   0.070  16.354  0.6353 -0.1791  0.4490
  376TMC3    O2 5687   1.881   4.728  16.459 -0.4721 -0.2306  0.4634
  377MPD2     C 5688   0.289   4.053  13.218  0.1211  0.6380 -0.5257
  377MPD2    C1 5689   0.214   3.975  13.132 -0.3783  0.4220 -0.3909
  377MPD2    C2 5690   0.121   3.888  13.189 -0.4395 -0.0966  0.7095
  377MPD2    C3 5691   0.116   3.872  13.328  0.2997  0.1300 -0.3990
  377MPD2    C4 5692   0.186   3.962  13.404  0.1278  0.6449 -0.9858
  377MPD2    C5 5693   0.274   4.045  13.356 -0.5033  0.4623  0.4438
  377MPD2     H 5694   0.071   3.817  13.124 -0.8623  0.6311  0.2379
  377MPD2    H1 5695   0.177   3.957  13.512 -2.0449 -1.5636 -1.2745
  377MPD2    H2 5696   0.360   4.128  13.184  0.1310  0.7802 -0.1845
  377MPD2    H3 5697   0.333   4.109  13.421  0.8769 -1.0355  0.6815
  377MPD2     N 5698   0.038   3.785  13.404 -0.0498  0.1584 -0.2047
  377MPD2    H5 5699   0.034   3.796  13.505 -0.4847 -0.5005 -0.1476
  377MPD2    N1 5700   0.237   3.977  12.996  0.7104 -0.9355 -0.0304
  377MPD2    H7 5701   0.320   4.023  12.960  1.1409  0.4370  2.7454
  378TMC3    C1 5702   0.086   3.962  12.554  0.2019 -0.8760  1.1660
  378TMC3    C2 5703   0.065   3.973  12.689 -0.4678  0.6536 -1.0182
  378TMC3    C3 5704   0.178   3.993  12.768 -0.3887  0.1837 -0.0517
  378TMC3    C4 5705   0.211   4.003  12.502 -0.0787 -0.7533 -0.6597
  378TMC3    C5 5706   0.316   4.026  12.585  0.1562 -0.0793 -0.0557
  378TMC3    C6 5707   0.301   4.014  12.725 -0.0817  0.4132  0.5659
  378TMC3     C 5708   4.720   3.930  12.453 -0.0506  0.5017  1.6099
  378TMC3     O 5709   0.032   3.905  12.344 -0.4702  0.1198 -0.7908
  378TMC3     H 5710   4.701   3.955  12.725  0.4574  1.0276  1.7197
  378TMC3    H1 5711   0.231   3.990  12.396  3.7449  0.3932 -0.1121
  378TMC3    H2 5712   0.386   4.011  12.792 -0.6548 -1.1539  1.2188
  378TMC3    C7 5713   0.451   4.014  12.535 -0.6263  0.3562 -0.0408
  378TMC3    C8 5714   0.146   3.947  12.899  0.0907 -0.7363 -0.5462
  378TMC3    O1 5715   0.529   3.964  12.609  0.4098  0.1276 -0.3644
  378TMC3    O2 5716   0.042   3.893  12.921 -0.0439 -0.2711  0.3112
  379MPD2     C 5717   4.653   2.155  16.018 -0.5116 -0.6573  0.1420
  379MPD2    C1 5718   4.730   2.043  15.991  0.2861 -0.4256 -0.9550
  379MPD2    C2 5719   0.095   2.020  16.081 -0.3883 -0.3004 -0.2590
  379MPD2    C3 5720   0.109   2.103  16.195  0.4902  0.1158  0.0112
  379MPD2    C4 5721   0.022   2.206  16.223 -0.1298  0.4315 -0.1085
  379MPD2    C5 5722   4.660   2.231  16.130  0.3381  0.0078  0.8043
  379MPD2     H 5723   0.166   1.940  16.066 -1.7612 -1.4884 -0.4723
  379MPD2    H1 5724   0.016   2.264  16.314  1.6139  0.2597  0.1108
  379MPD2    H2 5725   4.581   2.198  15.949  0.1656 -1.6178 -1.1726
  379MPD2    H3 5726   4.584   2.309  16.135 -0.3551 -0.7420  2.0132
  379MPD2     N 5727   0.207   2.081  16.294 -0.1373 -0.0019  0.2131
  379MPD2    H5 5728   0.194   2.137  16.378  1.2676 -0.6859  0.8894
  379MPD2    N1 5729   4.720   1.974  15.873 -0.8312  0.8702  0.1686
  379MPD2    H7 5730   0.061   1.917  15.843  0.3997  1.6272  1.9738
  380TMC3    C1 5731   4.638   1.947  15.648 -0.4696 -0.1407  0.1374
  380TMC3    C2 5732   0.027   1.931  15.603  0.2254  0.1971 -0.0111
  380TMC3    C3 5733   0.042   1.914  15.472 -0.3769  0.1470  0.9880
  380TMC3    C4 5734   4.527   1.950  15.565 -0.0435  0.1506 -0.7513
  380TMC3    C5 5735   4.565   1.943  15.434  0.0848  0.4076  0.2964
  380TMC3    C6 5736   4.680   1.911  15.383 -0.5612 -0.1718 -0.1752
  380TMC3     C 5737   4.616   1.995  15.778 -0.3529  0.5641  0.2656
  380TMC3     O 5738   4.511   2.050  15.795 -0.0075 -0.2756  0.1226
  380TMC3     H 5739   0.116   1.952  15.661  0.9644 -0.4527 -0.9328
  380TMC3    H1 5740   4.425   1.968  15.597  0.0904 -0.1610 -0.1463
  380TMC3    H2 5741   4.685   1.908  15.275  0.0211  1.0444 -0.1805
  380TMC3    C7 5742   4.478   2.023  15.345  0.1349 -0.2189 -0.1562
  380TMC3    C8 5743   0.175   1.927  15.414  0.9430  0.9233  0.4404
  380TMC3    O1 5744   4.520   2.110  15.272 -0.4913  0.5322 -0.4518
  380TMC3    O2 5745   0.188   1.996  15.312  0.1129  0.3193 -0.2052
  381TMC3    C1 5746   4.686   3.347  15.987  0.4299  0.1276  0.3090
  381TMC3    C2 5747   0.071   3.407  15.986  0.1196 -0.1366 -0.3476
  381TMC3    C3 5748   0.095   3.493  16.095  0.2201  0.1272  0.0942
  381TMC3    C4 5749   4.586   3.384  16.069 -0.2785  0.3088  0.3451
  381TMC3    C5 5750   4.609   3.479  16.167 -0.0693 -0.3255  0.0446
  381TMC3    C6 5751   0.001   3.537  16.185 -0.5074 -0.4177  0.4712
  381TMC3     C 5752   4.667   3.224  15.909 -0.6318 -0.3200 -0.4214
  381TMC3     O 5753   0.017   3.198  15.830  0.2562 -0.0829  0.6627
  381TMC3     H 5754   0.157   3.366  15.935 -0.4203  0.7846 -1.9895
  381TMC3    H1 5755   4.485   3.347  16.058  0.3348 -1.3566  0.3918
  381TMC3    H2 5756   0.025   3.608  16.262  0.9859 -0.1506 -0.2346
  381TMC3    C7 5757   4.540   3.443  16.287 -0.7105 -0.1665 -0.8384
  381TMC3    C8 5758   0.231   3.546  16.107  1.0456 -0.7454 -0.6100
  381TMC3    O1 5759   4.512   3.326  16.305  0.2499  0.0802 -0.4008
  381TMC3    O2 5760   0.308   3.512  16.021  0.3165  0.1862 -0.2620
  382MPD2     C 5761   4.071   1.393  16.599 -0.4416  0.3695 -0.3622
  382MPD2    C1 5762   4.002   1.432  16.707 -0.4344  0.1859 -0.0838
  382MPD2    C2 5763   3.927   1.333  16.769  0.2272 -0.5910 -0.1065
  382MPD2    C3 5764   3.927   1.196  16.735  0.1121  0.5399 -0.5329
  382MPD2    C4 5765   3.990   1.175  16.620  0.0745 -0.3274 -0.1343
  382MPD2    C5 5766   4.060   1.265  16.559  0.0450  0.3931  0.3545
  382MPD2     H 5767   3.868   1.365  16.854 -1.0354  0.8340 -1.5077
  382MPD2    H1 5768   3.989   1.075  16.576 -1.1365 -0.6670  0.6375
  382MPD2    H2 5769   4.126   1.466  16.541  0.7725 -2.2441 -2.5157
  382MPD2    H3 5770   4.108   1.232  16.468 -0.2547  0.5064  0.1586
  382MPD2     N 5771   3.878   1.090  16.806 -0.3157  0.0967  0.1138
  382MPD2    H5 5772   3.894   0.999  16.763 -0.6063  0.2950 -0.4150
  382MPD2    N1 5773   3.994   1.569  16.752  0.1712 -0.1018 -0.5355
  382MPD2    H7 5774   3.938   1.590  16.834  2.1006  0.3037  0.6803
  383TMC3    C1 5775   3.804   0.970  16.981 -0.1163  0.6180 -0.0580
  383TMC3    C2 5776   3.732   0.884  16.901 -0.1062 -0.1960 -0.3902
  383TMC3    C3 5777   3.698   0.763  16.954 -0.1959 -0.0704 -0.3024
  383TMC3    C4 5778   3.840   0.936  17.109  0.1389  0.3464  0.2329
  383TMC3    C5 5779   3.801   0.820  17.156  0.1838  0.2916 -0.0226
  383TMC3    C6 5780   3.739   0.728  17.082 -0.1073  0.2167 -0.6730
  383TMC3     C 5781   3.837   1.099  16.933  0.1008  0.2846  0.1173
  383TMC3     O 5782   3.844   1.185  17.020 -0.5043  0.3223 -0.0939
  383TMC3     H 5783   3.712   0.911  16.798  1.1940  1.7545 -0.1469
  383TMC3    H1 5784   3.902   0.997  17.173 -3.3029  1.2795  2.6574
  383TMC3    H2 5785   3.731   0.628  17.123  0.9838  0.8875  1.1965
  383TMC3    C7 5786   3.809   0.804  17.300  0.4236 -0.6136  0.9517
  383TMC3    C8 5787   3.576   0.695  16.914 -0.4466  0.4800  0.5281
  383TMC3    O1 5788   3.766   0.896  17.370  0.0178  0.7008  0.0308
  383TMC3    O2 5789   3.558   0.684  16.791  0.5162 -0.2722 -0.1215
  384MPD2     C 5790   0.788   2.566  11.943  0.1581 -0.5832 -0.3311
  384MPD2    C1 5791   0.714   2.447  11.959  0.2140  0.3401 -0.0572
  384MPD2    C2 5792   0.763   2.326  11.913  0.0053  0.5784  0.3969
  384MPD2    C3 5793   0.895   2.322  11.864 -0.4436  0.5391 -0.1221
  384MPD2    C4 5794   0.956   2.438  11.823 -0.3551 -0.7135 -0.6858
  384MPD2    C5 5795   0.904   2.562  11.870 -0.1620 -0.4385  0.2885
  384MPD2     H 5796   0.714   2.232  11.935  1.4610  0.2184  2.0776
  384MPD2    H1 5797   1.047   2.445  11.764  0.3194 -0.5581  0.3839
  384MPD2    H2 5798   0.748   2.662  11.974 -0.4726 -1.3629  1.2997
  384MPD2    H3 5799   0.941   2.657  11.834 -2.2397  0.9170  1.7605
  384MPD2     N 5800   0.955   2.193  11.837  0.5771 -0.1349 -0.1650
  384MPD2    H5 5801   1.052   2.191  11.808  0.2405  1.9751 -1.4531
  384MPD2    N1 5802   0.587   2.469  12.016 -0.1931  0.6106 -0.4797
  384MPD2    H7 5803   0.558   2.563  12.040  0.0265  0.2873  1.0818
  385TMC3    C1 5804   1.018   1.983  11.859 -0.1575 -0.3012  0.4062
  385TMC3    C2 5805   0.996   1.854  11.832 -0.4292 -0.3515  0.3897
  385TMC3    C3 5806   1.026   1.763  11.923  0.0347  0.6666 -0.5078
  385TMC3    C4 5807   1.089   2.022  11.972 -0.4096  0.3084 -0.0318
  385TMC3    C5 5808   1.107   1.927  12.069  0.2447 -0.1942  0.6161
  385TMC3    C6 5809   1.071   1.796  12.050  0.5824  0.4920  0.6148
  385TMC3     C 5810   0.902   2.065  11.855  0.9911  0.5741  0.0728
  385TMC3     O 5811   0.787   2.027  11.873  0.4621  0.7627  0.0386
  385TMC3     H 5812   0.962   1.836  11.731 -1.9513 -0.8753  0.9980
  385TMC3    H1 5813   1.139   2.118  11.985  0.2725  0.0324 -0.6036
  385TMC3    H2 5814   1.085   1.726  12.132 -0.2490 -1.0459 -0.5502
  385TMC3    C7 5815   1.071   1.980  12.194  0.2675 -0.4937  0.6475
  385TMC3    C8 5816   1.034   1.619  11.901  0.3216  0.6129  0.1558
  385TMC3    O1 5817   1.059   2.101  12.201  0.0849 -0.8383  0.4701
  385TMC3    O2 5818   1.081   1.553  11.992 -0.0066  0.7624 -0.2871
  386TMC3    C1 5819   1.084   3.995  11.526 -0.4747 -0.3361  0.3245
  386TMC3    C2 5820   1.070   4.062  11.403  0.2389 -0.1854 -0.1055
  386TMC3    C3 5821   1.005   4.182  11.400 -0.0666  0.2369  0.8327
  386TMC3    C4 5822   1.017   4.043  11.636  0.7875 -0.5330 -0.6034
  386TMC3    C5 5823   0.958   4.164  11.626 -0.0590  0.3302 -0.1700
  386TMC3    C6 5824   0.946   4.232  11.512  0.6960 -0.2672 -0.2056
  386TMC3     C 5825   1.215   3.932  11.546 -0.9694 -0.0975  0.1378
  386TMC3     O 5826   1.296   3.975  11.466 -0.2996  0.2972  0.2180
  386TMC3     H 5827   1.108   4.017  11.312 -1.4997 -1.1607 -0.3535
  386TMC3    H1 5828   1.024   3.997  11.733  0.0995  2.6446  0.9498
  386TMC3    H2 5829   0.906   4.332  11.503 -0.6365 -0.8851 -1.1087
  386TMC3    C7 5830   0.856   4.200  11.723  0.5014 -0.6521  0.3245
  386TMC3    C8 5831   0.961   4.242  11.278  0.0035  0.7093  0.4652
  386TMC3    O1 5832   0.856   4.139  11.830  0.5194 -0.2566  0.4266
  386TMC3    O2 5833   0.841   4.276  11.278  0.5899  0.1695 -0.3716
  387MPD2     C 5834   3.299   4.174   9.865 -0.1086  0.1270 -0.2251
  387MPD2    C1 5835   3.408   4.120   9.929  0.0346  0.1844 -0.0669
  387MPD2    C2 5836   3.457   4.001   9.874  0.1003  0.8368  0.6267
  387MPD2    C3 5837   3.404   3.938   9.765 -0.4384 -0.6301 -0.8731
  387MPD2    C4 5838   3.289   3.990   9.707 -0.0338 -0.6989 -0.6202
  387MPD2    C5 5839   3.236   4.110   9.758  0.0586  0.5188 -0.3765
  387MPD2     H 5840   3.538   3.954   9.927 -0.1665  1.0660  1.2282
  387MPD2    H1 5841   3.240   3.952   9.618 -1.0903 -0.6553 -0.0557
  387MPD2    H2 5842   3.246   4.257   9.908 -0.0818  0.4957 -0.9028
  387MPD2    H3 5843   3.146   4.147   9.711 -0.6524  0.4855  0.9590
  387MPD2     N 5844   3.467   3.818   9.720 -0.6585  0.0227 -0.1346
  387MPD2    H5 5845   3.552   3.795   9.771 -0.7466 -0.5559 -0.2495
  387MPD2    N1 5846   3.477   4.173  10.044  0.0142  0.6881 -1.1598
  387MPD2    H7 5847   3.562   4.129  10.075 -0.4573 -0.2425 -1.1692
  388TMC3    C1 5848   3.511   4.278  10.248  0.6011 -0.5168 -0.5267
  388TMC3    C2 5849   3.553   4.393  10.306  0.0320 -0.3544 -0.4692
  388TMC3    C3 5850   3.643   4.386  10.406 -0.1797 -0.2166  0.1131
  388TMC3    C4 5851   3.543   4.157  10.289  0.1596 -1.1082  1.0572
  388TMC3    C5 5852   3.646   4.151  10.381 -0.6871 -0.5762  0.5237
  388TMC3    C6 5853   3.693   4.263  10.444 -0.5412 -0.1174  0.0206
  388TMC3     C 5854   3.447   4.289  10.116  0.0289  0.5108 -0.6089
  388TMC3     O 5855   3.374   4.389  10.100 -0.0411  0.2378 -0.0981
  388TMC3     H 5856   3.543   4.485  10.251  0.4911 -0.7994 -1.2909
  388TMC3    H1 5857   3.504   4.064  10.250 -1.3946  0.4255 -1.0490
  388TMC3    H2 5858   3.764   4.260  10.526 -2.5202  1.0400  1.7828
  388TMC3    C7 5859   3.698   4.023  10.413 -0.2175 -0.3317 -0.4150
  388TMC3    C8 5860   3.686   4.503  10.482 -0.1375 -0.2029  0.3059
  388TMC3    O1 5861   3.747   3.997  10.523 -0.0340 -0.4212  0.6293
  388TMC3    O2 5862   3.764   4.481  10.570  0.0219 -0.0500  0.3534
  389MPD2     C 5863   2.969   2.416  10.855 -0.1617  0.1653 -0.5001
  389MPD2    C1 5864   2.941   2.283  10.824 -0.2922 -0.0605 -0.7393
  389MPD2    C2 5865   2.882   2.199  10.925 -0.7503  0.0119  0.5489
  389MPD2    C3 5866   2.857   2.245  11.048  0.0138  0.1807  0.3746
  389MPD2    C4 5867   2.881   2.379  11.073  0.0861 -0.2045  0.3120
  389MPD2    C5 5868   2.944   2.457  10.984  0.8122 -0.2272  0.0398
  389MPD2     H 5869   2.876   2.094  10.901 -1.5439  0.4706 -1.2745
  389MPD2    H1 5870   2.843   2.426  11.163  0.6415 -0.2578  0.5797
  389MPD2    H2 5871   3.015   2.483  10.784  1.5696 -0.5494 -0.0425
  389MPD2    H3 5872   2.957   2.558  11.020  0.2360 -0.9250  2.2128
  389MPD2     N 5873   2.815   2.160  11.158  0.0700 -0.8997  0.1048
  389MPD2    H5 5874   2.805   2.207  11.247  0.8752  0.2907 -0.4253
  389MPD2    N1 5875   2.981   2.236  10.691 -0.0755 -0.3514 -0.3936
  389MPD2    H7 5876   3.039   2.302  10.640  2.2688 -3.0723 -1.2744
  390TMC3    C1 5877   2.762   1.970  11.286  0.1866 -0.3879  0.1861
  390TMC3    C2 5878   2.676   1.857  11.289 -0.7728 -0.0457 -0.4956
  390TMC3    C3 5879   2.608   1.830  11.405 -0.1629 -0.0223  0.1880
  390TMC3    C4 5880   2.777   2.049  11.398 -0.7753  0.0783 -0.0579
  390TMC3    C5 5881   2.716   2.005  11.511 -0.5268  0.1047  0.3526
  390TMC3    C6 5882   2.627   1.904  11.518 -0.4916 -0.2002 -0.4265
  390TMC3     C 5883   2.798   2.022  11.155  0.0067  1.2605 -0.4511
  390TMC3     O 5884   2.792   1.944  11.058 -0.4755 -0.5584 -0.0785
  390TMC3     H 5885   2.646   1.827  11.190 -1.0999 -4.7105  1.0378
  390TMC3    H1 5886   2.867   2.108  11.403 -2.0466  2.3015 -3.3899
  390TMC3    H2 5887   2.586   1.868  11.612 -0.1393  1.6311  0.4105
  390TMC3    C7 5888   2.731   2.090  11.631 -0.4001 -0.4358  0.0202
  390TMC3    C8 5889   2.476   1.768  11.380 -0.0524  0.3795  1.0510
  390TMC3    O1 5890   2.782   2.200  11.610  0.1101 -0.4771 -0.0636
  390TMC3    O2 5891   2.452   1.733  11.262 -0.0342 -0.0215 -0.0960
  391MPD2     C 5892   1.631   3.913  11.360 -0.3374  0.2032 -0.3138
  391MPD2    C1 5893   1.759   3.898  11.334 -0.5524  0.2422  0.3007
  391MPD2    C2 5894   1.811   3.855  11.213  0.5349  0.3393  0.3926
  391MPD2    C3 5895   1.724   3.822  11.114 -0.5192 -0.5112  0.6371
  391MPD2    C4 5896   1.586   3.833  11.143  0.2274 -0.4314  0.3814
  391MPD2    C5 5897   1.542   3.871  11.263  1.1341  0.0262  0.1028
  391MPD2     H 5898   1.916   3.860  11.187  0.0418  1.0234 -1.4119
  391MPD2    H1 5899   1.512   3.812  11.066 -0.5643  1.8360  0.5170
  391MPD2    H2 5900   1.596   3.937  11.460  1.0335 -0.4965  0.3349
  391MPD2    H3 5901   1.436   3.883  11.283  0.7943  0.1248 -1.7273
  391MPD2     N 5902   1.777   3.789  10.989 -0.5755  0.4954 -0.6064
  391MPD2    H5 5903   1.878   3.800  10.988 -0.6813  1.4513 -0.5335
  391MPD2    N1 5904   1.844   3.935  11.439  0.3898 -0.3004  0.0622
  391MPD2    H7 5905   1.800   3.962  11.526 -0.7822  0.0856 -0.6452
  392TMC3    C1 5906   1.791   3.742  10.756 -0.4273 -0.9614  0.4161
  392TMC3    C2 5907   1.728   3.739  10.638  0.2582  0.4589  1.2478
  392TMC3    C3 5908   1.805   3.720  10.525 -0.3662  0.4987  0.4969
  392TMC3    C4 5909   1.921   3.706  10.760 -0.2247 -0.3042  0.7338
  392TMC3    C5 5910   1.997   3.683  10.646 -0.6697 -0.1722  0.4381
  392TMC3    C6 5911   1.938   3.701  10.524  0.2234  0.4272  0.2024
  392TMC3     C 5912   1.709   3.754  10.880  0.2397  0.0217 -0.1558
  392TMC3     O 5913   1.589   3.724  10.869 -0.1668  0.1591 -0.0760
  392TMC3     H 5914   1.620   3.739  10.643  0.1995 -1.5891 -0.4246
  392TMC3    H1 5915   1.964   3.684  10.857 -0.5922  1.9263  1.3884
  392TMC3    H2 5916   1.990   3.692  10.430 -1.4286  0.9384 -0.7571
  392TMC3    C7 5917   2.140   3.702  10.662 -0.6636  0.5484 -0.2120
  392TMC3    C8 5918   1.719   3.714  10.403  0.9615 -0.6601  0.3696
  392TMC3    O1 5919   2.183   3.698  10.776  0.8245 -0.4132 -0.1746
  392TMC3    O2 5920   1.611   3.769  10.412  0.1211 -0.6432 -0.0498
  393TMC3    C1 5921   0.647   1.985  11.235  0.5341 -0.6388  0.6202
  393TMC3    C2 5922   0.534   1.924  11.273  0.0227 -0.0661  0.1713
  393TMC3    C3 5923   0.544   1.816  11.353 -0.1057  0.5464  0.1482
  393TMC3    C4 5924   0.770   1.935  11.272 -0.1174 -0.5071 -0.1563
  393TMC3    C5 5925   0.769   1.830  11.362 -0.2151  0.3434  0.2226
  393TMC3    C6 5926   0.656   1.769  11.413 -1.3324 -0.3140 -0.4011
  393TMC3     C 5927   0.637   2.082  11.126  0.0702  0.2285 -0.8146
  393TMC3     O 5928   0.534   2.143  11.115  0.2228  0.2710  0.3409
  393TMC3     H 5929   0.440   1.956  11.230 -1.7184 -0.7957  3.4475
  393TMC3    H1 5930   0.859   1.988  11.238 -2.3858  2.4816 -1.4638
  393TMC3    H2 5931   0.668   1.680  11.474  0.0595  1.1084  1.3829
  393TMC3    C7 5932   0.901   1.769  11.397 -0.1442  0.0349  0.5563
  393TMC3    C8 5933   0.422   1.755  11.383 -0.1655  0.0152 -0.0794
  393TMC3    O1 5934   0.906   1.727  11.511 -0.3438 -0.2594  0.1669
  393TMC3    O2 5935   0.328   1.829  11.409 -0.6914  0.1454  0.0126
  394TMC3    C1 5936   3.006   2.092  10.513 -0.1410 -0.8685  0.6768
  394TMC3    C2 5937   2.931   2.050  10.408  0.0866 -0.0180 -0.0522
  394TMC3    C3 5938   2.969   2.080  10.278  0.5170  0.3930 -0.2631
  394TMC3    C4 5939   3.125   2.155  10.486  0.9426 -0.1848  0.2833
  394TMC3    C5 5940   3.169   2.180  10.360 -0.0957 -0.0475  0.1730
  394TMC3    C6 5941   3.083   2.154  10.257  0.0631 -0.1357 -0.2038
  394TMC3     C 5942   2.939   2.120  10.639  0.1377 -0.5630  0.1732
  394TMC3     O 5943   2.857   2.034  10.666  0.6141 -0.0793  0.1214
  394TMC3     H 5944   2.828   2.020  10.421 -0.0048  0.2587 -0.1326
  394TMC3    H1 5945   3.185   2.190  10.569 -0.2937  4.7391 -0.9187
  394TMC3    H2 5946   3.116   2.169  10.155  1.0882 -0.5495  0.0595
  394TMC3    C7 5947   3.306   2.203  10.333  0.3109 -0.2261 -0.0932
  394TMC3    C8 5948   2.900   2.025  10.159 -0.1434 -0.1625 -0.7272
  394TMC3    O1 5949   3.323   2.292  10.256  0.1448 -0.0956  0.0785
  394TMC3    O2 5950   2.905   2.096  10.056  0.1815 -0.2293  0.2742
  395TMC3    C1 5951   2.419   0.006  15.400 -0.7885 -0.6083  0.7754
  395TMC3    C2 5952   2.314   4.705  15.324  0.6140  0.1402  0.0354
  395TMC3    C3 5953   2.346   4.659  15.195  0.5106 -0.2782  1.0066
  395TMC3    C4 5954   2.549   4.730  15.360  0.1676 -0.1053  0.2856
  395TMC3    C5 5955   2.579   4.688  15.237 -0.5169  1.0018  0.5156
  395TMC3    C6 5956   2.478   4.651  15.152  0.2775  0.8034  0.6625
  395TMC3     C 5957   2.394   0.078  15.522  0.0002  0.1816  0.0536
  395TMC3     O 5958   2.461   0.176  15.552 -0.5659 -0.0924 -0.3638
  395TMC3     H 5959   2.211   4.700  15.359  1.2987  1.2354  2.1716
  395TMC3    H1 5960   2.625   0.032  15.427 -2.1760 -1.2434  3.5613
  395TMC3    H2 5961   2.495   4.623  15.049  1.4180  0.3523  0.9740
  395TMC3    C7 5962   2.714   4.672  15.195  0.2134  0.4997 -0.1797
  395TMC3    C8 5963   2.240   4.661  15.099  0.1746 -0.0151 -0.2580
  395TMC3    O1 5964   2.797   4.713  15.276  0.8973  0.7086 -0.3755
  395TMC3    O2 5965   2.150   4.734  15.129  0.5243 -0.0241 -0.7135
  396MPD2     C 5966   1.720   0.896  17.348 -0.2752 -0.5114  0.4838
  396MPD2    C1 5967   1.851   0.888  17.304  0.6837 -1.1816 -0.1352
  396MPD2    C2 5968   1.916   1.000  17.257  0.0713  0.0033 -0.4681
  396MPD2    C3 5969   1.854   1.126  17.256  0.1526  0.1784 -0.1090
  396MPD2    C4 5970   1.723   1.132  17.304  0.5395  0.3632 -0.2000
  396MPD2    C5 5971   1.657   1.019  17.344 -0.2661 -0.1220 -0.2037
  396MPD2     H 5972   2.020   0.997  17.226 -0.8730 -0.4845 -3.6046
  396MPD2    H1 5973   1.654   1.215  17.304 -2.1357 -1.8351  1.2916
  396MPD2    H2 5974   1.665   0.812  17.388 -0.6713 -0.6929 -0.4203
  396MPD2    H3 5975   1.552   1.027  17.366 -0.3894 -1.0506 -0.4591
  396MPD2     N 5976   1.922   1.238  17.207  0.6409 -0.3280  0.1296
  396MPD2    H5 5977   2.019   1.223  17.179  1.3318  1.9811  1.3564
  396MPD2    N1 5978   1.902   0.753  17.300 -0.0277 -0.1787 -0.6603
  396MPD2    H7 5979   1.837   0.688  17.344 -0.8505  0.3770 -1.0409
  397TMC3    C1 5980   2.062   0.577  17.267  0.7987  0.0602 -0.6003
  397TMC3    C2 5981   2.179   0.542  17.211 -0.4772 -0.1077 -0.5628
  397TMC3    C3 5982   2.203   0.413  17.178 -0.0797  0.2207 -0.0873
  397TMC3    C4 5983   1.958   0.480  17.261  0.0284 -0.5149 -0.3995
  397TMC3    C5 5984   1.986   0.350  17.228 -0.2767  0.6040  0.6102
  397TMC3    C6 5985   2.110   0.309  17.194  0.2617  0.1634  0.0033
  397TMC3     C 5986   2.023   0.715  17.248  0.1852  0.0046 -0.6675
  397TMC3     O 5987   2.108   0.781  17.191 -0.1271 -0.3314 -0.1995
  397TMC3     H 5988   2.263   0.605  17.236  0.2368 -1.5987  0.7500
  397TMC3    H1 5989   1.857   0.514  17.278  1.0437  2.9922 -1.3985
  397TMC3    H2 5990   2.145   0.207  17.197  2.1116  0.8199  0.7822
  397TMC3    C7 5991   1.888   0.249  17.271 -0.6272  0.2286  0.2159
  397TMC3    C8 5992   2.339   0.386  17.149  1.1895  0.4488 -0.1426
  397TMC3    O1 5993   1.911   0.142  17.220 -0.7511  0.0573 -0.4535
  397TMC3    O2 5994   2.379   0.273  17.163  0.2651  0.3109  0.1715
  398MPD2     C 5995   4.634   2.791  17.741  0.5671  0.0142  0.7457
  398MPD2    C1 5996   4.731   2.727   0.075  0.0188 -0.2626 -0.0540
  398MPD2    C2 5997   0.101   2.803   0.115  0.4036  0.2086  1.1002
  398MPD2    C3 5998   0.115   2.929   0.072 -0.3402 -0.3911  0.1676
  398MPD2    C4 5999   0.020   2.991  17.747 -0.3173  0.1337  0.5577
  398MPD2    C5 6000   4.648   2.923  17.707 -0.0236 -0.2815 -0.0634
  398MPD2     H 6001   0.177   2.759   0.179  1.5324  2.9347  1.6521
  398MPD2    H1 6002   0.028   3.099  17.733  0.6501  0.2321  1.7971
  398MPD2    H2 6003   4.541   2.750  17.704  1.7623 -1.5219 -0.5071
  398MPD2    H3 6004   4.576   2.968  17.639 -0.8259  0.3094  1.1620
  398MPD2     N 6005   0.230   3.004   0.110 -0.1711  0.6082  0.0690
  398MPD2    H5 6006   0.296   2.947   0.162 -2.7313 -0.5164  2.1354
  398MPD2    N1 6007   4.719   2.595   0.118 -0.1982  0.1355  0.4180
  398MPD2    H7 6008   0.068   2.551   0.149 -0.9220 -0.1857  1.9840
  399TMC3    C1 6009   4.645   2.381   0.162 -0.5136 -0.1659  0.0504
  399TMC3    C2 6010   0.032   2.344   0.207 -0.2727  0.4772  0.3243
  399TMC3    C3 6011   0.066   2.211   0.205  0.7684  0.5696 -0.1351
  399TMC3    C4 6012   4.550   2.290   0.125 -0.3301 -0.2909 -0.9714
  399TMC3    C5 6013   4.589   2.160   0.116  0.1369  0.0865  0.0767
  399TMC3    C6 6014   4.713   2.116   0.153  0.1897 -0.2647 -0.1470
  399TMC3     C 6015   4.610   2.515   0.116  0.5974 -0.9589  0.2892
  399TMC3     O 6016   4.499   2.544   0.075  0.0588  0.6026  0.2719
  399TMC3     H 6017   0.111   2.416   0.228  0.9253 -0.9772  0.8471
  399TMC3    H1 6018   4.462   2.331   0.077 -0.0556  1.9424  0.3982
  399TMC3    H2 6019   0.010   2.015   0.133  1.1949 -0.0379  0.4547
  399TMC3    C7 6020   4.498   2.070   0.048  0.2476 -0.3969  0.7554
  399TMC3    C8 6021   0.186   2.173   0.284  0.4417 -0.2064  0.1409
  399TMC3    O1 6022   4.536   1.967  17.734  0.0796 -0.2709 -0.0655
  399TMC3    O2 6023   0.260   2.263   0.325 -0.3418 -0.2283  0.1697
  400TMC3    C1 6024   3.373   0.260  16.683 -0.6481  0.0526  0.6157
  400TMC3    C2 6025   3.298   0.171  16.613  0.1453 -0.3016 -0.5898
  400TMC3    C3 6026   3.304   0.183  16.476 -0.6492 -0.0613  0.0074
  400TMC3    C4 6027   3.425   0.376  16.628 -0.4849  0.2346 -0.2310
  400TMC3    C5 6028   3.416   0.388  16.491 -0.6023  0.1703  0.3216
  400TMC3    C6 6029   3.358   0.289  16.410  0.5105  0.8653  0.1856
  400TMC3     C 6030   3.397   0.223  16.822 -0.6626  0.0966 -0.0656
  400TMC3     O 6031   3.341   0.128  16.873  0.2419  0.0920 -0.1729
  400TMC3     H 6032   3.270   0.077  16.661  0.1520  0.4144  0.8221
  400TMC3    H1 6033   3.490   0.441  16.685 -1.1108 -0.1568  0.9263
  400TMC3    H2 6034   3.366   0.294  16.302  1.4095 -0.7582  0.1651
  400TMC3    C7 6035   3.455   0.513  16.414 -0.3076  0.1582 -0.9195
  400TMC3    C8 6036   3.235   0.088  16.398  0.2639 -0.2746 -0.2718
  400TMC3    O1 6037   3.456   0.507  16.293  0.5574  0.2372  0.3455
  400TMC3    O2 6038   3.275   0.066  16.286 -0.3288  0.2303  0.3014
  401MPD2     C 6039   0.831   3.998   0.889  0.8518 -0.0861  0.2419
  401MPD2    C1 6040   0.967   4.019   0.910 -0.0203 -0.4796 -0.3667
  401MPD2    C2 6041   1.038   3.919   0.974 -0.1250  0.0388  0.1797
  401MPD2    C3 6042   0.988   3.794   0.998 -0.2637 -0.4171 -0.6082
  401MPD2    C4 6043   0.856   3.782   0.988 -0.6105  0.0168  0.0368
  401MPD2    C5 6044   0.771   3.883   0.940 -0.1063  0.3231 -0.5003
  401MPD2     H 6045   1.141   3.940   1.001 -0.4971  0.8004  1.0035
  401MPD2    H1 6046   0.807   3.689   1.015  1.4399 -1.5819 -1.7410
  401MPD2    H2 6047   0.762   4.070   0.847  0.4792 -0.6288 -0.0866
  401MPD2    H3 6048   0.664   3.868   0.929  0.0492 -2.0651  1.3317
  401MPD2     N 6049   1.064   3.679   1.029 -0.3639  0.4027 -0.4322
  401MPD2    H5 6050   1.014   3.592   1.019 -0.9642  0.8549 -1.3442
  401MPD2    N1 6051   1.039   4.135   0.873  0.1044  0.3217  0.1197
  401MPD2    H7 6052   1.127   4.154   0.920  0.1856 -0.2033  0.1756
  402TMC3    C1 6053   1.260   3.559   1.054  0.4795 -0.0459  0.1864
  402TMC3    C2 6054   1.363   3.547   1.144  0.5096  0.2003  0.1323
  402TMC3    C3 6055   1.468   3.471   1.097  0.0150  0.6405 -0.3500
  402TMC3    C4 6056   1.253   3.511   0.930  0.3530  0.0889 -0.0809
  402TMC3    C5 6057   1.358   3.430   0.892 -0.5876 -0.1761  0.3389
  402TMC3    C6 6058   1.463   3.406   0.980  0.4860 -0.3079 -0.1530
  402TMC3     C 6059   1.198   3.685   1.073 -0.2031  0.1713 -0.4685
  402TMC3     O 6060   1.261   3.782   1.122  0.0075  0.3106 -0.6073
  402TMC3     H 6061   1.362   3.610   1.233 -0.3548 -1.7298  1.4995
  402TMC3    H1 6062   1.179   3.533   0.854  0.9903 -1.2161 -1.0969
  402TMC3    H2 6063   1.547   3.342   0.955 -0.2058 -0.5448 -1.9174
  402TMC3    C7 6064   1.382   3.413   0.749 -0.1749  0.7521 -0.1087
  402TMC3    C8 6065   1.596   3.491   1.154  0.2168  0.7963  0.1114
  402TMC3    O1 6066   1.344   3.307   0.707 -0.6416  0.3108 -0.1818
  402TMC3    O2 6067   1.695   3.478   1.086 -0.6373  0.3610  0.8163
  403MPD2     C 6068   4.603   1.915  13.457 -0.2263 -0.4527  0.0818
  403MPD2    C1 6069   4.715   1.846  13.425  0.5471 -0.6410  0.5795
  403MPD2    C2 6070   0.101   1.895  13.470 -0.3261  0.4994 -0.0629
  403MPD2    C3 6071   0.114   1.994  13.556  0.1460 -0.2097 -0.4587
  403MPD2    C4 6072   0.001   2.057  13.597  0.1890 -0.1510  0.1433
  403MPD2    C5 6073   4.619   2.026  13.542 -0.7063  0.1279  0.1675
  403MPD2     H 6074   0.194   1.840  13.457 -0.5028  0.9469 -3.1565
  403MPD2    H1 6075   4.736   2.136  13.672  1.0618  0.3627 -0.3696
  403MPD2    H2 6076   4.500   1.892  13.432 -0.0322 -0.5948 -0.6009
  403MPD2    H3 6077   4.537   2.086  13.580 -1.4594 -1.6357  1.3155
  403MPD2     N 6078   0.239   2.037  13.608 -0.3982 -0.7326 -0.7120
  403MPD2    H5 6079   0.218   2.102  13.683 -0.1216 -1.3023 -0.1454
  403MPD2    N1 6080   4.702   1.733  13.333 -0.7667  0.4185 -0.3662
  403MPD2    H7 6081   4.607   1.715  13.302 -0.8329 -0.6746  0.4682
  404TMC3    C1 6082   0.028   1.551  13.193 -0.2920 -0.7695  0.2635
  404TMC3    C2 6083   4.642   1.495  13.209  0.3739 -0.3468  0.4135
  404TMC3    C3 6084   4.581   1.442  13.099 -0.1323 -0.0764  0.1534
  404TMC3    C4 6085   0.097   1.536  13.077 -0.0627  0.5104  0.1996
  404TMC3    C5 6086   0.038   1.483  12.968  0.2761 -0.2471  0.5051
  404TMC3    C6 6087   4.646   1.438  12.977  0.0055  0.4267 -0.0879
  404TMC3     C 6088   0.065   1.650  13.293  1.1254  0.0038  0.5969
  404TMC3     O 6089   0.187   1.659  13.299 -0.2846  0.0071  0.0065
  404TMC3     H 6090   4.591   1.510  13.303  1.1086  0.2444  0.7184
  404TMC3    H1 6091   0.182   1.602  13.067  0.8511 -0.5727  0.6968
  404TMC3    H2 6092   4.579   1.408  12.898  1.6581  0.8350 -1.6381
  404TMC3    C7 6093   0.105   1.492  12.840 -0.1956 -0.1084 -0.0522
  404TMC3    C8 6094   4.439   1.406  13.110  0.0900  0.5053 -0.3253
  404TMC3    O1 6095   0.212   1.549  12.835  0.2371 -0.3790 -0.6277
  404TMC3    O2 6096   4.367   1.416  13.011  0.2978  0.5615 -0.0052
  405MPD2     C 6097   0.865   2.813  15.345 -0.6981  1.0268  0.1195
  405MPD2    C1 6098   0.917   2.735  15.247  0.2674 -0.1457  0.1265
  405MPD2    C2 6099   0.899   2.767  15.118 -0.4120 -0.1302 -0.5404
  405MPD2    C3 6100   0.808   2.867  15.083 -0.2127  0.1423  0.7012
  405MPD2    C4 6101   0.742   2.941  15.178 -0.3864 -0.1507  0.0958
  405MPD2    C5 6102   0.783   2.919  15.308 -0.4951 -0.2821  0.0723
  405MPD2     H 6103   0.948   2.716  15.036  3.4977  1.2034  0.9858
  405MPD2    H1 6104   0.675   3.025  15.165 -0.4161 -0.5111 -2.1253
  405MPD2    H2 6105   0.893   2.799  15.449  1.2835  0.4697 -0.4919
  405MPD2    H3 6106   0.740   2.982  15.384  1.9895  0.5086  0.8040
  405MPD2     N 6107   0.785   2.895  14.947  0.0819 -0.5177 -0.4963
  405MPD2    H5 6108   0.850   2.850  14.884  0.9172  0.3223 -0.2219
  405MPD2    N1 6109   0.993   2.622  15.286 -0.1262 -0.0596 -0.2637
  405MPD2    H7 6110   1.013   2.616  15.385 -0.6077 -0.6836 -0.1977
  406TMC3    C1 6111   0.564   2.923  14.546 -0.3799 -0.5855 -0.2767
  406TMC3    C2 6112   0.579   2.789  14.525 -0.3419 -0.6404  0.2959
  406TMC3    C3 6113   0.634   2.717  14.627 -0.0610 -0.8834 -0.2631
  406TMC3    C4 6114   0.612   2.986  14.661 -0.2873  0.1979 -0.1896
  406TMC3    C5 6115   0.671   2.908  14.759  0.0516 -0.1396  0.0760
  406TMC3    C6 6116   0.673   2.775  14.740 -0.4561 -0.2555 -0.1270
  406TMC3     C 6117   0.446   2.990  14.503  0.3432 -0.4455 -0.3205
  406TMC3     O 6118   0.449   3.115  14.504  0.4905  0.4734 -0.3587
  406TMC3     H 6119   0.536   2.738  14.439 -2.7803 -1.2002  1.8705
  406TMC3    H1 6120   0.582   3.086  14.692 -0.1686  0.2625 -0.2827
  406TMC3    H2 6121   0.708   2.718  14.826  0.1322 -1.1813 -0.9805
  406TMC3    C7 6122   0.680   2.957  14.892 -0.3150 -0.0637  0.1692
  406TMC3    C8 6123   0.647   2.576  14.603 -0.0794 -0.1276  0.5779
  406TMC3    O1 6124   0.576   2.993  14.942  0.0372 -0.3094  0.3191
  406TMC3    O2 6125   0.567   2.519  14.528  0.8002  0.2573 -0.5799
  407MPD2     C 6126   2.985   3.282   9.543 -0.2178  0.2599  0.4051
  407MPD2    C1 6127   3.124   3.293   9.570  0.7919 -0.0284 -0.3659
  407MPD2    C2 6128   3.163   3.374   9.668  0.3023  0.1747  0.3307
  407MPD2    C3 6129   3.083   3.456   9.735 -0.5896  0.1649 -0.0744
  407MPD2    C4 6130   2.950   3.465   9.699  0.7919  0.3490 -0.1217
  407MPD2    C5 6131   2.905   3.373   9.614  0.7125  0.3456  0.5030
  407MPD2     H 6132   3.264   3.368   9.706  1.0052  0.1555 -1.5529
  407MPD2    H1 6133   2.882   3.541   9.734 -0.4464 -0.6337 -0.3610
  407MPD2    H2 6134   2.942   3.201   9.485 -0.1728 -0.2646  1.1097
  407MPD2    H3 6135   2.803   3.381   9.577 -0.4028 -0.4041  3.4500
  407MPD2     N 6136   3.130   3.547   9.840  0.1694 -0.0297 -0.7821
  407MPD2    H5 6137   3.067   3.607   9.891  0.2386  0.2947 -1.0839
  407MPD2    N1 6138   3.224   3.222   9.499  0.2757 -0.2927  0.8725
  407MPD2    H7 6139   3.322   3.231   9.523  0.7040  0.0666 -1.0505
  408TMC3    C1 6140   3.322   3.102   9.328  0.3279 -0.0097 -0.2444
  408TMC3    C2 6141   3.359   2.978   9.290 -0.3200 -0.5370  0.1088
  408TMC3    C3 6142   3.468   2.964   9.203 -0.6123  0.1670 -0.1442
  408TMC3    C4 6143   3.390   3.209   9.279 -0.5684  0.3015  0.6845
  408TMC3    C5 6144   3.494   3.191   9.198  0.5173 -0.5864 -0.4472
  408TMC3    C6 6145   3.543   3.071   9.153  0.3995  0.7322  0.2318
  408TMC3     C 6146   3.204   3.126   9.410 -1.0304 -0.6994  1.1892
  408TMC3     O 6147   3.100   3.082   9.362 -0.4008 -0.2378 -0.2617
  408TMC3     H 6148   3.306   2.897   9.339 -1.3068  0.6064  0.9239
  408TMC3    H1 6149   3.361   3.310   9.306  0.6637  0.4537  1.4262
  408TMC3    H2 6150   3.631   3.057   9.091  0.5463  0.1424  0.5672
  408TMC3    C7 6151   3.568   3.311   9.176  0.2655 -0.1375 -0.2448
  408TMC3    C8 6152   3.552   2.844   9.228 -0.1948 -0.5353 -0.6633
  408TMC3    O1 6153   3.557   3.405   9.256  0.0326 -0.4309  0.1093
  408TMC3    O2 6154   3.492   2.735   9.232  0.6552  0.1942  0.2855
  409MPD2     C 6155   2.221   0.135  16.662 -0.7297 -0.5067  0.8848
  409MPD2    C1 6156   2.330   0.073  16.724  0.1026 -0.1056  0.0523
  409MPD2    C2 6157   2.458   0.119  16.705 -0.1296 -1.2312  0.4802
  409MPD2    C3 6158   2.489   0.205  16.601 -0.0906  0.0849 -0.5568
  409MPD2    C4 6159   2.382   0.252  16.528 -0.1032  0.4490  0.5348
  409MPD2    C5 6160   2.253   0.226  16.564 -0.1664  0.2677  0.4243
  409MPD2     H 6161   2.540   0.081  16.765  0.3209  0.4204  0.9255
  409MPD2    H1 6162   2.399   0.321  16.446  0.1339  2.3465  2.1828
  409MPD2    H2 6163   2.119   0.110  16.687 -0.2305 -1.6103  1.8352
  409MPD2    H3 6164   2.169   0.267  16.510 -1.7462 -1.6335  1.4404
  409MPD2     N 6165   2.616   0.243  16.554 -0.0457  0.2143 -0.2752
  409MPD2    H5 6166   2.624   0.308  16.477 -0.8896  0.3602 -0.2380
  409MPD2    N1 6167   2.319   4.710  16.824 -0.1339 -0.0001  0.4622
  409MPD2    H7 6168   2.404   4.664  16.853  0.7964  0.0862 -2.0844
  410TMC3    C1 6169   2.836   0.303  16.581  0.0718 -0.1858  0.3290
  410TMC3    C2 6170   2.918   0.357  16.674 -0.7855 -0.4525  0.2430
  410TMC3    C3 6171   3.008   0.456  16.637 -0.7129  0.2296  0.2749
  410TMC3    C4 6172   2.846   0.319  16.446  1.0120  0.1875 -0.3092
  410TMC3    C5 6173   2.942   0.413  16.412 -0.0641 -0.5708  0.5364
  410TMC3    C6 6174   3.024   0.486  16.503 -0.4830  0.3151  1.2590
  410TMC3     C 6175   2.728   0.216  16.625  0.3426  0.1083  0.4136
  410TMC3     O 6176   2.740   0.157  16.732 -0.1372 -0.1564 -0.0895
  410TMC3     H 6177   2.886   0.342  16.777 -0.2042  1.6636  0.7425
  410TMC3    H1 6178   2.788   0.265  16.372  2.2549 -1.1222 -0.3165
  410TMC3    H2 6179   3.102   0.554  16.471  0.7081 -1.3982  0.5662
  410TMC3    C7 6180   2.987   0.402  16.277  0.3827 -0.8382 -0.7120
  410TMC3    C8 6181   3.110   0.509  16.721 -0.5472 -0.5938 -0.0750
  410TMC3    O1 6182   2.992   0.290  16.226 -0.4746  0.1257  0.1771
  410TMC3    O2 6183   3.182   0.600  16.679 -0.2486  0.1634  0.5316
  411MPD2     C 6184   3.082   0.072  14.618 -0.1287  0.6248  0.4017
  411MPD2    C1 6185   2.970   0.155  14.602 -0.0686  0.3903  1.0421
  411MPD2    C2 6186   2.839   0.112  14.616 -0.4142  0.1488  0.4536
  411MPD2    C3 6187   2.818   4.712  14.634  0.0214  0.0040  0.2610
  411MPD2    C4 6188   2.932   4.627  14.625  0.6011  0.0381 -0.5095
  411MPD2    C5 6189   3.060   4.673  14.621 -0.3636 -0.0259  0.6945
  411MPD2     H 6190   2.752   0.175  14.603 -1.1589 -0.8490  0.5529
  411MPD2    H1 6191   2.921   4.522  14.650  0.7928  0.1818  0.1863
  411MPD2    H2 6192   3.187   0.100  14.620  0.1519 -0.4601  0.6731
  411MPD2    H3 6193   3.137   4.598  14.628 -0.0760  0.5014  3.2482
  411MPD2     N 6194   2.684   4.658  14.635 -0.1639  0.4795  0.5532
  411MPD2    H5 6195   2.675   4.557  14.637 -1.9707  0.6461 -0.0598
  411MPD2    N1 6196   2.985   0.295  14.592  0.4932 -0.0187  0.2339
  411MPD2    H7 6197   2.897   0.344  14.584  0.9667  0.2803 -2.9587
  412TMC3    C1 6198   2.459   4.648  14.599  0.5125  0.1707 -0.9299
  412TMC3    C2 6199   2.333   4.708  14.601 -0.5070  0.5231 -0.0267
  412TMC3    C3 6200   2.239   4.653  14.522  0.1349 -0.0296 -0.0140
  412TMC3    C4 6201   2.488   4.536  14.515 -0.3806 -0.2874 -0.5166
  412TMC3    C5 6202   2.393   4.486  14.432 -0.3872 -0.0860  0.2937
  412TMC3    C6 6203   2.266   4.542  14.444 -0.1119  0.3242  0.3544
  412TMC3     C 6204   2.571   4.723  14.658 -0.2687  0.2838  0.7445
  412TMC3     O 6205   2.547   0.102  14.677 -0.0208 -0.1285  0.0067
  412TMC3     H 6206   2.312   0.058  14.662  1.4600  0.8713  0.1417
  412TMC3    H1 6207   2.589   4.516  14.481  0.0819 -0.6878  1.0911
  412TMC3    H2 6208   2.204   4.505  14.364  0.2570 -2.5786  1.3914
  412TMC3    C7 6209   2.431   4.483  14.293 -0.7042 -0.4251 -0.2581
  412TMC3    C8 6210   2.157   0.016  14.448 -0.3914  0.2665 -0.2336
  412TMC3    O1 6211   2.386   4.575  14.227  0.3526  0.0290 -0.2625
  412TMC3    O2 6212   2.079   0.083  14.513  0.2724 -0.2304  0.7371
  413MPD2     C 6213   4.493   3.739  15.742 -0.4033  0.1970 -0.1365
  413MPD2    C1 6214   4.483   3.697  15.610  0.0215  0.1225 -0.2961
  413MPD2    C2 6215   4.595   3.643  15.542  1.0300  0.3255  1.4861
  413MPD2    C3 6216   4.711   3.609  15.617  0.0786  0.5134  0.1869
  413MPD2    C4 6217   4.713   3.643  15.748 -0.5265  0.4047  0.6268
  413MPD2    C5 6218   4.606   3.707  15.810 -0.1289 -0.2652  0.7265
  413MPD2     H 6219   4.586   3.601  15.443 -0.8303  1.4552  1.1643
  413MPD2    H1 6220   0.061   3.620  15.811  0.6226  1.4798 -0.5336
  413MPD2    H2 6221   4.415   3.791  15.797  0.0168  0.1661  0.4859
  413MPD2    H3 6222   4.613   3.739  15.914 -0.4409  0.8312  0.4142
  413MPD2     N 6223   0.082   3.544  15.554 -0.7044  0.2783  0.5078
  413MPD2    H5 6224   0.160   3.519  15.613 -0.3884  0.6634  0.2522
  413MPD2    N1 6225   4.360   3.720  15.551  0.2290  0.4000  0.2222
  413MPD2    H7 6226   4.283   3.763  15.601  1.3186 -0.2505  2.4699
  414TMC3    C1 6227   0.200   3.429  15.384  0.9227 -0.4505  0.7011
  414TMC3    C2 6228   0.255   3.353  15.483  0.4004 -0.0436 -0.2039
  414TMC3    C3 6229   0.363   3.278  15.449 -1.0083  0.2588  0.2902
  414TMC3    C4 6230   0.254   3.439  15.259  0.2753  0.9745  0.0220
  414TMC3    C5 6231   0.368   3.368  15.236  0.5745 -0.7645 -0.5199
  414TMC3    C6 6232   0.424   3.290  15.333 -0.6808  0.8678  0.2287
  414TMC3     C 6233   0.092   3.520  15.422  1.0142  0.2362  0.2309
  414TMC3     O 6234   0.042   3.594  15.340  0.4889 -0.3730 -0.1424
  414TMC3     H 6235   0.202   3.332  15.575  2.5051  2.7946  1.6607
  414TMC3    H1 6236   0.210   3.512  15.191  1.7570  0.9881 -0.9203
  414TMC3    H2 6237   0.499   3.217  15.304 -0.4665 -0.3021  3.6513
  414TMC3    C7 6238   0.408   3.361  15.101  0.7835  0.4170 -0.4847
  414TMC3    C8 6239   0.401   3.172  15.538  0.4681 -0.5221 -0.3957
  414TMC3    O1 6240   0.331   3.389  15.011  0.4413  0.7407 -0.0863
  414TMC3    O2 6241   0.387   3.191  15.657  0.3809  0.0449 -0.3939
  415TMC3    C1 6242   1.024   1.705   9.708  0.3841 -0.4393  0.1968
  415TMC3    C2 6243   1.146   1.694   9.774 -0.7050 -0.4775 -0.3056
  415TMC3    C3 6244   1.202   1.563   9.771  0.7096 -0.2676 -0.0679
  415TMC3    C4 6245   0.973   1.607   9.624  0.0758 -1.0034 -0.5802
  415TMC3    C5 6246   1.048   1.496   9.612 -0.1469  0.2334 -0.6054
  415TMC3    C6 6247   1.164   1.468   9.680 -0.0996 -0.3347 -0.3133
  415TMC3     C 6248   0.929   1.798   9.757  0.1888  0.1647  0.8922
  415TMC3     O 6249   0.815   1.765   9.731 -0.2417 -0.4100 -0.0197
  415TMC3     H 6250   1.192   1.774   9.830 -0.3808 -0.7258 -0.2153
  415TMC3    H1 6251   0.881   1.623   9.569 -0.7446 -1.3109  0.6886
  415TMC3    H2 6252   1.219   1.376   9.666  0.2675  0.1776 -2.3050
  415TMC3    C7 6253   0.997   1.391   9.520  0.6569  0.7758  0.3114
  415TMC3    C8 6254   1.337   1.544   9.828 -0.3421 -0.3894  0.4381
  415TMC3    O1 6255   1.077   1.303   9.489  0.5039  0.0589  0.1564
  415TMC3    O2 6256   1.406   1.460   9.771 -0.1661  0.8278  0.0421
  416MPD2     C 6257   2.527   0.142  11.372 -0.7790  0.1176  0.5140
  416MPD2    C1 6258   2.398   0.094  11.376 -0.2659 -0.1929 -0.1427
  416MPD2    C2 6259   2.362   4.716  11.314 -0.4721  0.0450  0.1379
  416MPD2    C3 6260   2.430   4.658  11.213  0.9183 -0.5191 -0.4085
  416MPD2    C4 6261   2.554   4.712  11.189  0.2766 -0.7668 -0.5604
  416MPD2    C5 6262   2.600   0.070  11.281 -0.4157 -0.3824 -0.0444
  416MPD2     H 6263   2.270   4.667  11.346 -0.2078 -0.6325 -0.1243
  416MPD2    H1 6264   2.633   4.659  11.137 -0.8980 -1.5110 -1.6028
  416MPD2    H2 6265   2.573   0.225  11.426  1.4691 -0.6844 -0.1912
  416MPD2    H3 6266   2.703   0.102  11.286  0.1449 -2.2007 -0.0125
  416MPD2     N 6267   2.382   4.539  11.161 -0.5839 -0.3031 -0.3608
  416MPD2    H5 6268   2.298   4.493  11.196  1.0862 -3.1135 -0.0616
  416MPD2    N1 6269   2.313   0.177  11.457  0.1291  0.0686 -0.1455
  416MPD2    H7 6270   2.353   0.266  11.486 -1.7294  0.1172  2.3181
  417TMC3    C1 6271   2.108   0.282  11.514 -0.3200  0.0371  0.4223
  417TMC3    C2 6272   2.161   0.355  11.622 -0.2455  0.3320 -0.4371
  417TMC3    C3 6273   2.063   0.440  11.677  0.3901  0.4923  0.0317
  417TMC3    C4 6274   1.978   0.292  11.463 -0.2052 -0.0276  0.0399
  417TMC3    C5 6275   1.897   0.385  11.513 -0.2097 -0.7915 -0.3615
  417TMC3    C6 6276   1.931   0.451  11.629 -0.1820 -0.5773  1.0621
  417TMC3     C 6277   2.174   0.163  11.459 -0.3191 -0.6375 -0.0297
  417TMC3     O 6278   2.101   0.076  11.405  0.0215  0.0289  0.3555
  417TMC3     H 6279   2.259   0.334  11.663  0.5787 -0.0849 -2.6309
  417TMC3    H1 6280   1.946   0.223  11.385  1.7545 -1.0534  0.1545
  417TMC3    H2 6281   1.870   0.532  11.666 -0.8832 -2.0406  3.1037
  417TMC3    C7 6282   1.799   0.440  11.430  0.6577  0.3747  0.7260
  417TMC3    C8 6283   2.096   0.523  11.786  0.3883  0.1236 -0.4192
  417TMC3    O1 6284   1.820   0.438  11.307  0.8956  0.6005 -0.7665
  417TMC3    O2 6285   2.027   0.620  11.813 -0.4521  0.6030  0.0393
  418TMC3    C1 6286   0.637   3.198   0.108  0.4711 -0.6021  0.0061
  418TMC3    C2 6287   0.507   3.213   0.060 -0.5022 -0.1398  0.1276
  418TMC3    C3 6288   0.412   3.143   0.132 -0.0723  0.7299  0.6539
  418TMC3    C4 6289   0.669   3.136   0.228  0.4026 -0.2505 -0.4668
  418TMC3    C5 6290   0.568   3.072   0.295  0.3046 -0.4500 -0.1305
  418TMC3    C6 6291   0.438   3.073   0.248 -0.4190  0.1156  0.3760
  418TMC3     C 6292   0.737   3.197   0.004 -0.3591  0.1682 -0.2377
  418TMC3     O 6293   0.720   3.264  17.649  0.6642 -0.4383 -0.2042
  418TMC3     H 6294   0.480   3.249  17.709 -0.3778 -0.5877 -0.0697
  418TMC3    H1 6295   0.771   3.131   0.264 -0.2346 -0.7722  1.2728
  418TMC3    H2 6296   0.359   3.038   0.314  1.4611  0.5470  2.8812
  418TMC3    C7 6297   0.592   3.069   0.437 -0.4229 -0.6790 -0.5857
  418TMC3    C8 6298   0.283   3.127   0.070 -0.8363 -0.6721  0.1838
  418TMC3    O1 6299   0.652   3.166   0.477 -0.0218 -0.2265 -0.3108
  418TMC3    O2 6300   0.234   3.196  17.729  0.1097 -0.6331 -0.0124
  419MPD2     C 6301   4.442   4.697  12.187 -0.0324 -0.0492  0.0351
  419MPD2    C1 6302   4.319   0.017  12.168 -0.5486  0.3148  0.8375
  419MPD2    C2 6303   4.245   0.059  12.276  0.2460 -0.2154 -0.6626
  419MPD2    C3 6304   4.295   0.056  12.407 -0.4467  0.2951 -0.2888
  419MPD2    C4 6305   4.421   4.733  12.426 -0.5032  1.0885  0.5353
  419MPD2    C5 6306   4.488   4.688  12.314  0.2766 -0.2668  0.6882
  419MPD2     H 6307   4.154   0.118  12.267 -0.1655 -0.4724  1.8456
  419MPD2    H1 6308   4.463   4.722  12.525 -0.7902 -0.0120  0.5399
  419MPD2    H2 6309   4.494   4.648  12.105  1.6031 -0.1404  1.1196
  419MPD2    H3 6310   4.582   4.633  12.323  1.4008  1.5372  0.0188
  419MPD2     N 6311   4.216   0.106  12.518  0.1654  0.2912 -0.3720
  419MPD2    H5 6312   4.127   0.142  12.485  1.4268  1.0905 -2.8946
  419MPD2    N1 6313   4.248   0.038  12.041  0.7854 -0.0428  0.2015
  419MPD2    H7 6314   4.153   0.071  12.055  0.6031  0.2872 -1.7666
  420TMC3    C1 6315   4.165   0.202  12.720 -0.5543 -0.1260 -0.2034
  420TMC3    C2 6316   4.052   0.266  12.670 -0.4548  0.0682  0.4416
  420TMC3    C3 6317   3.999   0.364  12.745  0.2526 -0.7552  0.4130
  420TMC3    C4 6318   4.207   0.235  12.843 -0.2659 -0.2042  0.9086
  420TMC3    C5 6319   4.141   0.326  12.916 -0.4389  0.3624  0.0898
  420TMC3    C6 6320   4.035   0.398  12.868  0.2155  0.0677 -0.6161
  420TMC3     C 6321   4.253   0.119  12.645  0.4780  0.4197  0.0731
  420TMC3     O 6322   4.352   0.072  12.703 -0.0144 -0.7769  0.0141
  420TMC3     H 6323   4.006   0.247  12.573 -0.6913  1.1645  0.3413
  420TMC3    H1 6324   4.294   0.185  12.885 -0.6013 -1.2095  0.4174
  420TMC3    H2 6325   3.968   0.461  12.924  0.8870 -0.5977  0.9326
  420TMC3    C7 6326   4.183   0.345  13.055  0.3786 -0.7675  0.3688
  420TMC3    C8 6327   3.886   0.440  12.689  0.2152  0.3760  0.0987
  420TMC3    O1 6328   4.240   0.249  13.109 -0.1072  0.1414  0.3005
  420TMC3    O2 6329   3.816   0.374  12.614 -0.2819  0.0746  0.5872
  421TMC3    C1 6330   0.448   2.018  13.699  0.0662 -0.4641 -0.1250
  421TMC3    C2 6331   0.454   2.154  13.727  0.1879 -0.4376  0.4887
  421TMC3    C3 6332   0.567   2.205  13.784 -0.2549  0.9918 -0.2231
  421TMC3    C4 6333   0.547   1.930  13.726 -1.4654  0.3417  0.3842
  421TMC3    C5 6334   0.666   1.987  13.772 -0.2809 -0.4817  0.2165
  421TMC3    C6 6335   0.673   2.118  13.815  0.0684 -0.3164 -0.2530
  421TMC3     C 6336   0.361   1.979  13.594 -0.3767 -0.5572  0.3298
  421TMC3     O 6337   0.394   1.890  13.520 -0.4240  0.2437 -0.1103
  421TMC3     H 6338   0.381   2.218  13.678  1.2677 -0.6929 -1.4902
  421TMC3    H1 6339   0.537   1.825  13.701 -1.0028  0.7750 -1.6726
  421TMC3    H2 6340   0.760   2.156  13.867  1.6859 -1.0629 -2.3788
  421TMC3    C7 6341   0.785   1.912  13.763  0.5845 -0.1584  0.5258
  421TMC3    C8 6342   0.590   2.343  13.828  0.3574 -0.2953 -0.2878
  421TMC3    O1 6343   0.890   1.975  13.775 -0.5614  0.5370 -0.6696
  421TMC3    O2 6344   0.698   2.372  13.874  0.3142  0.1764  0.0460
  422TMC3    C1 6345   3.191   3.148  12.552 -0.1375  0.1877  0.5415
  422TMC3    C2 6346   3.198   3.237  12.656 -0.2105 -0.5786 -1.2353
  422TMC3    C3 6347   3.105   3.218  12.757  0.0551  0.0873 -0.2395
  422TMC3    C4 6348   3.086   3.051  12.533 -0.3513  0.6130  0.0954
  422TMC3    C5 6349   2.995   3.047  12.633  0.9343  0.2445  0.2047
  422TMC3    C6 6350   2.998   3.133  12.744 -0.0377  0.2829  0.5846
  422TMC3     C 6351   3.301   3.144  12.460 -0.2389 -0.1260 -0.2356
  422TMC3     O 6352   3.414   3.170  12.506  0.0470 -0.6027  0.0980
  422TMC3     H 6353   3.286   3.300  12.663  0.8478 -1.8214 -3.3812
  422TMC3    H1 6354   3.083   2.974  12.458  0.0554 -0.3526  1.0761
  422TMC3    H2 6355   2.929   3.125  12.827 -0.7075  2.5507  0.2503
  422TMC3    C7 6356   2.916   2.924  12.644  0.3427 -0.1917 -0.6402
  422TMC3    C8 6357   3.139   3.278  12.885 -1.1049  0.4718  0.9133
  422TMC3    O1 6358   2.958   2.829  12.576 -0.6871  0.1277 -0.0117
  422TMC3    O2 6359   3.222   3.365  12.886  0.5004  0.1714 -0.0633
  423MPD2     C 6360   3.933   4.159   0.159  0.3296  0.7985  0.3792
  423MPD2    C1 6361   4.068   4.182   0.155  0.3733 -1.5937  0.4539
  423MPD2    C2 6362   4.133   4.138   0.045 -0.4154 -0.8130  0.5804
  423MPD2    C3 6363   4.078   4.061  17.702  0.1195 -0.2131  0.3073
  423MPD2    C4 6364   3.946   4.032  17.709 -0.5458  0.2791 -0.9459
  423MPD2    C5 6365   3.872   4.085   0.068 -0.4463  0.3763 -0.0088
  423MPD2     H 6366   4.237   4.167   0.033 -0.3011 -1.0501  0.9852
  423MPD2    H1 6367   3.898   3.977  17.629  1.2805 -1.5451 -0.7892
  423MPD2    H2 6368   3.869   4.203   0.235 -0.2569  0.4231  0.1028
  423MPD2    H3 6369   3.767   4.061   0.066 -0.0369 -1.4308 -0.2578
  423MPD2     N 6370   4.136   4.001  17.587  0.0590  0.2008  0.4244
  423MPD2    H5 6371   4.073   3.939  17.538  0.4610 -0.3021  0.5469
  423MPD2    N1 6372   4.134   4.275   0.241  0.4295  0.3949  0.8291
  423MPD2    H7 6373   4.216   4.325   0.208  0.3629  0.7488  1.2117
  424TMC3    C1 6374   4.176   4.399   0.448 -0.1142 -0.2614  0.6689
  424TMC3    C2 6375   4.312   4.393   0.468 -0.5453 -0.6637 -0.0518
  424TMC3    C3 6376   4.373   4.485   0.546  0.5271  0.1149  0.0800
  424TMC3    C4 6377   4.100   4.496   0.506  0.4409  0.6096 -0.1295
  424TMC3    C5 6378   4.167   4.593   0.586  0.4514  0.4082 -0.1974
  424TMC3    C6 6379   4.303   4.578   0.608 -0.4286  0.6687  0.7717
  424TMC3     C 6380   4.096   4.307   0.367 -0.7235 -0.3190 -0.0271
  424TMC3     O 6381   4.005   4.266   0.432 -0.2720  0.5881  0.5344
  424TMC3     H 6382   4.375   4.315   0.427 -0.7896 -0.6044 -0.5391
  424TMC3    H1 6383   3.996   4.502   0.476  0.9990  2.1727 -1.7455
  424TMC3    H2 6384   4.350   4.636   0.687 -0.3660  0.1890  1.0910
  424TMC3    C7 6385   4.102   4.696   0.653  0.1280 -0.3851 -0.6677
  424TMC3    C8 6386   4.517   4.449   0.572 -0.5341  0.1986  0.1887
  424TMC3    O1 6387   4.168   0.056   0.700 -0.4422 -0.1726 -0.4704
  424TMC3    O2 6388   4.565   4.349   0.521  0.5106  0.1168 -0.3195
  425MPD2     C 6389   3.027   3.655  16.918  1.2827  0.3886 -0.1905
  425MPD2    C1 6390   2.961   3.554  16.988  0.0861  0.1473  1.0623
  425MPD2    C2 6391   2.850   3.580  17.058 -0.7844 -0.1915  0.3943
  425MPD2    C3 6392   2.799   3.705  17.067 -0.4641  0.0786 -0.1099
  425MPD2    C4 6393   2.859   3.809  16.999 -0.5464 -0.2748 -0.3015
  425MPD2    C5 6394   2.975   3.782  16.927  0.7002  0.3331 -0.3908
  425MPD2     H 6395   2.792   3.499  17.102 -1.1518 -0.6130 -0.8848
  425MPD2    H1 6396   2.810   3.906  17.003  1.8028  0.9532 -1.3203
  425MPD2    H2 6397   3.120   3.640  16.865  2.4240  1.0658  1.6100
  425MPD2    H3 6398   3.039   3.858  16.884  1.4724  0.2550  0.6152
  425MPD2     N 6399   2.690   3.718  17.149 -0.2692 -0.3407  0.1933
  425MPD2    H5 6400   2.658   3.632  17.192  1.1378 -0.4975  0.9197
  425MPD2    N1 6401   3.026   3.431  17.000  0.3121  0.1009 -0.1817
  425MPD2    H7 6402   3.113   3.423  16.948 -0.9573  0.6121 -2.3783
  426TMC3    C1 6403   3.093   3.230  17.104  0.7439 -0.9869  0.3557
  426TMC3    C2 6404   3.156   3.179  16.996 -0.0326 -0.0684 -0.4338
  426TMC3    C3 6405   3.220   3.056  17.003  0.0811  0.8391  0.5003
  426TMC3    C4 6406   3.097   3.164  17.226  0.4574 -0.2413  0.3022
  426TMC3    C5 6407   3.149   3.038  17.225 -0.3771 -0.3073 -0.3000
  426TMC3    C6 6408   3.217   2.980  17.120 -0.1275  0.7973 -1.0015
  426TMC3     C 6409   3.005   3.341  17.106 -0.8168 -0.6450  0.8197
  426TMC3     O 6410   2.929   3.350  17.203  0.0057 -0.2245  0.4359
  426TMC3     H 6411   3.156   3.251  16.914  1.1794  0.5739  0.1166
  426TMC3    H1 6412   3.023   3.179  17.305 -0.7930 -1.0602 -0.7092
  426TMC3    H2 6413   3.240   2.874  17.128  0.8793  0.9775 -1.4358
  426TMC3    C7 6414   3.143   2.953  17.345 -0.5805 -0.3126 -0.1934
  426TMC3    C8 6415   3.256   2.980  16.883  0.3721  0.4393 -0.6280
  426TMC3    O1 6416   3.173   2.834  17.340 -0.0601  0.4569 -0.0419
  426TMC3    O2 6417   3.372   2.937  16.864  0.2137 -0.1623  0.4010
  427MPD2     C 6418   2.155   0.603  14.843  0.1941  0.7134  1.0900
  427MPD2    C1 6419   2.145   0.714  14.926 -0.4703 -0.4933 -0.3590
  427MPD2    C2 6420   2.028   0.786  14.935 -0.5521 -0.8264 -0.3992
  427MPD2    C3 6421   1.915   0.747  14.865  0.7045 -0.3224  0.6052
  427MPD2    C4 6422   1.924   0.631  14.781  0.2645  0.7139 -0.1053
  427MPD2    C5 6423   2.039   0.561  14.774 -0.1371 -0.0902 -0.6681
  427MPD2     H 6424   2.041   0.876  14.994 -0.7535  0.4738 -2.3274
  427MPD2    H1 6425   1.840   0.602  14.718  0.1367  0.9308 -0.0379
  427MPD2    H2 6426   2.240   0.539  14.822 -0.9416 -0.8224  1.1470
  427MPD2    H3 6427   2.041   0.470  14.715  0.8706 -1.1752  1.0120
  427MPD2     N 6428   1.796   0.820  14.872  0.2485  0.1540  0.1255
  427MPD2    H5 6429   1.723   0.793  14.806  1.3437 -1.3284 -0.4859
  427MPD2    N1 6430   2.256   0.764  14.999  0.3651  0.1369  0.1938
  427MPD2    H7 6431   2.229   0.825  15.075  3.3263  0.4150  0.9988
  428TMC3    C1 6432   2.478   0.753  15.100 -0.0616 -0.3125  0.4569
  428TMC3    C2 6433   2.466   0.872  15.170 -0.8117 -0.6462 -0.1684
  428TMC3    C3 6434   2.563   0.903  15.262  0.4358 -0.5038 -0.7305
  428TMC3    C4 6435   2.594   0.678  15.116  0.4837 -1.0185 -0.2490
  428TMC3    C5 6436   2.689   0.721  15.208  0.4451 -0.2133 -0.6049
  428TMC3    C6 6437   2.682   0.833  15.279  0.3406 -0.1101 -0.0019
  428TMC3     C 6438   2.384   0.704  14.998 -0.1167  0.2153  0.4745
  428TMC3     O 6439   2.421   0.608  14.933  0.3626 -0.1497 -0.0567
  428TMC3     H 6440   2.375   0.932  15.172 -0.4356 -0.0660 -0.7937
  428TMC3    H1 6441   2.610   0.588  15.057 -0.0962  0.0511 -2.0244
  428TMC3    H2 6442   2.752   0.861  15.357  1.0204 -0.5423 -0.4552
  428TMC3    C7 6443   2.804   0.643  15.240  0.2591  0.3781 -0.5081
  428TMC3    C8 6444   2.512   0.964  15.388 -0.3063  0.1701  0.0522
  428TMC3    O1 6445   2.843   0.647  15.354 -0.0176 -0.3080  0.0609
  428TMC3    O2 6446   2.395   0.949  15.416  0.2564  0.0609 -0.6563
  429MPD2     C 6447   2.558   0.972  17.081 -0.1671 -0.5917 -0.4117
  429MPD2    C1 6448   2.679   0.909  17.104 -0.1573 -0.3027 -0.2042
  429MPD2    C2 6449   2.797   0.969  17.069  0.3911  0.7361  0.5488
  429MPD2    C3 6450   2.798   1.090  17.009 -0.0281 -0.0188  0.1335
  429MPD2    C4 6451   2.680   1.151  16.986  0.4838 -0.1001 -0.5358
  429MPD2    C5 6452   2.560   1.087  17.017 -0.2211 -0.3018 -0.4964
  429MPD2     H 6453   2.889   0.914  17.081  0.8545  1.2872 -0.5104
  429MPD2    H1 6454   2.670   1.251  16.943 -2.5663 -0.6061 -0.9931
  429MPD2    H2 6455   2.464   0.931  17.117  1.4923 -1.2405  3.1731
  429MPD2    H3 6456   2.463   1.130  16.993 -0.6085 -0.3029  1.0727
  429MPD2     N 6457   2.926   1.143  16.978 -0.1238 -0.1663  0.7551
  429MPD2    H5 6458   3.010   1.094  17.009  0.3954  0.2282 -0.0356
  429MPD2    N1 6459   2.682   0.788  17.172 -0.0016 -0.3781  0.0206
  429MPD2    H7 6460   2.772   0.750  17.200  0.5152 -0.5067 -1.8774
  430TMC3    C1 6461   3.091   1.261  16.854  0.1871 -0.3016 -0.2172
  430TMC3    C2 6462   3.135   1.364  16.771  0.1348 -0.0255  0.1454
  430TMC3    C3 6463   3.264   1.384  16.741 -0.1948  0.0146 -0.1049
  430TMC3    C4 6464   3.179   1.163  16.888  0.2767  0.1185 -0.3856
  430TMC3    C5 6465   3.305   1.173  16.838  0.5083  0.1270  1.4383
  430TMC3    C6 6466   3.351   1.283  16.770 -0.1644 -0.2834 -0.5314
  430TMC3     C 6467   2.950   1.245  16.888  0.2853  0.4214  0.0013
  430TMC3     O 6468   2.873   1.325  16.834 -0.5899  0.3725 -0.1453
  430TMC3     H 6469   3.068   1.441  16.734  1.0900  0.0480 -1.4231
  430TMC3    H1 6470   3.143   1.066  16.919  0.6445  0.2469  0.4389
  430TMC3    H2 6471   3.455   1.286  16.740  0.2725 -1.7387  0.7940
  430TMC3    C7 6472   3.355   1.053  16.771  0.2157 -0.0027 -0.1797
  430TMC3    C8 6473   3.283   1.465  16.622  0.1791  0.3254 -0.0566
  430TMC3    O1 6474   3.329   0.949  16.827 -0.0189 -0.3155  0.6262
  430TMC3    O2 6475   3.192   1.468  16.538 -0.1794  0.4712 -0.2050
  431MPD2     C 6476   3.997   0.712  12.167 -0.1921  0.5070  0.3175
  431MPD2    C1 6477   4.088   0.741  12.065  0.3398 -0.0964  0.0776
  431MPD2    C2 6478   4.109   0.644  11.970  0.4290 -0.2549 -0.1140
  431MPD2    C3 6479   4.060   0.517  11.996 -0.4805 -0.0558 -0.2924
  431MPD2    C4 6480   3.971   0.494  12.103 -0.2974  0.2157  0.4940
  431MPD2    C5 6481   3.936   0.594  12.185 -0.0350  0.5444 -0.1071
  431MPD2     H 6482   4.185   0.657  11.893  0.8222  0.1113  0.3384
  431MPD2    H1 6483   3.926   0.399  12.127  0.5306 -0.6880 -1.5616
  431MPD2    H2 6484   3.966   0.786  12.239 -0.1732  1.9435 -1.1379
  431MPD2    H3 6485   3.864   0.578  12.264 -0.7745  0.5225 -0.7873
  431MPD2     N 6486   4.085   0.404  11.913 -0.0483 -0.2365 -0.0173
  431MPD2    H5 6487   4.061   0.312  11.949 -0.1139 -0.5665 -0.9017
  431MPD2    N1 6488   4.162   0.857  12.056 -1.1167 -0.0885 -0.4947
  431MPD2    H7 6489   4.208   0.870  11.967 -0.1357  0.7644  0.1497
  432TMC3    C1 6490   4.179   0.269  11.751 -0.5383  0.4128 -0.4503
  432TMC3    C2 6491   4.261   0.259  11.641  0.5098  0.6365  0.4484
  432TMC3    C3 6492   4.319   0.139  11.623 -0.0315  0.4594  0.1119
  432TMC3    C4 6493   4.151   0.161  11.827 -0.2293 -0.3782  0.1117
  432TMC3    C5 6494   4.219   0.044  11.801  0.0209 -0.1805 -0.1616
  432TMC3    C6 6495   4.297   0.032  11.697  0.3289  0.7566 -0.1245
  432TMC3     C 6496   4.152   0.404  11.797  0.7190 -0.8384  0.0787
  432TMC3     O 6497   4.193   0.493  11.726  0.1434 -0.4595  0.0619
  432TMC3     H 6498   4.283   0.341  11.573  0.6372  1.7404  1.8129
  432TMC3    H1 6499   4.066   0.162  11.894  0.5707  1.2806  1.1149
  432TMC3    H2 6500   4.360   4.684  11.676 -0.8293 -0.6105  1.8812
  432TMC3    C7 6501   4.289   4.733  11.920  0.5538 -0.0092 -0.1638
  432TMC3    C8 6502   4.459   0.139  11.574  0.1056 -1.0810 -0.7422
  432TMC3    O1 6503   4.387   4.665  11.894  0.2207  0.5500 -0.7231
  432TMC3    O2 6504   4.503   0.044  11.513 -0.2008 -0.3753  0.2064
  433MPD2     C 6505   3.256   4.079  10.996  1.2401  0.3527  0.1633
  433MPD2    C1 6506   3.130   4.027  11.026 -0.6147 -0.3461 -0.1206
  433MPD2    C2 6507   3.049   4.068  11.126  0.2133 -0.6635  0.3645
  433MPD2    C3 6508   3.108   4.170  11.209  0.0292 -0.4853 -0.4343
  433MPD2    C4 6509   3.231   4.230  11.174  0.4689  0.2913 -0.4826
  433MPD2    C5 6510   3.305   4.176  11.069  0.0295  0.1291  0.0452
  433MPD2     H 6511   2.957   4.021  11.158 -0.5125  1.2019  0.9800
  433MPD2    H1 6512   3.278   4.310  11.229 -1.4421  0.0632  1.4979
  433MPD2    H2 6513   3.304   4.025  10.916  1.4639 -1.0176  1.2069
  433MPD2    H3 6514   3.390   4.224  11.022 -1.5329 -0.0373 -2.9281
  433MPD2     N 6515   3.051   4.182  11.342  0.7927 -0.2820 -0.0247
  433MPD2    H5 6516   2.968   4.124  11.350  0.4182  0.1941 -0.5037
  433MPD2    N1 6517   3.085   3.933  10.929 -0.3108  0.4829 -0.0165
  433MPD2    H7 6518   3.156   3.903  10.864  1.1878 -0.4756  2.0780
  434TMC3    C1 6519   2.954   3.772  10.828 -0.2558 -0.2395 -0.7277
  434TMC3    C2 6520   2.868   3.675  10.865  0.6362 -0.3141 -0.0594
  434TMC3    C3 6521   2.854   3.571  10.785 -0.0710 -1.0105  0.0197
  434TMC3    C4 6522   3.028   3.766  10.718 -0.4711  0.2025  0.0529
  434TMC3    C5 6523   2.996   3.665  10.629  0.3058  0.8232 -0.3086
  434TMC3    C6 6524   2.917   3.560  10.661  0.1081 -0.0602 -0.7648
  434TMC3     C 6525   2.961   3.875  10.927 -0.2223  0.2603  0.0529
  434TMC3     O 6526   2.859   3.897  10.995  0.1782 -0.8247 -0.2921
  434TMC3     H 6527   2.825   3.670  10.964 -2.1597  2.2765 -1.1571
  434TMC3    H1 6528   3.079   3.857  10.688  1.1199 -0.6498  0.1397
  434TMC3    H2 6529   2.888   3.477  10.598  0.5307 -0.1795 -0.7973
  434TMC3    C7 6530   2.974   3.710  10.490  0.1953 -0.7008  0.6903
  434TMC3    C8 6531   2.819   3.443  10.850 -0.6039 -0.5111 -0.8675
  434TMC3    O1 6532   2.961   3.827  10.464  0.4037 -0.1635 -0.1913
  434TMC3    O2 6533   2.759   3.446  10.958 -0.3301 -0.3101  0.2084
  435MPD2     C 6534   0.713   4.540  15.469  0.1608  0.4508  0.6463
  435MPD2    C1 6535   0.610   4.460  15.530 -0.5550 -0.2102  0.2271
  435MPD2    C2 6536   0.638   4.329  15.567 -0.4570  0.4903  0.1434
  435MPD2    C3 6537   0.767   4.278  15.555  0.5761  0.2115  0.4630
  435MPD2    C4 6538   0.865   4.353  15.494 -0.6069 -0.1325  0.3286
  435MPD2    C5 6539   0.835   4.479  15.452 -0.1535 -0.3448  0.2595
  435MPD2     H 6540   0.570   4.270  15.628  0.3421 -1.2305 -0.6015
  435MPD2    H1 6541   0.967   4.323  15.471 -0.8599 -0.0831 -0.8238
  435MPD2    H2 6542   0.695   4.644  15.441  0.6925 -0.0110 -1.3658
  435MPD2    H3 6543   0.912   4.533  15.397 -2.3294  0.8933 -1.5815
  435MPD2     N 6544   0.788   4.151  15.609 -0.3837 -0.2465 -0.3179
  435MPD2    H5 6545   0.704   4.102  15.640 -1.8668  2.0826 -0.5777
  435MPD2    N1 6546   0.487   4.520  15.576 -0.5382 -0.0200 -0.3446
  435MPD2    H7 6547   0.420   4.470  15.634  0.1000 -1.0639 -0.5017
  436TMC3    C1 6548   0.279   0.070  15.852 -0.2698 -0.5607 -0.6866
  436TMC3    C2 6549   0.366   0.045  15.755  0.6583  0.5297 -0.5522
  436TMC3    C3 6550   0.347   4.672  15.677 -0.1982 -0.0192  0.0393
  436TMC3    C4 6551   0.162   4.723  15.871  0.0582 -0.6680  0.1060
  436TMC3    C5 6552   0.152   4.611  15.789  0.6318 -0.5950  0.2683
  436TMC3    C6 6553   0.247   4.586  15.689 -0.1655 -0.3607  0.6267
  436TMC3     C 6554   0.324   0.170  15.945 -0.4950 -0.3367  0.1182
  436TMC3     O 6555   0.432   0.217  15.924  0.1337 -0.4947  0.2071
  436TMC3     H 6556   0.430   0.123  15.716 -2.1787  2.1703 -1.9449
  436TMC3    H1 6557   0.091   4.735  15.952  0.1780 -2.8133  0.5354
  436TMC3    H2 6558   0.251   4.502  15.621  1.1184  0.1178  0.1037
  436TMC3    C7 6559   0.033   4.527  15.798 -0.2645  0.1291  0.0234
  436TMC3    C8 6560   0.445   4.650  15.574 -0.3545 -0.0909 -0.1911
  436TMC3    O1 6561   4.694   4.548  15.890 -0.2799  0.6259  0.2049
  436TMC3    O2 6562   0.507   0.014  15.545 -0.5034  0.0032 -0.0528
  437TMC3    C1 6563   3.648   1.207  11.502  0.7872  0.6034  0.1232
  437TMC3    C2 6564   3.660   1.227  11.361 -0.0600 -0.0173  0.3243
  437TMC3    C3 6565   3.710   1.349  11.317  0.8262 -0.4830  0.0553
  437TMC3    C4 6566   3.677   1.307  11.592 -0.1409  0.0131 -0.4876
  437TMC3    C5 6567   3.725   1.426  11.541  0.2527  0.2899  0.0313
  437TMC3    C6 6568   3.742   1.446  11.409 -0.1087 -0.9127  0.6541
  437TMC3     C 6569   3.562   1.095  11.535 -0.1779  0.4161 -0.1793
  437TMC3     O 6570   3.539   1.014  11.448  0.0352 -0.2326 -0.0460
  437TMC3     H 6571   3.637   1.144  11.296  1.5672 -0.7085  0.6265
  437TMC3    H1 6572   3.661   1.312  11.699 -0.3509  1.8448 -0.6090
  437TMC3    H2 6573   3.775   1.547  11.384  2.0081 -1.7080  0.2197
  437TMC3    C7 6574   3.753   1.531  11.632  0.6572  0.2005 -0.0603
  437TMC3    C8 6575   3.749   1.365  11.177 -0.3133  0.0368 -0.0658
  437TMC3    O1 6576   3.716   1.639  11.596  0.1411  0.9842  0.0286
  437TMC3    O2 6577   3.705   1.291  11.090 -0.0326  0.6879 -0.2647
  438MPD2     C 6578   0.713   2.665  16.558 -0.1981 -0.1465 -0.2597
  438MPD2    C1 6579   0.824   2.624  16.630 -0.3462 -0.4401  0.0819
  438MPD2    C2 6580   0.830   2.650  16.762 -0.4267  0.7821  0.2017
  438MPD2    C3 6581   0.725   2.719  16.826  0.2853  0.2652 -0.0069
  438MPD2    C4 6582   0.614   2.757  16.750  0.2472  0.1437 -0.1658
  438MPD2    C5 6583   0.606   2.735  16.616  0.0893  0.4765 -0.1605
  438MPD2     H 6584   0.919   2.624  16.819 -0.4456 -2.1140 -1.0969
  438MPD2    H1 6585   0.540   2.819  16.799  0.2912 -0.0123  0.0963
  438MPD2    H2 6586   0.702   2.642  16.452 -2.4357  0.9922 -0.2712
  438MPD2    H3 6587   0.525   2.754  16.546 -1.4609  2.1899  2.0865
  438MPD2     N 6588   0.737   2.750  16.960 -0.4079 -0.5866  0.2038
  438MPD2    H5 6589   0.657   2.794  17.003 -0.0082 -0.2969  0.6557
  438MPD2    N1 6590   0.929   2.549  16.579 -0.2507  0.5457  0.6473
  438MPD2    H7 6591   0.996   2.524  16.651 -0.5462 -1.3657  0.2583
  439TMC3    C1 6592   1.060   2.421  16.428 -0.3236  1.0283 -0.8120
  439TMC3    C2 6593   1.079   2.369  16.301 -0.5744 -1.0323 -0.2524
  439TMC3    C3 6594   1.151   2.251  16.295  0.4250 -0.8660 -0.8798
  439TMC3    C4 6595   1.121   2.368  16.539  0.3388 -0.1188 -0.2374
  439TMC3    C5 6596   1.187   2.251  16.521  0.9205  1.0731  0.0560
  439TMC3    C6 6597   1.198   2.182  16.403 -0.0962  0.1296 -0.4429
  439TMC3     C 6598   0.955   2.521  16.449  0.4884 -0.1429 -0.3087
  439TMC3     O 6599   0.895   2.553  16.348 -0.1363  0.0599 -0.5480
  439TMC3     H 6600   1.034   2.417  16.214 -1.1418  0.1597  0.7093
  439TMC3    H1 6601   1.100   2.390  16.643  0.3177  1.5037 -0.5851
  439TMC3    H2 6602   1.254   2.089  16.392 -0.7850 -0.4602  1.0984
  439TMC3    C7 6603   1.296   2.243  16.610  0.1837  0.0186  0.0711
  439TMC3    C8 6604   1.242   2.232  16.188  0.2942  1.0470 -0.2703
  439TMC3    O1 6605   1.281   2.270  16.731 -0.0524  0.8456  0.1004
  439TMC3    O2 6606   1.354   2.220  16.235 -0.2349 -0.4211 -0.0083
  440MPD2     C 6607   0.110   2.517  14.640 -0.0951 -0.3916  0.1454
  440MPD2    C1 6608   0.160   2.618  14.722 -0.0213  0.2376  0.3048
  440MPD2    C2 6609   0.268   2.588  14.804 -0.1112 -0.8362  0.1441
  440MPD2    C3 6610   0.343   2.475  14.784  0.3401 -0.2848  0.4390
  440MPD2    C4 6611   0.297   2.384  14.690 -0.8096 -0.3567 -0.2031
  440MPD2    C5 6612   0.174   2.396  14.624 -1.1074 -0.1616  0.3638
  440MPD2     H 6613   0.313   2.660  14.871 -0.0657 -0.3642 -0.3881
  440MPD2    H1 6614   0.346   2.289  14.672 -0.4332  0.3193 -2.7078
  440MPD2    H2 6615   0.030   2.542  14.571 -1.1183 -0.3283  1.3606
  440MPD2    H3 6616   0.143   2.326  14.548 -1.4465 -2.4046  2.5413
  440MPD2     N 6617   0.461   2.437  14.859 -0.0906  0.7723  0.2747
  440MPD2    H5 6618   0.494   2.342  14.845  0.9431  0.8759  1.8957
  440MPD2    N1 6619   0.103   2.746  14.733  0.3383  0.0695 -0.3008
  440MPD2    H7 6620   0.157   2.811  14.789  1.0732 -1.1483  0.4018
  441TMC3    C1 6621   0.607   2.446  15.049 -0.0983 -0.1506 -0.2379
  441TMC3    C2 6622   0.646   2.518  15.159 -0.1076  0.5794  0.8039
  441TMC3    C3 6623   0.694   2.456  15.276  0.8339  0.3166 -0.7961
  441TMC3    C4 6624   0.618   2.314  15.049 -0.3984  0.8696  0.5483
  441TMC3    C5 6625   0.661   2.249  15.162 -0.1960 -0.1797  0.1089
  441TMC3    C6 6626   0.695   2.318  15.276 -1.1807  0.8610  0.1125
  441TMC3     C 6627   0.528   2.515  14.953  0.1610 -0.2499 -0.6737
  441TMC3     O 6628   0.519   2.632  14.982 -0.1959  0.1829  0.6335
  441TMC3     H 6629   0.651   2.626  15.148  4.6509  0.1900 -0.8410
  441TMC3    H1 6630   0.584   2.252  14.967 -2.7740  0.4100  1.8806
  441TMC3    H2 6631   0.712   2.267  15.370  1.0935  2.0620  0.3484
  441TMC3    C7 6632   0.621   2.110  15.163  0.8084 -0.7063  0.0847
  441TMC3    C8 6633   0.677   2.520  15.400 -0.4972 -0.7048  0.2690
  441TMC3    O1 6634   0.521   2.075  15.105 -0.0110  0.0279  0.2327
  441TMC3    O2 6635   0.747   2.475  15.494 -0.3346  0.4025  0.0225
  442MPD2     C 6636   2.763   3.271  16.227  0.0285  0.0302 -0.4779
  442MPD2    C1 6637   2.658   3.201  16.282 -0.1368 -0.9184 -0.0040
  442MPD2    C2 6638   2.652   3.066  16.254  0.5202  0.8131  0.3652
  442MPD2    C3 6639   2.751   3.003  16.184  0.0993 -0.3362  0.1149
  442MPD2    C4 6640   2.856   3.080  16.143  0.8118 -0.2658 -0.5901
  442MPD2    C5 6641   2.869   3.213  16.170 -0.2690 -0.5409  0.4134
  442MPD2     H 6642   2.568   3.004  16.281  0.2770  0.5893 -0.9107
  442MPD2    H1 6643   2.944   3.033  16.101  0.5756 -3.0862  2.0538
  442MPD2    H2 6644   2.781   3.378  16.238  1.1465 -0.4571  2.4303
  442MPD2    H3 6645   2.954   3.267  16.129 -0.5905 -0.1176  0.3060
  442MPD2     N 6646   2.756   2.863  16.154  0.7991 -0.2410  0.1669
  442MPD2    H5 6647   2.835   2.832  16.098 -0.4192 -1.3908 -0.9126
  442MPD2    N1 6648   2.562   3.256  16.361  0.3994  0.5443 -0.2862
  442MPD2    H7 6649   2.511   3.189  16.417  0.3780 -0.4410 -1.4868
  443TMC3    C1 6650   2.459   3.438  16.473 -0.7173 -0.0954  0.0069
  443TMC3    C2 6651   2.391   3.555  16.470 -0.7354 -0.7636  0.0028
  443TMC3    C3 6652   2.280   3.578  16.548 -0.0308  0.6858  0.1611
  443TMC3    C4 6653   2.429   3.346  16.575 -0.0310  0.1236  0.0609
  443TMC3    C5 6654   2.331   3.385  16.662 -0.5112  0.1147  0.6552
  443TMC3    C6 6655   2.244   3.488  16.642  0.4709 -0.5638 -0.6996
  443TMC3     C 6656   2.549   3.394  16.371  0.9159 -0.7562 -0.2455
  443TMC3     O 6657   2.583   3.481  16.294 -0.0992 -0.5910 -0.3773
  443TMC3     H 6658   2.420   3.631  16.399  0.9815 -0.5966  0.8790
  443TMC3    H1 6659   2.492   3.261  16.597  1.4735  1.0502 -0.6263
  443TMC3    H2 6660   2.154   3.504  16.701 -0.6817  0.1040 -2.6463
  443TMC3    C7 6661   2.300   3.302  16.776 -0.3115  0.6715 -0.3009
  443TMC3    C8 6662   2.190   3.689  16.550 -0.7485 -0.1554  0.6239
  443TMC3    O1 6663   2.328   3.185  16.761 -0.1969 -0.1365  0.2084
  443TMC3    O2 6664   2.186   3.747  16.658 -0.1075 -0.5835  0.6594
  444MPD2     C 6665   3.311   2.443  16.992 -0.5395 -0.0810 -1.0989
  444MPD2    C1 6666   3.186   2.396  16.941 -0.2654 -0.0552  0.4592
  444MPD2    C2 6667   3.186   2.268  16.883  0.2042 -0.2987 -0.2240
  444MPD2    C3 6668   3.302   2.193  16.875  0.2908  0.4599 -0.6849
  444MPD2    C4 6669   3.419   2.236  16.934  0.2706  0.7458  0.9104
  444MPD2    C5 6670   3.419   2.360  16.988  0.0564 -0.8177 -0.6239
  444MPD2     H 6671   3.092   2.228  16.848 -0.1129  1.6011 -1.4957
  444MPD2    H1 6672   3.511   2.180  16.921 -1.0987 -1.8554  2.2738
  444MPD2    H2 6673   3.325   2.546  17.026 -0.8068 -0.5553  0.4703
  444MPD2    H3 6674   3.515   2.393  17.025  0.6707 -1.5128 -1.6100
  444MPD2     N 6675   3.304   2.079  16.791  0.4890  0.3308 -0.4462
  444MPD2    H5 6676   3.221   2.069  16.733 -1.2084  0.2074  2.0301
  444MPD2    N1 6677   3.067   2.472  16.941 -0.4469  0.1464 -0.1488
  444MPD2    H7 6678   2.990   2.412  16.916 -0.4935  1.0259 -2.0866
  445TMC3    C1 6679   3.389   1.881  16.677 -0.0457  0.1791  0.6309
  445TMC3    C2 6680   3.258   1.867  16.643 -0.0296  0.0027  0.5676
  445TMC3    C3 6681   3.236   1.809  16.518 -0.1105 -0.1315  0.8110
  445TMC3    C4 6682   3.497   1.827  16.607  0.5433 -0.7200 -0.5422
  445TMC3    C5 6683   3.467   1.785  16.479  0.3939 -0.1374  0.1281
  445TMC3    C6 6684   3.339   1.790  16.423  0.2216  0.6351  0.2453
  445TMC3     C 6685   3.409   1.991  16.770  0.2502  0.3547 -0.4707
  445TMC3     O 6686   3.506   1.971  16.843  0.2663  0.4036  0.2366
  445TMC3     H 6687   3.181   1.875  16.719 -1.9597 -1.6605 -1.2119
  445TMC3    H1 6688   3.597   1.843  16.644  0.5257  0.9409 -1.2056
  445TMC3    H2 6689   3.325   1.765  16.319  0.4278  0.0020  0.3741
  445TMC3    C7 6690   3.584   1.754  16.394  0.3451 -0.5130 -0.8807
  445TMC3    C8 6691   3.124   1.885  16.467  0.3947  0.2683  0.3019
  445TMC3    O1 6692   3.683   1.816  16.430 -0.1030  0.0652  0.6748
  445TMC3    O2 6693   3.057   1.961  16.536 -0.1221  0.1430 -0.4325
  446MPD2     C 6694   2.583   3.643  11.359 -0.0024 -0.4044  0.4978
  446MPD2    C1 6695   2.651   3.558  11.274  0.7575  0.6609  0.0383
  446MPD2    C2 6696   2.789   3.562  11.265  0.2632 -0.3494  0.2750
  446MPD2    C3 6697   2.858   3.660  11.337 -0.6828  0.1281  0.4098
  446MPD2    C4 6698   2.792   3.730  11.432 -0.5104 -0.3044  0.2203
  446MPD2    C5 6699   2.655   3.732  11.438 -0.0710  0.2375 -0.5713
  446MPD2     H 6700   2.847   3.500  11.198 -2.7068 -2.1560 -0.5953
  446MPD2    H1 6701   2.846   3.808  11.484 -0.9643  0.4504 -0.4340
  446MPD2    H2 6702   2.478   3.634  11.386  0.0765 -1.2733  0.5140
  446MPD2    H3 6703   2.610   3.802  11.507  2.1087 -0.6188  1.7377
  446MPD2     N 6704   2.996   3.672  11.297 -0.6356 -0.2511 -0.4252
  446MPD2    H5 6705   3.032   3.622  11.216  3.3481  0.4964  0.8756
  446MPD2    N1 6706   2.582   3.467  11.191  0.6690  1.0163 -0.6183
  446MPD2    H7 6707   2.645   3.404  11.142 -0.3838 -1.2259  0.8818
  447TMC3    C1 6708   3.218   3.757  11.296 -0.0415  0.2868  0.2065
  447TMC3    C2 6709   3.234   3.742  11.164 -0.6225  0.3186  0.6757
  447TMC3    C3 6710   3.356   3.706  11.115 -0.1270  0.3756  0.3355
  447TMC3    C4 6711   3.320   3.729  11.387  0.3098 -0.6481 -0.3754
  447TMC3    C5 6712   3.438   3.672  11.339 -0.5465  0.3253 -0.6949
  447TMC3    C6 6713   3.460   3.666  11.198  0.0415 -0.3423 -0.3355
  447TMC3     C 6714   3.083   3.767  11.347 -0.4312  0.4698 -0.1034
  447TMC3     O 6715   3.068   3.838  11.447 -0.4255  0.1066  0.5873
  447TMC3     H 6716   3.153   3.761  11.095  0.8472  0.8684 -0.8956
  447TMC3    H1 6717   3.292   3.752  11.489 -2.7081  1.7565 -1.7533
  447TMC3    H2 6718   3.559   3.648  11.158 -0.6591 -0.8072 -1.8804
  447TMC3    C7 6719   3.513   3.576  11.422 -0.4746  0.2794 -0.4817
  447TMC3    C8 6720   3.378   3.708  10.972 -0.1430 -0.4843  0.2875
  447TMC3    O1 6721   3.591   3.504  11.362 -0.0081  0.3099 -0.1553
  447TMC3    O2 6722   3.304   3.777  10.905  0.5488 -0.0856 -0.9644
  448TMC3    C1 6723   0.973   4.103  16.869 -0.3677  0.3231  0.4812
  448TMC3    C2 6724   0.938   3.971  16.832 -0.4406 -0.5064 -0.1859
  448TMC3    C3 6725   0.972   3.876  16.917  0.3138  0.1765  0.1119
  448TMC3    C4 6726   1.057   4.124  16.974  0.4836 -0.1666  0.2573
  448TMC3    C5 6727   1.093   4.017  17.046 -0.9154  0.2386  0.4248
  448TMC3    C6 6728   1.049   3.894  17.024 -0.5410 -0.3354 -0.1257
  448TMC3     C 6729   0.940   4.217  16.775  0.4275 -0.0476  0.3064
  448TMC3     O 6730   0.931   4.327  16.826  0.2552 -0.5602 -0.4373
  448TMC3     H 6731   0.849   3.960  16.771 -0.7558 -1.1576  0.3922
  448TMC3    H1 6732   1.081   4.225  17.004 -0.9993  0.7413 -1.6578
  448TMC3    H2 6733   1.084   3.804  17.074 -0.5998 -0.2584  0.0536
  448TMC3    C7 6734   1.162   4.054  17.168 -0.3117  0.4951 -0.7319
  448TMC3    C8 6735   0.960   3.738  16.868 -0.2283 -0.2096  0.7559
  448TMC3    O1 6736   1.204   4.168  17.190 -0.9547  0.3334  0.4495
  448TMC3    O2 6737   0.989   3.646  16.947  0.1377 -0.0421  0.7296
  449MPD2     C 6738   2.588   1.615  13.774  0.1264 -0.0715 -0.0960
  449MPD2    C1 6739   2.459   1.654  13.740  0.4439 -0.1796  0.0835
  449MPD2    C2 6740   2.356   1.562  13.720  0.3170 -0.2374  0.2286
  449MPD2    C3 6741   2.382   1.425  13.736 -1.0613 -0.3403 -0.0326
  449MPD2    C4 6742   2.505   1.389  13.783  0.2720  0.4563  0.5517
  449MPD2    C5 6743   2.606   1.481  13.796  0.6556 -0.4100 -0.6720
  449MPD2     H 6744   2.257   1.598  13.692  1.5172  0.7976 -2.6538
  449MPD2    H1 6745   2.527   1.285  13.808 -1.6355 -0.0801  0.0485
  449MPD2    H2 6746   2.668   1.678  13.812  1.2205 -0.7857 -1.2026
  449MPD2    H3 6747   2.703   1.452  13.835  1.6314  1.5677 -1.6669
  449MPD2     N 6748   2.270   1.339  13.715  0.3851  1.0843  0.2678
  449MPD2    H5 6749   2.186   1.383  13.679 -1.0204 -1.3672  0.5488
  449MPD2    N1 6750   2.415   1.791  13.721 -0.2772 -0.4509 -0.0202
  449MPD2    H7 6751   2.318   1.808  13.699 -0.0999  2.5564  1.5712
  450TMC3    C1 6752   2.421   2.023  13.678 -0.3726  0.5761 -0.6806
  450TMC3    C2 6753   2.475   2.084  13.568 -0.2568  0.5208  0.2370
  450TMC3    C3 6754   2.391   2.103  13.460  1.3737 -0.5498  0.2762
  450TMC3    C4 6755   2.291   2.001  13.695  0.5497 -0.2558  0.1291
  450TMC3    C5 6756   2.204   2.041  13.602  0.2551  0.0153 -0.8432
  450TMC3    C6 6757   2.254   2.083  13.478  0.5114 -0.7413 -0.7647
  450TMC3     C 6758   2.493   1.904  13.719  0.2282 -0.3364 -0.5380
  450TMC3     O 6759   2.616   1.905  13.726 -0.3231 -0.1567 -0.7474
  450TMC3     H 6760   2.583   2.080  13.558 -0.3095 -2.2577  1.0227
  450TMC3    H1 6761   2.251   1.965  13.790 -1.7030 -1.2397 -1.1775
  450TMC3    H2 6762   2.179   2.092  13.401 -0.1829 -2.6517 -0.3044
  450TMC3    C7 6763   2.106   1.929  13.595  0.8535  0.0468  0.4632
  450TMC3    C8 6764   2.438   2.119  13.329 -0.3114  0.2098 -0.1644
  450TMC3    O1 6765   2.151   1.823  13.631 -0.0283  0.1918  0.5634
  450TMC3    O2 6766   2.351   2.106  13.241  0.3938 -0.4401 -0.8967
  451MPD2     C 6767   3.617   0.699   0.792  0.1164 -0.7454 -0.7839
  451MPD2    C1 6768   3.621   0.789   0.689  0.0510 -1.5189 -0.7293
  451MPD2    C2 6769   3.722   0.772   0.592  0.8591  0.4511  0.1164
  451MPD2    C3 6770   3.811   0.664   0.609 -0.2158  0.2266 -0.6817
  451MPD2    C4 6771   3.794   0.575   0.713 -0.7066 -0.0423  1.1362
  451MPD2    C5 6772   3.695   0.587   0.811  0.1257 -0.4932 -0.0407
  451MPD2     H 6773   3.739   0.843   0.511 -1.2949 -0.3924 -1.0772
  451MPD2    H1 6774   3.858   0.489   0.728  0.1563  0.1228 -1.5874
  451MPD2    H2 6775   3.541   0.718   0.867 -1.8207  2.1225 -3.4444
  451MPD2    H3 6776   3.688   0.527   0.900  0.6449 -0.4413  0.0343
  451MPD2     N 6777   3.929   0.638   0.523 -0.2435  0.2916 -0.1513
  451MPD2    H5 6778   3.983   0.552   0.529  0.2729  0.4637 -2.3608
  451MPD2    N1 6779   3.537   0.902   0.701  0.4060  0.2771  0.3825
  451MPD2    H7 6780   3.480   0.903   0.785  1.7334  3.9353  1.2401
  452TMC3    C1 6781   4.038   0.664   0.301 -0.0614  0.1916 -0.3549
  452TMC3    C2 6782   4.044   0.528   0.283  0.6135 -0.7587  0.4423
  452TMC3    C3 6783   4.075   0.482   0.158  0.2291  0.0666 -0.8092
  452TMC3    C4 6784   4.064   0.747   0.194 -0.0924 -0.6296 -0.0557
  452TMC3    C5 6785   4.100   0.696   0.070  0.6816 -0.2622  0.3436
  452TMC3    C6 6786   4.104   0.560   0.048 -1.1140  0.4918  0.2422
  452TMC3     C 6787   3.970   0.725   0.421  0.8604 -0.2064  0.1791
  452TMC3     O 6788   3.944   0.841   0.403  0.4054  0.5345 -0.0087
  452TMC3     H 6789   4.048   0.469   0.374  0.4263  0.6176  1.3520
  452TMC3    H1 6790   4.070   0.854   0.211  0.2237 -0.9123  1.6162
  452TMC3    H2 6791   4.119   0.516  17.697  1.0132 -2.3322  1.8259
  452TMC3    C7 6792   4.091   0.791  17.704  0.1222  0.1635  0.7994
  452TMC3    C8 6793   4.076   0.339   0.126  0.1688  0.4294 -1.2086
  452TMC3    O1 6794   4.040   0.899  17.724  0.1500 -0.3420  0.0869
  452TMC3    O2 6795   4.138   0.302   0.024 -0.1743  0.0640  0.0101
  453TMC3    C1 6796   0.852   3.259  11.874  0.0332 -0.1692  0.4360
  453TMC3    C2 6797   0.739   3.176  11.859  0.2655  0.0295 -0.0237
  453TMC3    C3 6798   0.651   3.199  11.754  0.0458 -0.3998 -0.2723
  453TMC3    C4 6799   0.882   3.357  11.780 -0.1230 -0.0882 -0.3104
  453TMC3    C5 6800   0.790   3.373  11.672  0.2827  0.1230  0.3070
  453TMC3    C6 6801   0.677   3.294  11.655  0.0512 -0.0409  0.4109
  453TMC3     C 6802   0.958   3.208  11.960 -0.4430 -0.3873 -0.6762
  453TMC3     O 6803   1.042   3.290  12.008  0.0660  0.0183  0.3549
  453TMC3     H 6804   0.701   3.105  11.932  0.8453  0.4042  0.6389
  453TMC3    H1 6805   0.975   3.412  11.792 -0.6676  0.9172 -0.7423
  453TMC3    H2 6806   0.619   3.300  11.564  1.6372  0.6508 -0.5447
  453TMC3    C7 6807   0.825   3.447  11.553 -0.4523  0.1963 -0.3647
  453TMC3    C8 6808   0.530   3.124  11.748  0.5663 -0.7625  0.2312
  453TMC3    O1 6809   0.739   3.487  11.475 -0.3515 -0.0627  0.2895
  453TMC3    O2 6810   0.427   3.188  11.724 -0.2897 -0.5334  0.1905
  454MPD2     C 6811   3.905   2.022  16.108 -0.3880  0.6315  0.1088
  454MPD2    C1 6812   3.834   2.132  16.069  0.7526  0.1868  0.3283
  454MPD2    C2 6813   3.792   2.217  16.170 -0.1025  0.2356  0.6573
  454MPD2    C3 6814   3.811   2.193  16.308  0.0722  0.4218 -0.2773
  454MPD2    C4 6815   3.887   2.081  16.341 -1.0811 -0.0943  0.0329
  454MPD2    C5 6816   3.939   2.004  16.239 -0.5691 -0.6285  0.2196
  454MPD2     H 6817   3.729   2.302  16.147 -0.1635 -0.5551 -2.1086
  454MPD2    H1 6818   3.898   2.045  16.443 -0.9040  1.0170  0.4169
  454MPD2    H2 6819   3.936   1.947  16.037 -0.2934  0.3342  0.4652
  454MPD2    H3 6820   3.976   1.905  16.261  0.9422 -0.1426 -0.1427
  454MPD2     N 6821   3.740   2.276  16.387 -0.0613  0.1354 -0.5625
  454MPD2    H5 6822   3.670   2.340  16.352  0.2906  0.2155 -1.1221
  454MPD2    N1 6823   3.806   2.162  15.933  0.2590  0.8977  0.7182
  454MPD2    H7 6824   3.769   2.255  15.912 -0.5014  0.3750 -0.2683
  455TMC3    C1 6825   3.606   2.255  16.574  0.2284 -0.3217 -0.0140
  455TMC3    C2 6826   3.545   2.370  16.611  0.2479 -0.1377 -1.1004
  455TMC3    C3 6827   3.410   2.383  16.585  0.6147  0.3203 -0.2109
  455TMC3    C4 6828   3.534   2.165  16.496 -1.0072  0.1532 -0.6422
  455TMC3    C5 6829   3.407   2.194  16.461 -0.2968  0.5010  0.0146
  455TMC3    C6 6830   3.334   2.299  16.514  0.6707  0.3043  0.2078
  455TMC3     C 6831   3.740   2.258  16.526  0.5661 -0.2708  0.3253
  455TMC3     O 6832   3.816   2.193  16.597  0.0300 -0.0024 -0.1301
  455TMC3     H 6833   3.604   2.429  16.681 -0.6421  0.0087 -0.4797
  455TMC3    H1 6834   3.589   2.073  16.477  0.8993  1.6516 -2.3583
  455TMC3    H2 6835   3.242   2.333  16.467  0.5987  0.3722  0.4009
  455TMC3    C7 6836   3.356   2.143  16.336  0.0231  0.2072 -0.6631
  455TMC3    C8 6837   3.354   2.499  16.649 -0.2261  0.3930  0.2384
  455TMC3    O1 6838   3.236   2.159  16.308  0.0521 -0.1154 -0.1166
  455TMC3    O2 6839   3.435   2.588  16.667 -0.3903  0.4892  0.0900
  456MPD2     C 6840   1.185   2.897  15.999  0.3881  0.2319  1.1676
  456MPD2    C1 6841   1.220   2.788  16.070 -0.5447  0.4829 -0.0982
  456MPD2    C2 6842   1.174   2.775  16.199 -0.4123 -0.1738  0.3792
  456MPD2    C3 6843   1.097   2.880  16.255 -0.7485 -0.5366 -0.4417
  456MPD2    C4 6844   1.058   2.979  16.175 -0.7955 -0.7207 -0.3857
  456MPD2    C5 6845   1.108   2.993  16.055 -0.2876 -0.2366 -0.1664
  456MPD2     H 6846   1.197   2.691  16.263 -0.5970 -0.4744  0.0479
  456MPD2    H1 6847   0.984   3.052  16.204  1.0814  0.6590  0.9822
  456MPD2    H2 6848   1.223   2.907  15.898  0.5352 -0.3712  1.1658
  456MPD2    H3 6849   1.091   3.087  16.004 -0.0616  0.3650  0.8764
  456MPD2     N 6850   1.051   2.857  16.390  0.4492 -0.0223 -0.2444
  456MPD2    H5 6851   1.087   2.783  16.448 -0.3565  1.1069  1.7133
  456MPD2    N1 6852   1.317   2.695  16.016 -0.0167 -0.7496 -0.2048
  456MPD2    H7 6853   1.340   2.717  15.920  0.5477  1.6131  0.4661
  457TMC3    C1 6854   0.971   2.913  16.603  0.0083  0.0966 -0.5321
  457TMC3    C2 6855   0.880   2.998  16.649 -0.1850 -0.2278  1.5638
  457TMC3    C3 6856   0.901   3.051  16.778  0.3016 -0.1570 -0.2326
  457TMC3    C4 6857   1.082   2.882  16.666 -0.0092  0.4696 -0.0166
  457TMC3    C5 6858   1.095   2.921  16.798 -0.7505  0.4464  0.2459
  457TMC3    C6 6859   0.997   2.999  16.858  0.9671  0.5882  0.2179
  457TMC3     C 6860   0.972   2.941  16.461 -0.5050 -0.3730  0.5462
  457TMC3     O 6861   0.924   3.041  16.417 -0.3071 -0.1187  0.1418
  457TMC3     H 6862   0.787   3.022  16.599  2.4222 -1.5721 -3.8687
  457TMC3    H1 6863   1.154   2.812  16.626 -1.9730 -0.7653 -1.4247
  457TMC3    H2 6864   1.019   3.055  16.948  0.7075  0.5513  0.3024
  457TMC3    C7 6865   1.224   2.921  16.868 -0.1135  0.4313 -0.2178
  457TMC3    C8 6866   0.904   3.193  16.776 -1.0033  0.0630  0.1710
  457TMC3    O1 6867   1.223   2.967  16.982 -0.3136  0.3804  0.1612
  457TMC3    O2 6868   0.933   3.257  16.879  0.0623  0.1471  0.7289
  458MPD2     C 6869   4.045   1.774  11.985  1.1066 -0.5486 -0.1395
  458MPD2    C1 6870   4.084   1.643  11.987 -0.1934  0.4225 -0.8251
  458MPD2    C2 6871   4.023   1.557  11.895  0.4934  0.2877  0.1842
  458MPD2    C3 6872   3.917   1.601  11.808 -0.0356 -0.2833 -0.1225
  458MPD2    C4 6873   3.872   1.734  11.830  0.0102  0.0006  0.1491
  458MPD2    C5 6874   3.930   1.817  11.917 -0.1773  0.4681  0.1135
  458MPD2     H 6875   4.034   1.449  11.900  1.9649  0.4256 -0.2750
  458MPD2    H1 6876   3.780   1.763  11.780  0.7935  2.7699  0.3237
  458MPD2    H2 6877   4.094   1.843  12.053  0.8231 -0.9082  0.4268
  458MPD2    H3 6878   3.894   1.919  11.923  2.1524  1.3771 -1.1218
  458MPD2     N 6879   3.852   1.506  11.721  0.3344 -0.0210  0.3909
  458MPD2    H5 6880   3.891   1.413  11.713  0.3302 -0.1951  2.5075
  458MPD2    N1 6881   4.194   1.606  12.070 -0.1573 -0.0234 -0.5596
  458MPD2    H7 6882   4.250   1.671  12.124  0.4578 -1.0756  0.0905
  459TMC3    C1 6883   4.345   1.472  12.197  0.3784  0.8576 -0.3916
  459TMC3    C2 6884   4.427   1.576  12.182 -0.1400 -0.5502 -0.2146
  459TMC3    C3 6885   4.494   1.602  12.297  0.0825  0.4461  0.3028
  459TMC3    C4 6886   4.328   1.400  12.313  0.1032 -0.4947  0.2516
  459TMC3    C5 6887   4.399   1.440  12.428  0.4698  0.0713  0.3080
  459TMC3    C6 6888   4.480   1.543  12.415  0.3456 -0.0685  0.1203
  459TMC3     C 6889   4.234   1.473  12.106 -0.1241  0.2482 -0.0909
  459TMC3     O 6890   4.161   1.380  12.088  0.1545 -1.1203  0.0850
  459TMC3     H 6891   4.450   1.602  12.079 -0.1943 -1.1459 -0.3799
  459TMC3    H1 6892   4.260   1.318  12.295 -1.2023  0.9111 -1.1663
  459TMC3    H2 6893   4.559   1.561  12.487  2.1054 -0.0989 -1.8141
  459TMC3    C7 6894   4.389   1.373  12.557 -0.3827  0.7657  0.2520
  459TMC3    C8 6895   4.609   1.685  12.293  0.2432 -0.0086 -0.5530
  459TMC3    O1 6896   4.450   1.422  12.653 -0.3288 -0.1536 -0.1065
  459TMC3    O2 6897   4.639   1.753  12.389 -0.0353 -0.0910 -0.2279
  460MPD2     C 6898   3.572   3.463  10.767  0.5275  0.4868  0.2589
  460MPD2    C1 6899   3.484   3.568  10.794 -0.1239  0.3260 -0.2011
  460MPD2    C2 6900   3.427   3.641  10.684  0.1941  0.1065  0.4677
  460MPD2    C3 6901   3.456   3.600  10.556 -1.2006 -0.4870 -1.3374
  460MPD2    C4 6902   3.548   3.500  10.532  0.1156 -0.4760  0.4685
  460MPD2    C5 6903   3.604   3.434  10.641  0.1436 -0.2313 -0.3340
  460MPD2     H 6904   3.356   3.723  10.689  1.2469  1.1817 -2.1492
  460MPD2    H1 6905   3.589   3.467  10.437 -0.1358 -0.9328  0.5170
  460MPD2    H2 6906   3.625   3.418  10.851 -1.1095  0.9438  1.5369
  460MPD2    H3 6907   3.674   3.352  10.628 -0.7254 -0.7506 -1.7203
  460MPD2     N 6908   3.397   3.667  10.441 -0.5735  0.2747 -0.1017
  460MPD2    H5 6909   3.339   3.749  10.451 -1.7016 -0.5868  0.3948
  460MPD2    N1 6910   3.456   3.600  10.933 -0.0367 -0.6287  0.5259
  460MPD2    H7 6911   3.497   3.537  11.000 -0.4334 -1.1335  0.2903
  461TMC3    C1 6912   3.358   3.697  10.200 -0.0303  0.2977  0.1246
  461TMC3    C2 6913   3.370   3.636  10.078  0.0168 -0.3422 -0.1610
  461TMC3    C3 6914   3.278   3.658   9.985 -0.0361  0.1642  0.2729
  461TMC3    C4 6915   3.270   3.802  10.209 -0.9166  0.5073 -0.2951
  461TMC3    C5 6916   3.187   3.833  10.103 -0.1713  0.0717  0.3731
  461TMC3    C6 6917   3.181   3.756   9.990  0.4917  0.2990  0.3124
  461TMC3     C 6918   3.408   3.613  10.312 -0.1699 -0.3226 -0.4671
  461TMC3     O 6919   3.430   3.496  10.278 -0.6356 -0.0044  0.5483
  461TMC3     H 6920   3.446   3.560  10.066  1.1320  0.9086 -0.9824
  461TMC3    H1 6921   3.276   3.867  10.295 -2.4489 -0.4906  0.5667
  461TMC3    H2 6922   3.112   3.786   9.912 -0.3038 -1.9449  0.1532
  461TMC3    C7 6923   3.123   3.962  10.095  0.3934  0.0879 -0.0905
  461TMC3    C8 6924   3.258   3.549   9.890 -0.1143 -0.0831 -0.1751
  461TMC3    O1 6925   3.065   3.988   9.987  0.4069  0.1932 -0.5669
  461TMC3    O2 6926   3.355   3.480   9.864 -0.0204  0.7362  0.6106
  462TMC3    C1 6927   2.610   0.288   0.958  0.7115  0.1907  0.4748
  462TMC3    C2 6928   2.736   0.320   0.902  0.0416 -0.8223 -0.2198
  462TMC3    C3 6929   2.750   0.308   0.766  0.4352  0.2118 -0.2879
  462TMC3    C4 6930   2.517   0.243   0.874 -0.4948 -0.3217 -0.0727
  462TMC3    C5 6931   2.539   0.232   0.739 -0.3006  0.6174 -0.6193
  462TMC3    C6 6932   2.656   0.261   0.680 -0.8917  0.1054 -0.4691
  462TMC3     C 6933   2.570   0.339   1.083  0.1387 -0.5565 -1.1033
  462TMC3     O 6934   2.458   0.306   1.121  0.1989  0.1801  0.3957
  462TMC3     H 6935   2.815   0.351   0.970 -1.0718  2.4250 -0.4158
  462TMC3    H1 6936   2.417   0.222   0.911 -0.0558  0.9564  1.8139
  462TMC3    H2 6937   2.660   0.270   0.572 -0.6633  0.5497 -0.4199
  462TMC3    C7 6938   2.423   0.208   0.652  0.0800 -0.8145 -0.3168
  462TMC3    C8 6939   2.889   0.321   0.715  0.3462 -0.2478 -0.0853
  462TMC3    O1 6940   2.450   0.193   0.533 -0.2574  0.4478 -0.1310
  462TMC3    O2 6941   2.978   0.359   0.791  0.8644 -0.3051 -0.1184
  463MPD2     C 6942   4.722   3.612   1.030 -0.3394 -0.5247 -0.5170
  463MPD2    C1 6943   4.698   3.743   0.985 -0.3128  0.0450  0.2435
  463MPD2    C2 6944   0.058   3.842   1.018  0.2101 -0.1702 -0.0221
  463MPD2    C3 6945   0.163   3.817   1.102 -0.0803  0.4620  0.1395
  463MPD2    C4 6946   0.187   3.687   1.142 -0.3619  0.2399  0.9889
  463MPD2    C5 6947   0.101   3.597   1.107 -0.6463  1.0331 -0.4634
  463MPD2     H 6948   0.042   3.941   0.977  0.6468  0.9668  2.5748
  463MPD2    H1 6949   0.268   3.654   1.207 -0.8110 -1.4728  0.6983
  463MPD2    H2 6950   4.660   3.528   1.000 -0.3323 -0.5472 -0.4688
  463MPD2    H3 6951   0.121   3.492   1.124  0.8523  1.1362 -1.5813
  463MPD2     N 6952   0.257   3.913   1.141 -0.3942 -0.3412  0.4050
  463MPD2    H5 6953   0.343   3.876   1.181 -2.3116 -2.8949  2.2077
  463MPD2    N1 6954   4.577   3.774   0.921  0.5249 -0.2287 -0.3370
  463MPD2    H7 6955   4.559   3.870   0.895 -0.0380 -0.0534  0.7051
  464TMC3    C1 6956   4.351   3.741   0.855 -1.3216 -0.3515  0.3419
  464TMC3    C2 6957   4.322   3.873   0.872  0.4296  0.0910 -0.3819
  464TMC3    C3 6958   4.207   3.926   0.819  0.7823  0.1140  0.1226
  464TMC3    C4 6959   4.267   3.654   0.790 -0.6771  0.0056  0.1837
  464TMC3    C5 6960   4.153   3.709   0.744  0.6030  0.1125  0.3042
  464TMC3    C6 6961   4.117   3.838   0.758 -0.1770 -0.7257 -0.6059
  464TMC3     C 6962   4.482   3.679   0.886  0.1746  0.7598 -0.0880
  464TMC3     O 6963   4.495   3.559   0.870  0.2338 -0.4150  0.4556
  464TMC3     H 6964   4.392   3.931   0.931  1.6693 -2.7510  0.9284
  464TMC3    H1 6965   4.285   3.547   0.783 -1.4733 -0.3006  2.6840
  464TMC3    H2 6966   4.040   3.892   0.705 -1.2266 -0.4932  1.1289
  464TMC3    C7 6967   4.069   3.616   0.674 -0.1602  0.1317 -0.7579
  464TMC3    C8 6968   4.163   4.063   0.850 -0.4537 -0.2863 -0.6686
  464TMC3    O1 6969   4.112   3.514   0.621 -0.4060 -0.8319  0.8931
  464TMC3    O2 6970   4.049   4.085   0.821 -0.1323  0.6405  0.3074
  465MPD2     C 6971   0.651   2.337  16.479 -0.2502  0.8694  0.2537
  465MPD2    C1 6972   0.565   2.365  16.583 -0.0570 -0.3191 -0.4473
  465MPD2    C2 6973   0.432   2.404  16.553 -0.0320  0.2397 -0.7395
  465MPD2    C3 6974   0.394   2.408  16.424  0.2203 -0.9783 -0.0420
  465MPD2    C4 6975   0.481   2.376  16.327  0.3872  0.6729 -0.0178
  465MPD2    C5 6976   0.610   2.346  16.354 -0.0527  0.4289 -0.1132
  465MPD2     H 6977   0.364   2.438  16.631 -1.1044  1.2438 -2.1191
  465MPD2    H1 6978   0.450   2.387  16.224 -2.4447 -1.2721  0.6343
  465MPD2    H2 6979   0.752   2.302  16.496  0.4783  1.4739 -2.8126
  465MPD2    H3 6980   0.681   2.343  16.272  0.8480  3.0201  0.5753
  465MPD2     N 6981   0.259   2.455  16.387 -0.5220  0.8662  0.4663
  465MPD2    H5 6982   0.199   2.477  16.466  0.2072 -0.1931  1.3324
  465MPD2    N1 6983   0.603   2.364  16.719  0.9308 -0.4344 -0.1039
  465MPD2    H7 6984   0.539   2.401  16.789  0.7664 -0.5131 -0.2116
  466TMC3    C1 6985   4.632   2.642  16.394 -0.5752  0.4503 -0.3986
  466TMC3    C2 6986   4.611   2.742  16.306  0.1303 -0.0529  0.7575
  466TMC3    C3 6987   4.689   2.738  16.197 -0.2865  0.5227 -0.5266
  466TMC3    C4 6988   0.001   2.554  16.392 -0.2891  0.7663  0.7979
  466TMC3    C5 6989   0.076   2.554  16.279  0.3678 -0.2491  1.1171
  466TMC3    C6 6990   0.047   2.638  16.177 -0.8385 -0.1747 -0.6405
  466TMC3     C 6991   4.563   2.636  16.526 -0.5273  0.2537 -0.3706
  466TMC3     O 6992   4.617   2.557  16.604 -0.4622 -0.1707  0.1091
  466TMC3     H 6993   4.538   2.819  16.330  0.0866 -0.0390  0.5759
  466TMC3    H1 6994   0.010   2.476  16.467  1.0459  1.3809  1.2964
  466TMC3    H2 6995   0.104   2.634  16.085 -1.2496  1.4348 -0.9747
  466TMC3    C7 6996   0.200   2.482  16.267  0.2040 -0.0735  0.8194
  466TMC3    C8 6997   0.017   2.862  16.158 -0.2657 -0.1727 -0.0546
  466TMC3    O1 6998   0.229   2.440  16.154 -0.4031 -0.6193  0.3294
  466TMC3    O2 6999   0.092   2.856  16.064 -0.2511 -0.3192 -0.3241
  467TMC3    C1 7000   1.397   0.824  13.762  0.2101 -0.4422  0.4207
  467TMC3    C2 7001   1.340   0.909  13.670 -0.3834  0.2148  0.9291
  467TMC3    C3 7002   1.215   0.951  13.709  0.2483  0.4526  0.2524
  467TMC3    C4 7003   1.338   0.802  13.886  0.2251  0.2780 -0.1086
  467TMC3    C5 7004   1.212   0.846  13.907  0.1030  0.3323  0.5701
  467TMC3    C6 7005   1.143   0.927  13.817 -0.2362  0.0514 -0.5846
  467TMC3     C 7006   1.538   0.834  13.775  0.1859 -0.4701  1.0974
  467TMC3     O 7007   1.602   0.810  13.676  0.3157 -0.9229  0.0089
  467TMC3     H 7008   1.403   0.933  13.586 -1.1983 -0.5984  0.0899
  467TMC3    H1 7009   1.391   0.737  13.954 -0.6658 -1.3958 -1.0115
  467TMC3    H2 7010   1.064   0.992  13.853 -1.1642 -2.3575  1.7463
  467TMC3    C7 7011   1.174   0.861  14.051 -0.2929 -0.3668 -0.2537
  467TMC3    C8 7012   1.153   1.038  13.611 -0.7133 -0.1867 -0.2838
  467TMC3    O1 7013   1.268   0.843  14.129  0.2423 -0.2890 -0.1774
  467TMC3    O2 7014   1.239   1.087  13.535 -0.2346  0.0717 -0.2025
  468MPD2     C 7015   0.234   3.802  10.568  0.4056  0.6232  0.9740
  468MPD2    C1 7016   0.243   3.849  10.697 -0.6011  0.3941  0.3725
  468MPD2    C2 7017   0.242   3.752  10.798  0.5043 -0.7376 -0.3249
  468MPD2    C3 7018   0.247   3.618  10.771  0.0995  0.2685 -0.1447
  468MPD2    C4 7019   0.233   3.572  10.637 -0.7463 -0.4995 -0.7759
  468MPD2    C5 7020   0.221   3.670  10.541  0.4304  0.1385  0.6119
  468MPD2     H 7021   0.235   3.775  10.904 -0.3605 -1.1912 -0.2829
  468MPD2    H1 7022   0.232   3.465  10.619 -2.8087 -0.0808 -3.1043
  468MPD2    H2 7023   0.230   3.862  10.478  0.5313  1.4044  1.4835
  468MPD2    H3 7024   0.203   3.628  10.442  1.3409 -0.6695  0.7969
  468MPD2     N 7025   0.248   3.520  10.876  0.1809 -0.0518  0.1208
  468MPD2    H5 7026   0.233   3.425  10.843 -1.3424  1.0936 -2.5209
  468MPD2    N1 7027   0.267   3.981  10.729  0.2815 -0.5898  0.1699
  468MPD2    H7 7028   0.269   3.998  10.829  0.4061 -3.1894  0.6129
  469TMC3    C1 7029   0.345   4.197  10.711 -0.0357 -0.1052  0.2690
  469TMC3    C2 7030   0.453   4.259  10.664 -0.2421  0.2079  0.2596
  469TMC3    C3 7031   0.502   4.358  10.746 -0.0206  0.4900  0.0956
  469TMC3    C4 7032   0.281   4.236  10.820 -0.2326 -0.5217 -0.2993
  469TMC3    C5 7033   0.329   4.338  10.902  0.3883 -0.5312 -0.0367
  469TMC3    C6 7034   0.452   4.387  10.871 -0.0149 -0.1031 -0.4102
  469TMC3     C 7035   0.315   4.077  10.641  0.3868  0.0545  0.2326
  469TMC3     O 7036   0.335   4.061  10.522 -0.8322 -0.3495  0.0289
  469TMC3     H 7037   0.514   4.226  10.580 -1.1269 -0.7147 -0.0232
  469TMC3    H1 7038   0.188   4.185  10.843 -1.2897  1.1653 -0.8277
  469TMC3    H2 7039   0.493   4.471  10.925 -0.5710 -0.7535  1.0175
  469TMC3    C7 7040   0.249   4.377  11.014 -0.1401  0.5824  0.4451
  469TMC3    C8 7041   0.645   4.376  10.736  0.0394  0.6712 -0.8350
  469TMC3    O1 7042   0.133   4.344  10.999  0.9335 -0.4816 -0.0953
  469TMC3    O2 7043   0.696   4.414  10.632  0.4370 -0.0522  0.8372
  470TMC3    C1 7044   1.421   0.854  17.588  0.5152  0.2347  0.2351
  470TMC3    C2 7045   1.465   0.975  17.637  0.4330  0.0374 -0.3363
  470TMC3    C3 7046   1.568   0.983  17.731  0.0213  0.2887  0.1041
  470TMC3    C4 7047   1.483   0.739  17.619  0.4685  0.3222  0.7675
  470TMC3    C5 7048   1.595   0.745  17.693 -0.2742  0.1168  0.3852
  470TMC3    C6 7049   1.632   0.862   0.004 -0.4487  0.9592 -0.3622
  470TMC3     C 7050   1.317   0.855  17.494  0.2208 -0.0676 -0.1690
  470TMC3     O 7051   1.233   0.944  17.508 -0.5655  0.0429  0.1495
  470TMC3     H 7052   1.420   1.061  17.588 -1.7040 -1.6802 -1.3694
  470TMC3    H1 7053   1.427   0.647  17.611  1.6375 -0.3438  0.3216
  470TMC3    H2 7054   1.720   0.854   0.067  0.4184  2.4424 -1.3902
  470TMC3    C7 7055   1.632   0.616  17.747  0.4580  0.3844 -0.3474
  470TMC3    C8 7056   1.670   1.090  17.721 -0.2353 -0.5359 -0.7348
  470TMC3    O1 7057   1.567   0.517  17.717 -0.1931 -0.1973 -0.0931
  470TMC3    O2 7058   1.786   1.048  17.729  0.2075  0.2064  0.3971
  471MPD2     C 7059   3.657   1.321  16.313  0.6471  0.1728  1.0341
  471MPD2    C1 7060   3.524   1.330  16.283 -0.6020  0.0069  0.6806
  471MPD2    C2 7061   3.442   1.383  16.380 -0.0141  0.2184 -0.1548
  471MPD2    C3 7062   3.495   1.419  16.506  0.1157 -0.2414 -0.4245
  471MPD2    C4 7063   3.630   1.420  16.528  0.1197 -0.0541 -0.8186
  471MPD2    C5 7064   3.712   1.355  16.436  0.1574 -1.4075  0.3214
  471MPD2     H 7065   3.336   1.395  16.361  0.0130  4.5170  2.2184
  471MPD2    H1 7066   3.680   1.446  16.620  1.8775 -2.1238 -1.1730
  471MPD2    H2 7067   3.730   1.285  16.242 -0.5558 -0.1608 -0.0461
  471MPD2    H3 7068   3.819   1.365  16.446 -0.3498  2.7950  1.6160
  471MPD2     N 7069   3.418   1.482  16.608 -0.1923  0.5761  0.3534
  471MPD2    H5 7070   3.474   1.491  16.693 -1.6128  2.1563  1.1203
  471MPD2    N1 7071   3.468   1.277  16.161 -0.6864 -0.0443 -0.3528
  471MPD2    H7 7072   3.372   1.308  16.156 -0.2289  1.4098 -0.1598
  472TMC3    C1 7073   3.452   1.197  15.945  0.2394  0.7594  0.4237
  472TMC3    C2 7074   3.366   1.302  15.922 -0.2552  0.1855  0.2469
  472TMC3    C3 7075   3.240   1.269  15.874 -0.5114  0.0322  0.2335
  472TMC3    C4 7076   3.410   1.067  15.924  0.2843 -0.4531  0.9458
  472TMC3    C5 7077   3.285   1.040  15.874  0.5435 -0.8916  0.2584
  472TMC3    C6 7078   3.199   1.143  15.842 -0.2009 -0.1769  0.7336
  472TMC3     C 7079   3.531   1.204  16.065  0.1703 -0.0186  0.1616
  472TMC3     O 7080   3.623   1.126  16.085  0.3891  0.0179  0.2904
  472TMC3     H 7081   3.382   1.403  15.957  1.3739  1.0160 -2.8363
  472TMC3    H1 7082   3.472   0.983  15.955  0.3023 -0.4271  0.9807
  472TMC3    H2 7083   3.108   1.124  15.785  0.5128  0.3787 -0.5880
  472TMC3    C7 7084   3.208   0.921  15.922  0.0694 -0.9429 -0.2770
  472TMC3    C8 7085   3.144   1.346  15.920  0.3736  0.3758 -0.0939
  472TMC3    O1 7086   3.100   0.949  15.979  0.1735  0.2237 -0.3255
  472TMC3    O2 7087   3.162   1.468  15.917 -0.1996 -0.1371 -0.4191
  473MPD2     C 7088   2.894   3.247  14.096 -0.0623 -0.2246  0.2130
  473MPD2    C1 7089   2.904   3.343  13.991  0.7504  0.2471  0.0120
  473MPD2    C2 7090   2.979   3.453  14.018  0.0611  0.2777  1.0391
  473MPD2    C3 7091   3.049   3.470  14.139 -0.1686 -0.7449 -0.2263
  473MPD2    C4 7092   3.021   3.382  14.243 -0.0245  0.1410  0.0671
  473MPD2    C5 7093   2.938   3.275  14.215  0.7565 -0.4757  0.6280
  473MPD2     H 7094   2.989   3.527  13.939  0.8533 -1.5445 -0.5887
  473MPD2    H1 7095   3.065   3.400  14.340  0.2736 -1.3316  0.2088
  473MPD2    H2 7096   2.847   3.149  14.099 -0.1537 -0.1403  1.8932
  473MPD2    H3 7097   2.935   3.200  14.293 -2.5498 -2.2103 -1.2048
  473MPD2     N 7098   3.143   3.581  14.144  0.4662  0.7666 -0.0443
  473MPD2    H5 7099   3.138   3.654  14.073  1.1740  1.1941  0.3488
  473MPD2    N1 7100   2.850   3.321  13.862 -0.3407 -0.7139 -0.5103
  473MPD2    H7 7101   2.854   3.392  13.790  0.4370  0.8636  1.0954
  474TMC3    C1 7102   3.282   3.723  14.273  0.1618  0.0982 -0.7014
  474TMC3    C2 7103   3.187   3.826  14.264  0.3882  0.1882 -0.1804
  474TMC3    C3 7104   3.234   3.945  14.321 -0.8345  0.9121  0.6483
  474TMC3    C4 7105   3.397   3.730  14.336 -0.8633 -0.3581  0.4157
  474TMC3    C5 7106   3.433   3.840  14.407 -0.3670  0.6558  0.0200
  474TMC3    C6 7107   3.352   3.953  14.394 -0.6972  0.3730  0.1900
  474TMC3     C 7108   3.240   3.587  14.245 -0.0890 -0.4778  0.0156
  474TMC3     O 7109   3.281   3.497  14.315  0.3730 -0.1092  0.1059
  474TMC3     H 7110   3.089   3.806  14.222 -0.0925 -0.3592  1.2006
  474TMC3    H1 7111   3.464   3.645  14.349  0.9407  1.0573  0.3406
  474TMC3    H2 7112   3.384   4.048  14.435 -0.8527 -0.8784  3.2392
  474TMC3    C7 7113   3.569   3.854  14.461  0.3484 -0.6922  0.7708
  474TMC3    C8 7114   3.129   4.041  14.346  0.1490  0.1353  0.6058
  474TMC3    O1 7115   3.664   3.801  14.398 -0.5385 -0.0344 -1.0204
  474TMC3    O2 7116   3.020   3.990  14.363 -0.6490 -0.1390  0.2831
  475MPD2     C 7117   1.390   1.708  11.289  0.5159 -0.3627 -0.2193
  475MPD2    C1 7118   1.327   1.699  11.170 -0.8845  0.0229 -0.7109
  475MPD2    C2 7119   1.189   1.719  11.172 -0.4550  0.5757  0.5086
  475MPD2    C3 7120   1.119   1.728  11.292 -0.1499 -0.1629 -0.6496
  475MPD2    C4 7121   1.186   1.711  11.409 -0.1888  0.2355  0.0611
  475MPD2    C5 7122   1.319   1.717  11.408  0.6142 -0.2378  0.6203
  475MPD2     H 7123   1.124   1.728  11.085 -1.2833  2.5649  1.3328
  475MPD2    H1 7124   1.134   1.725  11.503 -0.3354 -0.3410  0.0601
  475MPD2    H2 7125   1.497   1.722  11.293  0.3618  0.9135 -0.4004
  475MPD2    H3 7126   1.373   1.733  11.500  1.3172 -2.0757  0.5402
  475MPD2     N 7127   0.988   1.771  11.289  0.6526 -0.5720  0.0163
  475MPD2    H5 7128   0.940   1.786  11.201 -0.5077  2.2901  1.1021
  475MPD2    N1 7129   1.397   1.672  11.052  0.6684  0.6482 -0.7302
  475MPD2    H7 7130   1.498   1.663  11.065  0.9814  2.8087 -1.8369
  476TMC3    C1 7131   1.441   1.640  10.825 -0.1189 -0.2552  0.0986
  476TMC3    C2 7132   1.398   1.611  10.702 -0.3188  0.2486  0.4286
  476TMC3    C3 7133   1.478   1.658  10.599 -0.3561 -0.4912 -0.1912
  476TMC3    C4 7134   1.562   1.699  10.851  0.5226 -0.4682  0.2989
  476TMC3    C5 7135   1.634   1.741  10.745 -0.0769  0.9726 -0.1228
  476TMC3    C6 7136   1.592   1.723  10.616 -0.7742  0.5095  0.1164
  476TMC3     C 7137   1.345   1.637  10.934 -0.2960 -0.0292 -0.6517
  476TMC3     O 7138   1.233   1.602  10.909 -0.2964  0.3648  0.1592
  476TMC3     H 7139   1.303   1.559  10.693 -0.6595  0.5050  2.5431
  476TMC3    H1 7140   1.603   1.720  10.950  3.4646 -2.5333 -0.4888
  476TMC3    H2 7141   1.642   1.769  10.532  0.3983 -0.0904  0.4837
  476TMC3    C7 7142   1.752   1.821  10.774  0.3942 -0.6900  0.0588
  476TMC3    C8 7143   1.397   1.700  10.484 -0.5574 -0.2395  0.8238
  476TMC3    O1 7144   1.754   1.882  10.882  0.5509  0.0924  0.1465
  476TMC3    O2 7145   1.413   1.820  10.462  0.1410 -0.5346 -0.5048
  477MPD2     C 7146   2.918   2.671  11.749 -0.3664  0.2042  0.0082
  477MPD2    C1 7147   3.044   2.735  11.751 -0.2836 -0.1115  0.0761
  477MPD2    C2 7148   3.145   2.699  11.835 -0.4132  0.3118 -0.3976
  477MPD2    C3 7149   3.124   2.612  11.935  0.1073 -0.2115  0.3514
  477MPD2    C4 7150   3.003   2.548  11.938  0.2685 -0.1441 -0.0517
  477MPD2    C5 7151   2.903   2.574  11.845 -0.1944 -0.1442  0.0093
  477MPD2     H 7152   3.239   2.754  11.826 -0.9782  1.3228 -0.1296
  477MPD2    H1 7153   2.983   2.481  12.020  0.0207  1.1433  0.9474
  477MPD2    H2 7154   2.839   2.681  11.676 -0.8186  2.1651  0.7695
  477MPD2    H3 7155   2.805   2.531  11.862 -0.0303 -1.4040 -2.2694
  477MPD2     N 7156   3.222   2.589  12.040 -0.0686 -1.2107 -0.0403
  477MPD2    H5 7157   3.199   2.533  12.122 -1.3500 -0.5582  0.0389
  477MPD2    N1 7158   3.059   2.831  11.649 -0.1359  1.0472 -0.5405
  477MPD2    H7 7159   2.976   2.854  11.596 -0.2632 -0.7726 -1.1172
  478TMC3    C1 7160   3.131   3.006  11.522 -0.2525  0.8699  0.5817
  478TMC3    C2 7161   3.166   3.123  11.576  1.3697  0.2356 -0.4064
  478TMC3    C3 7162   3.101   3.237  11.541  0.2977 -0.6572  0.1035
  478TMC3    C4 7163   3.038   2.996  11.425  0.2860 -0.1829 -0.6655
  478TMC3    C5 7164   2.987   3.107  11.376 -0.4146 -0.1647  0.1565
  478TMC3    C6 7165   3.015   3.232  11.434 -0.0059  0.0979  0.2120
  478TMC3     C 7166   3.174   2.892  11.608 -0.4894 -0.0793 -0.7192
  478TMC3     O 7167   3.275   2.906  11.673 -0.2178  0.5999 -0.2218
  478TMC3     H 7168   3.251   3.135  11.643  2.3158 -1.4851 -1.3335
  478TMC3    H1 7169   3.003   2.901  11.386 -1.2055  0.1888 -0.2556
  478TMC3    H2 7170   2.990   3.325  11.383 -0.3695 -0.7994 -1.2715
  478TMC3    C7 7171   2.907   3.114  11.255 -0.2268  0.8494  0.9416
  478TMC3    C8 7172   3.136   3.364  11.589  0.2969 -0.8732  0.5255
  478TMC3    O1 7173   2.823   3.203  11.249  0.0033 -0.3378 -0.3706
  478TMC3    O2 7174   3.143   3.448  11.499 -0.0558  0.1532  0.0291
  479MPD2     C 7175   3.090   0.568  15.020  0.3423  0.1311 -0.0824
  479MPD2    C1 7176   3.018   0.581  15.132 -0.0179 -0.9713 -0.0685
  479MPD2    C2 7177   3.096   0.577  15.249 -0.0963  0.5519 -0.1705
  479MPD2    C3 7178   3.236   0.576  15.246 -0.9223  0.6002  0.1622
  479MPD2    C4 7179   3.304   0.557  15.128 -0.2357  0.7473  0.7298
  479MPD2    C5 7180   3.226   0.546  15.020  0.0294  0.4850  0.3075
  479MPD2     H 7181   3.046   0.574  15.345  0.1511 -2.5514 -0.1539
  479MPD2    H1 7182   3.411   0.550  15.113 -0.6471 -2.2774 -0.7007
  479MPD2    H2 7183   3.039   0.557  14.925 -1.4553  1.2212  0.7587
  479MPD2    H3 7184   3.263   0.512  14.924  0.4089  0.5196  0.4384
  479MPD2     N 7185   3.316   0.591  15.362  0.6373  0.3687  0.1287
  479MPD2    H5 7186   3.415   0.573  15.351  0.4205  0.4401 -2.0829
  479MPD2    N1 7187   2.878   0.604  15.129  0.0500  0.3890  0.3946
  479MPD2    H7 7188   2.837   0.621  15.039 -0.5215  2.8172  1.1122
  480TMC3    C1 7189   2.987   0.787  15.649  0.0759 -0.0312 -0.6261
  480TMC3    C2 7190   2.961   0.887  15.559  0.3066  0.2457  0.1810
  480TMC3    C3 7191   3.041   0.907  15.448  0.0066 -0.6984 -0.6653
  480TMC3    C4 7192   3.082   0.692  15.619 -0.6302 -0.4847 -0.8458
  480TMC3    C5 7193   3.147   0.711  15.500  0.7104  0.4588  0.2873
  480TMC3    C6 7194   3.145   0.822  15.421 -0.4335  0.1465 -0.7139
  480TMC3     C 7195   2.876   0.736  15.728  0.1704  0.5633 -0.5846
  480TMC3     O 7196   2.774   0.697  15.674 -0.2681  0.1593  0.0809
  480TMC3     H 7197   2.867   0.938  15.571 -0.1801 -0.4910 -0.5066
  480TMC3    H1 7198   3.100   0.616  15.694  0.4437  1.1041  0.5298
  480TMC3    H2 7199   3.212   0.845  15.339  1.2387  0.2212  0.6779
  480TMC3    C7 7200   3.278   0.637  15.487 -0.0049 -1.1553 -0.3712
  480TMC3    C8 7201   2.981   0.995  15.339  0.0738 -0.7456  0.5547
  480TMC3    O1 7202   3.339   0.613  15.595 -0.0974 -0.3413 -0.1610
  480TMC3    O2 7203   2.883   1.064  15.368 -0.2179  0.2824 -0.8683
  481MPD2     C 7204   4.540   0.356  14.156  0.8433 -0.4825 -0.4826
  481MPD2    C1 7205   4.462   0.248  14.167 -0.6831 -0.0870  0.0846
  481MPD2    C2 7206   4.463   0.184  14.293  0.6794  1.1816 -0.0414
  481MPD2    C3 7207   4.552   0.223  14.390 -0.1604  0.0998 -0.4603
  481MPD2    C4 7208   4.624   0.339  14.374 -0.5877 -0.2680 -0.4806
  481MPD2    C5 7209   4.611   0.406  14.258 -0.5105  0.1285  0.0942
  481MPD2     H 7210   4.403   0.094  14.300 -1.4713  2.5516 -0.9709
  481MPD2    H1 7211   4.706   0.374  14.435  0.2312 -0.5912 -1.4075
  481MPD2    H2 7212   4.537   0.410  14.062 -0.8285  0.3305  0.0411
  481MPD2    H3 7213   4.663   0.501  14.248  2.2371 -1.3743  0.0658
  481MPD2     N 7214   4.569   0.159  14.516 -1.1309 -0.5608 -0.0022
  481MPD2    H5 7215   4.641   0.203  14.572  1.1167  0.0960 -3.4399
  481MPD2    N1 7216   4.365   0.210  14.074 -0.0260 -0.0657 -0.2627
  481MPD2    H7 7217   4.378   0.266  13.990 -0.2140  0.3148 -0.0400
  482TMC3    C1 7218   4.176   0.124  13.964 -0.7816  0.2304  0.0111
  482TMC3    C2 7219   4.111   0.008  13.917  0.1252  0.0385 -0.1048
  482TMC3    C3 7220   4.040   0.018  13.799  0.1699  0.2681 -0.2432
  482TMC3    C4 7221   4.166   0.245  13.899  0.3828  0.5143  0.2681
  482TMC3    C5 7222   4.100   0.240  13.785 -0.1916  0.1354 -0.2478
  482TMC3    C6 7223   4.034   0.131  13.725 -0.2641 -0.0135 -0.1393
  482TMC3     C 7224   4.279   0.107  14.070  0.4527  0.2688 -0.4809
  482TMC3     O 7225   4.272   0.002  14.132  0.0321  0.5844  0.1363
  482TMC3     H 7226   4.108   4.644  13.956 -0.1449  0.2922  0.5279
  482TMC3    H1 7227   4.197   0.339  13.943  2.3393  0.9606 -2.0941
  482TMC3    H2 7228   3.988   0.144  13.628  0.5954  2.4029 -0.2409
  482TMC3    C7 7229   4.106   0.362  13.713  0.3199  0.2837 -0.4704
  482TMC3    C8 7230   3.983   4.638  13.733 -0.2772  0.4220 -0.0222
  482TMC3    O1 7231   4.074   0.462  13.780 -0.1410  0.0133 -0.1767
  482TMC3    O2 7232   4.025   4.528  13.773 -0.6265  0.5053  0.2172
  483TMC3    C1 7233   1.127   4.316   0.737 -0.0795 -0.3525  0.2474
  483TMC3    C2 7234   1.192   4.316   0.619  0.3147 -0.2328  0.0113
  483TMC3    C3 7235   1.321   4.369   0.608  0.9834 -0.1362 -0.5360
  483TMC3    C4 7236   1.193   4.344   0.853 -0.6050 -0.1736 -0.5247
  483TMC3    C5 7237   1.323   4.390   0.841 -1.0510  0.2615  0.0360
  483TMC3    C6 7238   1.387   4.408   0.723  0.0134  0.9389 -0.7099
  483TMC3     C 7239   1.018   4.212   0.755  0.0467 -0.6974  0.0047
  483TMC3     O 7240   0.947   4.178   0.662  0.1375  0.2751  0.4286
  483TMC3     H 7241   1.136   4.281   0.533  0.6462  0.6923 -0.5803
  483TMC3    H1 7242   1.147   4.350   0.951 -0.2099  2.0212 -0.4739
  483TMC3    H2 7243   1.492   4.436   0.713  0.0398  0.7791 -0.8793
  483TMC3    C7 7244   1.400   4.414   0.963  0.0974  0.1920 -0.0740
  483TMC3    C8 7245   1.405   4.366   0.487  0.3277 -0.3936  0.5836
  483TMC3    O1 7246   1.331   4.452   1.056 -0.0093 -0.2865  0.2041
  483TMC3    O2 7247   1.509   4.425   0.488  0.1738 -0.0904 -0.8237
  484MPD2     C 7248   0.070   1.728  11.981  0.4707 -0.0520 -0.3859
  484MPD2    C1 7249   0.027   1.760  12.109  1.0883  0.2229 -0.0331
  484MPD2    C2 7250   0.075   1.873  12.169  0.2884  0.6297 -0.0572
  484MPD2    C3 7251   0.183   1.933  12.108  0.2113 -0.3259 -0.9530
  484MPD2    C4 7252   0.236   1.899  11.987  0.4868  0.0757 -0.1929
  484MPD2    C5 7253   0.174   1.795  11.920  0.1407 -0.0389  0.0431
  484MPD2     H 7254   0.035   1.910  12.263  1.5013  1.7267  0.0215
  484MPD2    H1 7255   0.326   1.955  11.966  0.9247 -0.1676  1.0001
  484MPD2    H2 7256   0.044   1.640  11.924 -0.3567 -0.3497  0.4500
  484MPD2    H3 7257   0.206   1.766  11.821  1.7631  1.9078 -0.0110
  484MPD2     N 7258   0.251   2.050  12.154  0.7777  0.1533 -0.2060
  484MPD2    H5 7259   0.335   2.080  12.105  2.3884 -1.9999  1.2030
  484MPD2    N1 7260   4.661   1.679  12.164 -0.0849 -0.4785  0.7100
  484MPD2    H7 7261   4.630   1.601  12.106 -1.7677 -0.5844  1.7418
  485TMC3    C1 7262   0.283   2.244  12.267 -0.0962 -0.4968  0.6860
  485TMC3    C2 7263   0.375   2.242  12.368  0.1534 -0.4225 -0.0015
  485TMC3    C3 7264   0.490   2.318  12.365 -0.3781 -0.8098 -0.1247
  485TMC3    C4 7265   0.308   2.322  12.155  0.6614 -0.5020 -0.1990
  485TMC3    C5 7266   0.412   2.406  12.155  0.1882  0.1049 -0.3293
  485TMC3    C6 7267   0.496   2.415  12.266  0.2168 -0.4679 -0.5739
  485TMC3     C 7268   0.202   2.123  12.262  0.2603 -0.0807  0.1167
  485TMC3     O 7269   0.126   2.096  12.354  0.2676  0.1441 -0.3200
  485TMC3     H 7270   0.354   2.178  12.453 -0.6728  0.8583  0.7490
  485TMC3    H1 7271   0.247   2.317  12.065  0.3303 -2.8211  0.1500
  485TMC3    H2 7272   0.586   2.474  12.251  0.9782 -1.2150  1.0470
  485TMC3    C7 7273   0.498   2.370  12.048  0.2453  0.3361 -0.4762
  485TMC3    C8 7274   0.610   2.237  12.356  0.0944 -0.1977  0.0208
  485TMC3    O1 7275   0.501   2.246  12.032  0.1776  0.1229  0.2273
  485TMC3    O2 7276   0.686   2.261  12.266 -0.2026 -0.1737  0.1306
  486MPD2     C 7277   2.421   0.299  13.116 -0.1037 -0.1363  1.3311
  486MPD2    C1 7278   2.438   0.363  12.997  0.2254 -0.0129  0.2960
  486MPD2    C2 7279   2.385   0.490  12.980  0.2089 -0.0376 -0.7029
  486MPD2    C3 7280   2.309   0.541  13.085 -1.0036 -0.6038 -0.5886
  486MPD2    C4 7281   2.280   0.469  13.199 -0.5862  0.3964 -0.2513
  486MPD2    C5 7282   2.345   0.354  13.218 -0.9703  0.4858  0.3801
  486MPD2     H 7283   2.405   0.543  12.887  0.8732  2.2115  0.7000
  486MPD2    H1 7284   2.217   0.502  13.281 -3.0205 -2.8643 -0.8039
  486MPD2    H2 7285   2.465   0.202  13.136  1.2774  0.4373  1.0572
  486MPD2    H3 7286   2.340   0.315  13.319  0.5409 -0.7353 -0.0023
  486MPD2     N 7287   2.241   0.665  13.061 -0.2128 -0.5835  0.4702
  486MPD2    H5 7288   2.268   0.704  12.972  3.3311 -2.7858  0.6166
  486MPD2    N1 7289   2.516   0.302  12.901 -0.0106 -0.5863  0.7488
  486MPD2    H7 7290   2.558   0.212  12.923  0.4127 -0.5979 -0.1339
  487TMC3    C1 7291   2.586   0.255  12.685 -0.1656 -0.0019  0.0614
  487TMC3    C2 7292   2.496   0.258  12.582 -0.6107 -0.1780 -0.2449
  487TMC3    C3 7293   2.440   0.140  12.539 -0.0623  0.0720  0.7485
  487TMC3    C4 7294   2.621   0.135  12.744  0.2178  0.1021  0.2543
  487TMC3    C5 7295   2.559   0.020  12.707  0.2054  0.2540  0.7503
  487TMC3    C6 7296   2.455   0.022  12.611  0.9337 -0.0941 -0.6922
  487TMC3     C 7297   2.561   0.356  12.781  0.6477  0.8776 -0.4931
  487TMC3     O 7298   2.550   0.473  12.747 -0.3715  0.6906 -0.2442
  487TMC3     H 7299   2.487   0.352  12.528 -0.3417  0.5425  0.9609
  487TMC3    H1 7300   2.694   0.136  12.824 -0.7301 -3.3678  1.1408
  487TMC3    H2 7301   2.431   4.668  12.558 -2.6862 -0.2979  1.3029
  487TMC3    C7 7302   2.524   4.666  12.821 -0.2623 -0.0611 -0.1075
  487TMC3    C8 7303   2.301   0.164  12.506 -0.2232  0.4036  0.4111
  487TMC3    O1 7304   2.589   4.690  12.925 -0.1953 -0.1139  0.1669
  487TMC3    O2 7305   2.247   0.070  12.448  0.5190 -0.4306 -0.2458
  488MPD2     C 7306   2.138   2.573  16.405  0.1956  0.8000  0.4049
  488MPD2    C1 7307   2.175   2.700  16.449 -0.1551 -0.1917  0.1829
  488MPD2    C2 7308   2.176   2.730  16.584  0.3387  0.6472 -0.1999
  488MPD2    C3 7309   2.144   2.634  16.673 -0.1862 -0.4363 -0.4923
  488MPD2    C4 7310   2.116   2.503  16.631 -0.2863  0.0167  0.1657
  488MPD2    C5 7311   2.123   2.476  16.497 -0.1035  0.0376  0.4848
  488MPD2     H 7312   2.188   2.830  16.623 -1.6750  0.6158  0.4833
  488MPD2    H1 7313   2.100   2.422  16.701 -2.3886  0.2569 -0.0298
  488MPD2    H2 7314   2.128   2.555  16.299 -0.2337 -0.7893  0.7210
  488MPD2    H3 7315   2.085   2.380  16.464  0.7236  0.4160 -1.5754
  488MPD2     N 7316   2.151   2.677  16.810 -0.0348  0.3051 -0.8441
  488MPD2    H5 7317   2.193   2.767  16.830 -1.5674  1.3398 -2.3793
  488MPD2    N1 7318   2.225   2.799  16.357 -0.2036  0.5632 -0.0729
  488MPD2    H7 7319   2.238   2.895  16.387  1.3417  1.7036 -4.3854
  489TMC3    C1 7320   2.157   2.647  17.041  0.4677 -0.1168  0.3271
  489TMC3    C2 7321   2.249   2.747  17.042  0.1839  0.5734  0.0267
  489TMC3    C3 7322   2.255   2.806  17.164 -0.3994 -0.1398  1.0077
  489TMC3    C4 7323   2.071   2.615  17.145 -0.0553  0.5381 -0.0517
  489TMC3    C5 7324   2.088   2.682  17.265  0.0883 -0.2177 -0.2528
  489TMC3    C6 7325   2.181   2.786  17.275  0.2353 -0.4568 -0.0459
  489TMC3     C 7326   2.110   2.597  16.915  0.4259  0.5640  0.3919
  489TMC3     O 7327   2.041   2.496  16.914  0.0565  0.3890  0.0795
  489TMC3     H 7328   2.320   2.774  16.964 -0.8079  1.3091 -0.6238
  489TMC3    H1 7329   2.002   2.531  17.138 -0.0641  0.5771 -0.4440
  489TMC3    H2 7330   2.193   2.830  17.373 -0.1332 -0.6406  0.0789
  489TMC3    C7 7331   2.015   2.659  17.382 -0.2806  0.6507 -1.0724
  489TMC3    C8 7332   2.313   2.938  17.160  0.3311 -0.4212  0.4316
  489TMC3    O1 7333   2.072   2.675  17.489 -0.0445  0.8715  0.1383
  489TMC3    O2 7334   2.399   2.956  17.071  0.1344  0.0773 -0.1685
  490MPD2     C 7335   2.959   2.327  17.294 -0.0524 -0.4795 -0.0443
  490MPD2    C1 7336   3.082   2.265  17.295 -0.2588 -0.0817 -0.9579
  490MPD2    C2 7337   3.196   2.344  17.318  0.0977 -0.5012 -0.3017
  490MPD2    C3 7338   3.184   2.480  17.335 -0.7150  0.7717 -0.2792
  490MPD2    C4 7339   3.062   2.540  17.310 -0.4587  0.4839 -0.0756
  490MPD2    C5 7340   2.951   2.463  17.287 -0.1026 -0.1035  0.8066
  490MPD2     H 7341   3.291   2.292  17.319 -0.8790 -2.2991 -0.6698
  490MPD2    H1 7342   3.048   2.647  17.301 -2.6186  0.0838 -1.2487
  490MPD2    H2 7343   2.873   2.263  17.276 -1.3950  0.9455  1.4186
  490MPD2    H3 7344   2.862   2.520  17.263 -0.1457  0.8167  3.1623
  490MPD2     N 7345   3.294   2.568  17.353  0.9491 -0.3680  0.0821
  490MPD2    H5 7346   3.279   2.664  17.323  3.7664  0.7263  2.1260
  490MPD2    N1 7347   3.096   2.125  17.291 -0.3567  0.0442  0.3444
  490MPD2    H7 7348   3.188   2.090  17.316 -0.2890 -2.2242 -3.1421
  491TMC3    C1 7349   3.022   1.910  17.294 -0.0544  0.2225  0.3625
  491TMC3    C2 7350   3.074   1.901  17.421  0.3249  0.8176 -0.0722
  491TMC3    C3 7351   3.050   1.784  17.491 -0.4054  0.5277  0.2149
  491TMC3    C4 7352   2.951   1.809  17.233  0.2694 -0.2131 -0.0580
  491TMC3    C5 7353   2.932   1.691  17.302 -0.4373 -0.0027  0.9649
  491TMC3    C6 7354   2.974   1.684  17.435 -0.7525  0.5245 -0.5563
  491TMC3     C 7355   3.000   2.037  17.247  0.3341  0.3363 -0.7828
  491TMC3     O 7356   2.910   2.053  17.169 -0.3536 -0.3084  0.0461
  491TMC3     H 7357   3.102   1.984  17.486  0.7184 -0.7793  1.8182
  491TMC3    H1 7358   2.907   1.827  17.136 -1.8955 -0.2210  0.9149
  491TMC3    H2 7359   2.953   1.594  17.490 -0.2297  0.3383 -0.6653
  491TMC3    C7 7360   2.815   1.620  17.249 -0.3431 -0.0344  0.5145
  491TMC3    C8 7361   3.041   1.796  17.629 -0.4035 -0.4276 -0.9416
  491TMC3    O1 7362   2.743   1.693  17.178  0.2860 -0.0445 -0.2178
  491TMC3    O2 7363   3.133   1.744  17.688  0.5468 -0.0689  0.8566
  492MPD2     C 7364   3.739   1.907  11.107 -0.0772  0.2822  0.2764
  492MPD2    C1 7365   3.683   1.802  11.050  0.5925  0.4516 -0.4607
  492MPD2    C2 7366   3.595   1.726  11.128  0.0598  0.2009 -0.4850
  492MPD2    C3 7367   3.578   1.742  11.261  0.4028  0.1277  0.2279
  492MPD2    C4 7368   3.654   1.840  11.321  0.8435  0.1362 -0.7554
  492MPD2    C5 7369   3.726   1.930  11.243  0.1201  0.6072  0.5940
  492MPD2     H 7370   3.536   1.648  11.079  1.1188 -0.1738 -1.1542
  492MPD2    H1 7371   3.634   1.861  11.426 -0.8218  0.1211 -1.0738
  492MPD2    H2 7372   3.798   1.977  11.049  0.5449 -0.3725  0.1118
  492MPD2    H3 7373   3.767   2.021  11.287  0.8666 -0.1488  1.4622
  492MPD2     N 7374   3.496   1.665  11.347 -0.5157 -0.5827  0.7778
  492MPD2    H5 7375   3.515   1.667  11.447  2.5483 -0.6308  0.1955
  492MPD2    N1 7376   3.710   1.786  10.913 -0.1334  0.2847 -0.1437
  492MPD2    H7 7377   3.775   1.855  10.878  2.2434 -1.7012  0.3884
  493TMC3    C1 7378   3.690   1.700  10.699  0.1342  0.5094 -0.0851
  493TMC3    C2 7379   3.805   1.756  10.659  0.8782  0.4220  0.9145
  493TMC3    C3 7380   3.817   1.791  10.524 -0.0653  0.3761 -0.1230
  493TMC3    C4 7381   3.588   1.675  10.610 -0.0887 -0.0854 -0.3700
  493TMC3    C5 7382   3.606   1.714  10.478  0.1736  0.2661  0.0210
  493TMC3    C6 7383   3.717   1.764  10.430  0.2464 -0.6481 -0.0240
  493TMC3     C 7384   3.654   1.689  10.838 -0.2573 -0.3131  0.6023
  493TMC3     O 7385   3.561   1.611  10.858  0.4148  0.0526  0.1729
  493TMC3     H 7386   3.890   1.760  10.727  0.6191 -0.8376  1.3064
  493TMC3    H1 7387   3.500   1.619  10.640  0.3673 -0.2060  0.7499
  493TMC3    H2 7388   3.740   1.775  10.324  1.0814 -1.6200  0.0473
  493TMC3    C7 7389   3.493   1.700  10.398  0.6603  0.9915  0.1526
  493TMC3    C8 7390   3.949   1.831  10.474 -0.0883 -0.3180  0.3340
  493TMC3    O1 7391   3.405   1.627  10.448 -0.0724  0.0424  0.0556
  493TMC3    O2 7392   4.039   1.799  10.546 -0.0783 -0.8048 -0.3726
  494TMC3    C1 7393   3.416   4.255   0.131  0.5395 -0.3966 -0.5201
  494TMC3    C2 7394   3.361   4.138   0.086  0.1096  0.0310  0.0052
  494TMC3    C3 7395   3.419   4.084  17.719 -0.1995 -0.3555  0.7702
  494TMC3    C4 7396   3.508   4.326   0.057  0.4845  0.0331  0.6247
  494TMC3    C5 7397   3.559   4.282  17.687  0.0399  0.0725  0.1805
  494TMC3    C6 7398   3.514   4.155  17.653  0.2656  0.6900 -0.3131
  494TMC3     C 7399   3.409   4.291   0.274 -0.0640  0.0759 -0.4580
  494TMC3     O 7400   3.494   4.371   0.319  0.7250 -0.1397  0.4293
  494TMC3     H 7401   3.283   4.086   0.140 -0.5452  0.5479 -0.4348
  494TMC3    H1 7402   3.538   4.422   0.098 -0.4532  0.7819 -0.4347
  494TMC3    H2 7403   3.564   4.095  17.578 -3.2380 -1.5450 -0.8541
  494TMC3    C7 7404   3.681   4.344  17.644 -0.3228 -0.2178 -0.3001
  494TMC3    C8 7405   3.461   3.951  17.740 -0.1156  1.0831 -0.5081
  494TMC3    O1 7406   3.710   4.447  17.704 -0.3930 -0.1201  0.4185
  494TMC3    O2 7407   3.493   3.926   0.107  0.2301  0.3027  0.9092
  495TMC3    C1 7408   3.079   0.494  14.542 -0.2648  0.0736  0.3916
  495TMC3    C2 7409   2.973   0.503  14.443 -0.1894  0.3590  0.0032
  495TMC3    C3 7410   2.902   0.622  14.439  0.0428  0.3827  0.3923
  495TMC3    C4 7411   3.127   0.595  14.627 -0.7293 -0.1394 -0.1092
  495TMC3    C5 7412   3.050   0.706  14.608 -0.3307 -0.5188  0.8146
  495TMC3    C6 7413   2.940   0.727  14.522 -0.6227  0.1287  0.0131
  495TMC3     C 7414   3.103   0.362  14.591  0.5151  0.6013 -0.3039
  495TMC3     O 7415   3.218   0.326  14.612 -0.4695 -0.6193 -0.0111
  495TMC3     H 7416   2.957   0.423  14.371  2.3644  1.7240 -2.1139
  495TMC3    H1 7417   3.205   0.575  14.699 -0.4544  0.8890 -0.1234
  495TMC3    H2 7418   2.899   0.827  14.515  2.6399  1.4716  0.0437
  495TMC3    C7 7419   3.073   0.797  14.719  0.4412  0.4241  0.8696
  495TMC3    C8 7420   2.771   0.621  14.376  0.1650  0.4518  0.9456
  495TMC3    O1 7421   3.174   0.777  14.789 -0.3471 -0.3028 -0.1413
  495TMC3    O2 7422   2.701   0.716  14.403 -0.6036 -0.6716 -0.0234
  496MPD2     C 7423   0.353   0.572  15.733  0.9281 -0.2546  0.4291
  496MPD2    C1 7424   0.309   0.662  15.638 -0.1849  0.1943  0.3685
  496MPD2    C2 7425   0.189   0.727  15.655  0.7299 -0.6600  0.0197
  496MPD2    C3 7426   0.117   0.698  15.767  0.2230  0.5980  0.2352
  496MPD2    C4 7427   0.161   0.608  15.860  0.8333 -0.3992  0.2658
  496MPD2    C5 7428   0.282   0.540  15.844 -0.0804 -0.1650  0.4010
  496MPD2     H 7429   0.154   0.796  15.579  1.6797 -0.8058 -0.5451
  496MPD2    H1 7430   0.107   0.601  15.954  2.2885 -0.0500  1.1332
  496MPD2    H2 7431   0.446   0.517  15.725  0.8013 -0.3516 -0.3849
  496MPD2    H3 7432   0.331   0.469  15.910  1.1895  1.0739  0.7779
  496MPD2     N 7433   4.730   0.754  15.793 -0.4807 -0.4459  0.1882
  496MPD2    H5 7434   4.686   0.710  15.874 -1.5476 -0.4657 -0.3989
  496MPD2    N1 7435   0.399   0.688  15.528  0.1759 -0.2985 -0.4717
  496MPD2    H7 7436   0.484   0.633  15.525  1.7903  2.1352  0.7500
  497TMC3    C1 7437   4.543   0.880  15.780  0.9085  0.5643  0.1168
  497TMC3    C2 7438   4.429   0.885  15.701  0.8406  0.0990  0.0676
  497TMC3    C3 7439   4.311   0.872  15.763  0.0356  0.4293  0.3509
  497TMC3    C4 7440   4.539   0.870  15.921  0.5742  0.7158  0.1142
  497TMC3    C5 7441   4.411   0.872  15.976  0.0696  0.1612  0.8352
  497TMC3    C6 7442   4.302   0.865  15.901 -1.4679 -0.5192 -0.6695
  497TMC3     C 7443   4.665   0.849  15.716 -0.3873  0.1810  0.2667
  497TMC3     O 7444   4.699   0.903  15.612  0.2512 -0.1662  0.2475
  497TMC3     H 7445   4.438   0.896  15.594 -1.2680  2.7081  0.1562
  497TMC3    H1 7446   4.629   0.856  15.980  0.2138  0.7726  0.6889
  497TMC3    H2 7447   4.203   0.855  15.942 -1.4008 -1.5104 -0.7456
  497TMC3    C7 7448   4.391   0.927  16.108 -0.4462 -0.8476 -0.7467
  497TMC3    C8 7449   4.194   0.843  15.679 -0.6867  0.1967  0.7282
  497TMC3    O1 7450   4.303   0.872  16.171 -0.1716 -0.0956  0.0226
  497TMC3    O2 7451   4.197   0.862  15.561  0.1544 -0.0198 -0.9482
  498MPD2     C 7452   1.726   1.701  10.123 -0.7829 -0.7303 -0.0115
  498MPD2    C1 7453   1.619   1.783  10.150 -0.1118  0.5587  0.1534
  498MPD2    C2 7454   1.499   1.755  10.084 -0.1906 -0.0733 -0.3097
  498MPD2    C3 7455   1.495   1.668   9.982  0.1717  1.1239 -0.1308
  498MPD2    C4 7456   1.603   1.586   9.955 -0.0826 -0.0128  1.0895
  498MPD2    C5 7457   1.719   1.605  10.028  0.0046  0.3362 -0.1604
  498MPD2     H 7458   1.416   1.808  10.130  0.8513 -0.8043  2.3647
  498MPD2    H1 7459   1.593   1.503   9.886 -1.1058  1.3200 -0.3662
  498MPD2    H2 7460   1.823   1.720  10.167 -0.6920 -0.9117 -0.1322
  498MPD2    H3 7461   1.803   1.542  10.000 -0.5316 -0.2980 -0.3427
  498MPD2     N 7462   1.373   1.651   9.912  0.0688 -0.5280 -0.1738
  498MPD2    H5 7463   1.309   1.730   9.911  1.3311  0.4829  0.0564
  498MPD2    N1 7464   1.618   1.867  10.260  0.4392  0.0227 -0.2217
  498MPD2    H7 7465   1.529   1.886  10.306  0.5473  3.5608 -1.5318
  499TMC3    C1 7466   1.693   2.034  10.402  0.2286 -0.9017 -0.2789
  499TMC3    C2 7467   1.794   2.105  10.457  0.6114 -0.2857  0.0707
  499TMC3    C3 7468   1.757   2.206  10.534  0.2081  0.1425  0.6408
  499TMC3    C4 7469   1.562   2.063  10.423  0.0515  0.6191  0.1639
  499TMC3    C5 7470   1.534   2.168  10.505 -0.0670  0.2504  0.1182
  499TMC3    C6 7471   1.628   2.247  10.555 -0.4259  0.4746 -0.7667
  499TMC3     C 7472   1.725   1.915  10.320 -0.4502  0.6571  0.0820
  499TMC3     O 7473   1.846   1.907  10.283 -0.6737 -0.4972  0.4405
  499TMC3     H 7474   1.890   2.057  10.474  0.6852  0.2074  1.0354
  499TMC3    H1 7475   1.480   2.025  10.363  0.6895 -0.7083  0.1175
  499TMC3    H2 7476   1.601   2.332  10.616  0.5549  0.8055 -0.7848
  499TMC3    C7 7477   1.394   2.203  10.519 -1.0793  0.6302 -0.0084
  499TMC3    C8 7478   1.865   2.298  10.582  0.1717  0.4503  0.2195
  499TMC3    O1 7479   1.371   2.319  10.550  0.2086  0.2426  0.3061
  499TMC3    O2 7480   1.838   2.390  10.661 -0.1215 -0.1954  0.0339
  500MPD2     C 7481   2.466   2.777   9.914  0.5576  0.2215 -0.2805
  500MPD2    C1 7482   2.483   2.850  10.033  0.5554 -0.1092 -0.9678
  500MPD2    C2 7483   2.366   2.894  10.095  0.2617  0.0131  0.3711
  500MPD2    C3 7484   2.240   2.885  10.036 -0.4339  0.0934 -0.3941
  500MPD2    C4 7485   2.229   2.828   9.910 -0.3670 -0.2138 -0.3624
  500MPD2    C5 7486   2.335   2.764   9.856  0.1864 -0.4409 -0.2301
  500MPD2     H 7487   2.361   2.948  10.190  0.4639  0.4066  0.1603
  500MPD2    H1 7488   2.134   2.812   9.859 -0.9244  0.2954  0.5216
  500MPD2    H2 7489   2.549   2.734   9.859 -0.1691 -2.8424  1.0411
  500MPD2    H3 7490   2.316   2.716   9.761  0.3460  0.3693 -0.6708
  500MPD2     N 7491   2.119   2.926  10.106 -0.2751 -0.1970  0.0080
  500MPD2    H5 7492   2.033   2.906  10.056 -0.9406  0.1101  1.0135
  500MPD2    N1 7493   2.608   2.894  10.090  0.0064 -0.1016 -0.3297
  500MPD2    H7 7494   2.602   2.968  10.159  2.2486  1.6032 -1.9904
  501TMC3    C1 7495   2.841   2.900  10.056  0.2526 -0.5329  0.6775
  501TMC3    C2 7496   2.845   3.034  10.016 -0.4823  0.2520 -1.0911
  501TMC3    C3 7497   2.966   3.086   9.992 -0.4521  0.1616 -0.1415
  501TMC3    C4 7498   2.952   2.826  10.084 -0.9232 -0.5060 -0.4618
  501TMC3    C5 7499   3.069   2.892  10.069 -0.3374 -0.3064 -0.5224
  501TMC3    C6 7500   3.081   3.017  10.021 -0.1894  0.1716  0.0314
  501TMC3     C 7501   2.722   2.827  10.053  0.1249 -0.2303 -0.6868
  501TMC3     O 7502   2.731   2.710  10.016 -0.3076  0.7249  0.4760
  501TMC3     H 7503   2.750   3.080   9.991 -2.2546 -3.8346 -1.8641
  501TMC3    H1 7504   2.945   2.725  10.122  0.1429  0.3911  2.1338
  501TMC3    H2 7505   3.178   3.060   9.998  0.3820 -0.8123  0.5656
  501TMC3    C7 7506   3.144   2.876  10.189 -0.1082 -0.0889  0.1418
  501TMC3    C8 7507   2.982   3.220  10.043 -0.1921 -0.5916 -0.7247
  501TMC3    O1 7508   3.133   2.771  10.251 -0.5238 -0.2556  0.8809
  501TMC3    O2 7509   3.077   3.229  10.120 -0.3394 -0.3397 -0.4982
  502TMC3    C1 7510   2.441   1.735  15.254 -0.1749  0.5743 -0.3071
  502TMC3    C2 7511   2.454   1.821  15.150 -0.6936  0.1208  0.1206
  502TMC3    C3 7512   2.370   1.800  15.049  0.4866  0.8240 -0.6479
  502TMC3    C4 7513   2.351   1.631  15.262 -0.3778  0.4509  0.2411
  502TMC3    C5 7514   2.253   1.636  15.164  0.1094  0.4906  0.3263
  502TMC3    C6 7515   2.272   1.711  15.054  0.5308 -0.2195  0.2808
  502TMC3     C 7516   2.489   1.780  15.381 -0.2909  0.0769  0.2129
  502TMC3     O 7517   2.580   1.859  15.385  0.6446 -0.2943 -0.5585
  502TMC3     H 7518   2.519   1.908  15.156  0.6443 -0.8207 -0.5283
  502TMC3    H1 7519   2.342   1.579  15.356  0.2060 -1.5751 -0.8297
  502TMC3    H2 7520   2.202   1.713  14.972  0.9313  0.7105 -0.0303
  502TMC3    C7 7521   2.120   1.594  15.204 -1.1565  0.0486 -0.1054
  502TMC3    C8 7522   2.360   1.908  14.950 -0.0137 -0.7471  0.3625
  502TMC3    O1 7523   2.119   1.495  15.275  0.1926  0.3172 -0.0927
  502TMC3    O2 7524   2.375   2.016  14.999 -0.1940 -0.1365  0.2690
  503MPD2     C 7525   3.889   2.692  16.416 -0.3313 -0.7092  0.8831
  503MPD2    C1 7526   3.915   2.782  16.514  0.0607 -0.4471  0.1240
  503MPD2    C2 7527   3.989   2.748  16.635 -0.4938  0.4780  0.3400
  503MPD2    C3 7528   4.026   2.616  16.661  0.0691  0.4602 -0.5028
  503MPD2    C4 7529   3.993   2.526  16.562 -0.9134 -0.1623 -0.5174
  503MPD2    C5 7530   3.931   2.563  16.444 -0.3005 -0.1945 -0.1384
  503MPD2     H 7531   4.006   2.822  16.712  2.2279 -0.7419  0.9059
  503MPD2    H1 7532   4.021   2.422  16.571  0.0420  0.1856  0.6225
  503MPD2    H2 7533   3.834   2.701  16.323  2.0799  0.0234 -0.4768
  503MPD2    H3 7534   3.910   2.479  16.379 -0.6756  0.4055 -0.7931
  503MPD2     N 7535   4.105   2.597  16.781 -0.6575 -0.4063 -0.1971
  503MPD2    H5 7536   4.120   2.676  16.843 -1.3437  0.0082 -0.5473
  503MPD2    N1 7537   3.889   2.919  16.490 -0.3165 -0.2547  0.2013
  503MPD2    H7 7538   3.916   2.988  16.560  4.1288 -0.9025 -0.9405
  504TMC3    C1 7539   4.267   2.477  16.903 -0.4148  0.0128 -0.6117
  504TMC3    C2 7540   4.244   2.541  17.018  0.5458  0.4854  1.1895
  504TMC3    C3 7541   4.332   2.521  17.121 -0.5388 -0.0338  0.2014
  504TMC3    C4 7542   4.378   2.404  16.883 -0.0330  0.5138 -0.6213
  504TMC3    C5 7543   4.464   2.387  16.992 -0.4811  0.1062 -0.4242
  504TMC3    C6 7544   4.449   2.453  17.108  0.4388 -0.1654  0.3291
  504TMC3     C 7545   4.167   2.479  16.796  0.2758  0.0310 -0.5979
  504TMC3     O 7546   4.171   2.380  16.726 -0.3167  0.2334  0.4590
  504TMC3     H 7547   4.154   2.600  17.026  0.0692 -0.1126  0.2177
  504TMC3    H1 7548   4.394   2.358  16.786  0.4754  1.1966 -0.8628
  504TMC3    H2 7549   4.518   2.444  17.192 -0.6959  0.6380  1.3385
  504TMC3    C7 7550   4.584   2.323  16.952  0.2625  0.0380 -0.1719
  504TMC3    C8 7551   4.310   2.577  17.252 -0.2261  0.0345 -0.7744
  504TMC3    O1 7552   4.590   2.285  16.836  0.2362 -0.6384  0.2682
  504TMC3    O2 7553   4.377   2.550  17.351  0.5990 -0.2066 -0.7859
  505MPD2     C 7554   0.188   1.846   9.176  0.4650  0.2940  0.2769
  505MPD2    C1 7555   0.146   1.782   9.285  0.6471 -0.9074  0.2005
  505MPD2    C2 7556   0.143   1.852   9.404  0.2289 -0.7787  0.1770
  505MPD2    C3 7557   0.192   1.983   9.416 -0.4282  1.0266 -0.3159
  505MPD2    C4 7558   0.209   2.056   9.302  0.5086 -0.0562  0.7351
  505MPD2    C5 7559   0.218   1.984   9.183  0.2898  0.4762  0.0298
  505MPD2     H 7560   0.124   1.812   9.503  1.1260  1.3460  1.1947
  505MPD2    H1 7561   0.238   2.160   9.306 -0.8991  0.2584  2.3610
  505MPD2    H2 7562   0.181   1.808   9.075 -1.1583 -3.1554  1.6580
  505MPD2    H3 7563   0.239   2.030   9.087  0.0551 -2.3481 -1.3689
  505MPD2     N 7564   0.197   2.044   9.547  0.0825 -0.0304 -0.5540
  505MPD2    H5 7565   0.150   1.991   9.621 -1.3451  0.3995 -1.1514
  505MPD2    N1 7566   0.102   1.650   9.273 -0.3947 -0.5618  0.1316
  505MPD2    H7 7567   0.103   1.612   9.179  0.9572  1.6216 -0.7528
  506TMC3    C1 7568   0.025   1.429   9.331  0.2458 -0.0026 -0.7744
  506TMC3    C2 7569   0.130   1.361   9.275 -0.1375 -0.0723 -0.1376
  506TMC3    C3 7570   0.194   1.266   9.354  0.7512  0.6475  0.0461
  506TMC3    C4 7571   4.711   1.380   9.449 -0.3108 -0.3541  0.8696
  506TMC3    C5 7572   0.039   1.284   9.525  0.0497 -0.7006  0.0202
  506TMC3    C6 7573   0.145   1.221   9.475 -0.0876 -0.2352  0.0274
  506TMC3     C 7574   0.042   1.571   9.364 -0.6200  0.3647  0.6237
  506TMC3     O 7575   0.031   1.599   9.484  0.0998  0.1399 -0.1331
  506TMC3     H 7576   0.187   1.391   9.188  1.1738  2.3403  1.5682
  506TMC3    H1 7577   4.628   1.433   9.495 -0.0089  2.2022 -1.5385
  506TMC3    H2 7578   0.202   1.151   9.535  1.9602  2.4754  1.2260
  506TMC3    C7 7579   0.054   1.304   9.670  0.3021  0.2502 -0.3576
  506TMC3    C8 7580   0.320   1.212   9.312  0.3134 -0.3774  0.1595
  506TMC3    O1 7581   0.085   1.210   9.741  0.1355  0.0002 -0.2366
  506TMC3    O2 7582   0.320   1.185   9.196  0.2201  0.0264  0.1040
  507TMC3    C1 7583   1.005   2.237  15.395 -0.5377 -0.0940 -0.5943
  507TMC3    C2 7584   1.027   2.145  15.294 -0.4612  0.0431 -0.4018
  507TMC3    C3 7585   1.091   2.194  15.184 -0.1991  0.4003  0.1516
  507TMC3    C4 7586   1.029   2.367  15.379 -0.0666  0.6086 -0.2568
  507TMC3    C5 7587   1.102   2.410  15.265 -1.2800 -0.5394  0.8344
  507TMC3    C6 7588   1.144   2.324  15.164 -0.0435  0.2692 -0.6915
  507TMC3     C 7589   0.974   2.179  15.532 -0.2374 -0.0902  0.0327
  507TMC3     O 7590   0.985   2.060  15.546 -0.1054 -0.4395  0.4828
  507TMC3     H 7591   0.989   2.043  15.297 -0.7792  0.1311 -1.3911
  507TMC3    H1 7592   0.997   2.436  15.456  2.7905 -0.3398  1.7548
  507TMC3    H2 7593   1.200   2.349  15.075  1.2134 -0.6107 -0.1545
  507TMC3    C7 7594   1.051   2.529  15.205  0.0398 -0.3912  0.4030
  507TMC3    C8 7595   1.009   2.153  15.074  0.2180 -0.4490 -0.0720
  507TMC3    O1 7596   1.058   2.515  15.084  0.6310  0.0370  0.6645
  507TMC3    O2 7597   0.966   2.035  15.081  0.0073 -0.1107  0.2670
  508MPD2     C 7598   1.025   4.647  16.359 -0.5190  0.5394 -0.7473
  508MPD2    C1 7599   1.146   4.715  16.350  0.0810 -0.2542  0.1749
  508MPD2    C2 7600   1.160   0.074  16.252  0.7105 -0.2482 -0.3773
  508MPD2    C3 7601   1.049   0.108  16.173  0.4188  0.2608  0.0598
  508MPD2    C4 7602   0.926   0.049  16.196  0.4297  0.1329 -0.2351
  508MPD2    C5 7603   0.917   4.683  16.281 -0.2075 -0.3760  0.0584
  508MPD2     H 7604   1.256   0.125  16.248  0.0333  1.0821  0.4428
  508MPD2    H1 7605   0.837   0.093  16.151  1.9418  1.9961 -1.3969
  508MPD2    H2 7606   1.019   4.562  16.426  2.1386 -0.3044 -1.5726
  508MPD2    H3 7607   0.820   4.636  16.291  0.4289 -2.5222 -3.7161
  508MPD2     N 7608   1.081   0.208  16.076  0.8285  0.3337 -0.2091
  508MPD2    H5 7609   1.181   0.228  16.072  1.5296 -2.5390  2.4446
  508MPD2    N1 7610   1.257   4.678  16.438 -0.2534 -0.0975  0.6570
  508MPD2    H7 7611   1.242   4.606  16.508 -2.5836 -0.3513 -0.0961
  509TMC3    C1 7612   1.071   0.535  15.764 -0.5735  0.2175 -0.4838
  509TMC3    C2 7613   1.172   0.610  15.833  0.9355  0.2311  0.0949
  509TMC3    C3 7614   1.210   0.564  15.956  0.3116  0.0007  1.4624
  509TMC3    C4 7615   1.015   0.420  15.811 -0.3540 -0.2143 -0.9020
  509TMC3    C5 7616   1.061   0.388  15.933  0.0738  0.1152  0.5288
  509TMC3    C6 7617   1.153   0.449  16.016 -0.2479 -0.2019  0.7841
  509TMC3     C 7618   1.022   0.566  15.629  0.5192 -0.4536  0.2883
  509TMC3     O 7619   0.921   0.505  15.592  0.0320 -0.3063  0.0368
  509TMC3     H 7620   1.198   0.706  15.793 -2.6785  1.8650  1.5909
  509TMC3    H1 7621   0.939   0.358  15.765 -2.0231  1.2115 -0.0995
  509TMC3    H2 7622   1.182   0.407  16.111 -0.7403 -1.1820  0.5018
  509TMC3    C7 7623   0.998   0.272  15.992 -0.2992  0.5557  0.0342
  509TMC3    C8 7624   1.282   0.652  16.048  0.3626  0.5263 -0.2213
  509TMC3    O1 7625   0.880   0.265  15.968 -0.4644 -0.1957  0.0969
  509TMC3    O2 7626   1.262   0.631  16.168  0.6373 -0.0931  0.1609
  510MPD2     C 7627   3.563   0.953  14.401 -0.4121  0.1154 -0.1107
  510MPD2    C1 7628   3.596   1.083  14.416 -0.7376 -0.2677  0.4695
  510MPD2    C2 7629   3.691   1.147  14.342 -0.4347 -1.1006  0.1737
  510MPD2    C3 7630   3.748   1.082  14.239  0.1103  0.1299 -0.2991
  510MPD2    C4 7631   3.699   0.958  14.206 -1.1731 -0.1511 -0.6030
  510MPD2    C5 7632   3.613   0.886  14.288  0.6474 -0.6009 -0.2815
  510MPD2     H 7633   3.718   1.248  14.368 -0.0747 -1.4958  1.3119
  510MPD2    H1 7634   3.725   0.909  14.114  0.5887  0.4638 -0.4267
  510MPD2    H2 7635   3.485   0.902  14.457  0.0626 -0.1160  0.3419
  510MPD2    H3 7636   3.573   0.791  14.254 -0.6665 -0.7889  1.7700
  510MPD2     N 7637   3.840   1.134  14.147  0.5813  0.1588 -0.4493
  510MPD2    H5 7638   3.865   1.078  14.066  1.1922  1.5133 -1.1962
  510MPD2    N1 7639   3.525   1.144  14.523  0.2275  0.2159 -0.2815
  510MPD2    H7 7640   3.454   1.093  14.574  0.2238 -1.7733 -2.2321
  511TMC3    C1 7641   3.522   1.266  14.717  0.2847  0.2216  0.1658
  511TMC3    C2 7642   3.508   1.387  14.775  0.0008  0.1184 -0.3815
  511TMC3    C3 7643   3.496   1.392  14.905  0.7573 -0.3449 -0.3361
  511TMC3    C4 7644   3.539   1.151  14.791  0.5649 -0.6920  0.5967
  511TMC3    C5 7645   3.541   1.170  14.929  0.1578  0.3682 -0.4511
  511TMC3    C6 7646   3.526   1.292  14.996  0.9132  0.2382 -0.2509
  511TMC3     C 7647   3.545   1.266  14.579  0.3172 -0.5159  0.2625
  511TMC3     O 7648   3.603   1.369  14.539  0.2511  0.1731  0.2939
  511TMC3     H 7649   3.485   1.472  14.712  1.2675  1.3006  0.7244
  511TMC3    H1 7650   3.545   1.053  14.746  1.8552  0.0192 -0.7703
  511TMC3    H2 7651   3.530   1.317  15.101 -0.0631 -2.8246  0.5255
  511TMC3    C7 7652   3.619   1.084  15.010 -0.5728 -0.1440 -0.2620
  511TMC3    C8 7653   3.432   1.509  14.978 -0.0110 -0.0446  0.0108
  511TMC3    O1 7654   3.691   1.130  15.096  0.0470 -0.4388 -0.4443
  511TMC3    O2 7655   3.464   1.523  15.097  0.1247  0.3348  0.4790
  512TMC3    C1 7656   2.731   0.366  13.411 -0.0988 -0.1365 -1.1024
  512TMC3    C2 7657   2.808   0.362  13.526  0.0868  0.5282  0.0620
  512TMC3    C3 7658   2.877   0.242  13.543 -0.2567 -0.3392 -0.8703
  512TMC3    C4 7659   2.704   0.257  13.333  0.2558 -0.8082 -0.0126
  512TMC3    C5 7660   2.778   0.144  13.354  0.0041 -0.1697 -0.0458
  512TMC3    C6 7661   2.864   0.134  13.458 -0.1753  0.2124  0.6740
  512TMC3     C 7662   2.672   0.492  13.372 -0.0443  0.4369 -0.5049
  512TMC3     O 7663   2.642   0.577  13.458  0.2405  0.2796  0.3511
  512TMC3     H 7664   2.821   0.445  13.594 -2.6881  0.5638  0.5211
  512TMC3    H1 7665   2.638   0.253  13.247  0.5352  1.8917 -0.3436
  512TMC3    H2 7666   2.924   0.045  13.477  1.4198  0.7742 -1.7183
  512TMC3    C7 7667   2.729   0.024  13.283  0.6962 -0.1449  0.5389
  512TMC3    C8 7668   2.995   0.235  13.627  0.3114  0.2429  0.2163
  512TMC3    O1 7669   2.607   0.015  13.272 -0.0623 -0.2184  0.4585
  512TMC3    O2 7670   3.037   0.123  13.647 -0.4591  0.2392 -0.5311
  513MPD2     C 7671   4.628   0.801  13.417  0.5810  0.7123  0.4238
  513MPD2    C1 7672   4.708   0.744  13.315  1.2453 -0.1814  0.0948
  513MPD2    C2 7673   0.111   0.752  13.329  0.0670 -0.0092 -0.3557
  513MPD2    C3 7674   0.165   0.819  13.442  0.0019 -0.6223  0.0602
  513MPD2    C4 7675   0.083   0.880  13.538  0.4360 -0.4374  0.1616
  513MPD2    C5 7676   4.690   0.863  13.525  0.3996  0.3917 -0.0899
  513MPD2     H 7677   0.174   0.718  13.247 -0.5749 -0.0579 -0.8298
  513MPD2    H1 7678   0.126   0.931  13.624  2.9441 -1.9257 -0.1924
  513MPD2    H2 7679   4.520   0.794  13.413  0.5541  1.4369 -0.2010
  513MPD2    H3 7680   4.623   0.881  13.608  0.5357 -2.6483  0.6762
  513MPD2     N 7681   0.305   0.827  13.442 -0.0542  0.5187 -0.2526
  513MPD2    H5 7682   0.343   0.795  13.354 -2.2357  1.3207 -1.4889
  513MPD2    N1 7683   4.664   0.671  13.207  0.5228 -0.0165  0.0410
  513MPD2    H7 7684   4.734   0.633  13.144  1.7195  0.7923  0.8849
  514TMC3    C1 7685   4.536   0.550  13.064  1.6184 -0.0763 -0.1511
  514TMC3    C2 7686   4.490   0.627  12.962  0.1055 -0.5365  0.7136
  514TMC3    C3 7687   4.569   0.614  12.856  1.0588  0.5041 -0.1555
  514TMC3    C4 7688   4.643   0.472  13.050  0.4731  0.7806  0.0078
  514TMC3    C5 7689   4.726   0.470  12.947 -0.2143  0.0417  0.1143
  514TMC3    C6 7690   4.683   0.539  12.833  0.9188  0.1212 -0.4678
  514TMC3     C 7691   4.536   0.629  13.188  0.1730 -0.3147 -0.2547
  514TMC3     O 7692   4.424   0.674  13.228  0.4912  0.6603 -0.7531
  514TMC3     H 7693   4.405   0.693  12.958  0.4202 -0.2257 -0.7013
  514TMC3    H1 7694   4.665   0.411  13.137  1.7886 -0.1456 -0.9708
  514TMC3    H2 7695   0.007   0.547  12.744  2.1890 -2.8516  0.1440
  514TMC3    C7 7696   0.122   0.470  12.987 -0.4876  0.3104 -0.3347
  514TMC3    C8 7697   4.516   0.677  12.736 -0.9867  0.7982  0.0867
  514TMC3    O1 7698   0.150   0.524  13.093 -0.4094  0.4902 -0.0534
  514TMC3    O2 7699   4.397   0.676  12.739 -0.3018  0.3397  0.6974
  515MPD2     C 7700   2.649   2.993  14.939  0.6416  0.1472 -0.1928
  515MPD2    C1 7701   2.723   2.882  14.915 -0.2979 -0.0347  0.1503
  515MPD2    C2 7702   2.845   2.871  14.969 -0.2708  0.2522 -0.5930
  515MPD2    C3 7703   2.910   2.975  15.035  0.5583  0.9283  0.6161
  515MPD2    C4 7704   2.839   3.089  15.044 -0.4637 -0.5425 -0.6501
  515MPD2    C5 7705   2.713   3.102  14.990 -0.5041  0.3866  0.4053
  515MPD2     H 7706   2.895   2.775  14.967 -1.3631 -0.3740  2.1969
  515MPD2    H1 7707   2.891   3.175  15.085 -2.2426 -0.2945  1.1417
  515MPD2    H2 7708   2.547   3.006  14.907  0.2238  0.0625  1.1125
  515MPD2    H3 7709   2.660   3.195  15.007 -0.7080  0.4254 -0.4200
  515MPD2     N 7710   3.038   2.971  15.086  0.0991 -0.2661  0.2176
  515MPD2    H5 7711   3.076   3.055  15.129 -0.0516 -0.3104  0.4349
  515MPD2    N1 7712   2.662   2.775  14.841  0.3744  0.0035  0.0239
  515MPD2    H7 7713   2.566   2.790  14.814  0.2828 -0.5218  0.0491
  516TMC3    C1 7714   2.650   2.565  14.725  0.1880 -0.5793  0.1037
  516TMC3    C2 7715   2.577   2.595  14.616 -0.2720 -0.2012  0.5522
  516TMC3    C3 7716   2.544   2.502  14.529  0.3881 -0.3721 -0.2224
  516TMC3    C4 7717   2.681   2.437  14.752 -0.1835 -0.9861 -0.3215
  516TMC3    C5 7718   2.645   2.338  14.668 -0.1519  0.3319 -0.1262
  516TMC3    C6 7719   2.572   2.367  14.552 -0.1446 -0.0412  0.1112
  516TMC3     C 7720   2.729   2.658  14.798 -0.1318  0.0905  0.1827
  516TMC3     O 7721   2.848   2.629  14.806 -0.1865 -0.3250 -0.0113
  516TMC3     H 7722   2.559   2.701  14.601 -1.1300 -0.1165  2.1198
  516TMC3    H1 7723   2.749   2.430  14.836 -2.9020 -1.0891  1.8756
  516TMC3    H2 7724   2.548   2.299  14.471  2.2763 -1.7687  0.8419
  516TMC3    C7 7725   2.697   2.204  14.704 -0.2847 -0.7109 -0.1000
  516TMC3    C8 7726   2.482   2.546  14.396 -0.5389 -0.4425 -0.1208
  516TMC3    O1 7727   2.760   2.190  14.806 -0.1593  0.6962 -0.1709
  516TMC3    O2 7728   2.408   2.643  14.390 -0.6157 -0.4887  0.2272
  517MPD2     C 7729   2.534   4.056   0.136 -0.9623 -0.0935  0.1054
  517MPD2    C1 7730   2.483   4.069   0.014 -0.6238  0.3772  0.2207
  517MPD2    C2 7731   2.392   4.171  17.747 -0.2386 -0.0719 -0.2852
  517MPD2    C3 7732   2.355   4.258   0.103  0.1383 -0.3484  0.0726
  517MPD2    C4 7733   2.412   4.241   0.219  0.0553 -0.1189 -0.7395
  517MPD2    C5 7734   2.502   4.138   0.238  0.0600  0.0300 -0.3026
  517MPD2     H 7735   2.336   4.178  17.654  1.1150  2.6128 -0.8920
  517MPD2    H1 7736   2.394   4.307   0.303 -1.7754  1.4225 -2.3187
  517MPD2    H2 7737   2.596   3.971   0.163 -1.3360  0.2891  2.1535
  517MPD2    H3 7738   2.545   4.113   0.335 -0.0464 -0.9364 -0.4987
  517MPD2     N 7739   2.263   4.362   0.091  0.1068  1.0389  0.2289
  517MPD2    H5 7740   2.236   4.408   0.178 -0.8775  0.7585  0.0798
  517MPD2    N1 7741   2.497   3.971  17.658  0.0929 -0.4599  0.1718
  517MPD2    H7 7742   2.447   3.996  17.574  0.7828  0.3618  0.0108
  518TMC3    C1 7743   2.554   3.788  17.531 -0.4494  0.3616  0.0432
  518TMC3    C2 7744   2.539   3.652  17.521 -0.0130  0.0555 -0.4540
  518TMC3    C3 7745   2.508   3.600  17.402  0.0800 -0.4673 -0.3487
  518TMC3    C4 7746   2.563   3.868  17.417 -0.2776 -1.0063  0.0502
  518TMC3    C5 7747   2.532   3.805  17.299 -1.2837  0.0542  0.4155
  518TMC3    C6 7748   2.492   3.677  17.290 -0.3983 -1.0940 -0.2112
  518TMC3     C 7749   2.560   3.852  17.663 -0.1185 -0.5797 -0.0938
  518TMC3     O 7750   2.607   3.790   0.008  0.5324  0.3662  0.6967
  518TMC3     H 7751   2.553   3.596  17.613  0.3104  0.3816 -0.3045
  518TMC3    H1 7752   2.593   3.972  17.426 -1.0401 -0.6870 -1.2027
  518TMC3    H2 7753   2.470   3.637  17.192  0.3246 -0.9556 -0.4221
  518TMC3    C7 7754   2.632   3.834  17.189 -0.3369  0.0409  0.1316
  518TMC3    C8 7755   2.529   3.463  17.368 -0.0702 -0.2475 -0.4467
  518TMC3    O1 7756   2.657   3.954  17.177 -0.1893 -0.7094  0.4503
  518TMC3    O2 7757   2.584   3.453  17.261  0.1409 -0.2641 -0.1878
  519MPD2     C 7758   4.503   2.522  13.963  0.4257  0.5824  0.2681
  519MPD2    C1 7759   4.401   2.429  13.975  0.3112  0.0625  0.7584
  519MPD2    C2 7760   4.429   2.297  13.955 -0.1563  0.7962  0.1193
  519MPD2    C3 7761   4.556   2.259  13.917 -0.2940 -0.1758  0.3647
  519MPD2    C4 7762   4.653   2.358  13.894  0.2900  0.2111  0.4397
  519MPD2    C5 7763   4.622   2.486  13.920 -0.0906  0.2581  0.2844
  519MPD2     H 7764   4.349   2.228  13.975  0.3929 -0.1830 -1.0426
  519MPD2    H1 7765   0.011   2.325  13.855 -0.6614 -0.2109 -1.5183
  519MPD2    H2 7766   4.494   2.628  13.984 -2.4717  0.3152  0.3124
  519MPD2    H3 7767   4.694   2.567  13.913 -0.5757  0.5561 -1.3743
  519MPD2     N 7768   4.599   2.125  13.898  0.5307 -0.0382 -0.3067
  519MPD2    H5 7769   4.698   2.119  13.879  0.7267  0.1077  0.6858
  519MPD2    N1 7770   4.272   2.475  14.013 -0.4150 -0.0701  0.2217
  519MPD2    H7 7771   4.258   2.576  14.007 -1.5961 -0.1715  1.2906
  520TMC3    C1 7772   4.581   1.891  13.881  0.3044 -0.0966 -0.7213
  520TMC3    C2 7773   4.487   1.797  13.829 -0.4166 -0.8544  1.0810
  520TMC3    C3 7774   4.538   1.695  13.758  0.4639  0.1820  0.3696
  520TMC3    C4 7775   4.719   1.878  13.873  0.0758 -1.4115  0.6779
  520TMC3    C5 7776   0.026   1.774  13.788  0.4301  0.0455  0.1640
  520TMC3    C6 7777   4.674   1.686  13.733  0.2386  0.4495 -0.4151
  520TMC3     C 7778   4.512   2.018  13.903 -0.9979 -0.1408 -0.7545
  520TMC3     O 7779   4.389   2.024  13.886 -0.0980  0.6001 -0.7511
  520TMC3     H 7780   4.382   1.809  13.852 -0.9111 -0.0763 -1.6227
  520TMC3    H1 7781   0.054   1.943  13.921  0.3668  1.2854 -3.4067
  520TMC3    H2 7782   4.705   1.604  13.669  2.1241  0.2733  0.7301
  520TMC3    C7 7783   0.163   1.740  13.793  0.3400 -0.2410 -0.0076
  520TMC3    C8 7784   4.454   1.641  13.654 -0.5344 -0.3143  0.0875
  520TMC3    O1 7785   0.236   1.786  13.880  0.5065  0.0864 -0.3341
  520TMC3    O2 7786   4.504   1.617  13.547  0.4382  0.6339 -0.0008
  521MPD2     C 7787   0.249   4.627  17.322 -0.3106 -0.2721  0.0476
  521MPD2    C1 7788   0.292   0.014  17.291  0.1827  0.3149  0.6596
  521MPD2    C2 7789   0.427   0.043  17.306  0.5544  0.4625  0.4135
  521MPD2    C3 7790   0.523   4.677  17.345  1.0579  0.1621  0.4271
  521MPD2    C4 7791   0.472   4.550  17.362  0.7185  0.6448  0.1248
  521MPD2    C5 7792   0.342   4.528  17.346  1.1173 -0.1090 -0.1669
  521MPD2     H 7793   0.474   0.140  17.300 -0.1006  0.8288  1.2004
  521MPD2    H1 7794   0.531   4.461  17.380  0.9384  0.8418  0.3942
  521MPD2    H2 7795   0.147   4.593  17.316 -0.8996  1.2993  1.3701
  521MPD2    H3 7796   0.310   4.427  17.371 -0.1413  0.4819  0.6100
  521MPD2     N 7797   0.653   4.710  17.371 -0.2273  0.2938  0.4375
  521MPD2    H5 7798   0.680   0.066  17.343 -0.3609 -0.1201 -1.0981
  521MPD2    N1 7799   0.199   0.107  17.253  0.2120 -0.3758 -0.6890
  521MPD2    H7 7800   0.104   0.071  17.244 -0.3674  0.3499  2.3350
  522TMC3    C1 7801   0.877   4.678  17.450  0.0136  0.9812 -0.5089
  522TMC3    C2 7802   0.982   4.592  17.468 -0.1769  0.3822  0.2230
  522TMC3    C3 7803   1.107   4.643  17.488  0.4064  0.0950 -0.1855
  522TMC3    C4 7804   0.895   0.077  17.475 -0.1832  0.2388  0.7017
  522TMC3    C5 7805   1.028   0.124  17.480 -0.7599 -0.7120  0.0036
  522TMC3    C6 7806   1.134   0.040  17.482  0.4183  0.4486 -0.6133
  522TMC3     C 7807   0.750   4.618  17.422 -0.2102  0.4791  0.1179
  522TMC3     O 7808   0.744   4.504  17.459 -0.1278 -0.1487  0.1002
  522TMC3     H 7809   0.967   4.487  17.492  0.9667 -0.1112 -1.2393
  522TMC3    H1 7810   0.819   0.154  17.475 -1.7149 -1.2711 -1.1307
  522TMC3    H2 7811   1.233   0.082  17.476  0.4326  0.1249 -2.6818
  522TMC3    C7 7812   1.050   0.256  17.533 -0.6181  0.2115 -0.2341
  522TMC3    C8 7813   1.221   4.554  17.466 -0.5888  0.0252 -0.6657
  522TMC3    O1 7814   1.153   0.275  17.596 -0.4224  0.4319  0.5742
  522TMC3    O2 7815   1.215   4.437  17.502  0.0156  0.5144  0.2370
  523MPD2     C 7816   3.135   4.237  10.344  0.0339 -0.3079  0.0699
  523MPD2    C1 7817   3.100   4.171  10.228  0.2173 -0.2516 -0.1505
  523MPD2    C2 7818   3.029   4.240  10.139 -0.1092  0.4815 -0.7197
  523MPD2    C3 7819   2.989   4.373  10.153 -0.3049 -0.1292 -0.3021
  523MPD2    C4 7820   3.019   4.436  10.273  0.4117 -0.5338  0.1386
  523MPD2    C5 7821   3.088   4.368  10.368 -0.3887  0.1475 -0.2783
  523MPD2     H 7822   3.000   4.199  10.043 -0.6591 -2.7144  0.8153
  523MPD2    H1 7823   2.995   4.541  10.286  3.2471  0.2779 -1.2215
  523MPD2    H2 7824   3.204   4.195  10.416  0.9465 -1.9019 -1.7170
  523MPD2    H3 7825   3.120   4.426  10.453 -0.1291 -0.4230  0.0130
  523MPD2     N 7826   2.921   4.452  10.062 -0.1632 -0.0427 -0.3988
  523MPD2    H5 7827   2.902   4.550  10.078 -1.0583 -0.4000  0.7484
  523MPD2    N1 7828   3.141   4.037  10.210 -1.2318  0.2564 -0.0659
  523MPD2    H7 7829   3.193   3.994  10.286 -0.2714  0.4560 -0.6119
  524TMC3    C1 7830   2.831   4.509   9.849 -0.8654  0.2675  0.3446
  524TMC3    C2 7831   2.767   4.476   9.730 -0.4721 -0.4087  0.8255
  524TMC3    C3 7832   2.745   4.576   9.643  0.8437  0.7112 -0.3432
  524TMC3    C4 7833   2.896   4.627   9.863 -1.0155 -0.2309  1.7560
  524TMC3    C5 7834   2.886   4.723   9.768  0.1364 -0.0855  0.0793
  524TMC3    C6 7835   2.797   4.703   9.664 -0.5854 -1.1690  0.1064
  524TMC3     C 7836   2.880   4.401   9.940  0.3103  0.0912 -0.0330
  524TMC3     O 7837   2.860   4.284   9.907  0.1340 -0.6316  0.3119
  524TMC3     H 7838   2.718   4.380   9.716 -2.5523  0.9598 -1.4479
  524TMC3    H1 7839   2.963   4.651   9.945 -1.0638 -0.6901  1.9353
  524TMC3    H2 7840   2.779   0.042   9.589 -3.1050 -1.0888  0.8039
  524TMC3    C7 7841   2.975   0.105   9.780 -0.2232 -0.9310  0.2364
  524TMC3    C8 7842   2.658   4.566   9.524  0.4248  0.1158 -0.1629
  524TMC3    O1 7843   3.075   0.091   9.850 -0.2577 -0.1995  0.2835
  524TMC3    O2 7844   2.663   4.646   9.434  0.4997 -0.2617 -0.1858
  525MPD2     C 7845   1.138   1.673  14.164 -0.7164  0.1204 -0.3155
  525MPD2    C1 7846   1.251   1.714  14.237 -1.4805 -0.7311 -0.3444
  525MPD2    C2 7847   1.297   1.838  14.214  0.6477 -0.3990 -0.1785
  525MPD2    C3 7848   1.226   1.929  14.128 -0.1521 -0.1054 -0.2379
  525MPD2    C4 7849   1.101   1.894  14.087  0.6403  0.3884 -0.2237
  525MPD2    C5 7850   1.057   1.768  14.108  0.0745 -0.4503 -0.3846
  525MPD2     H 7851   1.398   1.853  14.251  0.6391 -0.1287 -0.2663
  525MPD2    H1 7852   1.040   1.962  14.028  1.3745  2.5065  1.4509
  525MPD2    H2 7853   1.098   1.573  14.170  0.9097 -0.4114  1.7981
  525MPD2    H3 7854   0.966   1.735  14.058 -0.7573  2.1123 -0.5481
  525MPD2     N 7855   1.257   2.061  14.095  0.1103  0.4826 -0.6394
  525MPD2    H5 7856   1.204   2.107  14.022 -0.2395 -3.5764 -2.9644
  525MPD2    N1 7857   1.310   1.629  14.331  0.4322  0.0174  0.0044
  525MPD2    H7 7858   1.404   1.642  14.368  0.8347 -1.7216 -0.4033
  526TMC3    C1 7859   1.308   1.483  14.512  0.7791 -0.3663 -0.5927
  526TMC3    C2 7860   1.238   1.451  14.627  0.6079  0.5619 -0.9613
  526TMC3    C3 7861   1.305   1.423  14.740 -0.4310  0.6086  0.3808
  526TMC3    C4 7862   1.443   1.485  14.501  0.2762 -0.4045  0.1936
  526TMC3    C5 7863   1.508   1.453  14.617 -0.1450 -0.5103 -0.2436
  526TMC3    C6 7864   1.440   1.421  14.728 -0.4460 -0.5993  0.1603
  526TMC3     C 7865   1.234   1.547  14.409  0.6756  0.1201  0.2721
  526TMC3     O 7866   1.110   1.544  14.416  0.0998 -0.5490 -0.1157
  526TMC3     H 7867   1.131   1.464  14.627  0.4919 -0.4334  0.3909
  526TMC3    H1 7868   1.496   1.513  14.411  0.7962 -0.0800  0.6027
  526TMC3    H2 7869   1.490   1.408  14.823 -0.6393  0.4748  0.3993
  526TMC3    C7 7870   1.644   1.396  14.601  0.2372 -0.9757  0.7749
  526TMC3    C8 7871   1.263   1.472  14.868  0.1074  0.1063 -0.5101
  526TMC3    O1 7872   1.682   1.362  14.488  0.2452  0.1535 -0.2268
  526TMC3    O2 7873   1.347   1.525  14.939  0.1648  0.2636  0.2423
  527MPD2     C 7874   3.665   0.203   0.768 -0.5643 -0.3885 -0.4224
  527MPD2    C1 7875   3.640   0.100   0.686  0.3384 -0.9766  0.3111
  527MPD2    C2 7876   3.747   0.018   0.649 -0.1595  0.5832 -0.4510
  527MPD2    C3 7877   3.869   0.040   0.693 -0.1034 -1.2501 -0.4811
  527MPD2    C4 7878   3.898   0.152   0.771 -0.1277  0.2134 -0.2987
  527MPD2    C5 7879   3.793   0.225   0.817 -0.0835 -0.1496  0.3164
  527MPD2     H 7880   3.724   4.664   0.595 -1.6670 -0.0793  1.3037
  527MPD2    H1 7881   3.997   0.159   0.815 -0.0804  0.5341 -0.4567
  527MPD2    H2 7882   3.594   0.284   0.786  1.4252  1.6101 -1.5356
  527MPD2    H3 7883   3.810   0.306   0.887  2.0316 -0.7914  0.5617
  527MPD2     N 7884   3.968   4.681   0.644  0.5202 -0.7117 -0.1622
  527MPD2    H5 7885   3.934   4.586   0.630 -0.4649 -0.1193 -1.6945
  527MPD2    N1 7886   3.511   0.069   0.632  0.0873 -0.1105 -0.3030
  527MPD2    H7 7887   3.516   4.736   0.559 -1.4739  1.8277 -2.2491
  528TMC3    C1 7888   3.278   0.057   0.609 -0.0444 -0.5998  0.2346
  528TMC3    C2 7889   3.289   0.027   0.472  0.0786  0.3719 -0.5834
  528TMC3    C3 7890   3.188   4.698   0.408  0.1628 -0.3969  0.2580
  528TMC3    C4 7891   3.164   0.019   0.678  0.6977 -0.1610  0.0213
  528TMC3    C5 7892   3.066   4.677   0.614  0.2203 -0.3260 -0.1887
  528TMC3    C6 7893   3.085   4.642   0.484  0.1865 -0.6248 -0.2203
  528TMC3     C 7894   3.393   0.113   0.683  0.4799 -0.2884  0.1082
  528TMC3     O 7895   3.373   0.154   0.796  0.2055 -0.3194  0.1114
  528TMC3     H 7896   3.352   0.092   0.413  2.1619 -1.3688 -0.2836
  528TMC3    H1 7897   3.151   0.061   0.777 -1.8305  1.2843 -0.9251
  528TMC3    H2 7898   3.007   4.582   0.438  0.7196 -1.9265  0.5744
  528TMC3    C7 7899   2.929   4.657   0.668  0.2238 -0.3270  0.6024
  528TMC3    C8 7900   3.225   4.658   0.272  0.3279  0.0066  0.4915
  528TMC3    O1 7901   2.847   4.615   0.586 -0.0388  0.2948  0.5011
  528TMC3    O2 7902   3.329   4.707   0.230  0.0015  0.0268 -0.0664
  529MPD2     C 7903   0.894   3.224   0.852  0.1411 -0.4688 -0.7083
  529MPD2    C1 7904   1.013   3.237   0.785 -0.1846 -0.8952 -0.4774
  529MPD2    C2 7905   1.041   3.343   0.695 -0.8130  0.0641  0.1953
  529MPD2    C3 7906   0.939   3.422   0.654  0.7140 -0.0032 -0.1671
  529MPD2    C4 7907   0.812   3.404   0.703 -0.0579  1.1940  0.2281
  529MPD2    C5 7908   0.800   3.311   0.802 -0.5470  0.3838  0.7614
  529MPD2     H 7909   1.138   3.343   0.646 -0.1273 -1.2674  1.5482
  529MPD2    H1 7910   0.729   3.470   0.681 -3.2009 -2.7675  0.2134
  529MPD2    H2 7911   0.860   3.150   0.923 -1.1730  1.2117  0.4351
  529MPD2    H3 7912   0.711   3.316   0.864 -0.6525 -1.9707  0.8022
  529MPD2     N 7913   0.951   3.529   0.566 -0.2999  0.1202  0.2655
  529MPD2    H5 7914   0.864   3.579   0.551 -1.1689 -1.6580 -0.5944
  529MPD2    N1 7915   1.124   3.158   0.822 -0.6083  0.7255  0.1150
  529MPD2    H7 7916   1.213   3.179   0.779  0.7594 -1.0957  2.0493
  530TMC3    C1 7917   1.228   2.962   0.922 -0.0740  0.6126 -0.2970
  530TMC3    C2 7918   1.348   3.032   0.905  0.5093  0.0617  0.4137
  530TMC3    C3 7919   1.454   2.959   0.947  0.2475 -0.3156 -0.2858
  530TMC3    C4 7920   1.218   2.839   0.986  0.5278  0.0740  0.0879
  530TMC3    C5 7921   1.336   2.774   1.015 -0.0161  0.4236  0.2071
  530TMC3    C6 7922   1.456   2.831   0.991  0.4445  0.6944 -0.1511
  530TMC3     C 7923   1.107   3.034   0.891 -0.3706 -0.6090  0.0809
  530TMC3     O 7924   1.007   2.980   0.933  0.1639  0.1676 -0.2678
  530TMC3     H 7925   1.364   3.129   0.858 -0.7744  1.1986  2.3248
  530TMC3    H1 7926   1.123   2.788   0.989  0.9986 -0.7311  1.3267
  530TMC3    H2 7927   1.551   2.799   1.032 -1.0165 -3.3391  0.0946
  530TMC3    C7 7928   1.338   2.643   1.065  0.7722  0.2926  0.4424
  530TMC3    C8 7929   1.552   3.044   1.020  0.0651  0.1475  1.1704
  530TMC3    O1 7930   1.453   2.608   1.079  0.0144 -0.3199 -0.1825
  530TMC3    O2 7931   1.494   3.132   1.083 -0.1650 -0.3508  0.2830
  531MPD2     C 7932   0.599   0.558  12.850  0.4270 -0.1583 -0.1480
  531MPD2    C1 7933   0.530   0.580  12.967 -0.8956  0.3980 -0.3072
  531MPD2    C2 7934   0.401   0.537  12.976 -0.4319  0.0579 -0.7731
  531MPD2    C3 7935   0.341   0.471  12.875  0.2669 -0.7079 -0.0258
  531MPD2    C4 7936   0.407   0.457  12.756  0.5206  0.0880  0.2047
  531MPD2    C5 7937   0.538   0.492  12.748  0.2071 -0.5443 -0.1776
  531MPD2     H 7938   0.357   0.532  13.075  1.3908 -0.9215  0.0030
  531MPD2    H1 7939   0.360   0.392  12.683  1.1427 -2.5693  2.1474
  531MPD2    H2 7940   0.702   0.590  12.840 -0.4861  1.9940 -2.8692
  531MPD2    H3 7941   0.598   0.466  12.661  1.9857 -1.2390  1.2415
  531MPD2     N 7942   0.202   0.432  12.885 -0.1426  0.3391  0.2821
  531MPD2    H5 7943   0.156   0.385  12.808 -0.6698  1.1653  0.0993
  531MPD2    N1 7944   0.603   0.658  13.069 -0.4205  0.2329 -0.0958
  531MPD2    H7 7945   0.702   0.670  13.050 -0.1879 -1.6990 -0.0818
  532TMC3    C1 7946   0.608   0.784  13.277 -0.1245  1.3962 -0.5939
  532TMC3    C2 7947   0.521   0.870  13.341 -0.5118 -0.4203  0.5988
  532TMC3    C3 7948   0.524   0.881  13.479  0.0108  0.3894 -0.4489
  532TMC3    C4 7949   0.703   0.719  13.346  0.4552 -0.7072  0.4450
  532TMC3    C5 7950   0.712   0.744  13.478 -0.0744 -0.5057  0.0259
  532TMC3    C6 7951   0.623   0.819  13.551 -0.4356  0.3650 -0.6455
  532TMC3     C 7952   0.535   0.713  13.177  0.2889 -0.1541  0.6264
  532TMC3     O 7953   0.414   0.723  13.179 -0.2663 -0.5555  0.2914
  532TMC3     H 7954   0.461   0.934  13.278  1.8242  0.5166 -0.7037
  532TMC3    H1 7955   0.771   0.661  13.285  0.0932  0.7568 -1.3428
  532TMC3    H2 7956   0.641   0.851  13.653 -1.4339 -2.3601  0.3721
  532TMC3    C7 7957   0.828   0.701  13.552  0.1944 -0.0870  0.6643
  532TMC3    C8 7958   0.391   0.880  13.536 -0.7985 -0.2766  0.9901
  532TMC3    O1 7959   0.855   0.771  13.652  0.2328  0.0123  0.2543
  532TMC3    O2 7960   0.375   0.894  13.658 -0.0903 -0.3067  0.0820
  533TMC3    C1 7961   1.346   2.272  14.120 -0.0369  0.1759  0.2438
  533TMC3    C2 7962   1.456   2.345  14.123  0.4217 -0.0701  0.3842
  533TMC3    C3 7963   1.440   2.485  14.129 -0.0598 -0.3651  0.5610
  533TMC3    C4 7964   1.222   2.329  14.120 -0.2079  0.1991 -0.5915
  533TMC3    C5 7965   1.209   2.460  14.159  0.0021 -0.1196  0.9702
  533TMC3    C6 7966   1.312   2.542  14.148 -0.8873  0.1923 -0.7695
  533TMC3     C 7967   1.361   2.133  14.147 -0.3612 -0.3936 -1.1455
  533TMC3     O 7968   1.455   2.098  14.215 -0.2170  0.0611 -0.1472
  533TMC3     H 7969   1.553   2.297  14.128 -0.3884 -1.6012  1.2923
  533TMC3    H1 7970   1.135   2.266  14.137 -0.0489  0.0480 -0.3377
  533TMC3    H2 7971   1.287   2.647  14.153 -1.8691 -0.1270  1.1229
  533TMC3    C7 7972   1.152   2.471  14.292 -0.1850  0.1856  0.0491
  533TMC3    C8 7973   1.550   2.553  14.189 -0.1983 -0.1873  0.0197
  533TMC3    O1 7974   1.076   2.383  14.331  0.8038  0.0733  0.5223
  533TMC3    O2 7975   1.653   2.487  14.207 -0.4523 -0.0369  1.1425
  534MPD2     C 7976   3.842   3.486   0.520  0.0948 -0.3567 -0.3123
  534MPD2    C1 7977   3.834   3.606   0.594 -0.6100 -0.0925 -0.2937
  534MPD2    C2 7978   3.721   3.684   0.583 -0.0354 -0.0952 -0.6044
  534MPD2    C3 7979   3.603   3.653   0.512 -0.4259  0.0316  0.7052
  534MPD2    C4 7980   3.609   3.536   0.450 -0.1380 -0.4596  0.2583
  534MPD2    C5 7981   3.723   3.457   0.456  0.0538  0.4296  0.3777
  534MPD2     H 7982   3.720   3.778   0.638  2.0418  0.1699 -1.0182
  534MPD2    H1 7983   3.523   3.509   0.389  1.5176  1.4141 -2.9086
  534MPD2    H2 7984   3.926   3.418   0.528  1.6346  1.4662 -1.0133
  534MPD2    H3 7985   3.728   3.364   0.401 -1.1340  0.1201  0.7896
  534MPD2     N 7986   3.488   3.735   0.510 -0.2204  0.0174  1.0902
  534MPD2    H5 7987   3.411   3.709   0.449 -0.6502 -2.1411  2.5617
  534MPD2    N1 7988   3.942   3.667   0.665  0.5995  0.1208  0.6137
  534MPD2    H7 7989   3.925   3.757   0.709 -2.0643  0.1146 -0.4090
  535TMC3    C1 7990   3.320   3.874   0.597 -0.4591  0.2679  0.1787
  535TMC3    C2 7991   3.232   3.853   0.694  0.8396  0.5012 -0.4195
  535TMC3    C3 7992   3.095   3.871   0.676 -0.4648  0.2261 -0.3223
  535TMC3    C4 7993   3.273   3.908   0.471 -0.2187  0.3470  0.3955
  535TMC3    C5 7994   3.134   3.903   0.455 -0.3063 -0.0150 -0.0269
  535TMC3    C6 7995   3.040   3.895   0.555  0.2648  0.3753  0.0180
  535TMC3     C 7996   3.452   3.822   0.609 -0.2567 -0.1560  0.0975
  535TMC3     O 7997   3.504   3.854   0.713 -0.5959 -0.1574  0.1251
  535TMC3     H 7998   3.274   3.817   0.788 -1.0950  0.9632  0.6137
  535TMC3    H1 7999   3.346   3.915   0.391  0.0169  2.6446  0.8229
  535TMC3    H2 8000   2.932   3.893   0.541  0.0649  0.3202  1.5341
  535TMC3    C7 8001   3.103   3.917   0.318  0.2298 -0.4100 -0.5958
  535TMC3    C8 8002   3.010   3.830   0.786  0.5509 -0.4022  0.1427
  535TMC3    O1 8003   3.189   3.876   0.239  0.1787  0.0743  0.2951
  535TMC3    O2 8004   2.899   3.787   0.762  0.1836  0.1372 -0.2635
  536MPD2     C 8005   1.649   1.883  16.788  0.5534  0.4280  0.3650
  536MPD2    C1 8006   1.758   1.805  16.740  0.2489 -0.6691  0.4644
  536MPD2    C2 8007   1.788   1.810  16.601  0.7312 -0.0223  0.1531
  536MPD2    C3 8008   1.712   1.883  16.509 -0.6370  0.5828 -1.3808
  536MPD2    C4 8009   1.605   1.949  16.561  0.0224 -0.7242 -0.0758
  536MPD2    C5 8010   1.573   1.946  16.693  0.2394 -0.0971 -0.1601
  536MPD2     H 8011   1.868   1.749  16.559 -0.9489 -3.1354  1.5220
  536MPD2    H1 8012   1.538   2.001  16.495 -0.7357 -0.9881  0.4911
  536MPD2    H2 8013   1.627   1.876  16.894 -0.0457  0.0096  0.2140
  536MPD2    H3 8014   1.487   2.002  16.728 -0.6295 -1.8602  0.5148
  536MPD2     N 8015   1.734   1.887  16.363 -0.0130 -0.7658  0.4761
  536MPD2    H5 8016   1.658   1.929  16.310 -0.6394  1.5877  3.2306
  536MPD2    N1 8017   1.821   1.722  16.831  0.4083  0.2804 -0.1817
  536MPD2    H7 8018   1.789   1.728  16.927  0.3120  0.7931 -0.2488
  537TMC3    C1 8019   1.981   1.592  16.936 -0.1636 -0.3047  0.1918
  537TMC3    C2 8020   2.115   1.576  16.946  0.3508  0.3727  0.7488
  537TMC3    C3 8021   2.160   1.494  17.050  0.2636  0.1201 -0.4757
  537TMC3    C4 8022   1.896   1.517  17.011  0.0143  0.4555  0.0449
  537TMC3    C5 8023   1.948   1.447  17.114 -0.5573 -0.1762  0.3885
  537TMC3    C6 8024   2.079   1.442  17.146 -0.4919  0.0531  0.0355
  537TMC3     C 8025   1.942   1.656  16.815  0.0763  0.3693  0.2100
  537TMC3     O 8026   2.022   1.664  16.724 -1.0382 -0.6568  0.3796
  537TMC3     H 8027   2.181   1.640  16.888 -0.9371  1.9798  1.0263
  537TMC3    H1 8028   1.789   1.520  16.993 -0.4511 -1.0919  2.4979
  537TMC3    H2 8029   2.119   1.399  17.237 -1.6770  0.5738  0.7954
  537TMC3    C7 8030   1.865   1.359  17.185 -0.0575 -0.4325 -0.3351
  537TMC3    C8 8031   2.307   1.485  17.061 -0.8985 -0.1040 -0.5892
  537TMC3    O1 8032   1.752   1.390  17.183 -0.6645 -0.2122  0.6401
  537TMC3    O2 8033   2.377   1.561  16.997 -0.1203  0.1664 -0.0947
  538TMC3    C1 8034   3.683   3.911  11.072  0.0340 -0.1262  0.7480
  538TMC3    C2 8035   3.753   3.805  11.026  0.0022 -0.1810 -0.7656
  538TMC3    C3 8036   3.741   3.777  10.892  0.6682  0.0755  0.3964
  538TMC3    C4 8037   3.624   3.994  10.983 -0.4529 -0.2778 -0.0608
  538TMC3    C5 8038   3.611   3.959  10.852  0.3139  0.5243 -0.3390
  538TMC3    C6 8039   3.669   3.846  10.802  0.2373 -0.3340 -0.3678
  538TMC3     C 8040   3.686   3.954  11.215 -0.3092 -0.5170  0.4278
  538TMC3     O 8041   3.586   4.016  11.247 -0.1978  0.1665  0.0692
  538TMC3     H 8042   3.830   3.755  11.083  0.6273  0.0677 -1.3913
  538TMC3    H1 8043   3.580   4.087  11.017 -1.6016 -0.8173 -0.0737
  538TMC3    H2 8044   3.669   3.824  10.696  3.1293  0.0804 -0.4391
  538TMC3    C7 8045   3.551   4.052  10.757 -0.4069 -1.1619  0.5106
  538TMC3    C8 8046   3.828   3.667  10.836 -0.5505  0.0930 -0.4086
  538TMC3    O1 8047   3.489   3.996  10.668  0.7898  0.0707 -0.0373
  538TMC3    O2 8048   3.865   3.585  10.917 -0.5672  0.0165  0.0587
  539MPD2     C 8049   3.179   3.493  11.918  0.0702  0.2976  0.3266
  539MPD2    C1 8050   3.145   3.496  11.788 -0.5640 -0.0931 -0.2757
  539MPD2    C2 8051   3.109   3.615  11.729 -0.4128  0.3124 -0.3552
  539MPD2    C3 8052   3.102   3.731  11.803 -1.1611  0.4616  0.9082
  539MPD2    C4 8053   3.143   3.724  11.936 -0.8038  0.0860 -0.5274
  539MPD2    C5 8054   3.174   3.604  11.992  0.3558 -0.5116 -0.0765
  539MPD2     H 8055   3.080   3.622  11.625 -0.7962 -1.3651 -0.3620
  539MPD2    H1 8056   3.143   3.814  11.997 -2.3370 -0.2282 -0.0602
  539MPD2    H2 8057   3.222   3.402  11.959  2.3510  1.2337  0.0339
  539MPD2    H3 8058   3.202   3.597  12.096  3.4772 -2.8069 -1.0614
  539MPD2     N 8059   3.061   3.853  11.740 -0.0243 -0.3010  0.1710
  539MPD2    H5 8060   3.039   3.845  11.641  0.2209  0.7971  0.0227
  539MPD2    N1 8061   3.152   3.372  11.718  0.1736  0.8995  0.4703
  539MPD2    H7 8062   3.160   3.286  11.771  0.4861  0.6606  0.0323
  540TMC3    C1 8063   3.000   4.086  11.728  0.0266  0.1250  0.0187
  540TMC3    C2 8064   3.061   4.107  11.612 -0.1590 -0.6555 -0.2025
  540TMC3    C3 8065   3.054   4.240  11.572 -0.2035  0.2041 -0.3489
  540TMC3    C4 8066   2.910   4.176  11.784  0.6899 -0.4538 -0.2299
  540TMC3    C5 8067   2.913   4.308  11.749  0.2028 -0.5279  0.1711
  540TMC3    C6 8068   2.986   4.337  11.636  0.3154  0.0376 -0.0845
  540TMC3     C 8069   3.012   3.964  11.802 -0.1430  0.1628  0.0015
  540TMC3     O 8070   2.985   3.971  11.922 -0.6130  0.0647  0.0375
  540TMC3     H 8071   3.133   4.043  11.564  2.4081  0.9410  1.5091
  540TMC3    H1 8072   2.853   4.142  11.870  1.4955 -1.9876 -0.2963
  540TMC3    H2 8073   2.988   4.434  11.587 -0.0758 -0.2414 -0.6497
  540TMC3    C7 8074   2.824   4.409  11.811 -0.4724  0.9566 -0.7374
  540TMC3    C8 8075   3.082   4.278  11.433 -0.4381  0.4328 -0.0400
  540TMC3    O1 8076   2.722   4.360  11.853 -0.3591 -0.0755  0.2555
  540TMC3    O2 8077   3.152   4.376  11.415 -0.0777 -0.0722 -0.1863
  541MPD2     C 8078   1.767   0.929  13.187  0.2711  0.4585  0.0795
  541MPD2    C1 8079   1.779   0.806  13.127  0.5866 -0.9236 -1.2015
  541MPD2    C2 8080   1.768   0.808  12.985 -0.1802  0.0266  0.4486
  541MPD2    C3 8081   1.751   0.928  12.917  0.7981  0.1945  0.5085
  541MPD2    C4 8082   1.727   1.041  12.984  0.1115  0.9843  0.7137
  541MPD2    C5 8083   1.734   1.041  13.120 -0.5535 -0.5518  0.3492
  541MPD2     H 8084   1.773   0.716  12.929 -3.6404 -0.0150  0.1727
  541MPD2    H1 8085   1.710   1.134  12.931  0.4078  0.4825 -0.2628
  541MPD2    H2 8086   1.772   0.943  13.294  1.8029  0.6596 -0.0262
  541MPD2    H3 8087   1.713   1.137  13.166 -0.0304 -0.0536 -0.4566
  541MPD2     N 8088   1.759   0.940  12.774  0.2548  0.7354  0.2880
  541MPD2    H5 8089   1.772   1.037  12.748  2.0069  0.5339  0.4116
  541MPD2    N1 8090   1.811   0.688  13.197 -0.0656 -0.6569 -0.7615
  541MPD2    H7 8091   1.801   0.600  13.148  1.4177 -0.6137 -1.1563
  542TMC3    C1 8092   1.788   0.896  12.545  0.5897 -0.1963 -0.1092
  542TMC3    C2 8093   1.847   0.811  12.455  0.4343  0.4808  0.8198
  542TMC3    C3 8094   1.890   0.858  12.338  0.2571  0.7917 -0.0887
  542TMC3    C4 8095   1.764   1.025  12.510  0.0277 -0.5325  0.1024
  542TMC3    C5 8096   1.800   1.065  12.381  0.9244  0.2643 -0.5629
  542TMC3    C6 8097   1.872   0.985  12.302 -0.3431  0.1617 -0.4481
  542TMC3     C 8098   1.782   0.845  12.681  0.5729  0.4454 -0.5152
  542TMC3     O 8099   1.791   0.725  12.699  0.1093 -0.5351  0.0656
  542TMC3     H 8100   1.860   0.708  12.486 -4.2484  0.5106  2.8430
  542TMC3    H1 8101   1.705   1.087  12.576  2.5494  2.5204 -0.5232
  542TMC3    H2 8102   1.920   1.023  12.212 -1.5887  0.7056 -0.8894
  542TMC3    C7 8103   1.825   1.202  12.376 -0.0955  0.4459  0.2564
  542TMC3    C8 8104   1.978   0.780  12.246  0.7082 -0.0620 -0.0213
  542TMC3    O1 8105   1.809   1.261  12.479 -0.3806 -0.2041  0.1663
  542TMC3    O2 8106   2.025   0.833  12.145 -0.6174  0.0210 -0.1491
  543TMC3    C1 8107   0.806   2.744  17.189  0.7322  0.6365 -0.4658
  543TMC3    C2 8108   0.859   2.654  17.266 -0.6417 -0.4867  0.1215
  543TMC3    C3 8109   0.807   2.647  17.399  0.5941 -0.3499  0.3936
  543TMC3    C4 8110   0.714   2.834  17.233  0.0036 -0.0759  0.2748
  543TMC3    C5 8111   0.672   2.828  17.365  0.2952 -0.3470  0.1004
  543TMC3    C6 8112   0.714   2.730  17.454  0.9573 -0.1239 -0.2302
  543TMC3     C 8113   0.843   2.730  17.043 -0.1388 -0.3418  0.9330
  543TMC3     O 8114   0.959   2.680  17.026  0.2161  0.3918  0.1725
  543TMC3     H 8115   0.934   2.581  17.237  1.1118  1.3989 -0.0525
  543TMC3    H1 8116   0.672   2.911  17.169 -1.3583  0.0352  1.3225
  543TMC3    H2 8117   0.701   2.742  17.561  0.9976 -0.9829 -0.1364
  543TMC3    C7 8118   0.578   2.929  17.422  0.0762 -0.2041 -0.6690
  543TMC3    C8 8119   0.811   2.512  17.453  0.1290  0.1637  0.2057
  543TMC3    O1 8120   0.502   2.890  17.508  0.4400  0.2496  0.2521
  543TMC3    O2 8121   0.883   2.428  17.399 -0.3861 -0.1767  0.5042
  544MPD2     C 8122   0.596   2.176   0.033 -0.1623 -0.1499  0.0880
  544MPD2    C1 8123   0.688   2.152  17.686 -0.1048 -0.1113  0.2798
  544MPD2    C2 8124   0.733   2.263  17.607  0.3590 -0.3155 -0.2459
  544MPD2    C3 8125   0.678   2.388  17.623 -0.4598 -0.3218 -0.0442
  544MPD2    C4 8126   0.586   2.407  17.723 -0.4025  0.0054 -0.6169
  544MPD2    C5 8127   0.540   2.297   0.048 -0.3026 -0.1869  0.3179
  544MPD2     H 8128   0.815   2.246  17.538 -0.6811 -0.2677 -1.4898
  544MPD2    H1 8129   0.539   2.501  17.747 -2.0412 -0.6844 -1.1175
  544MPD2    H2 8130   0.571   2.096   0.101 -1.1251  0.4575  0.4553
  544MPD2    H3 8131   0.475   2.319   0.132  0.7183 -0.2315  1.1139
  544MPD2     N 8132   0.720   2.509  17.558 -0.5033  0.4431  0.1657
  544MPD2    H5 8133   0.673   2.595  17.585 -0.4088  0.6841 -0.4334
  544MPD2    N1 8134   0.721   2.018  17.659  0.4717  0.9938  0.3411
  544MPD2    H7 8135   0.660   1.946  17.697  1.2392 -0.5333 -1.3074
  545TMC3    C1 8136   0.845   1.819  17.610 -0.6746 -0.4602 -0.8486
  545TMC3    C2 8137   0.962   1.774  17.673  0.3063  0.0885 -0.1776
  545TMC3    C3 8138   0.955   1.642  17.723 -0.2059  0.5835  0.3368
  545TMC3    C4 8139   0.724   1.749  17.606 -0.5305  0.5921  0.6240
  545TMC3    C5 8140   0.732   1.622  17.665  0.2333  0.2225  0.0224
  545TMC3    C6 8141   0.846   1.568  17.721 -0.5074 -0.2111 -0.5870
  545TMC3     C 8142   0.839   1.968  17.599 -0.1191 -0.0116 -0.4993
  545TMC3     O 8143   0.949   2.026  17.593  0.1553 -0.2971 -0.1103
  545TMC3     H 8144   1.052   1.834  17.667 -0.3283  1.0000 -0.5756
  545TMC3    H1 8145   0.639   1.794  17.556  0.3723 -0.3543 -1.7830
  545TMC3    H2 8146   0.851   1.472   0.024 -0.4079  0.7679  1.2594
  545TMC3    C7 8147   0.617   1.537  17.634 -0.4234  0.4659  0.2162
  545TMC3    C8 8148   1.074   1.584   0.031  0.2698  0.3070  0.0156
  545TMC3    O1 8149   0.524   1.585  17.569 -0.3396  0.7504 -0.5888
  545TMC3    O2 8150   1.110   1.487  17.708  0.3447 -0.1611  0.3693
  546MPD2     C 8151   2.309   2.451  17.465  0.5279 -0.0057  0.1575
  546MPD2    C1 8152   2.288   2.402  17.338  0.3907  0.5538  0.1051
  546MPD2    C2 8153   2.384   2.433  17.239  0.1194  0.5044  0.0722
  546MPD2    C3 8154   2.494   2.511  17.272  0.5701  0.2058 -0.6867
  546MPD2    C4 8155   2.505   2.558  17.405  0.1865 -0.3745 -0.0834
  546MPD2    C5 8156   2.421   2.521  17.502  0.0491 -0.5275 -0.3765
  546MPD2     H 8157   2.376   2.402  17.136  1.4498  0.8616 -0.1329
  546MPD2    H1 8158   2.592   2.618  17.426 -0.1460 -0.2857  1.0302
  546MPD2    H2 8159   2.244   2.433  17.550 -0.3329  2.4074 -0.0086
  546MPD2    H3 8160   2.437   2.556  17.603 -0.4279  0.6760 -0.7199
  546MPD2     N 8161   2.582   2.581  17.182 -0.3300 -0.0984  0.6649
  546MPD2    H5 8162   2.645   2.644  17.230  1.7046 -2.1763  0.6982
  546MPD2    N1 8163   2.177   2.327  17.312  1.0279  0.4809  0.6033
  546MPD2    H7 8164   2.116   2.328  17.394  1.4235  1.4066  0.8888
  547TMC3    C1 8165   2.006   2.220  17.191 -0.1033 -0.3651 -0.2789
  547TMC3    C2 8166   1.934   2.250  17.081 -0.0388 -0.2742  0.3974
  547TMC3    C3 8167   1.797   2.260  17.102 -0.2541  0.3448 -0.3005
  547TMC3    C4 8168   1.948   2.179  17.313 -0.5313  0.2000 -0.4862
  547TMC3    C5 8169   1.813   2.188  17.322 -0.7683 -0.2971 -0.1023
  547TMC3    C6 8170   1.731   2.227  17.223  0.4361 -0.3637  0.6157
  547TMC3     C 8171   2.141   2.272  17.191 -0.6485  0.0418  0.1963
  547TMC3     O 8172   2.198   2.279  17.084 -0.6633 -0.2350  0.2323
  547TMC3     H 8173   1.983   2.256  16.984 -2.0285 -2.5291 -0.7724
  547TMC3    H1 8174   2.003   2.138  17.397  1.0027  1.2900 -0.9684
  547TMC3    H2 8175   1.625   2.238  17.238  0.6458 -0.2734  2.0296
  547TMC3    C7 8176   1.747   2.145  17.444 -0.4524  0.6479 -0.5069
  547TMC3    C8 8177   1.705   2.268  16.993  0.3875  0.6449  0.4279
  547TMC3    O1 8178   1.815   2.141  17.548 -0.8464 -0.4633  0.2500
  547TMC3    O2 8179   1.585   2.242  17.013 -0.8961 -0.9388  0.2633
  548MPD2     C 8180   2.596   2.284  12.574 -1.1156  0.0412  0.5657
  548MPD2    C1 8181   2.533   2.161  12.559  0.1887  0.1798 -0.0058
  548MPD2    C2 8182   2.597   2.069  12.471  0.4401 -0.9654  0.0631
  548MPD2    C3 8183   2.720   2.108  12.410  0.4805 -0.0516  0.0021
  548MPD2    C4 8184   2.767   2.238  12.427  1.1375 -0.1059 -0.3352
  548MPD2    C5 8185   2.709   2.322  12.511 -0.1476  0.0750 -0.8609
  548MPD2     H 8186   2.548   1.977  12.440  0.0350 -0.6762 -0.1634
  548MPD2    H1 8187   2.851   2.279  12.371  3.8508 -0.6171  3.4155
  548MPD2    H2 8188   2.555   2.354  12.646 -1.1044 -0.7608  1.3533
  548MPD2    H3 8189   2.762   2.415  12.526 -1.6650  1.1985 -2.5350
  548MPD2     N 8190   2.784   2.009  12.324 -0.1424 -0.4773 -0.4130
  548MPD2    H5 8191   2.733   1.923  12.303 -0.6306 -0.3882  0.3612
  548MPD2    N1 8192   2.408   2.136  12.625  0.5318 -0.2946  0.3978
  548MPD2    H7 8193   2.369   2.215  12.675  0.3173 -0.1156 -0.0505
  549TMC3    C1 8194   2.201   2.037  12.682 -0.4794  1.1877  0.6469
  549TMC3    C2 8195   2.140   2.152  12.638 -0.1634 -0.4745 -0.1529
  549TMC3    C3 8196   2.015   2.189  12.681  0.1093  0.6797  0.4231
  549TMC3    C4 8197   2.147   1.947  12.762  0.3072 -0.1794 -0.5845
  549TMC3    C5 8198   2.012   1.982  12.799 -0.2443 -0.1838 -0.3398
  549TMC3    C6 8199   1.957   2.106  12.774 -0.0065  0.0467  0.0316
  549TMC3     C 8200   2.340   2.016  12.629 -0.8901  0.0188 -0.4207
  549TMC3     O 8201   2.377   1.900  12.635  0.8976  0.3289  0.0405
  549TMC3     H 8202   2.173   2.211  12.553 -2.0994 -0.9650 -1.2502
  549TMC3    H1 8203   2.203   1.865  12.805  0.1271 -0.8248 -1.5696
  549TMC3    H2 8204   1.856   2.129  12.805 -0.5535 -1.4701 -0.6173
  549TMC3    C7 8205   1.943   1.907  12.901  0.1909  0.2735  0.0716
  549TMC3    C8 8206   1.963   2.327  12.665 -0.5317  0.0586 -0.0711
  549TMC3    O1 8207   1.865   1.962  12.973  0.7498  0.2257  0.2370
  549TMC3    O2 8208   1.843   2.343  12.678  0.3091  0.1016 -0.0202
  550TMC3    C1 8209   1.100   0.311  12.197 -0.1684 -0.2419 -0.0142
  550TMC3    C2 8210   1.089   0.346  12.331  0.3057  0.4153  0.5738
  550TMC3    C3 8211   1.166   0.443  12.384 -0.5206 -0.1368  0.2724
  550TMC3    C4 8212   1.198   0.369  12.115  0.0585  0.1086  0.1507
  550TMC3    C5 8213   1.273   0.469  12.171 -0.2630  0.2078 -0.1512
  550TMC3    C6 8214   1.269   0.495  12.308 -0.0221  0.5728  0.5195
  550TMC3     C 8215   1.022   0.200  12.151 -0.2568  0.1659  0.2821
  550TMC3     O 8216   0.926   0.169  12.224  0.4232 -0.0432 -0.0528
  550TMC3     H 8217   1.024   0.279  12.387 -0.8516  0.3271 -0.8678
  550TMC3    H1 8218   1.222   0.322  12.020 -1.0290  1.4138 -0.7698
  550TMC3    H2 8219   1.333   0.569  12.355 -1.0028  1.3844  0.5880
  550TMC3    C7 8220   1.257   0.593  12.098  0.9832  0.9684  0.0767
  550TMC3    C8 8221   1.075   0.550  12.429 -0.2148 -0.5438  0.8959
  550TMC3    O1 8222   1.335   0.675  12.141  0.0843  0.4534  0.7805
  550TMC3    O2 8223   1.125   0.659  12.437 -0.3256 -0.0757 -0.2241
  551TMC3    C1 8224   3.539   2.869  13.356 -0.1343  0.0445  0.4302
  551TMC3    C2 8225   3.645   2.915  13.292 -0.0488  0.1514 -0.2199
  551TMC3    C3 8226   3.707   3.031  13.338 -0.5666  0.2694  0.3747
  551TMC3    C4 8227   3.474   2.943  13.453 -0.2441 -0.4238  0.2452
  551TMC3    C5 8228   3.536   3.061  13.492 -0.2705  0.7982  0.0769
  551TMC3    C6 8229   3.654   3.101  13.438 -1.1614  0.1866  0.1827
  551TMC3     C 8230   3.466   2.764  13.281  1.0752  0.2138 -0.3665
  551TMC3     O 8231   3.516   2.726  13.175 -0.1190  0.5235 -0.0765
  551TMC3     H 8232   3.693   2.856  13.215  0.6765  0.9050 -0.3398
  551TMC3    H1 8233   3.387   2.911  13.510 -0.0896  0.0115  0.7258
  551TMC3    H2 8234   3.703   3.189  13.478 -1.3486  0.0002  0.8207
  551TMC3    C7 8235   3.509   3.105  13.633 -0.5582  0.4676  0.7127
  551TMC3    C8 8236   3.795   3.094  13.235 -0.2408  0.2395 -0.7407
  551TMC3    O1 8237   3.491   3.021  13.721 -0.1309 -0.3653  0.0008
  551TMC3    O2 8238   3.768   3.076  13.114 -0.4935  0.5050 -0.4455
  552MPD2     C 8239   0.389   0.306  13.861 -0.1821  0.2131  0.1344
  552MPD2    C1 8240   0.417   0.216  13.960 -0.0604  0.3732 -0.1681
  552MPD2    C2 8241   0.507   0.241  14.059 -0.8752  0.2523 -0.1664
  552MPD2    C3 8242   0.583   0.354  14.064 -0.0875 -0.6452  0.4109
  552MPD2    C4 8243   0.566   0.438  13.954 -0.3965 -0.1708 -0.6737
  552MPD2    C5 8244   0.468   0.418  13.859 -0.0629 -0.1490  0.1513
  552MPD2     H 8245   0.513   0.163  14.135  1.5682  1.5992  1.0074
  552MPD2    H1 8246   0.630   0.524  13.938  1.4590 -1.1842  1.3799
  552MPD2    H2 8247   0.315   0.286  13.785  1.1986 -0.1649 -1.1039
  552MPD2    H3 8248   0.457   0.483  13.773 -0.6593  0.8484  0.9757
  552MPD2     N 8249   0.678   0.382  14.159 -0.2120 -0.3438 -0.4606
  552MPD2    H5 8250   0.732   0.467  14.147  0.1255 -0.4055  0.5791
  552MPD2    N1 8251   0.369   0.084  13.958  0.4537 -0.2121 -0.1862
  552MPD2    H7 8252   0.405   0.029  14.036  0.4523  0.9385  0.6163
  553TMC3    C1 8253   0.378   4.624  13.839 -0.2808 -0.1319 -0.2472
  553TMC3    C2 8254   0.452   4.641  13.726  0.3874 -0.7172  0.1086
  553TMC3    C3 8255   0.591   4.650  13.734  0.1787 -0.4439 -0.1582
  553TMC3    C4 8256   0.454   4.594  13.948  0.1330  0.6111  0.5623
  553TMC3    C5 8257   0.591   4.598  13.951 -0.1648 -0.1157 -0.4819
  553TMC3    C6 8258   0.662   4.631  13.846 -0.2797  0.4397  0.1160
  553TMC3     C 8259   0.311   0.014  13.849  0.8048  0.3003 -0.4439
  553TMC3     O 8260   0.271   0.063  13.745  0.1350 -0.2130 -0.3077
  553TMC3     H 8261   0.395   4.645  13.634 -0.6825  0.5002  0.8204
  553TMC3    H1 8262   0.404   4.586  14.044 -0.9184  1.3559  0.0784
  553TMC3    H2 8263   0.769   4.614  13.847 -0.7393 -2.4733 -1.6973
  553TMC3    C7 8264   0.639   4.619  14.092  0.0198 -0.0274  1.0196
  553TMC3    C8 8265   0.664   4.630  13.611 -0.7957 -0.2857 -0.3649
  553TMC3    O1 8266   0.569   4.579  14.187  0.2525  0.2514  0.6121
  553TMC3    O2 8267   0.784   4.659  13.609 -0.8667 -0.4504  0.2823
  554TMC3    C1 8268   2.100   3.935  11.764 -0.5854 -0.6825 -0.1309
  554TMC3    C2 8269   2.013   3.929  11.662  0.5856  0.0315 -0.5852
  554TMC3    C3 8270   2.030   4.012  11.550 -0.1037  0.0002 -0.4950
  554TMC3    C4 8271   2.211   4.020  11.759  0.1269  0.9671 -0.1500
  554TMC3    C5 8272   2.235   4.094  11.651  0.0752 -0.1755  0.4652
  554TMC3    C6 8273   2.145   4.088  11.550  0.6127 -0.0377  0.2828
  554TMC3     C 8274   2.081   3.829  11.860  0.0713  0.5108  0.1136
  554TMC3     O 8275   1.968   3.775  11.870  0.0903  0.1104  1.1299
  554TMC3     H 8276   1.940   3.849  11.661  0.8364 -0.2001 -0.3915
  554TMC3    H1 8277   2.291   4.011  11.832  0.1949  0.1273 -0.3222
  554TMC3    H2 8278   2.167   4.155  11.468 -0.1412  1.1078  1.0057
  554TMC3    C7 8279   2.366   4.158  11.633  0.1911  0.6670  0.0797
  554TMC3    C8 8280   1.979   3.963  11.429  0.4175 -0.6184  0.6952
  554TMC3    O1 8281   2.417   4.196  11.742  0.3112  0.2857 -0.5562
  554TMC3    O2 8282   2.060   3.936  11.343  0.4621 -0.5719  0.1032
  555TMC3    C1 8283   1.584   3.881  15.149  0.3665  0.4125 -0.6116
  555TMC3    C2 8284   1.489   3.934  15.233  0.1126 -0.3059 -0.8178
  555TMC3    C3 8285   1.428   3.841  15.315 -0.1717 -0.5869  0.5376
  555TMC3    C4 8286   1.613   3.749  15.134  0.3305 -0.6060 -0.0676
  555TMC3    C5 8287   1.549   3.661  15.213  0.7514  0.0897  0.0686
  555TMC3    C6 8288   1.451   3.703  15.300 -0.2164  0.8130  0.7497
  555TMC3     C 8289   1.642   3.971  15.058  0.1882 -0.2035 -0.7015
  555TMC3     O 8290   1.749   3.932  15.007  0.1599 -0.0516 -0.5363
  555TMC3     H 8291   1.464   4.040  15.243  1.0687 -0.0557 -1.1387
  555TMC3    H1 8292   1.675   3.715  15.053  0.5796 -0.5850  0.1127
  555TMC3    H2 8293   1.384   3.639  15.355 -2.4375  2.0241 -0.5780
  555TMC3    C7 8294   1.602   3.527  15.242  0.3499 -0.6658 -0.0334
  555TMC3    C8 8295   1.381   3.896  15.442  0.2732 -0.4834 -0.4954
  555TMC3    O1 8296   1.529   3.455  15.311 -0.3797 -0.5540  0.1695
  555TMC3    O2 8297   1.368   4.019  15.440 -0.2397  0.4796 -0.1969
  556MPD2     C 8298   4.544   4.706  10.438 -0.0003 -0.0625 -0.0816
  556MPD2    C1 8299   4.498   4.626  10.539  0.3218  0.6853  0.1607
  556MPD2    C2 8300   4.462   4.497  10.506 -0.0642  0.2464  0.4370
  556MPD2    C3 8301   4.487   4.445  10.380  0.1482  0.2939 -0.5231
  556MPD2    C4 8302   4.531   4.522  10.279  0.2855 -0.0732 -0.0492
  556MPD2    C5 8303   4.563   4.657  10.312  0.7919 -0.3093 -0.7889
  556MPD2     H 8304   4.420   4.431  10.581  0.0372 -1.7208 -1.2506
  556MPD2    H1 8305   4.537   4.483  10.178 -1.4090  0.4305 -0.3481
  556MPD2    H2 8306   4.571   0.073  10.454  0.6396 -0.2718  0.2115
  556MPD2    H3 8307   4.583   4.726  10.231 -1.3714  0.0754 -0.9806
  556MPD2     N 8308   4.462   4.307  10.355 -0.1880 -0.3263  0.5114
  556MPD2    H5 8309   4.430   4.255  10.436  0.7859 -1.2865  0.2924
  556MPD2    N1 8310   4.499   4.672  10.677  0.0778 -0.3956 -0.7951
  556MPD2    H7 8311   4.472   4.595  10.738 -1.4434  0.7646 -0.0040
  557TMC3    C1 8312   4.439   4.103  10.224 -0.7251 -0.1273 -0.5106
  557TMC3    C2 8313   4.455   4.030  10.112  0.0418 -0.4519 -0.1448
  557TMC3    C3 8314   4.450   3.891  10.116 -0.0490  0.1697  0.7913
  557TMC3    C4 8315   4.400   4.039  10.342 -0.0263 -0.1057 -0.2006
  557TMC3    C5 8316   4.385   3.903  10.336  0.1450  0.3531  0.3337
  557TMC3    C6 8317   4.405   3.825  10.225 -0.1092  0.1741 -0.0614
  557TMC3     C 8318   4.452   4.247  10.231  0.0611 -0.1530  0.9678
  557TMC3     O 8319   4.475   4.299  10.125  0.3333 -0.5874 -0.3043
  557TMC3     H 8320   4.462   4.087  10.020 -0.2301  0.2539  0.2693
  557TMC3    H1 8321   4.377   4.091  10.434 -0.7994  2.8901 -2.0956
  557TMC3    H2 8322   4.390   3.718  10.222  1.5572 -0.1871  3.8477
  557TMC3    C7 8323   4.302   3.852  10.452 -0.5205 -0.2405 -0.5242
  557TMC3    C8 8324   4.452   3.827   9.984  0.0927 -0.5190  0.3648
  557TMC3    O1 8325   4.259   3.924  10.538 -0.4901  0.3647 -0.4410
  557TMC3    O2 8326   4.477   3.911   9.897 -0.6663  0.0849  0.0747
  558TMC3    C1 8327   1.961   2.986  10.278  0.1096  0.0058  0.3539
  558TMC3    C2 8328   1.935   3.007  10.408  0.2655  0.6816  0.6785
  558TMC3    C3 8329   1.811   2.989  10.459  0.1003 -0.0671 -0.3993
  558TMC3    C4 8330   1.857   2.947  10.195  0.1812  0.4012 -0.1707
  558TMC3    C5 8331   1.728   2.933  10.243  0.2381 -0.3025  0.0501
  558TMC3    C6 8332   1.705   2.954  10.382 -0.1979 -0.3656 -0.5554
  558TMC3     C 8333   2.104   2.970  10.240 -0.2122  0.1871  0.3662
  558TMC3     O 8334   2.181   2.968  10.332 -0.1324 -0.8696  0.2445
  558TMC3     H 8335   2.014   3.044  10.473  1.9107 -0.6670 -0.5367
  558TMC3    H1 8336   1.882   2.936  10.090 -0.8283 -0.8268 -0.2873
  558TMC3    H2 8337   1.609   2.946  10.431  0.0620 -2.3811 -0.3769
  558TMC3    C7 8338   1.629   2.855  10.161 -0.3867  0.1497 -0.5090
  558TMC3    C8 8339   1.801   2.985  10.598  0.2577 -0.0915 -0.2881
  558TMC3    O1 8340   1.673   2.794  10.063 -0.4149 -0.7655 -0.1923
  558TMC3    O2 8341   1.705   3.039  10.651  0.1982  0.7064 -0.4620
  559MPD2     C 8342   1.823   3.360  10.508 -0.4187  0.2784  0.7909
  559MPD2    C1 8343   1.799   3.370  10.643  0.5986 -0.0577  0.2306
  559MPD2    C2 8344   1.908   3.360  10.725  0.1576  0.8933 -0.4623
  559MPD2    C3 8345   2.032   3.333  10.681 -0.2078 -1.0060 -0.0045
  559MPD2    C4 8346   2.052   3.324  10.543 -0.1593 -0.0397 -0.3859
  559MPD2    C5 8347   1.949   3.343  10.457  0.1836 -0.3829 -0.0203
  559MPD2     H 8348   1.894   3.369  10.833 -4.3129 -1.1484 -0.8663
  559MPD2    H1 8349   2.151   3.305  10.502 -0.6251 -0.5335 -1.2630
  559MPD2    H2 8350   1.740   3.363  10.438  0.6809 -1.4244 -0.5681
  559MPD2    H3 8351   1.971   3.342  10.351 -0.7077 -1.4182 -0.1927
  559MPD2     N 8352   2.137   3.333  10.776 -0.5677 -0.2142  0.3152
  559MPD2    H5 8353   2.110   3.339  10.874 -2.4293  2.8107 -0.3717
  559MPD2    N1 8354   1.667   3.386  10.701  0.1330 -0.8002 -0.0936
  559MPD2    H7 8355   1.594   3.379  10.630  0.0044  3.6029 -0.4391
  560TMC3    C1 8356   2.353   3.304  10.868 -0.1910  0.0075 -0.2322
  560TMC3    C2 8357   2.447   3.214  10.846  0.6813 -0.1991  0.5035
  560TMC3    C3 8358   2.525   3.188  10.954  0.0287  0.4831  0.3980
  560TMC3    C4 8359   2.333   3.378  10.976 -0.4041  0.6372  0.0484
  560TMC3    C5 8360   2.423   3.364  11.075  0.2130 -0.1785 -0.6727
  560TMC3    C6 8361   2.509   3.255  11.070  0.4920  0.9650  0.4833
  560TMC3     C 8362   2.274   3.331  10.746  0.0185  0.1237  0.5378
  560TMC3     O 8363   2.336   3.321  10.641 -0.0945  0.2344 -0.2014
  560TMC3     H 8364   2.429   3.144  10.766 -0.5885  2.1178 -1.2269
  560TMC3    H1 8365   2.261   3.459  10.973 -0.9730  0.1691  0.8685
  560TMC3    H2 8366   2.577   3.225  11.148 -0.2593  1.4536  1.3240
  560TMC3    C7 8367   2.447   3.467  11.163  0.0494 -0.4460  0.0452
  560TMC3    C8 8368   2.591   3.059  10.976  0.6101  0.1818 -1.2910
  560TMC3    O1 8369   2.350   3.540  11.189 -0.0443  0.7274 -0.1797
  560TMC3    O2 8370   2.588   3.004  11.089 -0.2767 -0.0189 -0.1611
  561TMC3    C1 8371   4.539   2.480  11.529  0.1442 -0.3344 -0.9868
  561TMC3    C2 8372   4.474   2.431  11.632 -0.3502 -0.2303 -0.3351
  561TMC3    C3 8373   4.356   2.497  11.666  0.3664 -0.6237 -0.1399
  561TMC3    C4 8374   4.492   2.582  11.452  0.3701  0.2264 -0.2238
  561TMC3    C5 8375   4.369   2.644  11.487  0.7423  0.9875  0.6853
  561TMC3    C6 8376   4.308   2.606  11.599  0.0669  0.0977  0.0700
  561TMC3     C 8377   4.669   2.420  11.501  0.1202 -0.3181  0.0804
  561TMC3     O 8378   4.681   2.304  11.536 -0.2373 -0.3922  0.0010
  561TMC3     H 8379   4.521   2.355  11.694 -1.1541 -1.0338 -0.7172
  561TMC3    H1 8380   4.537   2.608  11.357  0.5351 -0.3005 -0.2897
  561TMC3    H2 8381   4.219   2.661  11.630 -0.7146 -2.3005  2.0337
  561TMC3    C7 8382   4.330   2.766  11.425  0.0199 -0.8016  0.6523
  561TMC3    C8 8383   4.338   2.494  11.814  0.8588  0.2749 -0.0274
  561TMC3    O1 8384   4.215   2.806  11.436 -0.4044 -0.0077 -0.2119
  561TMC3    O2 8385   4.424   2.450  11.887  0.4452 -0.6422  0.7828
  562TMC3    C1 8386   1.088   4.096  16.191  0.3031 -0.3776 -0.3777
  562TMC3    C2 8387   1.068   4.198  16.100  0.3151 -0.0801 -0.5536
  562TMC3    C3 8388   1.112   4.323  16.139 -0.5542 -0.0919 -0.2002
  562TMC3    C4 8389   1.149   4.116  16.309 -0.0442  0.5334  0.5387
  562TMC3    C5 8390   1.177   4.247  16.350  0.4145 -0.0936 -0.3064
  562TMC3    C6 8391   1.156   4.352  16.269  0.1546  0.1326  0.0431
  562TMC3     C 8392   1.064   3.965  16.148  0.8997 -0.7246  0.4488
  562TMC3     O 8393   0.956   3.954  16.093  0.4309 -0.0550 -0.4705
  562TMC3     H 8394   1.026   4.174  16.003  1.0351 -1.7985 -0.4361
  562TMC3    H1 8395   1.156   4.028  16.372  0.1536  0.5293  0.5089
  562TMC3    H2 8396   1.195   4.451  16.292  1.0132 -0.9284  3.1605
  562TMC3    C7 8397   1.234   4.269  16.483 -0.8463 -0.0138  0.0229
  562TMC3    C8 8398   1.092   4.431  16.049  0.4022  0.4270 -0.1098
  562TMC3    O1 8399   1.239   4.383  16.525  0.3362 -0.1105  1.1671
  562TMC3    O2 8400   1.020   4.403  15.951 -0.1902 -0.9259  0.6310
  563MPD2     C 8401   4.264   0.440  15.843 -0.7264  0.4166 -0.2335
  563MPD2    C1 8402   4.178   0.476  15.947  0.3305 -0.2265  0.7980
  563MPD2    C2 8403   4.254   0.528  16.049 -0.7166 -0.0515  0.4041
  563MPD2    C3 8404   4.389   0.555  16.041  0.3584  0.0177 -0.3717
  563MPD2    C4 8405   4.460   0.517  15.930  0.4987  0.5124  0.8440
  563MPD2    C5 8406   4.404   0.453  15.828  0.2400  0.7659  0.1052
  563MPD2     H 8407   4.200   0.530  16.143  0.4745  1.0970  1.0457
  563MPD2    H1 8408   4.564   0.546  15.921  0.3013  0.7615 -0.6498
  563MPD2    H2 8409   4.213   0.426  15.749  0.2037 -1.4090 -0.4795
  563MPD2    H3 8410   4.455   0.430  15.736 -0.2088  1.2026 -0.2579
  563MPD2     N 8411   4.444   0.592  16.159 -0.3614 -0.1779  0.4112
  563MPD2    H5 8412   4.373   0.609  16.230  0.4141  3.1189  0.3623
  563MPD2    N1 8413   4.038   0.444  15.966 -0.0931  0.2603 -0.1017
  563MPD2    H7 8414   3.990   0.477  16.049  0.4053  2.9517 -0.8911
  564TMC3    C1 8415   3.851   0.312  15.950 -0.5101 -0.1511  0.3460
  564TMC3    C2 8416   3.751   0.248  15.876 -0.2026  0.2379  0.7171
  564TMC3    C3 8417   3.642   0.207  15.941 -0.0169  0.0458 -0.0978
  564TMC3    C4 8418   3.828   0.341  16.081 -0.0315 -0.1249  0.2760
  564TMC3    C5 8419   3.713   0.299  16.145  0.2404 -0.2891  0.6386
  564TMC3    C6 8420   3.623   0.222  16.077 -0.0769 -0.0983  0.0866
  564TMC3     C 8421   3.963   0.367  15.882 -0.1625 -1.0169  0.3686
  564TMC3     O 8422   3.987   0.336  15.766  0.4070  0.7398  0.5549
  564TMC3     H 8423   3.765   0.229  15.770 -2.5587  0.8274  0.2987
  564TMC3    H1 8424   3.912   0.371  16.142 -0.8488  4.2424 -0.7539
  564TMC3    H2 8425   3.531   0.201  16.130  1.5283  1.1688  3.3967
  564TMC3    C7 8426   3.709   0.279  16.289 -0.5837 -0.4019  0.2228
  564TMC3    C8 8427   3.527   0.145  15.877  0.1052 -0.5347  0.2389
  564TMC3    O1 8428   3.639   0.192  16.336  0.7257  0.4842 -0.5695
  564TMC3    O2 8429   3.426   0.131  15.942  0.1634 -0.0183  0.8675
  565TMC3    C1 8430   3.979   1.881   9.615 -0.0128  0.3311 -0.1719
  565TMC3    C2 8431   4.018   1.756   9.652 -0.5584  0.6364 -0.3451
  565TMC3    C3 8432   3.921   1.678   9.717 -0.5615  0.2044 -0.4468
  565TMC3    C4 8433   3.846   1.923   9.616 -0.6492 -0.1843 -1.0397
  565TMC3    C5 8434   3.765   1.851   9.693 -0.4454 -0.0302 -0.1201
  565TMC3    C6 8435   3.795   1.726   9.737  0.6993 -0.1170 -0.2224
  565TMC3     C 8436   4.076   1.971   9.548  0.6723 -0.1783 -0.2441
  565TMC3     O 8437   4.021   2.039   9.467  0.0770 -0.4617  0.3922
  565TMC3     H 8438   4.121   1.721   9.649 -0.7807 -0.0670  0.2406
  565TMC3    H1 8439   3.829   2.028   9.595 -0.3632 -0.0434 -0.5736
  565TMC3    H2 8440   3.734   1.683   9.815 -0.2827 -0.4021 -1.1427
  565TMC3    C7 8441   3.639   1.910   9.723 -0.1935  0.2675 -0.1098
  565TMC3    C8 8442   3.961   1.565   9.796 -0.3426  0.0946 -0.5873
  565TMC3    O1 8443   3.588   1.888   9.831  0.1782  0.6964  0.0928
  565TMC3    O2 8444   4.075   1.559   9.835 -0.3345  0.3421  0.1487
  566MPD2     C 8445   1.004   3.756  14.690 -0.0154 -0.1883  0.5764
  566MPD2    C1 8446   1.057   3.831  14.592  0.5253 -0.2347 -0.0681
  566MPD2    C2 8447   1.011   3.823  14.462 -0.8980 -0.0484  0.3329
  566MPD2    C3 8448   0.914   3.727  14.430  0.3250  0.0664  0.5179
  566MPD2    C4 8449   0.872   3.641  14.531  0.2139  0.3618 -0.5034
  566MPD2    C5 8450   0.911   3.660  14.664  0.5186 -0.2612  0.4206
  566MPD2     H 8451   1.049   3.884  14.381  0.6880 -1.3262  0.1396
  566MPD2    H1 8452   0.794   3.569  14.508  2.9914 -2.3788 -1.3410
  566MPD2    H2 8453   1.029   3.773  14.794 -0.6978  0.6276  0.5976
  566MPD2    H3 8454   0.867   3.600  14.743 -1.2310 -1.5635 -1.5307
  566MPD2     N 8455   0.859   3.702  14.300 -0.0778  0.3256 -0.0014
  566MPD2    H5 8456   0.800   3.620  14.298  1.1044 -0.5683  1.3360
  566MPD2    N1 8457   1.168   3.918  14.627  0.2280 -0.2034 -0.1314
  566MPD2    H7 8458   1.199   3.894  14.720 -1.1299 -2.1240 -0.1773
  567TMC3    C1 8459   1.332   4.081  14.577  0.4414 -0.0412 -0.0173
  567TMC3    C2 8460   1.372   4.139  14.458  0.4470  0.2616 -0.1324
  567TMC3    C3 8461   1.501   4.118  14.418 -0.1948 -0.0027  0.1132
  567TMC3    C4 8462   1.413   4.006  14.659  0.3168  0.1011  0.1341
  567TMC3    C5 8463   1.542   3.993  14.613 -0.0479  0.5084  0.1797
  567TMC3    C6 8464   1.585   4.051  14.498 -0.0111 -0.8025  0.7017
  567TMC3     C 8465   1.188   4.049  14.580  0.1739  0.0425  0.4756
  567TMC3     O 8466   1.107   4.111  14.504  0.3304  0.3910  0.1163
  567TMC3     H 8467   1.310   4.178  14.379  3.8748  1.8868 -2.0459
  567TMC3    H1 8468   1.388   3.989  14.763 -1.2590 -0.7159 -0.3802
  567TMC3    H2 8469   1.690   4.047  14.473 -0.6173 -0.1251 -1.9003
  567TMC3    C7 8470   1.636   3.893  14.672 -0.0839 -0.1391 -0.0523
  567TMC3    C8 8471   1.515   4.080  14.274  0.3696 -0.7091 -0.3750
  567TMC3    O1 8472   1.748   3.896  14.629 -0.0646  0.2231  0.2947
  567TMC3    O2 8473   1.481   4.155  14.180  0.4071  0.4188 -0.2219
  568MPD2     C 8474   2.807   3.609  16.037  0.2640  0.3499 -0.5694
  568MPD2    C1 8475   2.794   3.716  16.120 -0.0818  0.0251 -0.0901
  568MPD2    C2 8476   2.804   3.855  16.074  0.4799 -0.0176 -0.2794
  568MPD2    C3 8477   2.836   3.869  15.942 -0.6038  0.6657 -0.7488
  568MPD2    C4 8478   2.832   3.758  15.858 -1.0227  0.2787  0.6417
  568MPD2    C5 8479   2.819   3.631  15.906 -0.3211  0.2781  0.2966
  568MPD2     H 8480   2.779   3.938  16.139 -2.7973  0.0949 -1.6739
  568MPD2    H1 8481   2.850   3.763  15.751  0.1836 -1.4863  0.7733
  568MPD2    H2 8482   2.807   3.506  16.068 -0.6173  0.8035  0.9318
  568MPD2    H3 8483   2.834   3.551  15.835 -1.2086  1.0234 -0.7227
  568MPD2     N 8484   2.852   4.000  15.894 -0.1314  0.3565  0.2739
  568MPD2    H5 8485   2.865   4.069  15.968  0.4611  1.7160 -1.1107
  568MPD2    N1 8486   2.775   3.684  16.259 -0.0264  1.0434  0.5249
  568MPD2    H7 8487   2.756   3.586  16.279  0.4516  0.6011 -1.1770
  569TMC3    C1 8488   2.885   4.189  15.760  0.2826 -0.2313 -0.1271
  569TMC3    C2 8489   2.837   4.256  15.867  0.1419  0.3093  0.4219
  569TMC3    C3 8490   2.889   4.377  15.907 -0.5183 -0.3155 -0.3405
  569TMC3    C4 8491   2.986   4.242  15.682 -0.2661  0.0975 -0.0610
  569TMC3    C5 8492   3.021   4.377  15.723  0.1405  0.7677 -0.3568
  569TMC3    C6 8493   2.974   4.446  15.832  0.4331 -0.0440 -0.6005
  569TMC3     C 8494   2.872   4.046  15.762 -0.9167 -0.4308 -0.3461
  569TMC3     O 8495   2.859   3.985  15.656  0.5178 -0.0144  0.2867
  569TMC3     H 8496   2.752   4.208  15.915  0.2828 -1.7202 -1.3930
  569TMC3    H1 8497   3.036   4.182  15.607  1.7092 -0.5538  1.7888
  569TMC3    H2 8498   3.016   4.544  15.854  0.1613 -0.1077  0.2035
  569TMC3    C7 8499   3.136   4.422  15.644 -0.2328 -0.0283  0.2449
  569TMC3    C8 8500   2.846   4.429  16.032  0.9667  0.0816 -0.4101
  569TMC3    O1 8501   3.166   4.356  15.542 -0.1316 -1.1732  0.0060
  569TMC3    O2 8502   2.746   4.378  16.078 -0.2268  0.3381  0.6066
  570TMC3    C1 8503   2.262   2.907  16.157 -0.2439  0.0755  0.1329
  570TMC3    C2 8504   2.339   2.911  16.041 -0.2219  0.2631 -0.1725
  570TMC3    C3 8505   2.350   3.025  15.969 -0.0503  0.2814 -0.0774
  570TMC3    C4 8506   2.188   3.017  16.196  0.8732  0.9141 -0.6497
  570TMC3    C5 8507   2.210   3.131  16.134  0.5484  0.3061  0.7430
  570TMC3    C6 8508   2.293   3.140  16.024 -0.2046 -0.6011 -0.2824
  570TMC3     C 8509   2.252   2.782  16.223 -0.3122  0.5330  0.1417
  570TMC3     O 8510   2.251   2.680  16.151 -0.5073  0.1093  0.3890
  570TMC3     H 8511   2.400   2.823  16.020 -0.4196 -0.3040  1.6409
  570TMC3    H1 8512   2.114   3.005  16.275  1.2585  1.1486 -0.2550
  570TMC3    H2 8513   2.310   3.232  15.970  2.1151 -1.2877 -0.7636
  570TMC3    C7 8514   2.172   3.254  16.208  0.0494  0.0775  0.4556
  570TMC3    C8 8515   2.471   3.039  15.891 -0.5269 -0.0791  0.5206
  570TMC3    O1 8516   2.146   3.238  16.326 -0.3851  0.0292  0.1831
  570TMC3    O2 8517   2.521   3.149  15.875  0.2775  0.1316 -0.2382
  571MPD2     C 8518   0.272   0.574   0.151 -0.3660  0.6571  0.0665
  571MPD2    C1 8519   0.347   0.521   0.253  0.3402  0.1253 -0.4745
  571MPD2    C2 8520   0.446   0.601   0.323 -0.7173  0.0392 -0.4960
  571MPD2    C3 8521   0.444   0.743   0.289 -0.1473 -0.4967  0.3229
  571MPD2    C4 8522   0.356   0.791   0.196 -0.8563  0.0731  0.2638
  571MPD2    C5 8523   0.281   0.706   0.125 -0.0897  0.7860 -0.7516
  571MPD2     H 8524   0.517   0.564   0.395 -1.4208 -2.4303 -1.0671
  571MPD2    H1 8525   0.339   0.896   0.173  0.9006  0.5734  1.2322
  571MPD2    H2 8526   0.198   0.518   0.094  0.9991 -0.1260 -0.9410
  571MPD2    H3 8527   0.213   0.742   0.048  0.3063  0.7295 -1.1306
  571MPD2     N 8528   0.530   0.837   0.340 -0.2476 -0.5864  0.0162
  571MPD2    H5 8529   0.511   0.934   0.315  0.9828 -0.5871 -0.9442
  571MPD2    N1 8530   0.327   0.383   0.278 -0.6594 -0.2043 -0.2743
  571MPD2    H7 8531   0.261   0.332   0.219 -2.1038  0.7831  0.4969
  572TMC3    C1 8532   0.687   0.941   0.485  0.2867  0.2675 -0.2561
  572TMC3    C2 8533   0.761   0.940   0.603  0.2806  0.7488  0.1947
  572TMC3    C3 8534   0.829   1.056   0.635 -0.5495 -0.5695  0.0761
  572TMC3    C4 8535   0.716   1.034   0.389 -0.0582 -0.0741 -0.5434
  572TMC3    C5 8536   0.779   1.152   0.425 -0.0333 -0.7029  0.3430
  572TMC3    C6 8537   0.833   1.164   0.550 -0.2166  0.9158 -0.3171
  572TMC3     C 8538   0.607   0.821   0.453  0.2691  0.2513 -0.6382
  572TMC3     O 8539   0.616   0.724   0.530  0.5417  0.7503 -0.6448
  572TMC3     H 8540   0.734   0.865   0.677 -0.0260  1.8489  1.1937
  572TMC3    H1 8541   0.673   1.025   0.290 -1.5998 -2.4986  0.3636
  572TMC3    H2 8542   0.885   1.253   0.585 -1.6039  1.7349 -0.3307
  572TMC3    C7 8543   0.720   1.274   0.363 -0.1923  0.4549  0.3242
  572TMC3    C8 8544   0.938   1.058   0.735 -0.1929 -0.5876 -0.5803
  572TMC3    O1 8545   0.638   1.249   0.273 -0.2368  0.0894  0.3398
  572TMC3    O2 8546   0.995   1.165   0.756  0.7867  0.1821  0.1643
  573MPD2     C 8547   1.166   0.517   0.656  0.6757 -0.2016 -0.6179
  573MPD2    C1 8548   1.157   0.635   0.595 -0.0679  0.5645  0.2692
  573MPD2    C2 8549   1.072   0.652   0.483  0.0502  0.4043  0.0358
  573MPD2    C3 8550   1.006   0.542   0.431  0.7170  0.1173 -0.7162
  573MPD2    C4 8551   1.011   0.425   0.495 -0.5104 -1.0477  0.1392
  573MPD2    C5 8552   1.091   0.412   0.608  0.0689 -0.0685  0.1098
  573MPD2     H 8553   1.063   0.746   0.430 -0.0456  0.6581  0.5084
  573MPD2    H1 8554   0.961   0.339   0.452 -1.0178 -0.1658 -1.0467
  573MPD2    H2 8555   1.224   0.509   0.747  0.3247  0.1308 -0.3650
  573MPD2    H3 8556   1.080   0.320   0.665 -0.7387 -0.4964 -0.7449
  573MPD2     N 8557   0.914   0.556   0.327 -0.3798 -0.7290  0.2752
  573MPD2    H5 8558   0.853   0.476   0.317 -0.1868 -0.8461  0.0271
  573MPD2    N1 8559   1.236   0.739   0.647  0.0652  0.2188  0.4678
  573MPD2    H7 8560   1.284   0.712   0.733  3.2969 -0.6242 -1.5931
  574TMC3    C1 8561   0.791   0.629   0.144  0.2512  0.1525  0.6078
  574TMC3    C2 8562   0.723   0.733   0.092  0.4172 -1.3390  0.1575
  574TMC3    C3 8563   0.643   0.707  17.733  0.1213  0.7296  0.6309
  574TMC3    C4 8564   0.778   0.499   0.105 -0.0465  0.3410  0.6492
  574TMC3    C5 8565   0.686   0.481   0.002  0.1661 -0.7168 -0.4440
  574TMC3    C6 8566   0.618   0.581  17.688 -0.2107  0.2690 -0.5859
  574TMC3     C 8567   0.905   0.652   0.223  0.4827 -0.3761  0.7291
  574TMC3     O 8568   0.954   0.765   0.216 -0.1861 -0.0077 -0.1425
  574TMC3     H 8569   0.747   0.834   0.122  1.1119 -1.1178 -1.1833
  574TMC3    H1 8570   0.853   0.426   0.134 -0.6745  0.0122  1.4431
  574TMC3    H2 8571   0.548   0.561  17.607 -1.9997 -0.9695  1.2444
  574TMC3    C7 8572   0.642   0.343  17.718 -0.4428 -0.7800 -0.0280
  574TMC3    C8 8573   0.563   0.815  17.668  0.7317  0.2465  0.5428
  574TMC3    O1 8574   0.590   0.327  17.605 -0.5332  0.1334  0.0441
  574TMC3    O2 8575   0.467   0.779  17.605  0.4923 -0.0301 -0.4034
  575TMC3    C1 8576   4.299   1.090  10.482  0.3448  0.6489  0.1235
  575TMC3    C2 8577   4.205   1.025  10.559 -0.3418  0.5031 -0.3666
  575TMC3    C3 8578   4.080   1.017  10.510  1.1871  0.0647 -0.3037
  575TMC3    C4 8579   4.258   1.160  10.371 -0.1752 -0.0378  0.2331
  575TMC3    C5 8580   4.129   1.166  10.335  0.0790  0.0231  0.4072
  575TMC3    C6 8581   4.037   1.087  10.400  0.2641  0.1312  0.1857
  575TMC3     C 8582   4.425   1.121  10.543 -0.2978  0.3627 -0.1607
  575TMC3     O 8583   4.437   1.081  10.659  0.0207 -0.7559 -0.2191
  575TMC3     H 8584   4.246   0.967  10.641 -1.2661  1.9423  1.1121
  575TMC3    H1 8585   4.330   1.216  10.313  0.7558 -1.5451 -0.0692
  575TMC3    H2 8586   3.935   1.075  10.365 -0.5960  0.2429  2.6700
  575TMC3    C7 8587   4.094   1.236  10.214 -0.6245 -0.6229  0.0951
  575TMC3    C8 8588   3.991   0.929  10.585 -0.0923  0.1551  0.0934
  575TMC3    O1 8589   4.155   1.342  10.195 -0.1640 -0.6227  0.3878
  575TMC3    O2 8590   4.035   0.900  10.697  0.5430 -0.1117  0.3821
  576MPD2     C 8591   3.246   2.792  12.752 -0.2740 -0.4316  0.5659
  576MPD2    C1 8592   3.369   2.829  12.706  0.8322  0.1871 -0.5770
  576MPD2    C2 8593   3.445   2.920  12.782 -0.3714  0.1528  0.2634
  576MPD2    C3 8594   3.393   2.963  12.906 -0.1725 -0.0978  0.8809
  576MPD2    C4 8595   3.277   2.911  12.958  0.3472 -0.8654  0.1916
  576MPD2    C5 8596   3.203   2.827  12.878  0.3243  0.2410  0.2459
  576MPD2     H 8597   3.546   2.941  12.750 -0.3036  2.0852  1.7004
  576MPD2    H1 8598   3.230   2.933  13.053 -1.3504 -0.6114 -0.6998
  576MPD2    H2 8599   3.173   2.728  12.704 -0.1026 -0.6804  0.6348
  576MPD2    H3 8600   3.110   2.790  12.919  0.7469  0.8866  1.7776
  576MPD2     N 8601   3.468   3.060  12.973  0.0646  0.0016  0.8919
  576MPD2    H5 8602   3.536   3.107  12.914  1.1965  1.3687  3.2594
  576MPD2    N1 8603   3.421   2.799  12.579 -0.3997  0.6689 -0.0489
  576MPD2    H7 8604   3.507   2.843  12.549  0.0970  1.0951  2.0248
  577TMC3    C1 8605   3.433   2.715  12.363  0.0397  0.0866  0.2243
  577TMC3    C2 8606   3.571   2.696  12.368  0.3375  0.6414 -0.4790
  577TMC3    C3 8607   3.643   2.674  12.255  0.3023  0.6200  0.5350
  577TMC3    C4 8608   3.353   2.686  12.256  0.1016  0.7095  0.2126
  577TMC3    C5 8609   3.426   2.632  12.154 -0.2810  0.0707 -0.0567
  577TMC3    C6 8610   3.570   2.623  12.148 -0.1564  0.6566  0.0711
  577TMC3     C 8611   3.355   2.746  12.477 -1.0441 -0.7492 -1.1299
  577TMC3     O 8612   3.239   2.717  12.480  0.0899 -0.0617  0.2656
  577TMC3     H 8613   3.624   2.716  12.460 -0.1622  0.7293 -0.2122
  577TMC3    H1 8614   3.245   2.693  12.259  0.0699  0.6641 -0.8002
  577TMC3    H2 8615   3.612   2.586  12.055 -0.7461  1.7993 -0.6444
  577TMC3    C7 8616   3.357   2.633  12.029  0.1214 -0.0201  0.5980
  577TMC3    C8 8617   3.783   2.644  12.263 -0.1072 -0.0909 -0.7029
  577TMC3    O1 8618   3.427   2.645  11.929 -0.4703  0.4465 -0.0731
  577TMC3    O2 8619   3.822   2.613  12.378 -0.3574 -0.2246  0.2553
  578MPD2     C 8620   1.681   3.529   1.512 -0.1452  0.9528  0.0026
  578MPD2    C1 8621   1.705   3.525   1.376  0.3511  1.1006 -0.0452
  578MPD2    C2 8622   1.838   3.540   1.333  0.3807 -0.0225  0.3246
  578MPD2    C3 8623   1.939   3.551   1.419 -0.3660  0.1322 -0.4226
  578MPD2    C4 8624   1.913   3.561   1.555  0.3095  0.0576  0.1862
  578MPD2    C5 8625   1.782   3.557   1.602  0.5409 -0.2627  0.1707
  578MPD2     H 8626   1.858   3.546   1.226  1.4656 -0.8716  0.4877
  578MPD2    H1 8627   1.995   3.556   1.625 -0.8733 -1.3360  1.4627
  578MPD2    H2 8628   1.578   3.520   1.545  0.3306 -1.3642  0.8590
  578MPD2    H3 8629   1.762   3.578   1.707 -2.6592 -1.6849 -0.1398
  578MPD2     N 8630   2.071   3.552   1.360  0.0357 -0.0882  0.5199
  578MPD2    H5 8631   2.073   3.563   1.259  1.1352 -2.1279  0.3163
  578MPD2    N1 8632   1.595   3.504   1.286 -0.0220 -0.5691  0.0518
  578MPD2    H7 8633   1.505   3.511   1.333 -0.2265 -1.4764 -0.2097
  579TMC3    C1 8634   2.300   3.531   1.339  0.2860 -0.3642  0.2748
  579TMC3    C2 8635   2.413   3.603   1.365  0.4598  0.6851 -0.5643
  579TMC3    C3 8636   2.509   3.607   1.264  0.0202  0.1807 -0.8750
  579TMC3    C4 8637   2.274   3.461   1.225  0.0101 -0.7524  0.0025
  579TMC3    C5 8638   2.370   3.470   1.132  0.0784 -0.2995  0.3060
  579TMC3    C6 8639   2.487   3.538   1.145  0.1847 -0.3603 -0.8617
  579TMC3     C 8640   2.193   3.544   1.426  0.3786 -0.0149 -0.5601
  579TMC3     O 8641   2.217   3.537   1.545 -0.3645 -0.2634 -0.1367
  579TMC3     H 8642   2.419   3.672   1.448  0.6322 -2.4851  2.0551
  579TMC3    H1 8643   2.183   3.404   1.212 -2.1602  2.5006  0.7006
  579TMC3    H2 8644   2.557   3.535   1.062 -0.3010 -1.9884 -1.2062
  579TMC3    C7 8645   2.373   3.373   1.026 -0.0850  0.1364  0.0131
  579TMC3    C8 8646   2.620   3.695   1.287 -0.3608 -0.4297 -0.3899
  579TMC3    O1 8647   2.482   3.335   0.986  0.1948  0.0356  0.0657
  579TMC3    O2 8648   2.639   3.738   1.399  0.0818  0.0136 -0.1642
  580TMC3    C1 8649   2.125   1.881  12.364  0.1953 -0.2587 -1.0930
  580TMC3    C2 8650   2.223   1.913  12.275  0.5198  0.0035  0.5154
  580TMC3    C3 8651   2.308   1.818  12.227 -0.0660  0.2647  0.6693
  580TMC3    C4 8652   2.123   1.754  12.417 -0.5412 -0.0389  0.2836
  580TMC3    C5 8653   2.206   1.661  12.359 -0.5852  0.3522 -0.4468
  580TMC3    C6 8654   2.302   1.688  12.265  0.4750  0.2499  0.4612
  580TMC3     C 8655   2.004   1.962  12.380 -0.2906  0.4107 -0.6193
  580TMC3     O 8656   1.940   1.946  12.482  0.4212 -0.2799  0.0728
  580TMC3     H 8657   2.219   2.011  12.228  0.7070  1.7373  4.0732
  580TMC3    H1 8658   2.050   1.720  12.490 -0.0038  1.2719  1.4238
  580TMC3    H2 8659   2.363   1.613  12.216  2.5357  1.3806  1.2475
  580TMC3    C7 8660   2.210   1.538  12.430 -0.2525  0.2475 -0.2193
  580TMC3    C8 8661   2.416   1.863  12.147  0.0531 -1.3382 -0.5441
  580TMC3    O1 8662   2.154   1.529  12.537 -0.3819  0.5928  0.9831
  580TMC3    O2 8663   2.460   1.771  12.079 -0.1075  0.1310  0.0760
  581MPD2     C 8664   4.542   1.837  14.479 -0.3955  0.1660  0.0374
  581MPD2    C1 8665   4.514   1.856  14.614  0.1182 -0.2119  0.0346
  581MPD2    C2 8666   4.412   1.942  14.652 -0.1416  0.3959 -0.2348
  581MPD2    C3 8667   4.335   2.007  14.556 -0.1355  0.6325  0.0904
  581MPD2    C4 8668   4.360   1.979  14.428 -0.7647  0.8128 -0.5283
  581MPD2    C5 8669   4.463   1.899  14.395  0.3129 -0.3681  0.7596
  581MPD2     H 8670   4.394   1.958  14.758 -1.8156  1.7316 -0.7101
  581MPD2    H1 8671   4.295   2.010  14.346 -2.0019 -0.9563 -0.2285
  581MPD2    H2 8672   4.609   1.755  14.457 -0.1611 -0.0447  1.5627
  581MPD2    H3 8673   4.484   1.893  14.289  0.3591 -0.2852  0.7647
  581MPD2     N 8674   4.216   2.078  14.597 -0.1973 -0.1166  0.0719
  581MPD2    H5 8675   4.207   2.095  14.697 -0.3036  0.7874 -0.0884
  581MPD2    N1 8676   4.575   1.754  14.698  0.3048  0.6752 -0.1445
  581MPD2    H7 8677   4.628   1.675  14.662  1.4122  1.3037  0.1106
  582TMC3    C1 8678   4.584   1.636  14.899 -0.9959  0.2276 -0.1754
  582TMC3    C2 8679   4.559   1.646  15.031  0.3840  0.3493  0.1254
  582TMC3    C3 8680   4.494   1.542  15.089 -0.4110 -0.1235 -0.4331
  582TMC3    C4 8681   4.549   1.521  14.828 -0.5972 -0.4830 -0.0589
  582TMC3    C5 8682   4.486   1.420  14.886 -0.0485 -0.1667 -0.6126
  582TMC3    C6 8683   4.452   1.431  15.020  0.0555 -0.4982 -0.0495
  582TMC3     C 8684   4.561   1.760  14.835  0.0313  0.7246 -0.5727
  582TMC3     O 8685   4.525   1.858  14.901  0.2660 -0.4167  0.0054
  582TMC3     H 8686   4.576   1.740  15.082 -1.0515 -0.4150  1.9857
  582TMC3    H1 8687   4.564   1.507  14.722  0.5302 -1.1600  0.1884
  582TMC3    H2 8688   4.411   1.350  15.079  0.2690  0.4884  1.4426
  582TMC3    C7 8689   4.373   1.372  14.807 -0.5343  0.0425  0.3246
  582TMC3    C8 8690   4.491   1.543  15.233  0.1222 -0.3602  0.8561
  582TMC3    O1 8691   4.402   1.360  14.686  0.3777  0.1097 -0.6860
  582TMC3    O2 8692   4.390   1.518  15.291 -0.2569  0.3482 -0.7325
  583MPD2     C 8693   4.378   3.441  16.540  0.0951 -0.1458  0.1933
  583MPD2    C1 8694   4.404   3.554  16.466 -0.3133  0.0238 -0.2499
  583MPD2    C2 8695   4.354   3.674  16.509 -0.0914 -0.9292 -0.0120
  583MPD2    C3 8696   4.302   3.692  16.633  0.5520 -0.0165  0.3552
  583MPD2    C4 8697   4.284   3.581  16.717 -0.2388 -0.2076  0.0741
  583MPD2    C5 8698   4.318   3.456  16.663  0.5906  0.7838  0.0119
  583MPD2     H 8699   4.368   3.767  16.455 -0.4991 -0.9747 -0.1937
  583MPD2    H1 8700   4.241   3.582  16.817 -0.9904 -1.7980 -0.2356
  583MPD2    H2 8701   4.415   3.343  16.510  1.3610  0.9885 -1.9629
  583MPD2    H3 8702   4.290   3.365  16.715 -1.6140  0.6330 -1.4822
  583MPD2     N 8703   4.262   3.823  16.680 -0.1946 -0.0138 -1.0674
  583MPD2    H5 8704   4.271   3.905  16.620 -0.2471  2.3438  2.1192
  583MPD2    N1 8705   4.489   3.552  16.347 -0.0871 -0.5516  0.1281
  583MPD2    H7 8706   4.515   3.642  16.309 -0.7536 -0.3338  0.1927
  584TMC3    C1 8707   4.176   3.978  16.840  0.0324  0.0008  0.1638
  584TMC3    C2 8708   4.259   4.075  16.785  0.3193  0.0597  0.6032
  584TMC3    C3 8709   4.250   4.197  16.853 -0.1713  0.1671 -0.4850
  584TMC3    C4 8710   4.100   3.998  16.951 -0.8647 -0.6124 -1.1961
  584TMC3    C5 8711   4.112   4.120  17.020 -0.1842  0.4623 -0.6151
  584TMC3    C6 8712   4.179   4.222  16.964  0.6261 -0.4286  0.4928
  584TMC3     C 8713   4.184   3.844  16.792 -0.0803  0.2408 -0.2401
  584TMC3     O 8714   4.143   3.761  16.872  0.3694  0.4064  0.1891
  584TMC3     H 8715   4.327   4.069  16.701  0.1084 -2.2059  0.6035
  584TMC3    H1 8716   4.037   3.916  16.985 -1.1862 -0.4760 -1.4637
  584TMC3    H2 8717   4.165   4.322  17.002 -0.7296 -0.2247 -0.5453
  584TMC3    C7 8718   4.048   4.130  17.156 -0.3348 -0.2057  0.0328
  584TMC3    C8 8719   4.311   4.314  16.791 -0.0561  0.1907 -0.7549
  584TMC3    O1 8720   3.967   4.045  17.186 -0.2650  0.5923 -0.1214
  584TMC3    O2 8721   4.343   4.308  16.675 -0.4520  0.5921 -0.0823
  585MPD2     C 8722   3.319   3.241  17.611  0.2667 -0.5250  0.3915
  585MPD2    C1 8723   3.331   3.263  17.480 -0.0125 -0.0935  0.5017
  585MPD2    C2 8724   3.410   3.182  17.410 -0.2059  0.1924  0.4050
  585MPD2    C3 8725   3.456   3.068  17.469 -0.3216 -0.5297  0.5668
  585MPD2    C4 8726   3.441   3.041  17.605  0.2873  0.2676  0.2600
  585MPD2    C5 8727   3.373   3.132  17.672  0.4272  0.2992 -0.4617
  585MPD2     H 8728   3.429   3.197  17.304  0.6954  1.9260  0.8026
  585MPD2    H1 8729   3.480   2.951  17.652 -2.2680 -0.6614  0.5948
  585MPD2    H2 8730   3.274   3.317  17.674  1.8624  0.7187  0.0360
  585MPD2    H3 8731   3.365   3.125   0.033 -2.3776 -1.5954 -0.8011
  585MPD2     N 8732   3.521   2.966  17.401 -0.3135  0.7675  0.2359
  585MPD2    H5 8733   3.550   2.887  17.459  0.4354 -0.4220 -1.7566
  585MPD2    N1 8734   3.261   3.370  17.415 -0.6927 -0.2834 -0.7109
  585MPD2    H7 8735   3.293   3.383  17.320  1.2744  0.1597  0.0124
  586TMC3    C1 8736   3.570   2.824  17.230 -0.2065 -0.3772 -0.6937
  586TMC3    C2 8737   3.699   2.789  17.221  0.1602  0.0734  0.1560
  586TMC3    C3 8738   3.738   2.664  17.280 -0.9085 -0.4198  0.0033
  586TMC3    C4 8739   3.475   2.750  17.292  0.0751 -0.2432 -0.3678
  586TMC3    C5 8740   3.515   2.629  17.345  0.0516 -0.1542  0.3803
  586TMC3    C6 8741   3.642   2.587  17.328 -0.4855  0.1217  0.5049
  586TMC3     C 8742   3.543   2.957  17.262  0.2902  0.2289 -0.3338
  586TMC3     O 8743   3.551   3.041  17.172 -0.4941  0.5116 -0.1436
  586TMC3     H 8744   3.775   2.853  17.179 -1.2686  0.8427 -1.2524
  586TMC3    H1 8745   3.376   2.794  17.298  0.7980  1.2865  0.4411
  586TMC3    H2 8746   3.666   2.487  17.363 -1.2557 -0.5242 -0.8235
  586TMC3    C7 8747   3.421   2.532  17.380  0.4777  0.4194 -0.2309
  586TMC3    C8 8748   3.848   2.580  17.231  0.5403 -0.6395 -0.8063
  586TMC3    O1 8749   3.464   2.420  17.415  0.4134  0.0712 -0.4073
  586TMC3    O2 8750   3.901   2.602  17.122  0.1384 -0.0681  0.7900
  587TMC3    C1 8751   1.294   1.525  16.040 -0.1429 -0.3562 -0.4714
  587TMC3    C2 8752   1.274   1.607  16.145  0.8634  0.3591  0.5554
  587TMC3    C3 8753   1.386   1.630  16.229 -0.0341  0.2810  0.5644
  587TMC3    C4 8754   1.421   1.483  16.005  0.6961 -0.4002 -0.7920
  587TMC3    C5 8755   1.527   1.516  16.088  0.4475 -0.0364  0.0650
  587TMC3    C6 8756   1.507   1.580  16.208  0.1903  0.1559 -0.3616
  587TMC3     C 8757   1.189   1.431  15.999  0.1302  0.5051 -0.7004
  587TMC3     O 8758   1.195   1.385  15.887 -0.1946  0.3483  0.6975
  587TMC3     H 8759   1.173   1.647  16.151  0.6382 -0.2867  1.0835
  587TMC3    H1 8760   1.435   1.417  15.921 -0.4898 -0.9026 -0.5991
  587TMC3    H2 8761   1.590   1.598  16.274 -0.6923 -0.3911  0.8940
  587TMC3    C7 8762   1.665   1.483  16.060 -0.4284  0.2968  0.3618
  587TMC3    C8 8763   1.368   1.701  16.359  0.4681  0.4506  0.2191
  587TMC3    O1 8764   1.746   1.448  16.144 -0.7225 -0.4020 -0.0913
  587TMC3    O2 8765   1.459   1.692  16.440  0.5350 -0.3470 -0.1542
  588TMC3    C1 8766   3.542   3.639   9.603 -0.8780 -0.3781 -0.2102
  588TMC3    C2 8767   3.509   3.505   9.597  0.3196 -0.2264  0.2554
  588TMC3    C3 8768   3.587   3.424   9.676 -0.5930  0.2406 -0.7173
  588TMC3    C4 8769   3.658   3.685   9.659  0.4309  0.0536 -0.3322
  588TMC3    C5 8770   3.731   3.604   9.736  0.8127 -0.3414  0.3562
  588TMC3    C6 8771   3.707   3.467   9.739 -0.0202  0.1368 -0.2493
  588TMC3     C 8772   3.436   3.731   9.616 -0.4908  0.5610 -0.0443
  588TMC3     O 8773   3.349   3.739   9.529  0.0294 -0.5250  0.6791
  588TMC3     H 8774   3.413   3.477   9.554  0.6356 -0.4687 -0.2877
  588TMC3    H1 8775   3.696   3.782   9.631  0.3938 -0.0685 -0.8062
  588TMC3    H2 8776   3.779   3.397   9.781 -0.1609 -0.7479 -1.4688
  588TMC3    C7 8777   3.744   3.673   9.868  0.1353 -0.4633 -0.3986
  588TMC3    C8 8778   3.570   3.283   9.647  0.1081 -0.2655 -0.1157
  588TMC3    O1 8779   3.699   3.782   9.863  0.3071  0.5098  0.2330
  588TMC3    O2 8780   3.474   3.251   9.576 -0.3847  0.4793  0.1606
  589TMC3    C1 8781   2.233   1.526   0.520  0.3338  0.3084 -0.4878
  589TMC3    C2 8782   2.330   1.434   0.555 -0.1230 -0.2490  0.2380
  589TMC3    C3 8783   2.340   1.315   0.484 -0.1324 -0.0534  0.0854
  589TMC3    C4 8784   2.139   1.497   0.422 -0.0168 -0.2542  0.0432
  589TMC3    C5 8785   2.156   1.382   0.357  0.4880  0.6903 -0.4432
  589TMC3    C6 8786   2.241   1.281   0.394  0.4661  0.4463 -0.7550
  589TMC3     C 8787   2.203   1.634   0.604 -0.0866  0.6149  0.1405
  589TMC3     O 8788   2.093   1.683   0.593  0.0480  0.1609  0.1816
  589TMC3     H 8789   2.392   1.437   0.644  1.0190  0.8222 -0.5933
  589TMC3    H1 8790   2.055   1.562   0.399 -1.4534 -1.6055  1.4403
  589TMC3    H2 8791   2.236   1.186   0.342 -0.2142 -0.1193  0.3562
  589TMC3    C7 8792   2.057   1.341   0.258 -0.4375  0.8569  0.1283
  589TMC3    C8 8793   2.415   1.208   0.543 -0.5924 -0.8817  1.0014
  589TMC3    O1 8794   2.017   1.226   0.267  0.3594 -0.0992 -0.4975
  589TMC3    O2 8795   2.368   1.097   0.532 -0.0279 -0.4542 -0.2030
  590MPD2     C 8796   2.116   4.416  16.628  0.3869 -0.2447 -0.3264
  590MPD2    C1 8797   2.062   4.537  16.591  0.2208  0.1193 -0.0986
  590MPD2    C2 8798   2.139   4.612  16.501 -0.2038  0.7972 -0.3795
  590MPD2    C3 8799   2.255   4.565  16.442  0.2093 -0.0317 -0.5845
  590MPD2    C4 8800   2.313   4.448  16.496 -0.1831  0.7231 -0.0864
  590MPD2    C5 8801   2.242   4.374  16.588  0.2865  0.2902 -0.1327
  590MPD2     H 8802   2.104   4.713  16.486 -0.2045  0.9160  0.4287
  590MPD2    H1 8803   2.409   4.410  16.464  0.8041  0.7396  2.8284
  590MPD2    H2 8804   2.050   4.352  16.686  1.6054  0.5400  1.8921
  590MPD2    H3 8805   2.270   4.273  16.616  0.3152 -0.2028 -1.9731
  590MPD2     N 8806   2.322   4.640  16.342 -0.0944  0.3718  0.3405
  590MPD2    H5 8807   2.282   4.730  16.320 -0.6493  0.2205  0.7394
  590MPD2    N1 8808   1.925   4.570  16.627 -0.3508 -0.2643  0.1746
  590MPD2    H7 8809   1.878   4.500  16.683 -0.7172  0.0749  0.2868
  591TMC3    C1 8810   2.451   4.693  16.148  0.0699 -0.0576 -0.3309
  591TMC3    C2 8811   2.498   4.632  16.033  0.2393 -0.3309 -0.0259
  591TMC3    C3 8812   2.568   4.714  15.948 -0.5784 -0.5776  0.0381
  591TMC3    C4 8813   2.468   0.090  16.184  0.6010  0.3938  0.2763
  591TMC3    C5 8814   2.548   0.164  16.092 -0.3273 -0.8456  0.2500
  591TMC3    C6 8815   2.590   0.110  15.976  0.5317  0.1187  0.0973
  591TMC3     C 8816   2.419   4.598  16.258  0.7323  1.0326 -0.1812
  591TMC3     O 8817   2.458   4.481  16.240  0.6264  0.2034  0.2840
  591TMC3     H 8818   2.490   4.524  16.032  0.1716 -0.2855 -3.5258
  591TMC3    H1 8819   2.451   0.139  16.279  0.3231  1.0795 -0.1163
  591TMC3    H2 8820   2.649   0.166  15.904  0.1781  1.1102  0.5882
  591TMC3    C7 8821   2.593   0.296  16.131 -0.2446  0.2005 -0.4192
  591TMC3    C8 8822   2.606   4.658  15.825 -0.8293  0.3039  0.1432
  591TMC3    O1 8823   2.566   0.332  16.245  0.0137 -0.6758 -0.4554
  591TMC3    O2 8824   2.697   4.710  15.767 -0.6586  0.1683 -0.5011
  592MPD2     C 8825   2.991   1.302  11.115 -0.5749 -0.0182 -0.4302
  592MPD2    C1 8826   2.938   1.371  11.222 -0.3529 -0.1158  0.1145
  592MPD2    C2 8827   2.827   1.309  11.286 -0.2902  0.0856 -0.0901
  592MPD2    C3 8828   2.797   1.176  11.275  0.3007 -0.3445 -0.0542
  592MPD2    C4 8829   2.852   1.104  11.176 -0.8902 -0.1288  0.3829
  592MPD2    C5 8830   2.947   1.169  11.096  0.9824 -0.8223 -0.5913
  592MPD2     H 8831   2.773   1.360  11.365  2.8868 -2.2820  3.5997
  592MPD2    H1 8832   2.804   1.012  11.142 -0.0387 -0.3772 -0.1526
  592MPD2    H2 8833   3.057   1.352  11.046  1.0796  1.2509  2.0575
  592MPD2    H3 8834   2.971   1.117  11.004  2.4068  0.9208 -1.1997
  592MPD2     N 8835   2.687   1.135  11.357  0.2741 -0.4166  0.3345
  592MPD2    H5 8836   2.646   1.205  11.418  0.0754  1.7865 -2.3250
  592MPD2    N1 8837   2.986   1.501  11.254  0.0974 -0.6719  0.4761
  592MPD2    H7 8838   3.059   1.546  11.199 -0.6101 -1.0566 -0.7602
  593TMC3    C1 8839   3.018   1.683  11.397  0.2532  0.4005 -0.3148
  593TMC3    C2 8840   3.037   1.726  11.528 -0.5766  0.5189 -0.0231
  593TMC3    C3 8841   3.125   1.827  11.551 -0.6500 -0.5220 -0.6100
  593TMC3    C4 8842   3.088   1.741  11.293  0.1374 -0.3265 -0.1368
  593TMC3    C5 8843   3.165   1.852  11.321 -0.9809  0.0695  0.3457
  593TMC3    C6 8844   3.186   1.893  11.450 -0.7014 -0.1284  0.3119
  593TMC3     C 8845   2.955   1.556  11.375  0.3594 -0.1453  0.3948
  593TMC3     O 8846   2.879   1.528  11.468 -0.2297 -0.4606  0.0492
  593TMC3     H 8847   2.986   1.674  11.609 -1.5827  1.0625 -0.3079
  593TMC3    H1 8848   3.046   1.726  11.194 -0.0988  0.5518 -0.1697
  593TMC3    H2 8849   3.240   1.983  11.474  0.5226 -0.7487 -0.1022
  593TMC3    C7 8850   3.192   1.951  11.227  0.1316 -0.0418 -0.4829
  593TMC3    C8 8851   3.095   1.892  11.676  0.8577  0.0707 -0.4157
  593TMC3    O1 8852   3.232   2.060  11.269 -0.2655  0.7173  0.7754
  593TMC3    O2 8853   2.981   1.863  11.709 -0.4711 -0.7861 -0.3557
  594MPD2     C 8854   1.311   0.453  14.013  0.3609  0.4118  0.1882
  594MPD2    C1 8855   1.296   0.500  14.141 -0.5318  0.0170  0.7309
  594MPD2    C2 8856   1.407   0.550  14.210 -0.4436 -0.6788 -0.3738
  594MPD2    C3 8857   1.534   0.555  14.151  0.2187  0.6168 -0.2712
  594MPD2    C4 8858   1.543   0.506  14.022 -0.8415 -0.6330  0.3133
  594MPD2    C5 8859   1.433   0.458  13.950  0.5023  0.0171 -0.1552
  594MPD2     H 8860   1.396   0.586  14.311 -1.1182  0.7991 -0.9579
  594MPD2    H1 8861   1.636   0.516  13.967 -2.4201 -2.3422 -2.6364
  594MPD2    H2 8862   1.227   0.404  13.965  0.2188  3.1058 -2.2773
  594MPD2    H3 8863   1.435   0.429  13.846  0.9216  0.6991 -0.3406
  594MPD2     N 8864   1.642   0.620  14.218 -0.2706 -0.8383 -0.0812
  594MPD2    H5 8865   1.616   0.680  14.296  2.1272 -2.5508  2.0223
  594MPD2    N1 8866   1.167   0.492  14.197 -0.1642  0.3016  0.2440
  594MPD2    H7 8867   1.089   0.457  14.141 -0.0492  0.4880 -0.0326
  595TMC3    C1 8868   2.094   0.705  14.339  0.2101  0.6335 -0.2106
  595TMC3    C2 8869   2.004   0.627  14.272 -0.3668  0.1485  0.1226
  595TMC3    C3 8870   1.869   0.651  14.289  0.1399 -0.5942 -0.3567
  595TMC3    C4 8871   2.053   0.796  14.429  0.0666  0.1609 -0.0966
  595TMC3    C5 8872   1.923   0.805  14.455  0.2841  0.7005 -0.3250
  595TMC3    C6 8873   1.827   0.734  14.390  0.1428 -0.2666  0.3738
  595TMC3     C 8874   2.233   0.666  14.340 -0.4121  0.6694  0.0487
  595TMC3     O 8875   2.304   0.734  14.415  0.2135  0.7525 -0.7693
  595TMC3     H 8876   2.031   0.561  14.190 -0.7159  1.8378 -1.3344
  595TMC3    H1 8877   2.113   0.881  14.459  1.4288 -1.2246  1.1349
  595TMC3    H2 8878   1.721   0.752  14.405  0.6326  2.1707  0.9352
  595TMC3    C7 8879   1.874   0.914  14.532 -0.5562  0.7099  0.4718
  595TMC3    C8 8880   1.778   0.603  14.185 -0.7734  0.4225  0.3791
  595TMC3    O1 8881   1.756   0.937  14.525 -0.3006 -0.3878 -0.3203
  595TMC3    O2 8882   1.822   0.526  14.105  0.9122  0.2344 -0.2668
  596MPD2     C 8883   0.509   3.190  16.668  0.5291 -1.0391  0.2630
  596MPD2    C1 8884   0.546   3.305  16.605 -0.4254 -0.1919 -0.5066
  596MPD2    C2 8885   0.567   3.300  16.465 -0.5015  0.0702 -0.1266
  596MPD2    C3 8886   0.577   3.188  16.398  0.7072  0.0587  0.0366
  596MPD2    C4 8887   0.560   3.073  16.466 -0.0490 -0.0610  0.1688
  596MPD2    C5 8888   0.513   3.072  16.593 -0.1982 -0.3713  0.2470
  596MPD2     H 8889   0.565   3.394  16.412 -0.3540  0.1693  0.0426
  596MPD2    H1 8890   0.562   2.983  16.405  1.2943  0.2695 -0.2792
  596MPD2    H2 8891   0.471   3.202  16.769 -0.3751  1.5768 -0.3777
  596MPD2    H3 8892   0.463   2.982  16.627  0.2981 -0.6434  0.2578
  596MPD2     N 8893   0.605   3.174  16.257  0.4373  0.0065 -0.5463
  596MPD2    H5 8894   0.587   3.081  16.221 -0.1891 -0.8942  2.0877
  596MPD2    N1 8895   0.543   3.430  16.662 -0.3479 -0.3172  0.6367
  596MPD2    H7 8896   0.550   3.515  16.607  0.3358 -0.4618  0.5065
  597TMC3    C1 8897   0.542   3.601  16.810  0.7342  0.0383  0.5786
  597TMC3    C2 8898   0.612   3.661  16.916  0.2239 -0.1609  0.5133
  597TMC3    C3 8899   0.583   3.788  16.951  0.4226 -0.7937  0.5189
  597TMC3    C4 8900   0.428   3.663  16.765 -0.1701 -0.3608 -0.2359
  597TMC3    C5 8901   0.402   3.796  16.793  0.1590  0.0813 -0.7059
  597TMC3    C6 8902   0.485   3.865  16.878 -0.4184  0.0506  0.2635
  597TMC3     C 8903   0.543   3.452  16.797 -0.7624  0.3827 -0.0742
  597TMC3     O 8904   0.569   3.380  16.889  0.7268  0.2185 -0.8139
  597TMC3     H 8905   0.691   3.608  16.968  2.6179  1.9007 -1.0042
  597TMC3    H1 8906   0.371   3.617  16.685 -1.1770  2.3307 -1.0699
  597TMC3    H2 8907   0.464   3.965  16.913 -2.1630 -0.3880  0.4344
  597TMC3    C7 8908   0.261   3.835  16.799  0.2347  0.0007 -0.0645
  597TMC3    C8 8909   0.653   3.846  17.061  0.5925 -0.0219  0.6193
  597TMC3    O1 8910   0.183   3.739  16.799  0.3598 -0.1908  1.0487
  597TMC3    O2 8911   0.698   3.780  17.149 -0.3914 -0.1380  0.2334
  598TMC3    C1 8912   4.425   0.772  15.139 -0.3341  0.0149 -0.0580
  598TMC3    C2 8913   4.506   0.729  15.241  0.5164 -0.2488  0.2584
  598TMC3    C3 8914   4.443   0.679  15.350  0.8959  0.1441  1.3773
  598TMC3    C4 8915   4.287   0.769  15.149  0.3220  0.1453  0.3407
  598TMC3    C5 8916   4.233   0.704  15.253 -0.1083 -0.8148 -0.0968
  598TMC3    C6 8917   4.310   0.653  15.351 -0.8052 -0.1825  0.5728
  598TMC3     C 8918   4.490   0.853  15.028  0.0904 -0.3981  0.2959
  598TMC3     O 8919   4.421   0.875  14.925 -0.2878  0.1527  0.1609
  598TMC3     H 8920   4.614   0.736  15.229  0.5944  2.1977  2.2437
  598TMC3    H1 8921   4.222   0.792  15.065 -0.1545 -3.2923 -0.2446
  598TMC3    H2 8922   4.258   0.606  15.434  1.1786 -2.2541  0.6425
  598TMC3    C7 8923   4.089   0.674  15.249 -0.3897  0.6720  0.3100
  598TMC3    C8 8924   4.518   0.589  15.426 -0.0369  0.2435  0.1782
  598TMC3    O1 8925   4.039   0.576  15.311  0.2592  0.2021 -0.1736
  598TMC3    O2 8926   4.450   0.520  15.502  0.6241  0.1406 -0.3233
  599MPD2     C 8927   3.422   2.407  16.052  0.5381 -0.4676  0.0516
  599MPD2    C1 8928   3.351   2.359  15.940  0.0002  0.2843 -0.9436
  599MPD2    C2 8929   3.216   2.387  15.926 -0.3832 -0.2612 -0.7905
  599MPD2    C3 8930   3.151   2.457  16.031  0.3174 -0.2793  0.5391
  599MPD2    C4 8931   3.217   2.495  16.143  0.3937 -0.8394  0.8262
  599MPD2    C5 8932   3.350   2.464  16.156 -0.3515  0.6938  0.3571
  599MPD2     H 8933   3.172   2.349  15.835 -0.1722 -2.2151 -0.0831
  599MPD2    H1 8934   3.168   2.545  16.226  0.3949 -0.8898  0.8569
  599MPD2    H2 8935   3.522   2.374  16.078  0.2180 -0.2716  1.5290
  599MPD2    H3 8936   3.399   2.484  16.250 -1.8180  0.2223  1.2316
  599MPD2     N 8937   3.011   2.487  16.034  0.3971 -0.7399  0.3824
  599MPD2    H5 8938   2.967   2.537  16.111  2.5873  1.5450  0.1426
  599MPD2    N1 8939   3.432   2.299  15.849  0.4586 -0.0327 -0.1257
  599MPD2    H7 8940   3.527   2.294  15.886  0.7862  1.3271 -0.7958
  600TMC3    C1 8941   2.786   2.482  15.964 -0.1908 -0.1428 -0.2068
  600TMC3    C2 8942   2.694   2.391  16.005 -0.5464 -0.4335  0.3383
  600TMC3    C3 8943   2.592   2.435  16.093 -0.6963 -0.2046  0.1391
  600TMC3    C4 8944   2.772   2.616  16.012  0.3853  0.1533  0.0845
  600TMC3    C5 8945   2.668   2.649  16.096 -0.2655 -0.1949 -0.4023
  600TMC3    C6 8946   2.568   2.563  16.123 -0.0118  0.1968 -0.6949
  600TMC3     C 8947   2.921   2.436  15.940 -0.2637  0.3963 -0.0180
  600TMC3     O 8948   2.940   2.353  15.850 -0.0092  0.1421  0.1116
  600TMC3     H 8949   2.708   2.287  15.977 -1.9520 -0.5299  0.0401
  600TMC3    H1 8950   2.845   2.688  15.978 -1.9824  0.9887 -3.1843
  600TMC3    H2 8951   2.478   2.590  16.176 -0.8632 -1.9189 -1.0725
  600TMC3    C7 8952   2.653   2.777  16.171  0.1406  0.0323 -0.9772
  600TMC3    C8 8953   2.499   2.330  16.117  1.0277 -0.2023  0.1542
  600TMC3    O1 8954   2.549   2.788  16.235  0.0411 -0.3970  0.2112
  600TMC3    O2 8955   2.532   2.213  16.096  1.2822 -0.1074  0.1587
  601MPD2     C 8956   0.698   1.775   0.214  0.2176  0.8509 -0.2301
  601MPD2    C1 8957   0.602   1.673   0.209 -0.5737  0.4383 -0.1078
  601MPD2    C2 8958   0.636   1.549   0.266  0.8048 -0.8091  0.7805
  601MPD2    C3 8959   0.764   1.520   0.325  0.3927  0.1298  0.5260
  601MPD2    C4 8960   0.853   1.630   0.328 -0.3328  0.0362 -0.2775
  601MPD2    C5 8961   0.814   1.752   0.278 -0.6229  0.2318 -0.5490
  601MPD2     H 8962   0.557   1.476   0.276 -0.4525  0.1632 -2.0049
  601MPD2    H1 8963   0.951   1.624   0.374 -0.3212 -1.9350 -0.5330
  601MPD2    H2 8964   0.687   1.875   0.172 -0.7628  1.7035  2.0035
  601MPD2    H3 8965   0.883   1.835   0.290  0.7261 -1.0128  0.4325
  601MPD2     N 8966   0.804   1.388   0.364 -0.2869 -0.3112  0.2487
  601MPD2    H5 8967   0.901   1.381   0.393 -0.6652  2.4984  2.1722
  601MPD2    N1 8968   0.469   1.687   0.147  0.7102 -0.5875  0.4194
  601MPD2    H7 8969   0.402   1.611   0.149  0.6355 -0.4543  2.6944
  602TMC3    C1 8970   0.299   1.778   0.006  0.4738  0.4553  0.0191
  602TMC3    C2 8971   0.249   1.901  17.708 -0.6310 -0.0118 -0.0575
  602TMC3    C3 8972   0.129   1.885  17.640 -0.3810  0.5158  0.5694
  602TMC3    C4 8973   0.260   1.650  17.713  0.7866  0.3618  0.3504
  602TMC3    C5 8974   0.156   1.650  17.628  0.1510 -0.0939  0.1227
  602TMC3    C6 8975   0.083   1.766  17.594  0.1155  0.2619 -0.3251
  602TMC3     C 8976   0.436   1.786   0.063 -0.0409  0.3736 -1.0769
  602TMC3     O 8977   0.504   1.873   0.012  0.2456 -0.5627 -0.5819
  602TMC3     H 8978   0.287   1.990   0.007  1.5931 -1.4780  0.9363
  602TMC3    H1 8979   0.325   1.565  17.727  2.5590  1.6366 -0.1203
  602TMC3    H2 8980   4.722   1.753  17.550 -0.9601 -2.0615  2.7686
  602TMC3    C7 8981   0.103   1.517  17.590  0.5879 -0.5530  0.4331
  602TMC3    C8 8982   0.079   1.999  17.571 -0.0091  0.4697 -0.8785
  602TMC3    O1 8983   0.106   1.419  17.668 -0.0954 -0.1161  0.3676
  602TMC3    O2 8984   0.095   2.109  17.621 -0.6099 -0.7990 -0.5893
  603TMC3    C1 8985   3.406   0.929  10.795  0.2103 -0.0659  0.1398
  603TMC3    C2 8986   3.473   0.889  10.909  1.0161  0.0003  0.5412
  603TMC3    C3 8987   3.602   0.937  10.925 -0.3089  0.7254 -0.2036
  603TMC3    C4 8988   3.461   1.004  10.702 -0.7004 -0.8614 -0.6893
  603TMC3    C5 8989   3.584   1.060  10.723 -0.5071  0.6319  0.4668
  603TMC3    C6 8990   3.654   1.036  10.843 -0.2970  0.8830  0.5206
  603TMC3     C 8991   3.279   0.866  10.771 -0.5721  0.1911  0.0007
  603TMC3     O 8992   3.260   0.806  10.665 -0.3884 -0.5872 -0.0532
  603TMC3     H 8993   3.437   0.817  10.982 -0.4045  0.6808  0.5041
  603TMC3    H1 8994   3.408   1.015  10.608 -0.6125  2.2148 -0.3643
  603TMC3    H2 8995   3.760   1.058  10.843 -0.8916  3.8221 -0.7157
  603TMC3    C7 8996   3.654   1.139  10.626  0.5483 -0.0572 -0.0308
  603TMC3    C8 8997   3.676   0.898  11.047  0.3086  0.1114 -0.1632
  603TMC3    O1 8998   3.773   1.162  10.642 -0.2174 -0.1313 -0.0976
  603TMC3    O2 8999   3.627   0.807  11.112 -0.2843 -0.2562  0.1587
  604MPD2     C 9000   0.292   0.407  16.384  0.0238  0.8931 -0.0503
  604MPD2    C1 9001   0.162   0.373  16.345 -0.0979 -0.1674  0.0565
  604MPD2    C2 9002   0.144   0.302  16.226  0.6148  0.1973  0.5213
  604MPD2    C3 9003   0.257   0.276  16.152 -0.0454 -0.1247  0.7892
  604MPD2    C4 9004   0.380   0.330  16.185  0.4417 -0.3637  0.0057
  604MPD2    C5 9005   0.401   0.386  16.304  0.7279 -0.1642 -0.1108
  604MPD2     H 9006   0.048   0.265  16.192  1.8128 -1.6341 -0.8979
  604MPD2    H1 9007   0.468   0.323  16.123 -0.0794 -1.9792 -0.5251
  604MPD2    H2 9008   0.324   0.444  16.481 -0.9858  2.6737 -0.3918
  604MPD2    H3 9009   0.499   0.425  16.330  1.0748 -0.8106 -0.4446
  604MPD2     N 9010   0.233   0.201  16.037 -0.4291  0.1057 -0.3192
  604MPD2    H5 9011   0.147   0.146  16.040 -1.4264  1.5226 -2.9881
  604MPD2    N1 9012   0.057   0.405  16.430 -0.1218  0.8582 -0.0716
  604MPD2    H7 9013   0.085   0.468  16.505  1.4431 -1.0737  0.9733
  605TMC3    C1 9014   4.583   0.380  16.548  0.7895  0.1760  0.0647
  605TMC3    C2 9015   4.644   0.421  16.668  0.9074 -0.0758  0.1799
  605TMC3    C3 9016   4.559   0.475  16.764  0.0538 -0.5663  0.5383
  605TMC3    C4 9017   4.445   0.382  16.522 -0.6685 -0.6757  0.1882
  605TMC3    C5 9018   4.372   0.437  16.622 -0.2530 -0.9605 -0.1836
  605TMC3    C6 9019   4.418   0.486  16.744 -0.5124  0.6178 -0.5094
  605TMC3     C 9020   4.670   0.348  16.427 -0.3846  0.8394  0.1398
  605TMC3     O 9021   4.608   0.283  16.339  0.3502  0.4585 -0.1508
  605TMC3     H 9022   0.014   0.416  16.684  0.7869  0.4886  1.2076
  605TMC3    H1 9023   4.412   0.354  16.423  1.4715  1.9903 -1.2845
  605TMC3    H2 9024   4.355   0.509  16.829  0.2099 -3.0883  1.0577
  605TMC3    C7 9025   4.228   0.452  16.591 -0.0791  1.0401 -0.4466
  605TMC3    C8 9026   4.625   0.580  16.842  0.0537  0.1939  0.7008
  605TMC3    O1 9027   4.212   0.457  16.466  0.2837  0.7488 -0.3438
  605TMC3    O2 9028   0.008   0.558  16.879  0.1826  0.1064 -0.3403
  606TMC3    C1 9029   0.144   4.118  17.461  0.0982 -0.0199  0.2135
  606TMC3    C2 9030   0.192   4.066  17.577  0.1991  0.5507 -0.4605
  606TMC3    C3 9031   0.217   3.935  17.580  0.2225 -0.1979  0.6960
  606TMC3    C4 9032   0.119   4.035  17.351 -0.1310  0.1345 -0.2127
  606TMC3    C5 9033   0.154   3.904  17.358 -0.6902 -0.4107 -0.3371
  606TMC3    C6 9034   0.212   3.851  17.472  0.5540  0.5696  0.1165
  606TMC3     C 9035   0.100   4.257  17.452 -0.1470 -0.3882 -0.5348
  606TMC3     O 9036   0.015   4.283  17.368 -0.3933 -0.1601 -0.0345
  606TMC3     H 9037   0.210   4.126  17.665  1.3522 -2.3376  1.2635
  606TMC3    H1 9038   0.079   4.074  17.258 -1.0451  0.4680  0.3242
  606TMC3    H2 9039   0.251   3.750  17.482 -0.8563 -0.1589 -1.4820
  606TMC3    C7 9040   0.177   3.816  17.250  0.6034  0.5159  0.4125
  606TMC3    C8 9041   0.266   3.896  17.706 -0.1743 -0.6489 -0.0249
  606TMC3    O1 9042   0.232   3.863  17.154  0.0325  0.0449 -0.4314
  606TMC3    O2 9043   0.312   3.980   0.038 -0.7887 -0.3521  0.5096
  607MPD2     C 9044   2.967   0.949  11.493 -0.1523  0.0529  0.1512
  607MPD2    C1 9045   2.977   1.058  11.572  0.1961 -0.7766 -0.6975
  607MPD2    C2 9046   2.907   1.060  11.690 -0.5397 -0.0329 -0.9035
  607MPD2    C3 9047   2.839   0.951  11.733 -0.8517 -0.4932 -0.0832
  607MPD2    C4 9048   2.837   0.837  11.660 -0.0135 -0.0554 -0.2406
  607MPD2    C5 9049   2.915   0.830  11.544  0.7347 -0.0877 -0.2729
  607MPD2     H 9050   2.915   1.144  11.758  0.4615 -0.3725 -0.5939
  607MPD2    H1 9051   2.769   0.758  11.690 -1.3068  2.0642  2.3721
  607MPD2    H2 9052   3.018   0.940  11.398  0.0709 -0.7370  0.3512
  607MPD2    H3 9053   2.920   0.733  11.496  1.9471 -0.1181 -0.0737
  607MPD2     N 9054   2.794   0.962  11.868  0.4583  0.1096  0.4111
  607MPD2    H5 9055   2.829   1.044  11.916 -0.0740  1.9169 -2.2359
  607MPD2    N1 9056   3.057   1.170  11.551 -0.2888 -0.3072 -0.2432
  607MPD2    H7 9057   3.068   1.240  11.623  2.3547  0.7847 -1.6949
  608TMC3    C1 9058   3.246   1.281  11.486 -0.2203  0.3428  0.0973
  608TMC3    C2 9059   3.265   1.316  11.618 -0.2376  0.0410  0.7769
  608TMC3    C3 9060   3.336   1.433  11.652 -0.4488  0.3780 -0.5402
  608TMC3    C4 9061   3.284   1.378  11.389 -0.0323  1.1404 -0.1687
  608TMC3    C5 9062   3.357   1.487  11.423 -0.5068  0.7859  0.7879
  608TMC3    C6 9063   3.387   1.516  11.558 -0.5627  0.3287 -0.5362
  608TMC3     C 9064   3.154   1.182  11.451 -0.3579 -0.2233  0.7798
  608TMC3     O 9065   3.167   1.132  11.337 -0.0101 -0.8297 -0.3200
  608TMC3     H 9066   3.240   1.251  11.701 -2.6663 -0.7725 -0.5840
  608TMC3    H1 9067   3.260   1.354  11.285 -3.2155 -2.9090  1.4823
  608TMC3    H2 9068   3.429   1.611  11.592  0.3110  0.0662 -0.8951
  608TMC3    C7 9069   3.406   1.568  11.313  0.6841  1.1444  0.6801
  608TMC3    C8 9070   3.373   1.450  11.790  0.5048  0.6664 -0.2831
  608TMC3    O1 9071   3.364   1.539  11.200 -0.3811  0.1499  0.3031
  608TMC3    O2 9072   3.478   1.506  11.816  0.4019 -0.7184 -0.2831
  609TMC3    C1 9073   1.256   4.657   9.164 -0.0763 -0.6355  0.3607
  609TMC3    C2 9074   1.169   4.568   9.101  0.6041  0.1944 -0.1560
  609TMC3    C3 9075   1.212   4.438   9.086 -0.0902  0.4029 -0.4853
  609TMC3    C4 9076   1.371   4.609   9.220 -1.2407 -0.4647  0.5924
  609TMC3    C5 9077   1.407   4.480   9.214 -0.0440 -0.1922  0.3321
  609TMC3    C6 9078   1.323   4.391   9.145  0.2450 -0.4098 -0.1655
  609TMC3     C 9079   1.215   0.056   9.206 -0.3542 -0.7334 -0.2396
  609TMC3     O 9080   1.275   0.102   9.303  0.3133  0.3500  0.0157
  609TMC3     H 9081   1.068   4.604   9.085  0.2091 -0.4525  0.9359
  609TMC3    H1 9082   1.440   4.678   9.267  1.1911 -1.8107 -0.9831
  609TMC3    H2 9083   1.364   4.302   9.099  0.1939 -0.1479 -0.7236
  609TMC3    C7 9084   1.525   4.435   9.287  0.6223 -0.8017  0.4306
  609TMC3    C8 9085   1.120   4.339   9.036  0.6394  0.2408 -0.0953
  609TMC3    O1 9086   1.589   4.525   9.340 -0.1367  0.3023 -0.2343
  609TMC3    O2 9087   1.139   4.225   9.079  0.8589  0.2118 -0.4178
  610TMC3    C1 9088   3.021   0.404  12.622  0.5236  0.3128  0.7305
  610TMC3    C2 9089   2.953   0.522  12.638 -0.4499 -0.4628 -0.2678
  610TMC3    C3 9090   3.018   0.635  12.621 -1.2354 -0.3916  0.1565
  610TMC3    C4 9091   3.156   0.405  12.600  0.2305 -0.5168 -0.5008
  610TMC3    C5 9092   3.217   0.524  12.599  0.2002  0.4338 -0.4755
  610TMC3    C6 9093   3.154   0.646  12.605 -0.3057  0.4185  0.8015
  610TMC3     C 9094   2.969   0.291  12.686 -0.2603 -0.3820 -0.6296
  610TMC3     O 9095   2.882   0.290  12.765 -0.3051  0.7140 -0.5222
  610TMC3     H 9096   2.854   0.520  12.682 -0.6859 -0.0523 -0.7711
  610TMC3    H1 9097   3.219   0.317  12.588  0.8634 -0.1453  0.1216
  610TMC3    H2 9098   3.195   0.746  12.600  1.7723 -0.5582 -1.7744
  610TMC3    C7 9099   3.365   0.530  12.619  0.0442  0.2832  0.1955
  610TMC3    C8 9100   2.946   0.763  12.614  0.4090 -0.2241 -0.2590
  610TMC3    O1 9101   3.428   0.425  12.620 -0.0639  0.7071  0.5115
  610TMC3    O2 9102   3.003   0.875  12.637 -0.4284 -1.2144  0.4792
  611MPD2     C 9103   2.525   1.250   9.830 -0.6552  0.2842 -0.0863
  611MPD2    C1 9104   2.609   1.197   9.923 -0.1545  0.2531  0.0596
  611MPD2    C2 9105   2.745   1.232   9.919  0.7679  0.4561 -0.8568
  611MPD2    C3 9106   2.781   1.336   9.834  0.2411 -0.2489 -0.8664
  611MPD2    C4 9107   2.691   1.391   9.744 -0.0243  0.0635  0.4244
  611MPD2    C5 9108   2.560   1.344   9.737 -0.3555 -0.4665  0.5272
  611MPD2     H 9109   2.814   1.186   9.990 -0.4840  1.0496  0.7537
  611MPD2    H1 9110   2.732   1.467   9.679  0.9632 -2.3872 -1.8122
  611MPD2    H2 9111   2.419   1.225   9.834 -1.6276  4.2727 -0.6657
  611MPD2    H3 9112   2.489   1.387   9.667  1.2082 -0.1031 -0.8040
  611MPD2     N 9113   2.916   1.379   9.826 -0.1774 -0.4117 -0.3248
  611MPD2    H5 9114   2.933   1.463   9.772 -3.0536  1.0491  1.0384
  611MPD2    N1 9115   2.555   1.106  10.017 -0.0260  0.2711  0.2355
  611MPD2    H7 9116   2.455   1.096  10.027 -0.1779 -1.7228 -3.5531
  612TMC3    C1 9117   3.142   1.391   9.849  0.0075 -0.2926  0.4742
  612TMC3    C2 9118   3.248   1.394   9.941 -0.7029 -0.5480  0.2629
  612TMC3    C3 9119   3.358   1.469   9.915 -0.1481 -0.4831  0.6336
  612TMC3    C4 9120   3.151   1.463   9.731 -0.4760  0.0697 -0.9627
  612TMC3    C5 9121   3.266   1.534   9.710  0.9695 -0.7744  0.2947
  612TMC3    C6 9122   3.371   1.530   9.801 -0.1356 -0.6676  0.1007
  612TMC3     C 9123   3.026   1.321   9.888  0.7891 -0.0888 -0.4739
  612TMC3     O 9124   3.034   1.230   9.968  0.5948 -0.0927 -0.4845
  612TMC3     H 9125   3.231   1.326  10.024  1.7980 -1.4297  0.0266
  612TMC3    H1 9126   3.072   1.460   9.656 -2.3789 -3.2204  1.2007
  612TMC3    H2 9127   3.462   1.589   9.789  1.1956 -2.7332  0.0518
  612TMC3    C7 9128   3.253   1.624   9.599 -0.3567 -0.0373  1.0558
  612TMC3    C8 9129   3.473   1.467  10.001  0.1746 -0.1603  0.4218
  612TMC3    O1 9130   3.151   1.646   9.540  0.6410 -0.2901 -0.6575
  612TMC3    O2 9131   3.570   1.522   9.957 -0.8436  0.3538  0.0322
  613MPD2     C 9132   1.954   3.162  16.591 -0.4902  0.0542  0.4593
  613MPD2    C1 9133   1.916   3.294  16.568  0.4276 -0.2664  0.4040
  613MPD2    C2 9134   1.905   3.372  16.680  0.3230 -0.2257  0.6391
  613MPD2    C3 9135   1.923   3.330  16.809 -0.0621  0.2959 -0.6808
  613MPD2    C4 9136   1.978   3.206  16.829  0.2569 -0.4547  0.0285
  613MPD2    C5 9137   1.987   3.123  16.717  0.8408  0.0050 -0.5450
  613MPD2     H 9138   1.872   3.475  16.666  0.4139 -0.2903 -0.0311
  613MPD2    H1 9139   1.993   3.168  16.929 -3.5339 -0.2013  0.7169
  613MPD2    H2 9140   1.963   3.087  16.513 -1.0064  0.7430 -0.2523
  613MPD2    H3 9141   2.003   3.017  16.733 -1.1248  0.1238  2.1360
  613MPD2     N 9142   1.879   3.407  16.920  0.1522  0.1564 -0.6425
  613MPD2    H5 9143   1.869   3.357  17.008 -0.3916  1.9471  0.3085
  613MPD2    N1 9144   1.891   3.334  16.433 -0.3151  0.7548 -0.3802
  613MPD2    H7 9145   1.917   3.260  16.369 -0.9867 -0.4141  0.7050
  614TMC3    C1 9146   1.783   3.450  16.248  0.3967  0.1623 -0.0063
  614TMC3    C2 9147   1.743   3.325  16.211  0.3048  1.0181  0.1584
  614TMC3    C3 9148   1.627   3.313  16.138 -0.2203 -0.2689  0.1094
  614TMC3    C4 9149   1.726   3.569  16.205  0.3588 -0.4808 -0.0620
  614TMC3    C5 9150   1.619   3.551  16.122 -0.2412  0.7518  0.1962
  614TMC3    C6 9151   1.577   3.423  16.078  0.0859  0.0153 -0.3543
  614TMC3     C 9152   1.837   3.454  16.388  0.2953  0.0827  0.0278
  614TMC3     O 9153   1.805   3.547  16.460  0.0891  0.6308  0.0696
  614TMC3     H 9154   1.795   3.237  16.244 -1.2634 -0.9443 -2.6355
  614TMC3    H1 9155   1.748   3.666  16.247  0.7064 -1.0269  1.0182
  614TMC3    H2 9156   1.482   3.409  16.028  0.1113 -1.5912  0.0416
  614TMC3    C7 9157   1.526   3.656  16.095  0.3449 -0.3825  0.2404
  614TMC3    C8 9158   1.517   3.263  16.215  0.1697  0.0336  0.4976
  614TMC3    O1 9159   1.521   3.748  16.177 -0.2824 -0.0182  0.2966
  614TMC3    O2 9160   1.409   3.248  16.166 -0.5360  0.1337  0.3339
  615MPD2     C 9161   1.107   1.115  16.928 -0.2343  1.3145  0.1472
  615MPD2    C1 9162   1.209   1.083  16.850 -0.4080  0.2436 -0.6347
  615MPD2    C2 9163   1.190   1.075  16.712  0.3993  0.4849 -0.3415
  615MPD2    C3 9164   1.071   1.111  16.655  1.0966  0.1570 -0.2329
  615MPD2    C4 9165   0.967   1.160  16.735  0.1359  0.6739  0.2638
  615MPD2    C5 9166   0.987   1.146  16.869 -0.2998  0.1716  0.2922
  615MPD2     H 9167   1.269   1.034  16.651  1.3696  1.9991 -0.1143
  615MPD2    H1 9168   0.869   1.190  16.701  0.6682  1.2899 -0.7105
  615MPD2    H2 9169   1.114   1.117  17.036  0.7840 -1.2923  0.1409
  615MPD2    H3 9170   0.899   1.165  16.928 -2.9570 -1.3609 -3.1887
  615MPD2     N 9171   1.055   1.099  16.511  0.2020  0.6220  0.4262
  615MPD2    H5 9172   1.127   1.052  16.457  0.8539  1.6391  0.4076
  615MPD2    N1 9173   1.337   1.052  16.902 -0.0889  0.8699 -0.1016
  615MPD2    H7 9174   1.410   1.033  16.835  0.6633 -0.9865  1.2227
  616TMC3    C1 9175   1.512   1.013  17.046  0.6415  0.1800 -0.2951
  616TMC3    C2 9176   1.594   1.112  17.002  0.0509  0.6961 -0.1575
  616TMC3    C3 9177   1.704   1.069  16.937  0.0283 -0.2337 -0.3755
  616TMC3    C4 9178   1.531   0.877  17.025 -0.7655 -0.4024 -0.1990
  616TMC3    C5 9179   1.656   0.847  16.967 -0.2492 -0.6885  0.3124
  616TMC3    C6 9180   1.740   0.940  16.913  0.2660 -0.7929  0.6879
  616TMC3     C 9181   1.373   1.048  17.038 -0.0131  0.6300 -0.0535
  616TMC3     O 9182   1.318   1.105  17.130  0.2008 -0.4352 -0.2031
  616TMC3     H 9183   1.566   1.216  17.020  0.6584 -0.0841  5.1631
  616TMC3    H1 9184   1.448   0.808  17.038 -0.6314 -0.6712 -0.8010
  616TMC3    H2 9185   1.829   0.921  16.854  0.7036 -1.5946  1.6111
  616TMC3    C7 9186   1.675   0.712  16.934 -0.0655  0.3457  0.1199
  616TMC3    C8 9187   1.783   1.168  16.864  0.0817 -0.0742  1.0933
  616TMC3    O1 9188   1.577   0.641  16.928 -0.4108  0.5161  0.1577
  616TMC3    O2 9189   1.726   1.276  16.833  0.5377  0.3887  0.3573
  617MPD2     C 9190   4.174   3.131  13.925 -0.7917 -0.2601 -0.4964
  617MPD2    C1 9191   4.145   2.999  13.896  0.5246  0.0047 -0.2709
  617MPD2    C2 9192   4.014   2.953  13.894 -0.2762 -0.0344 -0.8867
  617MPD2    C3 9193   3.918   3.029  13.949 -0.7134  0.5108  0.4516
  617MPD2    C4 9194   3.948   3.164  13.990  0.0911  0.4518 -0.1262
  617MPD2    C5 9195   4.073   3.213  13.967  0.3663  0.6661 -0.1445
  617MPD2     H 9196   3.988   2.851  13.867  0.6437 -0.0131 -1.8105
  617MPD2    H1 9197   3.879   3.237  14.030 -1.5927 -2.5875  2.4914
  617MPD2    H2 9198   4.276   3.167  13.922 -0.3806 -1.3223  0.2493
  617MPD2    H3 9199   4.077   3.319  13.991 -1.3757  0.7048 -0.0464
  617MPD2     N 9200   3.789   2.979  13.986 -0.0546 -0.2055 -0.2866
  617MPD2    H5 9201   3.725   3.044  14.032 -0.1451  0.1852 -0.9633
  617MPD2    N1 9202   4.247   2.924  13.832  0.3006 -0.8380 -0.4255
  617MPD2    H7 9203   4.329   2.982  13.819 -0.8268  1.1055  0.9633
  618TMC3    C1 9204   4.365   2.749  13.723 -0.0377 -0.0104 -0.0058
  618TMC3    C2 9205   4.359   2.638  13.634 -1.0374 -0.0955  1.0008
  618TMC3    C3 9206   4.467   2.597  13.571 -0.1401 -0.6102  0.0490
  618TMC3    C4 9207   4.480   2.808  13.757 -0.4569  0.1329  0.4477
  618TMC3    C5 9208   4.593   2.753  13.700  0.0240  0.4938  0.4786
  618TMC3    C6 9209   4.592   2.642  13.613 -1.0747  0.4088 -0.2064
  618TMC3     C 9210   4.249   2.796  13.790  0.1706 -0.5561  0.0001
  618TMC3     O 9211   4.156   2.716  13.806  0.7283 -0.6326 -0.8258
  618TMC3     H 9212   4.260   2.607  13.603  0.0610 -0.2437 -2.4049
  618TMC3    H1 9213   4.488   2.877  13.840  1.1966  1.0094 -0.4297
  618TMC3    H2 9214   4.684   2.612  13.564 -0.2222  1.7117  0.5962
  618TMC3    C7 9215   4.723   2.800  13.739  0.2839 -0.5202 -0.2672
  618TMC3    C8 9216   4.455   2.468  13.507 -0.1092  0.3438  0.1317
  618TMC3    O1 9217   0.008   2.801  13.858 -0.0933 -0.1049 -0.1156
  618TMC3    O2 9218   4.346   2.409  13.515  0.0486 -0.0015 -0.5705
  619MPD2     C 9219   0.913   4.325  13.887  0.4792 -0.0078 -0.6377
  619MPD2    C1 9220   0.857   4.356  13.768  0.5838 -0.6982 -0.0542
  619MPD2    C2 9221   0.727   4.333  13.739  0.4791 -1.0080  0.7955
  619MPD2    C3 9222   0.643   4.293  13.848  0.2942  0.6777 -0.2566
  619MPD2    C4 9223   0.703   4.266  13.977  0.1945  0.3570 -0.4988
  619MPD2    C5 9224   0.841   4.283  13.989 -0.5740  0.2016 -0.3960
  619MPD2     H 9225   0.683   4.363  13.644  0.5576  0.3173  1.1740
  619MPD2    H1 9226   0.651   4.227  14.063  1.1357  1.8934  0.7623
  619MPD2    H2 9227   1.019   4.325  13.911  0.5226  0.9802 -0.8408
  619MPD2    H3 9228   0.896   4.252  14.078 -1.3211  0.4404  0.1480
  619MPD2     N 9229   0.508   4.267  13.843  0.5615 -0.0790  0.0647
  619MPD2    H5 9230   0.464   4.231  13.928  1.6787  1.5247  1.3322
  619MPD2    N1 9231   0.934   4.408  13.658  0.0708  0.0881  0.1125
  619MPD2    H7 9232   0.882   4.451  13.582 -1.5304 -1.3340  0.3931
  620TMC3    C1 9233   1.115   4.496  13.540 -0.4094  0.6370 -0.2696
  620TMC3    C2 9234   1.053   4.487  13.427 -0.5410  0.0125 -0.2655
  620TMC3    C3 9235   1.072   4.599  13.347 -0.2424  0.2313 -0.5812
  620TMC3    C4 9236   1.199   4.595  13.585  0.5500 -0.4707 -0.3568
  620TMC3    C5 9237   1.204   4.706  13.501  0.2471 -0.5300 -0.1538
  620TMC3    C6 9238   1.143   4.712  13.380 -0.6268  0.9480 -0.3331
  620TMC3     C 9239   1.069   4.418  13.656  0.0307 -0.3000  0.1135
  620TMC3     O 9240   1.157   4.370  13.727 -0.2294  0.0147 -0.6381
  620TMC3     H 9241   1.006   4.395  13.394 -2.4265  0.8486  0.1303
  620TMC3    H1 9242   1.248   4.592  13.681 -1.1154 -0.2277  0.5042
  620TMC3    H2 9243   1.151   0.060  13.315  1.7574 -0.5630 -2.0156
  620TMC3    C7 9244   1.219   0.092  13.571 -0.0537  0.2971 -0.6041
  620TMC3    C8 9245   1.028   4.594  13.203 -0.0778 -0.5479  0.1404
  620TMC3    O1 9246   1.302   0.096  13.663 -0.3597  0.3676 -0.1014
  620TMC3    O2 9247   1.093   4.669  13.134  0.2502  0.0593 -0.0554
  621MPD2     C 9248   1.319   0.332   9.557 -0.3240 -0.3574 -0.3211
  621MPD2    C1 9249   1.339   0.279   9.680  0.0683  0.2678 -0.2055
  621MPD2    C2 9250   1.463   0.288   9.734 -0.0747 -1.5339 -0.0169
  621MPD2    C3 9251   1.559   0.379   9.682  0.1686  0.1805  0.1382
  621MPD2    C4 9252   1.529   0.446   9.562  0.8759 -0.1028 -0.2105
  621MPD2    C5 9253   1.418   0.411   9.498 -0.5087  0.0908  0.5120
  621MPD2     H 9254   1.488   0.237   9.827  2.1540 -1.1312 -0.4023
  621MPD2    H1 9255   1.597   0.518   9.517  0.8199  0.7003  0.9776
  621MPD2    H2 9256   1.222   0.322   9.510  0.3464 -1.2839 -1.5005
  621MPD2    H3 9257   1.394   0.459   9.404 -1.5272 -2.5089 -0.5757
  621MPD2     N 9258   1.685   0.380   9.737 -0.4754 -0.1862 -0.1187
  621MPD2    H5 9259   1.701   0.304   9.803 -1.7963 -0.9245 -0.6510
  621MPD2    N1 9260   1.243   0.196   9.735  0.5499 -0.2662 -0.3559
  621MPD2    H7 9261   1.295   0.139   9.801 -0.4993  0.8452  1.4404
  622TMC3    C1 9262   1.038   0.089   9.793 -0.2475  1.3173 -0.7862
  622TMC3    C2 9263   1.113   0.015   9.887 -0.4862 -0.6321 -0.5720
  622TMC3    C3 9264   1.057   4.631   9.927 -0.5091 -0.1858  0.5032
  622TMC3    C4 9265   0.920   0.044   9.740 -0.3331  0.0786  0.4952
  622TMC3    C5 9266   0.881   4.662   9.775 -0.5637  0.9022  0.1175
  622TMC3    C6 9267   0.950   4.585   9.863  0.7196  0.0632 -1.0033
  622TMC3     C 9268   1.105   0.201   9.721 -0.7906  0.0720  0.0618
  622TMC3     O 9269   1.043   0.272   9.640 -0.2374 -0.4783 -0.2016
  622TMC3     H 9270   1.204   0.051   9.933 -0.5607  0.0357 -0.9370
  622TMC3    H1 9271   0.868   0.102   9.664 -1.8090  0.5098  1.8572
  622TMC3    H2 9272   0.916   4.489   9.900  0.4052  0.4481 -0.2919
  622TMC3    C7 9273   0.781   4.611   9.682 -0.0708  1.0788 -0.6526
  622TMC3    C8 9274   1.097   4.568  10.046  0.8211 -0.2531  0.0328
  622TMC3    O1 9275   0.709   4.696   9.631  0.7015  0.5373  0.6043
  622TMC3    O2 9276   1.104   4.446  10.040  0.1682  0.6453  0.3508
  623MPD2     C 9277   0.391   0.944  16.486 -0.8085 -0.2251 -0.2048
  623MPD2    C1 9278   0.287   0.924  16.566 -0.3538 -0.3184  0.0906
  623MPD2    C2 9279   0.301   0.943  16.704 -0.3526  0.1994  0.3272
  623MPD2    C3 9280   0.430   0.981  16.754  0.1273  0.0882  0.7774
  623MPD2    C4 9281   0.532   1.002  16.670  0.0536  0.6869  0.0897
  623MPD2    C5 9282   0.512   0.992  16.537  0.3774 -0.2046 -0.5316
  623MPD2     H 9283   0.220   0.930  16.774 -1.4547 -0.8532 -1.1342
  623MPD2    H1 9284   0.625   1.048  16.698 -0.1674  0.1691  1.6853
  623MPD2    H2 9285   0.375   0.937  16.379  1.3725  0.8641 -0.6055
  623MPD2    H3 9286   0.599   1.014  16.476  0.1711 -1.1762 -1.1716
  623MPD2     N 9287   0.442   0.993  16.893 -0.6966  0.2967  0.6241
  623MPD2    H5 9288   0.355   0.974  16.942 -0.9951 -1.3288 -0.5239
  623MPD2    N1 9289   0.165   0.875  16.507 -0.1672  0.4510 -0.6889
  623MPD2    H7 9290   0.174   0.824  16.419 -0.9579  2.3966 -1.8869
  624TMC3    C1 9291   0.553   0.800  17.253 -0.8122 -0.6304  0.3715
  624TMC3    C2 9292   0.418   0.791  17.283 -0.2839 -0.7963 -0.1943
  624TMC3    C3 9293   0.340   0.887  17.231  0.0914  0.0009 -0.2370
  624TMC3    C4 9294   0.609   0.896  17.173 -0.3969 -0.5508 -0.7781
  624TMC3    C5 9295   0.524   0.979  17.111 -0.2248 -0.0129  0.3431
  624TMC3    C6 9296   0.394   0.990  17.149  0.1163  0.1597 -0.0826
  624TMC3     C 9297   0.637   0.699  17.317  0.0472 -0.7575 -0.5026
  624TMC3     O 9298   0.577   0.597  17.345  0.0285 -0.0117  0.0660
  624TMC3     H 9299   0.379   0.716  17.352  3.5345 -0.5041  2.3189
  624TMC3    H1 9300   0.712   0.890  17.140 -0.3105 -2.0100 -0.2609
  624TMC3    H2 9301   0.322   1.055  17.100 -1.6085 -0.7193  1.2870
  624TMC3    C7 9302   0.555   1.002  16.969  0.0528 -0.4587 -0.2310
  624TMC3    C8 9303   0.213   0.835  17.184 -0.8082 -0.5239  0.5956
  624TMC3    O1 9304   0.673   0.999  16.933  0.1352 -0.1449 -0.0360
  624TMC3    O2 9305   0.208   0.713  17.175  0.1734  0.4936  0.2627
  625MPD2     C 9306   4.475   2.115   0.436 -0.2263  0.7689  0.2092
  625MPD2    C1 9307   4.513   2.251   0.465  0.1781  0.5536 -0.5055
  625MPD2    C2 9308   4.630   2.272   0.536  0.5691  0.6119  0.0836
  625MPD2    C3 9309   4.709   2.164   0.584 -0.3629 -0.3800 -0.4267
  625MPD2    C4 9310   4.661   2.038   0.564 -0.1500  0.2353 -0.3626
  625MPD2    C5 9311   4.544   2.015   0.499 -0.5356  0.1089  0.0322
  625MPD2     H 9312   4.645   2.373   0.571 -2.9927 -0.2871  4.3016
  625MPD2    H1 9313   4.722   1.956   0.601  1.5909  1.5377 -0.3261
  625MPD2    H2 9314   4.383   2.092   0.384  0.3103  0.5332 -0.6372
  625MPD2    H3 9315   4.520   1.910   0.485  0.2591  0.1013 -1.2017
  625MPD2     N 9316   0.103   2.191   0.639  0.5890  0.3587 -0.1406
  625MPD2    H5 9317   0.140   2.283   0.620  0.8394  0.2636 -0.1169
  625MPD2    N1 9318   4.437   2.360   0.422  0.5121  0.4293 -0.7182
  625MPD2    H7 9319   4.469   2.451   0.453 -0.0517  0.6084 -0.6639
  626TMC3    C1 9320   4.256   2.489   0.314 -1.0041 -0.1523  0.0990
  626TMC3    C2 9321   4.197   2.509   0.191 -0.4467 -0.2625  0.4308
  626TMC3    C3 9322   4.174   2.641   0.152  0.0830 -0.5007 -0.2815
  626TMC3    C4 9323   4.266   2.594   0.405 -1.4349 -0.5782 -0.0927
  626TMC3    C5 9324   4.215   2.717   0.371 -0.2601 -0.1878 -0.1416
  626TMC3    C6 9325   4.181   2.747   0.243  0.1632 -0.4262 -0.5578
  626TMC3     C 9326   4.320   2.359   0.341  0.4398  0.3545  0.1883
  626TMC3     O 9327   4.277   2.268   0.273 -0.8271 -0.1076 -0.0685
  626TMC3     H 9328   4.193   2.433   0.114 -1.6416 -0.2595  0.4876
  626TMC3    H1 9329   4.306   2.574   0.503 -0.1662  1.4600 -0.1861
  626TMC3    H2 9330   4.134   2.840   0.214  0.4413  0.2620  1.2212
  626TMC3    C7 9331   4.211   2.807   0.486  0.7854  0.1819 -0.5766
  626TMC3    C8 9332   4.162   2.669   0.008 -0.4017  0.1610  0.1920
  626TMC3    O1 9333   4.302   2.787   0.563 -0.5290 -0.6034 -0.2309
  626TMC3    O2 9334   4.118   2.572  17.693 -0.5129  0.3973  0.0119
  627MPD2     C 9335   3.388   1.974  14.619 -0.7824 -0.3326  0.1438
  627MPD2    C1 9336   3.517   1.936  14.576 -0.1094 -0.0013 -0.8045
  627MPD2    C2 9337   3.534   1.813  14.518  0.2632 -0.2862 -0.8660
  627MPD2    C3 9338   3.425   1.735  14.477 -0.7047 -0.4616 -0.3838
  627MPD2    C4 9339   3.295   1.777  14.508 -0.1396 -0.0360 -0.1203
  627MPD2    C5 9340   3.287   1.896  14.576 -0.6664  0.0823 -0.0837
  627MPD2     H 9341   3.631   1.769  14.496  0.5184 -0.4596  0.5612
  627MPD2    H1 9342   3.206   1.720  14.483 -1.4229  1.3842  1.2090
  627MPD2    H2 9343   3.365   2.066  14.670 -0.9290 -0.5108  0.3968
  627MPD2    H3 9344   3.186   1.929  14.597 -0.3475  1.0932 -0.1289
  627MPD2     N 9345   3.452   1.614  14.411 -0.3234 -0.2628  0.3219
  627MPD2    H5 9346   3.545   1.595  14.375 -0.4375 -0.8195  0.3167
  627MPD2    N1 9347   3.633   2.021  14.601  0.7687  0.0222  0.2324
  627MPD2    H7 9348   3.715   1.970  14.573 -0.3327 -0.0589 -2.8891
  628TMC3    C1 9349   3.785   2.178  14.678 -0.4825  0.1878  0.0931
  628TMC3    C2 9350   3.884   2.142  14.587  0.5592 -0.3401  0.0941
  628TMC3    C3 9351   4.011   2.194  14.597  0.3907 -0.5837  0.2614
  628TMC3    C4 9352   3.815   2.269  14.776 -0.3649 -0.8122  0.1880
  628TMC3    C5 9353   3.943   2.319  14.787 -0.5131  0.1258  0.8076
  628TMC3    C6 9354   4.048   2.272  14.706 -0.6634 -0.2126 -0.0417
  628TMC3     C 9355   3.647   2.143  14.660 -0.3673 -0.8161  0.3229
  628TMC3     O 9356   3.562   2.218  14.710 -0.6269  0.0433  0.2450
  628TMC3     H 9357   3.872   2.083  14.497 -0.7930  2.0522 -1.2908
  628TMC3    H1 9358   3.732   2.289  14.843 -1.4612 -1.7728 -0.8673
  628TMC3    H2 9359   4.143   2.323  14.700 -1.3383  1.0786  0.1771
  628TMC3    C7 9360   3.940   2.461  14.782 -0.1746  0.8048 -0.4528
  628TMC3    C8 9361   4.112   2.126  14.520 -0.6446  0.3521  0.1646
  628TMC3    O1 9362   4.024   2.526  14.842 -0.0276 -0.6478 -0.5751
  628TMC3    O2 9363   4.097   2.103  14.401  0.3301  0.5174  0.3418
  629MPD2     C 9364   2.183   1.344  16.585  0.7264  0.7774  0.6142
  629MPD2    C1 9365   2.222   1.228  16.651  0.3757  0.0647  0.7102
  629MPD2    C2 9366   2.133   1.162  16.728 -0.0406 -1.0187  0.0212
  629MPD2    C3 9367   2.003   1.208  16.744  0.0767  0.6526  0.4596
  629MPD2    C4 9368   1.968   1.330  16.680  0.4056  0.0074  0.4041
  629MPD2    C5 9369   2.052   1.394  16.596 -0.2380 -0.3195 -0.2252
  629MPD2     H 9370   2.148   1.068  16.781  2.2648 -0.9978 -0.5830
  629MPD2    H1 9371   1.877   1.388  16.685 -0.0575 -0.6278 -0.7276
  629MPD2    H2 9372   2.252   1.398  16.523  1.2916  2.5629  2.7902
  629MPD2    H3 9373   2.024   1.485  16.545  0.4025 -0.0955 -0.1807
  629MPD2     N 9374   1.911   1.134  16.832 -0.5078 -0.6106 -0.3930
  629MPD2    H5 9375   1.949   1.051  16.876  0.9864  0.2076 -0.1243
  629MPD2    N1 9376   2.358   1.180  16.638  0.1819  0.2450 -0.3770
  629MPD2    H7 9377   2.420   1.235  16.578  1.4859 -1.2835 -0.4411
  630TMC3    C1 9378   2.549   1.034  16.639  0.4036 -0.1924 -0.3705
  630TMC3    C2 9379   2.575   1.052  16.507 -0.3148 -0.8010  0.3474
  630TMC3    C3 9380   2.696   0.998  16.460 -0.5567 -0.2186 -0.2992
  630TMC3    C4 9381   2.624   0.951  16.711  0.3664 -0.0936 -0.2360
  630TMC3    C5 9382   2.728   0.888  16.661 -0.7128 -0.9625  0.0674
  630TMC3    C6 9383   2.768   0.906  16.532  0.2859 -0.1242  0.5002
  630TMC3     C 9384   2.415   1.065  16.692 -0.2741  0.0389 -0.3662
  630TMC3     O 9385   2.376   1.002  16.790  0.0255  0.2894  0.4571
  630TMC3     H 9386   2.513   1.109  16.439 -0.6812 -1.1092  0.4239
  630TMC3    H1 9387   2.587   0.921  16.809  1.4570 -3.0479 -0.7239
  630TMC3    H2 9388   2.855   0.856  16.491 -0.3509  1.6150 -2.9706
  630TMC3    C7 9389   2.780   0.773  16.736  0.3889  0.7095 -0.1555
  630TMC3    C8 9390   2.759   1.043  16.338 -0.0463  0.3801 -0.6046
  630TMC3    O1 9391   2.894   0.768  16.781 -0.7208  0.2069  0.3138
  630TMC3    O2 9392   2.860   0.983  16.312  0.2456 -0.0096 -0.3130
  631MPD2     C 9393   1.164   1.027  15.542 -0.7752 -0.6753  0.3694
  631MPD2    C1 9394   1.036   0.989  15.582  0.0497  0.6762  0.5410
  631MPD2    C2 9395   1.020   0.960  15.714  0.0291 -0.2678  0.0249
  631MPD2    C3 9396   1.117   0.982  15.808 -0.2669  0.0140  0.0776
  631MPD2    C4 9397   1.238   1.028  15.762  0.6298 -0.5848 -0.2372
  631MPD2    C5 9398   1.263   1.039  15.631  0.6046 -0.0533 -0.4172
  631MPD2     H 9399   0.929   0.915  15.751  0.5264  0.5130  2.2104
  631MPD2    H1 9400   1.321   1.043  15.830  1.1852  0.0870 -1.0610
  631MPD2    H2 9401   1.193   1.047  15.440  1.8349 -0.6049  1.1088
  631MPD2    H3 9402   1.364   1.065  15.602  1.7352 -0.7191  3.0208
  631MPD2     N 9403   1.089   0.948  15.944  0.3151  0.1808  0.1812
  631MPD2    H5 9404   1.008   0.889  15.958  1.5092 -1.5263 -0.2311
  631MPD2    N1 9405   0.933   0.979  15.482 -0.5699 -0.0490 -0.1936
  631MPD2    H7 9406   0.963   0.999  15.387 -0.3691 -2.5792 -0.6453
  632TMC3    C1 9407   0.713   0.911  15.404 -0.0256 -0.0398  0.2619
  632TMC3    C2 9408   0.618   0.815  15.438  0.0903  0.0241  0.6097
  632TMC3    C3 9409   0.507   0.803  15.357  0.7023 -0.0301 -1.0320
  632TMC3    C4 9410   0.691   0.992  15.298 -0.0223 -0.3996  0.0065
  632TMC3    C5 9411   0.573   0.987  15.236 -0.0497  1.3391 -0.0153
  632TMC3    C6 9412   0.492   0.881  15.246  0.5579  0.0551 -0.0572
  632TMC3     C 9413   0.799   0.949  15.516  0.4220  0.3606 -0.7357
  632TMC3     O 9414   0.745   0.945  15.625  0.5417  0.5503  0.1839
  632TMC3     H 9415   0.630   0.758  15.529 -0.9557  0.0038  0.7348
  632TMC3    H1 9416   0.762   1.071  15.276  0.0491 -1.5115 -3.9077
  632TMC3    H2 9417   0.409   0.878  15.176  1.8161 -0.3100 -1.5142
  632TMC3    C7 9418   0.571   1.058  15.111  0.2646 -0.0558 -0.5357
  632TMC3    C8 9419   0.380   0.764  15.417  0.0260 -0.1621  0.3145
  632TMC3    O1 9420   0.572   0.997  15.001  0.0273  0.3802 -0.2045
  632TMC3    O2 9421   0.285   0.836  15.395 -0.0296  0.4818 -0.1223
  633MPD2     C 9422   4.531   3.559  17.247 -0.3015 -0.8826  0.4652
  633MPD2    C1 9423   4.540   3.450  17.154 -0.1605 -0.5044 -0.0693
  633MPD2    C2 9424   4.516   3.323  17.206  0.1468 -0.1703  0.2108
  633MPD2    C3 9425   4.497   3.296  17.341 -0.1916  0.8992  0.3014
  633MPD2    C4 9426   4.491   3.399  17.430 -0.3208 -0.3724 -0.0636
  633MPD2    C5 9427   4.489   3.527  17.374  0.5177  0.2804  0.1589
  633MPD2     H 9428   4.514   3.250  17.126 -0.4630  0.1093 -0.0276
  633MPD2    H1 9429   4.456   3.388  17.532  1.4571 -1.0985  0.4752
  633MPD2    H2 9430   4.562   3.659  17.221 -1.7852 -1.1252 -2.2265
  633MPD2    H3 9431   4.450   3.601  17.443 -1.4104 -1.1283  0.5865
  633MPD2     N 9432   4.483   3.165  17.390 -0.1187 -0.3574 -0.7101
  633MPD2    H5 9433   4.462   3.159  17.489  0.9111  1.7485 -0.3647
  633MPD2    N1 9434   4.574   3.461  17.011 -0.0059 -0.6436 -0.4849
  633MPD2    H7 9435   4.589   3.373  16.963  3.2816 -0.2748 -0.1627
  634TMC3    C1 9436   4.651   3.561  16.824 -0.2776 -0.4604  0.0556
  634TMC3    C2 9437   4.718   3.439  16.787  0.3032 -0.7719 -0.1825
  634TMC3    C3 9438   0.032   3.433  16.660  0.1087 -0.0266  0.5075
  634TMC3    C4 9439   4.652   3.671  16.738  0.1568 -0.2132 -0.2809
  634TMC3    C5 9440   4.700   3.650  16.616  1.0053 -0.7824  0.2341
  634TMC3    C6 9441   0.020   3.540  16.570 -0.7331  0.0532 -0.7726
  634TMC3     C 9442   4.581   3.580  16.949  0.3500 -0.5741  0.0281
  634TMC3     O 9443   4.557   3.695  16.989  0.3903  0.0082  0.2380
  634TMC3     H 9444   4.722   3.354  16.853  0.8699 -0.6028  0.0102
  634TMC3    H1 9445   4.613   3.763  16.779  1.5125 -0.5869  1.8716
  634TMC3    H2 9446   0.052   3.525  16.467  1.6210  1.6393 -0.2800
  634TMC3    C7 9447   4.734   3.767  16.533 -0.6492  0.1696  0.6263
  634TMC3    C8 9448   0.088   3.311  16.608  0.4788  0.4181  0.0854
  634TMC3    O1 9449   0.055   3.736  16.431  0.3151 -0.1642 -0.7074
  634TMC3    O2 9450   0.046   3.204  16.654  0.1728 -0.6315  0.5767
  635TMC3    C1 9451   0.293   0.196   0.423 -0.0650  0.0290  0.3980
  635TMC3    C2 9452   0.362   0.096   0.475  0.5288  0.5680  0.2114
  635TMC3    C3 9453   0.292   4.719   0.493  0.4115 -0.0405  0.1069
  635TMC3    C4 9454   0.163   0.203   0.387  0.0940  0.4109 -1.0208
  635TMC3    C5 9455   0.093   0.091   0.415 -0.1943  0.6061  0.0102
  635TMC3    C6 9456   0.160   4.713   0.460  0.3345 -0.7375  0.4361
  635TMC3     C 9457   0.366   0.315   0.396 -0.2478  0.3982 -0.7958
  635TMC3     O 9458   0.452   0.344   0.477 -0.0616 -0.6326  0.0679
  635TMC3     H 9459   0.471   0.103   0.479  0.6179 -1.3303  1.4032
  635TMC3    H1 9460   0.115   0.296   0.358 -0.2262  1.1385  1.7926
  635TMC3    H2 9461   0.104   4.620   0.467  0.7418 -1.1072 -1.0695
  635TMC3    C7 9462   4.692   0.091   0.374 -0.1694  0.5034 -0.3367
  635TMC3    C8 9463   0.366   4.598   0.520 -0.1405 -0.5261 -0.1486
  635TMC3    O1 9464   4.637   0.197   0.378  0.2360  0.0199  0.0766
  635TMC3    O2 9465   0.474   4.610   0.580 -0.1592 -0.0367 -0.2464
  636MPD2     C 9466   1.308   4.257  16.759 -0.3463 -0.6221 -0.2589
  636MPD2    C1 9467   1.322   4.149  16.670  0.0010 -0.3395 -0.3160
  636MPD2    C2 9468   1.369   4.026  16.723  0.2704 -0.2464 -0.3951
  636MPD2    C3 9469   1.410   4.022  16.857 -0.1408 -0.1893  0.5960
  636MPD2    C4 9470   1.406   4.132  16.940  1.0131 -0.0324 -0.0604
  636MPD2    C5 9471   1.357   4.249  16.890  0.3478 -0.2256  0.1306
  636MPD2     H 9472   1.381   3.939  16.659  1.1879 -1.1778  1.0359
  636MPD2    H1 9473   1.449   4.122  17.039 -0.1503 -0.2507  0.4165
  636MPD2    H2 9474   1.272   4.357  16.736  0.8378 -0.4345 -1.2795
  636MPD2    H3 9475   1.347   4.335  16.955 -1.6331 -0.8203  0.6232
  636MPD2     N 9476   1.446   3.898  16.909  0.3039  0.0455 -0.2463
  636MPD2    H5 9477   1.415   3.811  16.866  0.1498 -0.6399  1.2684
  636MPD2    N1 9478   1.290   4.156  16.535 -0.5235 -0.6941  0.1802
  636MPD2    H7 9479   1.298   4.071  16.479 -0.0349 -0.8825  0.5344
  637TMC3    C1 9480   1.562   3.736  17.029 -0.3001  0.4232 -0.1725
  637TMC3    C2 9481   1.691   3.689  17.035 -0.3023 -1.0400  0.0181
  637TMC3    C3 9482   1.720   3.559  17.007 -0.1459  0.6742  0.1968
  637TMC3    C4 9483   1.464   3.649  17.013  0.5223 -0.6068 -0.3235
  637TMC3    C5 9484   1.491   3.512  16.995  0.1293 -0.3188 -0.2493
  637TMC3    C6 9485   1.622   3.470  16.986  0.3742  0.2971  0.2185
  637TMC3     C 9486   1.537   3.878  17.012  0.0099 -0.3446 -0.0402
  637TMC3     O 9487   1.605   3.958  17.075 -0.5939  0.4791  0.3380
  637TMC3     H 9488   1.776   3.755  17.046 -1.0362  0.0761 -0.9952
  637TMC3    H1 9489   1.361   3.677  16.995  0.7586  0.7614  0.4092
  637TMC3    H2 9490   1.647   3.365  16.993  0.1324  0.3356  1.5804
  637TMC3    C7 9491   1.397   3.434  16.918 -0.5606  1.3369  0.4788
  637TMC3    C8 9492   1.839   3.538  16.920  0.0908  0.8563 -0.3474
  637TMC3    O1 9493   1.279   3.456  16.927  0.5944  0.0014  0.1742
  637TMC3    O2 9494   1.876   3.629  16.848  0.1812  0.2378  0.3970
  638MPD2     C 9495   1.283   2.673  14.565 -0.2414  0.9780 -0.4151
  638MPD2    C1 9496   1.236   2.561  14.503 -0.7943  0.0729 -0.4568
  638MPD2    C2 9497   1.252   2.439  14.567 -0.4437  0.3241 -0.5253
  638MPD2    C3 9498   1.294   2.428  14.694  1.0270  0.7159  0.4620
  638MPD2    C4 9499   1.336   2.541  14.764 -0.3003 -0.5214 -0.4550
  638MPD2    C5 9500   1.337   2.661  14.688  0.1323  0.4387  0.8905
  638MPD2     H 9501   1.223   2.346  14.520  0.2832  0.4783 -1.2877
  638MPD2    H1 9502   1.358   2.544  14.870 -0.2029  2.5828 -0.5567
  638MPD2    H2 9503   1.282   2.771  14.518  0.7972 -0.3995 -3.3544
  638MPD2    H3 9504   1.365   2.751  14.741  1.7467  0.7346 -0.4772
  638MPD2     N 9505   1.309   2.303  14.744  0.2106  0.2213  0.5777
  638MPD2    H5 9506   1.286   2.226  14.683  1.1828 -1.0612  1.8130
  638MPD2    N1 9507   1.196   2.574  14.366 -0.1655  0.3684 -0.3337
  638MPD2    H7 9508   1.209   2.666  14.325 -0.3820 -0.2490 -1.7929
  639TMC3    C1 9509   1.340   2.125  14.897  0.0159  0.1452 -0.6468
  639TMC3    C2 9510   1.232   2.067  14.833  0.1812 -0.4912 -0.4182
  639TMC3    C3 9511   1.198   1.930  14.870  0.1757 -0.0914 -0.1227
  639TMC3    C4 9512   1.412   2.062  14.992  0.0399 -0.0252 -0.1982
  639TMC3    C5 9513   1.368   1.935  15.038  0.2865 -0.0051  0.6566
  639TMC3    C6 9514   1.270   1.867  14.973 -0.2508  0.0078 -0.1355
  639TMC3     C 9515   1.355   2.268  14.871  0.1711 -0.3646 -0.6473
  639TMC3     O 9516   1.405   2.337  14.964  0.3535  0.3928 -0.1538
  639TMC3     H 9517   1.165   2.118  14.765 -0.0837  1.0942  1.0280
  639TMC3    H1 9518   1.501   2.108  15.032 -0.3048 -0.3894  0.9927
  639TMC3    H2 9519   1.258   1.763  15.000 -1.2840  0.2815  0.4423
  639TMC3    C7 9520   1.421   1.853  15.146  0.1006  0.2554  0.1746
  639TMC3    C8 9521   1.114   1.853  14.780  1.0296 -0.1710  0.0574
  639TMC3    O1 9522   1.348   1.766  15.196 -0.0579  0.3729 -0.3683
  639TMC3    O2 9523   1.130   1.873  14.658  0.2715 -0.1261  0.1565
  640MPD2     C 9524   1.641   0.840   9.815 -0.1987 -0.0721  0.1533
  640MPD2    C1 9525   1.565   0.854   9.700  0.4784  0.3494  0.3083
  640MPD2    C2 9526   1.443   0.922   9.707 -0.0903 -0.1963 -0.2963
  640MPD2    C3 9527   1.401   0.970   9.828  0.1691 -0.1183 -0.2901
  640MPD2    C4 9528   1.478   0.956   9.938 -0.0938  0.1436  0.0470
  640MPD2    C5 9529   1.584   0.875   9.935  0.5299 -0.0561 -0.2172
  640MPD2     H 9530   1.386   0.933   9.617 -1.9042  1.0211  1.0079
  640MPD2    H1 9531   1.441   0.976  10.038  0.8289 -0.6509  0.5528
  640MPD2    H2 9532   1.732   0.780   9.813 -0.0648  0.1336  0.0932
  640MPD2    H3 9533   1.626   0.845  10.031  1.7579  1.6886 -0.2093
  640MPD2     N 9534   1.277   1.029   9.844  0.1031  0.6047  0.4605
  640MPD2    H5 9535   1.260   1.065   9.937  2.0603  0.8151  0.7358
  640MPD2    N1 9536   1.620   0.795   9.581  0.5870  0.7352  0.2082
  640MPD2    H7 9537   1.701   0.735   9.594  0.5712  0.2724 -1.8443
  641TMC3    C1 9538   1.630   0.726   9.358 -0.0181  0.5034  0.2131
  641TMC3    C2 9539   1.762   0.689   9.372 -0.0103 -0.0098  0.0719
  641TMC3    C3 9540   1.823   0.596   9.291  0.0499 -0.5770  0.0425
  641TMC3    C4 9541   1.550   0.660   9.272  0.0679  0.7886 -0.2390
  641TMC3    C5 9542   1.601   0.560   9.194  0.2199  0.2714  0.2194
  641TMC3    C6 9543   1.734   0.530   9.205  0.0205 -0.8918 -0.4143
  641TMC3     C 9544   1.562   0.802   9.456  0.0103  0.4508 -0.1321
  641TMC3     O 9545   1.473   0.875   9.417  0.0010  0.0477  0.6760
  641TMC3     H 9546   1.819   0.729   9.455 -1.1001 -1.6820  1.6229
  641TMC3    H1 9547   1.447   0.695   9.273 -0.1551  0.0852  1.2770
  641TMC3    H2 9548   1.760   0.441   9.149 -2.0032 -1.0272 -1.1287
  641TMC3    C7 9549   1.505   0.471   9.126  0.3665  0.1028  0.1967
  641TMC3    C8 9550   1.904   0.503   9.361 -0.1174 -0.1223 -0.4255
  641TMC3    O1 9551   1.390   0.519   9.113  0.6034  0.4219  0.2362
  641TMC3    O2 9552   1.884   0.382   9.344  0.3139 -0.8770  0.3635
  642TMC3    C1 9553   2.959   1.903  12.218  0.8035 -0.6609  0.1571
  642TMC3    C2 9554   3.094   1.885  12.212  0.3769 -0.8192 -0.3819
  642TMC3    C3 9555   3.145   1.814  12.107  0.0449  0.4399  0.7399
  642TMC3    C4 9556   2.868   1.825  12.151 -0.0595  0.5630 -0.1444
  642TMC3    C5 9557   2.929   1.763  12.046  0.3762 -0.7574 -0.3286
  642TMC3    C6 9558   3.062   1.752  12.021 -0.4596  0.4176 -0.3029
  642TMC3     C 9559   2.915   2.006  12.306 -0.2946  0.1024  0.0880
  642TMC3     O 9560   3.004   2.078  12.354  0.6416 -0.5579  0.5451
  642TMC3     H 9561   3.161   1.926  12.286 -0.6460  0.1828 -0.0042
  642TMC3    H1 9562   2.761   1.843  12.149 -0.2205 -0.4766 -0.9340
  642TMC3    H2 9563   3.093   1.696  11.933 -2.7327  0.3433 -1.0768
  642TMC3    C7 9564   2.857   1.640  12.000 -0.7988  0.1630 -0.5914
  642TMC3    C8 9565   3.294   1.796  12.099 -0.0909  0.0743  0.1381
  642TMC3    O1 9566   2.886   1.590  11.894  0.5206 -0.1527 -0.2592
  642TMC3    O2 9567   3.336   1.718  12.014 -0.4193  0.2399  0.5112
  643TMC3    C1 9568   1.673   2.296   0.467 -0.0227  0.1820 -0.2346
  643TMC3    C2 9569   1.563   2.370   0.504  0.0690 -0.8636  0.4407
  643TMC3    C3 9570   1.442   2.332   0.454  0.0228  0.5560  0.1866
  643TMC3    C4 9571   1.666   2.182   0.384  0.0814  0.4121  0.3942
  643TMC3    C5 9572   1.542   2.146   0.336  0.9798  0.1782  0.4316
  643TMC3    C6 9573   1.429   2.219   0.379  0.3377 -0.6123  0.5545
  643TMC3     C 9574   1.796   2.378   0.473  0.0785  0.2995 -0.1249
  643TMC3     O 9575   1.782   2.500   0.481  0.3049 -0.7609 -0.0988
  643TMC3     H 9576   1.575   2.454   0.571  1.5250 -0.9433  0.2858
  643TMC3    H1 9577   1.754   2.138   0.341 -1.8083 -0.6515 -2.4116
  643TMC3    H2 9578   1.331   2.181   0.351  0.3020  1.7365 -2.4597
  643TMC3    C7 9579   1.555   2.132   0.190  0.6413 -0.1921 -0.2972
  643TMC3    C8 9580   1.373   2.446   0.401  0.0726 -0.0360 -0.3331
  643TMC3    O1 9581   1.630   2.216   0.143  0.5747 -0.0052 -0.1904
  643TMC3    O2 9582   1.251   2.447   0.397  0.1332 -0.2338  0.2222
  644MPD2     C 9583   2.138   0.920   9.783  0.6629 -0.4479  0.4719
  644MPD2    C1 9584   2.204   1.010   9.697  0.5711  0.3302 -0.0337
  644MPD2    C2 9585   2.141   1.128   9.655 -0.6018 -0.1133  0.4073
  644MPD2    C3 9586   2.016   1.162   9.707  1.0083 -0.3399  0.6870
  644MPD2    C4 9587   1.949   1.078   9.793  0.1486 -0.0880  0.1565
  644MPD2    C5 9588   2.007   0.950   9.820 -0.1750  0.6659  0.1837
  644MPD2     H 9589   2.182   1.197   9.583  1.0789 -0.8817  0.6256
  644MPD2    H1 9590   1.851   1.103   9.833 -0.1701 -1.7157  0.3948
  644MPD2    H2 9591   2.187   0.833   9.826  2.1004  1.1750  2.1783
  644MPD2    H3 9592   1.962   0.878   9.886  0.2810 -0.7401 -1.0235
  644MPD2     N 9593   1.971   1.287   9.657 -0.7081 -0.1710 -0.2218
  644MPD2    H5 9594   2.037   1.351   9.613 -1.3246  0.8925  0.4012
  644MPD2    N1 9595   2.332   0.968   9.660 -0.0811  0.0558 -0.2074
  644MPD2    H7 9596   2.378   0.888   9.704  2.3213  1.7292  0.3625
  645TMC3    C1 9597   1.839   1.480   9.659  0.5428  0.5606 -0.5315
  645TMC3    C2 9598   1.713   1.532   9.634 -0.1091 -0.4888  0.1802
  645TMC3    C3 9599   1.701   1.670   9.631  0.2597  0.3276 -0.6901
  645TMC3    C4 9600   1.951   1.561   9.663 -0.0947 -0.8072 -0.3097
  645TMC3    C5 9601   1.929   1.695   9.662 -0.1303 -0.0924 -0.2099
  645TMC3    C6 9602   1.808   1.757   9.650  0.5281 -0.6978 -0.9181
  645TMC3     C 9603   1.848   1.338   9.687  0.0792  0.4593 -0.2184
  645TMC3     O 9604   1.744   1.286   9.727  0.0361 -0.0853 -0.7583
  645TMC3     H 9605   1.624   1.472   9.621 -0.7752  0.1569  1.8349
  645TMC3    H1 9606   2.053   1.534   9.687 -0.2666  0.5743  2.0525
  645TMC3    H2 9607   1.801   1.861   9.622 -2.2744 -0.3692  1.0349
  645TMC3    C7 9608   2.045   1.779   9.659  0.2961 -0.8142 -0.7512
  645TMC3    C8 9609   1.578   1.736   9.596  0.1446  0.0457  0.0463
  645TMC3    O1 9610   2.036   1.886   9.714 -0.1257  0.6368  0.6060
  645TMC3    O2 9611   1.564   1.858   9.624  0.4747  0.3147 -0.0229
  646MPD2     C 9612   1.532   1.139  14.383 -0.6303 -0.0091 -0.0993
  646MPD2    C1 9613   1.437   1.121  14.478  0.8499 -1.4357 -0.0224
  646MPD2    C2 9614   1.306   1.163  14.449  0.0873  0.1773 -0.1613
  646MPD2    C3 9615   1.276   1.201  14.323 -0.3719 -0.0435  0.3615
  646MPD2    C4 9616   1.375   1.220  14.235  0.4866 -0.1941 -0.8324
  646MPD2    C5 9617   1.503   1.187  14.262 -0.3830  0.1139 -0.2521
  646MPD2     H 9618   1.231   1.148  14.526 -2.5109  2.5966 -2.2812
  646MPD2    H1 9619   1.350   1.263  14.139 -2.1355  0.4417  0.1110
  646MPD2    H2 9620   1.633   1.104  14.399 -0.7295  0.0145  0.5492
  646MPD2    H3 9621   1.585   1.190  14.190 -0.2347 -2.0646 -0.1766
  646MPD2     N 9622   1.139   1.232  14.297 -0.3082  0.2468 -0.5338
  646MPD2    H5 9623   1.074   1.236  14.375 -0.2166  1.9246 -0.5328
  646MPD2    N1 9624   1.474   1.076  14.606 -0.0576  0.4204  0.6883
  646MPD2    H7 9625   1.572   1.057  14.623  0.7247  2.6114 -1.2139
  647TMC3    C1 9626   1.455   1.013  14.832  0.3125  0.2681 -0.0855
  647TMC3    C2 9627   1.369   1.013  14.944 -0.5578 -0.0461  0.4501
  647TMC3    C3 9628   1.426   0.977  15.062  0.5828 -0.0832 -0.2453
  647TMC3    C4 9629   1.592   0.989  14.845 -0.0926 -0.3365  0.3532
  647TMC3    C5 9630   1.637   0.965  14.970  0.4739  0.8191  0.1568
  647TMC3    C6 9631   1.559   0.950  15.079  0.7674 -0.3121 -0.4124
  647TMC3     C 9632   1.392   1.041  14.705  0.5884  0.0292  0.4170
  647TMC3     O 9633   1.273   1.058  14.727 -0.6072 -0.3669  0.1015
  647TMC3     H 9634   1.262   1.020  14.932 -0.9534 -2.2059  2.8896
  647TMC3    H1 9635   1.664   0.998  14.764  0.2779  1.0681  0.8424
  647TMC3    H2 9636   1.595   0.915  15.175  1.3920  0.8199 -0.2267
  647TMC3    C7 9637   1.763   0.912  14.967  0.7987  0.0780  0.2569
  647TMC3    C8 9638   1.353   0.911  15.171 -0.3683  0.1800 -0.2843
  647TMC3    O1 9639   1.819   0.930  15.074 -0.1388  0.4454  0.2939
  647TMC3    O2 9640   1.400   0.907  15.283 -0.1355  0.3489 -0.0061
  648TMC3    C1 9641   0.679   3.238  16.042 -0.0563 -0.8563  0.3330
  648TMC3    C2 9642   0.746   3.128  16.029  0.3727  0.1217  0.2550
  648TMC3    C3 9643   0.804   3.102  15.908  0.1738 -0.5933  0.0061
  648TMC3    C4 9644   0.650   3.328  15.944  0.9471 -0.1156 -0.5211
  648TMC3    C5 9645   0.709   3.302  15.823  0.2263  0.0808  0.3602
  648TMC3    C6 9646   0.785   3.190  15.804 -0.7015 -0.4491  0.4967
  648TMC3     C 9647   0.646   3.278  16.178 -0.3519  0.2723  0.2647
  648TMC3     O 9648   0.687   3.388  16.206  0.3280 -0.2098 -1.0275
  648TMC3     H 9649   0.774   3.069  16.115  0.0892  1.2389  1.1119
  648TMC3    H1 9650   0.600   3.420  15.972  1.5091  0.5910 -1.8289
  648TMC3    H2 9651   0.833   3.183  15.707  1.4975 -0.4249  1.5745
  648TMC3    C7 9652   0.667   3.383  15.713 -0.0904 -0.3929  0.3166
  648TMC3    C8 9653   0.837   2.960  15.880  0.7272 -0.1244 -0.0843
  648TMC3    O1 9654   0.724   3.360  15.610  0.3984 -0.6773 -0.7566
  648TMC3    O2 9655   0.796   2.878  15.963  0.0828 -0.3701  0.2031
  649TMC3    C1 9656   4.633   4.187  13.055 -0.0226 -0.1743 -0.0078
  649TMC3    C2 9657   4.702   4.280  13.125 -0.2258  0.1431 -0.3860
  649TMC3    C3 9658   4.713   4.263  13.260 -0.2934 -0.0691  0.8523
  649TMC3    C4 9659   4.568   4.090  13.131 -1.0742  0.6170  0.4003
  649TMC3    C5 9660   4.578   4.078  13.259  0.7695 -0.3558 -0.4052
  649TMC3    C6 9661   4.650   4.163  13.331  0.0192 -0.6149  0.1181
  649TMC3     C 9662   4.611   4.189  12.912  0.8992  0.5809 -0.4194
  649TMC3     O 9663   4.506   4.136  12.873  0.5471 -0.4898 -0.3884
  649TMC3     H 9664   4.735   4.369  13.073 -0.0844 -0.3414 -1.1330
  649TMC3    H1 9665   4.515   4.017  13.070  0.1022 -0.4602  0.6749
  649TMC3    H2 9666   4.658   4.167  13.439  1.0573 -0.3211  0.0302
  649TMC3    C7 9667   4.484   4.012  13.342 -0.0480  0.2442  0.1702
  649TMC3    C8 9668   0.028   4.368  13.338 -0.1503  0.0190 -0.2484
  649TMC3    O1 9669   4.448   4.066  13.447  0.5969 -0.2541 -0.1980
  649TMC3    O2 9670   4.703   4.403  13.437  0.0578 -0.1239  0.0165
  650TMC3    C1 9671   2.133   0.866  13.072 -0.3030  0.5185  0.3055
  650TMC3    C2 9672   2.095   0.978  13.136  1.0377  0.2735  0.5162
  650TMC3    C3 9673   2.067   1.095  13.065  0.0658 -0.3508  0.4624
  650TMC3    C4 9674   2.148   0.864  12.935 -0.7686 -0.0158  0.4451
  650TMC3    C5 9675   2.116   0.976  12.868  0.1429  0.2060  0.5946
  650TMC3    C6 9676   2.072   1.093  12.925 -0.3682  0.0964 -0.4119
  650TMC3     C 9677   2.161   0.747  13.145 -0.6647  0.1628 -0.3664
  650TMC3     O 9678   2.136   0.744  13.265  0.3603 -0.0916  0.7078
  650TMC3     H 9679   2.076   0.977  13.243  0.4041  2.0727  0.4203
  650TMC3    H1 9680   2.174   0.782  12.869  1.7766  1.6624 -0.6734
  650TMC3    H2 9681   2.038   1.176  12.864 -0.5780  0.1620 -0.2075
  650TMC3    C7 9682   2.126   0.970  12.723  0.3888  0.1743 -0.0319
  650TMC3    C8 9683   2.002   1.216  13.129  0.6349  0.0157  0.4886
  650TMC3    O1 9684   2.093   0.861  12.675 -0.3668  0.2325  0.4866
  650TMC3    O2 9685   1.961   1.218  13.245  0.1860 -0.2059 -0.5657
  651MPD2     C 9686   0.805   3.162  11.359 -0.0032 -0.6053 -0.2614
  651MPD2    C1 9687   0.775   3.236  11.250  0.0526 -1.0891 -0.0325
  651MPD2    C2 9688   0.877   3.278  11.172 -0.0112  0.1517  0.3936
  651MPD2    C3 9689   1.009   3.253  11.188 -0.2454 -0.3678 -0.3761
  651MPD2    C4 9690   1.047   3.169  11.293 -0.5829  0.1428 -0.1919
  651MPD2    C5 9691   0.943   3.121  11.369 -0.0213  0.2255 -0.2993
  651MPD2     H 9692   0.846   3.341  11.089 -1.1062 -1.6136 -0.5535
  651MPD2    H1 9693   1.148   3.141  11.319 -1.4583 -1.0009  1.9648
  651MPD2    H2 9694   0.729   3.137  11.432  0.0715 -0.7894 -0.2479
  651MPD2    H3 9695   0.966   3.045  11.442  1.9727 -0.5796 -1.7623
  651MPD2     N 9696   1.094   3.331  11.105 -0.3644  0.1054  0.2881
  651MPD2    H5 9697   1.054   3.372  11.022  1.3852  1.5956  0.1756
  651MPD2    N1 9698   0.646   3.268  11.208  0.3914  0.2162  0.3522
  651MPD2    H7 9699   0.627   3.316  11.121 -1.1654  2.5126  1.9894
  652TMC3    C1 9700   1.491   3.420  10.859 -0.3190  0.2766 -0.7862
  652TMC3    C2 9701   1.435   3.375  10.982 -0.3856 -0.4208  0.2872
  652TMC3    C3 9702   1.309   3.424  11.014  0.5996 -0.0445 -0.4246
  652TMC3    C4 9703   1.424   3.509  10.780  0.1588 -0.1116  0.0056
  652TMC3    C5 9704   1.316   3.570  10.833 -1.0756  0.1256  0.0826
  652TMC3    C6 9705   1.256   3.529  10.946 -0.0309 -0.0594 -0.3830
  652TMC3     C 9706   1.630   3.388  10.838  0.1924 -0.3355 -0.8131
  652TMC3     O 9707   1.694   3.350  10.936  0.6920  0.3899  0.0492
  652TMC3     H 9708   1.483   3.302  11.047 -2.1138  0.2660  2.3386
  652TMC3    H1 9709   1.472   3.536  10.687  0.7194 -2.1033 -0.2945
  652TMC3    H2 9710   1.166   3.580  10.980 -0.8844 -1.5853 -0.3915
  652TMC3    C7 9711   1.253   3.686  10.765  0.4345  0.4346  0.0419
  652TMC3    C8 9712   1.231   3.345  11.122  0.4569 -0.1575  0.3069
  652TMC3    O1 9713   1.131   3.689  10.765 -0.2819  0.8075  1.0219
  652TMC3    O2 9714   1.301   3.286  11.203  0.2304 -0.3697  0.0552
  653MPD2     C 9715   4.172   3.384  17.139 -0.1406  0.1635  0.4675
  653MPD2    C1 9716   4.129   3.496  17.073 -0.1720  0.1682 -0.0825
  653MPD2    C2 9717   4.069   3.476  16.950  0.5329  0.2745 -0.0033
  653MPD2    C3 9718   4.040   3.353  16.896 -0.4515 -0.0059  0.4126
  653MPD2    C4 9719   4.067   3.240  16.970  0.8331 -0.3129  0.1333
  653MPD2    C5 9720   4.138   3.253  17.091 -0.8346  0.1869 -0.2324
  653MPD2     H 9721   4.039   3.551  16.877  1.2270  1.0155  0.4846
  653MPD2    H1 9722   4.043   3.138  16.942 -0.5389 -0.4333  1.7014
  653MPD2    H2 9723   4.219   3.400  17.235 -2.0243 -0.6059  1.5338
  653MPD2    H3 9724   4.165   3.164  17.146  1.6243  1.7681  1.1359
  653MPD2     N 9725   3.979   3.341  16.769  0.6881 -0.0898  0.2817
  653MPD2    H5 9726   3.955   3.430  16.726 -3.4197 -0.7690  1.2027
  653MPD2    N1 9727   4.162   3.627  17.106  0.6355  0.1074 -0.0979
  653MPD2    H7 9728   4.149   3.699  17.035  0.2099  0.6752  0.5576
  654TMC3    C1 9729   3.893   3.256  16.573  0.3448 -0.5221 -0.4894
  654TMC3    C2 9730   3.770   3.311  16.576  0.2898  0.0782  0.0749
  654TMC3    C3 9731   3.675   3.265  16.487 -0.0060 -1.0678  0.9037
  654TMC3    C4 9732   3.933   3.175  16.475 -0.1513  0.5281 -0.5947
  654TMC3    C5 9733   3.834   3.117  16.389 -0.4233 -0.1621 -0.0374
  654TMC3    C6 9734   3.707   3.170  16.388 -0.1661  0.3541 -0.0779
  654TMC3     C 9735   3.957   3.232  16.699 -0.2367  0.1615 -0.4217
  654TMC3     O 9736   3.997   3.117  16.716 -0.1474  0.1852  0.2942
  654TMC3     H 9737   3.745   3.380  16.656  0.6569  0.0748  0.1959
  654TMC3    H1 9738   4.034   3.136  16.484  0.2555  1.6611 -0.1928
  654TMC3    H2 9739   3.638   3.136  16.312 -0.8361 -0.2627  0.8127
  654TMC3    C7 9740   3.831   2.976  16.378 -0.2392 -0.4564  0.3600
  654TMC3    C8 9741   3.530   3.293  16.514 -1.1394  0.5989 -0.4256
  654TMC3    O1 9742   3.770   2.922  16.292 -0.2204 -0.6138 -0.7096
  654TMC3    O2 9743   3.500   3.373  16.605  0.4085  0.5370 -0.0406
  655MPD2     C 9744   1.183   3.320  15.771 -0.1286 -0.0955 -0.2606
  655MPD2    C1 9745   1.151   3.414  15.677  0.4279 -0.0689 -0.2287
  655MPD2    C2 9746   1.180   3.399  15.544  0.9471  0.6569 -0.1224
  655MPD2    C3 9747   1.240   3.279  15.508 -0.1467  0.1786 -0.5380
  655MPD2    C4 9748   1.282   3.188  15.603 -0.1526  0.4745 -0.1688
  655MPD2    C5 9749   1.250   3.204  15.734  0.4697  0.0641  0.1948
  655MPD2     H 9750   1.150   3.468  15.466 -0.0730 -1.3240 -1.4794
  655MPD2    H1 9751   1.336   3.099  15.574 -0.0211 -0.1811  2.1287
  655MPD2    H2 9752   1.174   3.343  15.877 -0.4959 -0.1022 -0.2901
  655MPD2    H3 9753   1.270   3.126  15.807  0.2753  0.4817  0.6948
  655MPD2     N 9754   1.268   3.253  15.371 -0.4746 -0.5179  0.8773
  655MPD2    H5 9755   1.252   3.327  15.303  1.6961  0.1069  1.0534
  655MPD2    N1 9756   1.090   3.533  15.730 -0.1577  0.1194 -0.0216
  655MPD2    H7 9757   1.063   3.534  15.828 -1.2270  1.5134 -0.3216
  656TMC3    C1 9758   0.979   3.746  15.712  0.2418  0.0976 -0.4254
  656TMC3    C2 9759   0.883   3.711  15.801 -0.3446 -0.2743  0.4197
  656TMC3    C3 9760   0.797   3.808  15.839  0.2486 -0.7833 -0.0725
  656TMC3    C4 9761   0.981   3.867  15.647  0.3396 -0.3832 -0.4265
  656TMC3    C5 9762   0.897   3.962  15.690  0.4685 -0.1382 -0.0471
  656TMC3    C6 9763   0.799   3.938  15.788 -0.1641 -1.0654 -0.9915
  656TMC3     C 9764   1.053   3.643  15.653 -0.3436  0.6935  0.2520
  656TMC3     O 9765   1.071   3.658  15.534 -0.4485  0.2713 -0.0981
  656TMC3     H 9766   0.879   3.608  15.835  0.7528 -0.6379 -0.5366
  656TMC3    H1 9767   1.060   3.887  15.575  1.9893 -1.4403  1.0730
  656TMC3    H2 9768   0.712   4.001  15.799  1.2020  0.9073 -1.4791
  656TMC3    C7 9769   0.908   4.090  15.629 -0.1989 -0.1915  0.6675
  656TMC3    C8 9770   0.696   3.770  15.941  0.3142 -0.4134  0.0119
  656TMC3    O1 9771   1.022   4.123  15.599  0.4557 -0.3229  0.2265
  656TMC3    O2 9772   0.689   3.655  15.975 -0.0137  0.3031  0.1756
  657TMC3    C1 9773   4.678   2.926  14.718 -0.1742  0.4558  0.7327
  657TMC3    C2 9774   0.007   2.995  14.815  0.4023 -0.6779  0.7653
  657TMC3    C3 9775   4.709   3.120  14.841  0.4708  0.1506  0.4168
  657TMC3    C4 9776   4.578   2.980  14.637  0.5326  0.6475 -0.6245
  657TMC3    C5 9777   4.555   3.107  14.664  0.5575  0.1754  0.2301
  657TMC3    C6 9778   4.624   3.180  14.754  0.3192  0.0922  0.3361
  657TMC3     C 9779   4.717   2.791  14.684  0.1096 -0.3286 -0.3596
  657TMC3     O 9780   4.633   2.728  14.621  0.4920 -0.2239 -0.0621
  657TMC3     H 9781   0.072   2.938  14.880  1.2888 -2.7505 -1.9303
  657TMC3    H1 9782   4.522   2.928  14.561 -3.5847  0.7727  2.3404
  657TMC3    H2 9783   4.590   3.282  14.771 -0.5399 -0.2962  0.9682
  657TMC3    C7 9784   4.442   3.174  14.604 -0.5203  0.1245 -0.0292
  657TMC3    C8 9785   4.725   3.171  14.980  0.7392  0.3652 -0.0960
  657TMC3    O1 9786   4.413   3.147  14.488  0.2566 -0.2475  0.3162
  657TMC3    O2 9787   4.716   3.296  14.997 -0.7549 -0.2568  0.2755
  658MPD2     C 9788   1.731   3.429  14.868  0.1460 -0.3774 -0.5670
  658MPD2    C1 9789   1.591   3.444  14.866  0.8661 -0.0543  0.3349
  658MPD2    C2 9790   1.548   3.572  14.832 -0.0854  0.4226 -0.3620
  658MPD2    C3 9791   1.630   3.671  14.788  0.5833  0.4779 -0.4386
  658MPD2    C4 9792   1.762   3.646  14.772  0.6728 -0.1556 -0.0558
  658MPD2    C5 9793   1.814   3.529  14.821  0.4778  0.0106  0.7155
  658MPD2     H 9794   1.442   3.596  14.840 -0.6979 -2.3107 -0.4039
  658MPD2    H1 9795   1.831   3.719  14.731  2.3596  0.3657  3.6310
  658MPD2    H2 9796   1.767   3.335  14.907 -2.4706 -1.0545  0.1958
  658MPD2    H3 9797   1.921   3.512  14.818  0.4334  0.1812 -1.7147
  658MPD2     N 9798   1.577   3.798  14.757 -0.6444  1.0045  0.1494
  658MPD2    H5 9799   1.482   3.812  14.789 -1.3095 -0.5602 -1.1455
  658MPD2    N1 9800   1.506   3.339  14.902  0.3713  0.9933  0.2819
  658MPD2    H7 9801   1.551   3.250  14.923 -1.4926  0.3196  1.3963
  659TMC3    C1 9802   1.319   3.217  14.964 -0.4792 -0.1558  0.8005
  659TMC3    C2 9803   1.360   3.208  15.097  0.5548  0.0160  0.1060
  659TMC3    C3 9804   1.291   3.115  15.170  0.2148 -1.0810  0.2971
  659TMC3    C4 9805   1.212   3.153  14.911 -0.1267  0.1251  0.3246
  659TMC3    C5 9806   1.136   3.073  14.994 -0.0660  0.1970 -0.0008
  659TMC3    C6 9807   1.184   3.044  15.118  0.6098  0.4251 -0.5471
  659TMC3     C 9808   1.371   3.337  14.892 -0.3337 -0.1672  0.4570
  659TMC3     O 9809   1.300   3.411  14.828 -1.0176  0.0787  0.1921
  659TMC3     H 9810   1.448   3.258  15.135  1.6576 -2.0277  0.2799
  659TMC3    H1 9811   1.192   3.172  14.806 -1.3125  1.7167  0.8406
  659TMC3    H2 9812   1.125   2.979  15.181  1.0634  1.8163  1.3349
  659TMC3    C7 9813   1.006   3.133  15.001  0.1276  0.2096  1.4417
  659TMC3    C8 9814   1.283   3.124  15.316 -0.0721  0.3887 -0.5151
  659TMC3    O1 9815   0.971   3.144  15.121  0.1206 -0.0284  0.6391
  659TMC3    O2 9816   1.240   3.022  15.367 -0.2450  0.1568 -0.1994
  660MPD2     C 9817   3.646   2.569  12.773  0.0355  1.0208 -0.1917
  660MPD2    C1 9818   3.644   2.438  12.728  0.4292  0.3316 -0.2344
  660MPD2    C2 9819   3.597   2.344  12.817 -0.3254  0.2301  0.8113
  660MPD2    C3 9820   3.546   2.365  12.942 -0.1895 -0.5211  0.3491
  660MPD2    C4 9821   3.569   2.489  12.990 -0.4164  0.4851 -0.5265
  660MPD2    C5 9822   3.615   2.591  12.909  0.0890  0.1691  0.2888
  660MPD2     H 9823   3.595   2.247  12.767  1.5066  0.8259 -0.4415
  660MPD2    H1 9824   3.545   2.518  13.091 -0.6145 -1.1094 -0.1231
  660MPD2    H2 9825   3.684   2.648  12.708  0.0723  0.0164 -1.4098
  660MPD2    H3 9826   3.612   2.690  12.951 -1.3435  0.9147 -1.5717
  660MPD2     N 9827   3.490   2.265  13.025  0.0687  0.7610  0.1789
  660MPD2    H5 9828   3.445   2.286  13.114 -2.8543 -0.2357 -1.0518
  660MPD2    N1 9829   3.687   2.418  12.595  0.1724  0.7778 -0.2455
  660MPD2    H7 9830   3.705   2.497  12.534  2.7078  1.0876  0.9224
  661TMC3    C1 9831   3.732   2.313  12.402  0.3727 -0.6234 -0.1962
  661TMC3    C2 9832   3.842   2.254  12.332 -0.7295 -0.2624 -0.0409
  661TMC3    C3 9833   3.821   2.222  12.199 -0.0272  0.2156 -0.0045
  661TMC3    C4 9834   3.613   2.342  12.346 -0.1211  0.2620  0.1114
  661TMC3    C5 9835   3.597   2.294  12.214 -0.2592 -0.3548  0.6227
  661TMC3    C6 9836   3.694   2.236  12.139 -0.2438 -0.4241  0.3049
  661TMC3     C 9837   3.719   2.298  12.543  0.3087  0.1998 -0.0631
  661TMC3     O 9838   3.759   2.197  12.598  0.0223 -0.0561 -0.0217
  661TMC3     H 9839   3.927   2.218  12.388  0.2575  0.2094 -1.2375
  661TMC3    H1 9840   3.532   2.383  12.405 -0.9048 -0.6925 -0.3121
  661TMC3    H2 9841   3.682   2.204  12.036  0.3217 -0.1406  0.1475
  661TMC3    C7 9842   3.455   2.277  12.177  0.2581  0.3808 -0.0336
  661TMC3    C8 9843   3.935   2.183  12.115 -0.5797  0.0349 -0.6312
  661TMC3    O1 9844   3.368   2.321  12.250 -0.1538  0.2720  0.3567
  661TMC3    O2 9845   4.035   2.154  12.183 -0.0661  0.3747  0.1502
  662MPD2     C 9846   4.123   2.172  17.265 -0.2039 -0.4540 -0.2317
  662MPD2    C1 9847   4.049   2.219  17.163  0.7030  0.6489 -0.7221
  662MPD2    C2 9848   3.982   2.337  17.180 -0.1054  0.4476  0.2396
  662MPD2    C3 9849   3.996   2.405  17.299  0.6689 -0.0917 -0.6315
  662MPD2    C4 9850   4.078   2.363  17.401 -1.2520 -0.4820 -0.3313
  662MPD2    C5 9851   4.146   2.249  17.377  0.4352  0.1290 -0.5006
  662MPD2     H 9852   3.924   2.381  17.100  0.1212  1.1236  0.4463
  662MPD2    H1 9853   4.089   2.406  17.500 -0.2319 -0.2890 -0.5280
  662MPD2    H2 9854   4.172   2.076  17.251  1.0046  0.3234 -1.3643
  662MPD2    H3 9855   4.218   2.219  17.453  0.5767  1.7354 -0.0181
  662MPD2     N 9856   3.905   2.510  17.330 -0.4145  0.3664  0.1711
  662MPD2    H5 9857   3.888   2.541  17.425 -0.0662  1.8409 -0.2499
  662MPD2    N1 9858   4.025   2.144  17.044  0.0435  0.2064 -0.5136
  662MPD2    H7 9859   3.954   2.175  16.978 -1.5402 -0.9020  0.6985
  663TMC3    C1 9860   4.008   1.966  16.900 -0.3000 -0.8156 -0.4094
  663TMC3    C2 9861   3.878   1.970  16.917 -0.0203  0.9053 -0.7092
  663TMC3    C3 9862   3.795   1.878  16.852 -0.0315 -0.1415 -0.2339
  663TMC3    C4 9863   4.069   1.888  16.800  0.7739 -0.9934 -0.2985
  663TMC3    C5 9864   3.983   1.802  16.736 -0.7249 -0.3841 -0.8151
  663TMC3    C6 9865   3.846   1.808  16.748  0.1729 -0.0462  0.4404
  663TMC3     C 9866   4.085   2.031  17.001 -0.1145  0.0942 -0.2320
  663TMC3     O 9867   4.197   1.989  17.032 -0.2046 -0.1257  0.0927
  663TMC3     H 9868   3.848   2.001  17.016  0.4312  0.5299 -0.4521
  663TMC3    H1 9869   4.176   1.872  16.801  0.9216 -0.1199 -1.9353
  663TMC3    H2 9870   3.780   1.736  16.700  1.3296  0.1801 -1.4898
  663TMC3    C7 9871   4.045   1.679  16.681  0.1144  0.7703  0.5766
  663TMC3    C8 9872   3.741   1.788  16.952  0.4105 -0.5062 -0.5769
  663TMC3    O1 9873   4.106   1.690  16.577  0.0894  0.2254  0.1672
  663TMC3    O2 9874   3.755   1.672  16.922  0.0022  0.3168 -0.4578
  664MPD2     C 9875   1.722   0.066  17.427 -0.5396 -0.0627 -0.7631
  664MPD2    C1 9876   1.720   0.205  17.434 -0.0637  0.0176 -0.6675
  664MPD2    C2 9877   1.636   0.262  17.531 -0.0768 -0.8211  0.5268
  664MPD2    C3 9878   1.551   0.178  17.613  0.0234  1.0338  0.5714
  664MPD2    C4 9879   1.555   0.042  17.593 -0.2803  0.6355  0.2960
  664MPD2    C5 9880   1.642   4.726  17.501  0.2124 -0.0812 -0.4254
  664MPD2     H 9881   1.620   0.369  17.539  0.0285 -0.6361 -1.7186
  664MPD2    H1 9882   1.494   4.702  17.637  0.0001  0.6691  0.7401
  664MPD2    H2 9883   1.789   0.021  17.354 -1.5804 -1.3687 -0.9123
  664MPD2    H3 9884   1.640   4.619  17.484 -1.0454 -0.0677 -0.3919
  664MPD2     N 9885   1.473   0.241  17.711  0.6901  0.6903 -0.0384
  664MPD2    H5 9886   1.494   0.340  17.711 -1.1273  1.0547  2.2923
  664MPD2    N1 9887   1.797   0.290  17.354  0.3954 -0.2439  0.2626
  664MPD2    H7 9888   1.790   0.388  17.378  2.3952  0.5493 -2.4967
  665TMC3    C1 9889   1.384   0.285   0.177  0.1671  0.0820  0.0943
  665TMC3    C2 9890   1.401   0.255   0.311 -0.0719 -0.2107 -0.4450
  665TMC3    C3 9891   1.415   0.357   0.399 -0.4384  0.4701 -0.1637
  665TMC3    C4 9892   1.362   0.417   0.139  0.8815 -1.0976  0.7961
  665TMC3    C5 9893   1.378   0.509   0.230 -0.4007  0.2578  0.2059
  665TMC3    C6 9894   1.414   0.489   0.362 -0.0142  0.2072 -0.5801
  665TMC3     C 9895   1.422   0.181   0.079  0.0920 -0.0008 -0.1202
  665TMC3     O 9896   1.423   0.061   0.103 -0.1370 -0.3256  0.3916
  665TMC3     H 9897   1.417   0.152   0.341  2.4608  0.0740 -0.7939
  665TMC3    H1 9898   1.334   0.440   0.037 -1.2679 -0.9562  1.4317
  665TMC3    H2 9899   1.419   0.572   0.431 -1.3325  0.8232 -1.2251
  665TMC3    C7 9900   1.342   0.642   0.182 -0.0276  0.0426  0.6623
  665TMC3    C8 9901   1.479   0.348   0.527  0.4194 -0.5184 -0.3536
  665TMC3    O1 9902   1.265   0.647   0.087 -0.2158  0.1366  0.2781
  665TMC3    O2 9903   1.538   0.450   0.567 -0.3490 -0.0923 -0.2646
  666TMC3    C1 9904   1.915   0.436   9.748  0.2738 -0.4699  0.0808
  666TMC3    C2 9905   1.929   0.305   9.795 -0.3731 -0.5293 -0.3648
  666TMC3    C3 9906   2.029   0.287   9.886 -0.0933  0.2338  0.0729
  666TMC3    C4 9907   1.972   0.545   9.813 -0.0274  0.0610  0.1713
  666TMC3    C5 9908   2.063   0.518   9.903 -0.1774  0.3544  0.1736
  666TMC3    C6 9909   2.101   0.390   9.939 -0.4615 -0.3220 -0.2859
  666TMC3     C 9910   1.781   0.469   9.705 -0.6316 -0.0955 -0.1534
  666TMC3     O 9911   1.782   0.578   9.650 -0.5894  0.4109 -0.1361
  666TMC3     H 9912   1.882   0.227   9.736  0.0206  0.0554 -1.4501
  666TMC3    H1 9913   1.940   0.648   9.796 -0.7836  0.3737  3.5390
  666TMC3    H2 9914   2.164   0.375  10.026 -1.0263  1.3290  0.3987
  666TMC3    C7 9915   2.094   0.623   9.996  0.7293  0.0749 -0.2457
  666TMC3    C8 9916   2.048   0.149   9.938 -0.2341 -0.2641 -0.1457
  666TMC3    O1 9917   2.207   0.675   9.993  0.2047  0.1293  0.2859
  666TMC3    O2 9918   1.957   0.066   9.914 -0.8419  0.3830  0.3774
  667MPD2     C 9919   3.099   4.520  14.900 -0.5751  0.7687 -0.0665
  667MPD2    C1 9920   3.068   4.640  14.964  0.6365  0.0292  0.2040
  667MPD2    C2 9921   2.949   4.671  15.027 -0.3878  0.0742  0.1089
  667MPD2    C3 9922   2.853   4.571  15.023  0.0428  0.0035  0.0732
  667MPD2    C4 9923   2.873   4.461  14.937 -0.6363 -0.4891  0.4017
  667MPD2    C5 9924   3.002   4.427  14.884  0.1606  0.5825 -0.3639
  667MPD2     H 9925   2.934   0.029  15.076 -0.0133 -0.5281  1.3939
  667MPD2    H1 9926   2.803   4.379  14.924  1.3278 -2.2719  0.9995
  667MPD2    H2 9927   3.202   4.502  14.872 -1.1927 -1.5615 -0.8051
  667MPD2    H3 9928   3.021   4.329  14.841  2.3430  0.5085  0.7770
  667MPD2     N 9929   2.729   4.588  15.089  0.1495  0.2444  0.3534
  667MPD2    H5 9930   2.650   4.531  15.059  0.8957 -0.8484  0.4536
  667MPD2    N1 9931   3.169   0.002  14.991 -0.0427  0.1597  0.6204
  667MPD2    H7 9932   3.148   0.072  15.061  0.4817  1.6209 -0.6950
  668TMC3    C1 9933   3.375   0.097  15.016 -0.3469 -0.0837 -0.2398
  668TMC3    C2 9934   3.491   0.161  14.955 -0.3523 -0.4393 -0.6128
  668TMC3    C3 9935   3.579   0.223  15.041 -0.7578 -0.1150  0.0660
  668TMC3    C4 9936   3.344   0.112  15.149 -0.0346 -0.1749  0.0393
  668TMC3    C5 9937   3.436   0.171  15.227  0.3319 -0.6536 -0.1075
  668TMC3    C6 9938   3.559   0.216  15.177  0.1539  0.2937 -0.1995
  668TMC3     C 9939   3.299   0.002  14.944 -0.6707  0.0571 -0.2848
  668TMC3     O 9940   3.343   4.696  14.835  0.5608 -1.0044 -0.0013
  668TMC3     H 9941   3.514   0.163  14.850  1.6201 -1.2803 -0.1874
  668TMC3    H1 9942   3.250   0.083  15.195  0.5650 -2.7792 -0.3647
  668TMC3    H2 9943   3.630   0.264  15.245 -0.6197  1.3855 -0.1710
  668TMC3    C7 9944   3.396   0.214  15.362 -0.2547 -0.3469 -0.1389
  668TMC3    C8 9945   3.714   0.259  14.998  0.2125 -0.2955 -0.0992
  668TMC3    O1 9946   3.487   0.257  15.429 -0.3615 -0.2641 -0.2053
  668TMC3    O2 9947   3.798   0.245  15.083  0.6069 -0.1030 -0.3771
  669TMC3    C1 9948   0.938   0.341  14.556 -0.6141 -0.2458 -0.7464
  669TMC3    C2 9949   0.817   0.320  14.486  0.4243  0.1210  0.3631
  669TMC3    C3 9950   0.807   0.364  14.357 -0.9093  0.2742  1.2159
  669TMC3    C4 9951   1.038   0.415  14.509  0.2193 -0.8961 -0.4920
  669TMC3    C5 9952   1.025   0.463  14.381  0.4695 -0.1172 -0.2518
  669TMC3    C6 9953   0.916   0.429  14.295  0.5873 -0.5723  0.4255
  669TMC3     C 9954   0.958   0.288  14.687  0.3794 -0.3027 -0.8594
  669TMC3     O 9955   0.869   0.304  14.766 -0.4519 -0.0400 -0.1480
  669TMC3     H 9956   0.747   0.250  14.532  0.3856  1.0556  1.7184
  669TMC3    H1 9957   1.110   0.469  14.569 -0.2181 -0.7028 -0.1407
  669TMC3    H2 9958   0.921   0.446  14.188  1.6047 -3.4666  0.0181
  669TMC3    C7 9959   1.141   0.525  14.329 -0.0374  0.3025 -0.0004
  669TMC3    C8 9960   0.686   0.317  14.280 -0.2990  0.1131  0.6625
  669TMC3    O1 9961   1.202   0.603  14.403 -0.1116  0.2027  0.2967
  669TMC3    O2 9962   0.625   0.231  14.335 -0.7764 -0.0699  0.1462
  670MPD2     C 9963   3.793   2.606  13.322  0.1076  0.6134 -0.3978
  670MPD2    C1 9964   3.897   2.672  13.380 -1.2967  1.0589  0.1588
  670MPD2    C2 9965   3.913   2.662  13.518 -0.1857  0.1297  0.4810
  670MPD2    C3 9966   3.838   2.576  13.596  0.0613 -0.3854 -0.1237
  670MPD2    C4 9967   3.730   2.513  13.536 -0.0179 -0.8568 -0.8768
  670MPD2    C5 9968   3.710   2.524  13.398  0.2118 -0.4524 -0.0672
  670MPD2     H 9969   3.993   2.708  13.574 -0.4249 -0.6126  1.4471
  670MPD2    H1 9970   3.663   2.453  13.596  0.3930 -0.2105  0.2323
  670MPD2    H2 9971   3.782   2.606  13.214  0.0136 -0.2723 -0.3881
  670MPD2    H3 9972   3.627   2.472  13.350  0.9830  0.1080 -2.0085
  670MPD2     N 9973   3.869   2.552  13.732 -0.5804 -0.0074 -0.1370
  670MPD2    H5 9974   3.929   2.624  13.771 -2.1397  1.0731  0.2850
  670MPD2    N1 9975   3.981   2.757  13.308 -0.1958 -0.6129 -0.3000
  670MPD2    H7 9976   4.050   2.809  13.360 -0.7703  1.0547 -1.2153
  671TMC3    C1 9977   3.857   2.500  13.960 -1.0586  0.0920  0.5756
  671TMC3    C2 9978   3.988   2.513  13.980 -0.2058  0.3857 -0.2626
  671TMC3    C3 9979   4.048   2.468  14.096 -0.2785 -1.0431  0.0437
  671TMC3    C4 9980   3.773   2.455  14.061  0.7434 -0.3581  0.3467
  671TMC3    C5 9981   3.831   2.412  14.178 -0.1466  0.0146 -0.4353
  671TMC3    C6 9982   3.968   2.419  14.189  0.0411  0.8015  0.3157
  671TMC3     C 9983   3.803   2.478  13.829 -0.3224  0.9311 -0.4124
  671TMC3     O 9984   3.702   2.407  13.812 -0.0768  0.0721 -0.0711
  671TMC3     H 9985   4.054   2.518  13.894 -0.2222  0.5502 -0.2665
  671TMC3    H1 9986   3.671   2.431  14.031  0.9676  0.2491 -0.8911
  671TMC3    H2 9987   4.014   2.372  14.275  0.7081  0.9123  0.0196
  671TMC3    C7 9988   3.775   2.296  14.237  0.4322 -0.7162  0.1461
  671TMC3    C8 9989   4.176   2.393  14.070  0.3099  0.5318 -0.5033
  671TMC3    O1 9990   3.841   2.200  14.267 -0.4170  0.6454  0.1441
  671TMC3    O2 9991   4.171   2.282  14.118  0.4134 -0.5062  0.2345
  672MPD2     C 9992   4.283   3.890   0.467  0.0056 -0.2616  0.8940
  672MPD2    C1 9993   4.350   3.779   0.434 -0.2235 -0.3087  1.0406
  672MPD2    C2 9994   4.483   3.779   0.467  0.4857 -0.0471 -0.1630
  672MPD2    C3 9995   4.550   3.886   0.521 -0.4553  0.2482 -0.6299
  672MPD2    C4 9996   4.471   3.994   0.557 -0.6604 -0.3758  1.3022
  672MPD2    C5 9997   4.338   3.999   0.527 -0.7794 -0.3705  0.2365
  672MPD2     H 9998   4.540   3.699   0.422  0.4367 -0.6396  0.8175
  672MPD2    H1 9999   4.519   4.076   0.609  0.8876  1.4588 -3.0472
  672MPD2    H210000   4.176   3.897   0.451  0.5472  1.1838 -2.0797
  672MPD2    H310001   4.288   4.095   0.537 -1.0743 -0.3721 -1.1714
  672MPD2     N10002   4.688   3.890   0.527 -0.2776  0.1574 -0.9725
  672MPD2    H510003   4.722   3.977   0.567 -1.2120  1.4957 -3.1060
  672MPD2    N110004   4.302   3.668   0.366  0.2675  0.5654 -0.1364
  672MPD2    H710005   4.357   3.582   0.357 -1.6228 -0.8685  2.0349
  673TMC3    C110006   4.132   3.533   0.263 -0.5908  0.3954  0.0583
  673TMC3    C210007   4.186   3.407   0.293  0.3231  0.2865 -0.5917
  673TMC3    C310008   4.121   3.292   0.262 -0.3650 -0.7078 -0.5990
  673TMC3    C410009   4.008   3.543   0.212 -0.0403  0.3172  0.5527
  673TMC3    C510010   3.943   3.423   0.190  0.5348  0.3717 -0.1211
  673TMC3    C610011   3.991   3.293   0.213 -0.5417  0.9337 -0.2577
  673TMC3     C10012   4.178   3.666   0.309 -0.2207  0.5862  0.6285
  673TMC3     O10013   4.093   3.751   0.313 -0.7386  0.3425 -0.0790
  673TMC3     H10014   4.287   3.397   0.331  0.1723 -0.7102 -0.4596
  673TMC3    H110015   3.969   3.638   0.179 -1.9291  0.0399  1.9780
  673TMC3    H210016   3.930   3.203   0.205 -0.1215  0.6134  0.1058
  673TMC3    C710017   3.831   3.420   0.098  0.2542  0.2766 -0.3274
  673TMC3    C810018   4.190   3.161   0.253 -0.4556 -0.0961 -0.5545
  673TMC3    O110019   3.811   3.310   0.054 -0.0899  0.1114  0.0017
  673TMC3    O210020   4.151   3.086   0.168 -1.4813  0.3942  0.4481
  674MPD2     C10021   3.814   3.723  17.122  0.1228  0.8088  0.0368
  674MPD2    C110022   3.766   3.609  17.183 -1.2415 -0.0665 -0.1828
  674MPD2    C210023   3.627   3.590  17.173  0.0012 -0.0677 -0.7098
  674MPD2    C310024   3.541   3.690  17.125  0.1369  0.1215  0.2973
  674MPD2    C410025   3.599   3.809  17.078  0.4528  0.3062 -0.0631
  674MPD2    C510026   3.734   3.818  17.073  0.4646  0.9616  0.8907
  674MPD2     H10027   3.581   3.497  17.205 -3.2728  1.7352 -0.1102
  674MPD2    H110028   3.538   3.895  17.054 -1.5277 -1.5499 -1.6829
  674MPD2    H210029   3.921   3.728  17.107  0.5792 -3.3736  1.9045
  674MPD2    H310030   3.782   3.907  17.035 -0.2794  1.7309  1.7779
  674MPD2     N10031   3.401   3.667  17.143  0.1673 -0.2943 -0.6972
  674MPD2    H510032   3.367   3.575  17.167 -1.3627  0.7073  0.9755
  674MPD2    N110033   3.845   3.514  17.246 -0.0094  0.1722 -0.5091
  674MPD2    H710034   3.943   3.530  17.265  0.2502 -1.6951 -0.2653
  675TMC3    C110035   3.896   3.313  17.369 -0.4227  0.1568 -0.1806
  675TMC3    C210036   3.870   3.177  17.395 -0.4425  0.8025 -0.2365
  675TMC3    C310037   3.911   3.131  17.516  0.5092  0.9142 -0.2877
  675TMC3    C410038   3.974   3.392  17.456  0.0112 -0.3823  0.4922
  675TMC3    C510039   4.018   3.335  17.569  0.8327 -0.0776  0.2127
  675TMC3    C610040   3.992   3.205  17.600  0.3355 -0.4416  0.1155
  675TMC3     C10041   3.813   3.383  17.284  0.1217  0.0993  0.1592
  675TMC3     O10042   3.711   3.322  17.261  0.1680  0.3556 -0.3379
  675TMC3     H10043   3.805   3.114  17.335  0.3955 -0.9809  0.7410
  675TMC3    H110044   4.006   3.493  17.432  1.5308 -1.6347 -2.7247
  675TMC3    H210045   4.017   3.163  17.697 -1.1163 -1.0842  0.2050
  675TMC3    C710046   4.140   3.376  17.633 -0.2140  0.4261 -0.2197
  675TMC3    C810047   3.844   3.018  17.568  0.0178 -0.2642 -0.2255
  675TMC3    O110048   4.206   3.287  17.686  0.4984 -0.0240  0.0176
  675TMC3    O210049   3.828   2.930  17.486  0.3269 -0.1530  0.5177
  676MPD2     C10050   2.450   0.857  11.035 -0.7800 -0.3310 -0.5791
  676MPD2    C110051   2.327   0.813  11.067 -0.2482  0.3079 -0.3755
  676MPD2    C210052   2.300   0.677  11.086 -1.1088 -0.5243  0.1758
  676MPD2    C310053   2.407   0.585  11.075  0.0535 -0.6286  0.6838
  676MPD2    C410054   2.537   0.636  11.056  0.9149 -0.3547 -0.4578
  676MPD2    C510055   2.555   0.769  11.045  1.1758  0.2751 -0.5295
  676MPD2     H10056   2.198   0.642  11.090 -1.4320  0.5289  1.2296
  676MPD2    H110057   2.622   0.569  11.057  1.8232  0.8205  0.4109
  676MPD2    H210058   2.474   0.962  11.026  0.3362 -0.6072 -0.8699
  676MPD2    H310059   2.656   0.807  11.041  1.0711  0.4101 -1.7834
  676MPD2     N10060   2.385   0.450  11.083  0.4377  0.0246 -0.5123
  676MPD2    H510061   2.469   0.394  11.072  0.3115 -0.3531  0.4724
  676MPD2    N110062   2.211   0.901  11.076  0.4066  0.6213  0.6901
  676MPD2    H710063   2.120   0.859  11.094  0.2568  1.2240  1.3505
  677TMC3    C110064   2.093   1.079  11.134 -0.4522 -0.5520  1.1788
  677TMC3    C210065   1.976   1.025  11.097 -0.4547 -0.4242 -0.8634
  677TMC3    C310066   1.868   1.056  11.178  0.1854 -0.0093  0.3225
  677TMC3    C410067   2.112   1.179  11.216 -0.8369 -0.0130  0.2065
  677TMC3    C510068   1.997   1.215  11.283 -0.0807 -0.6190  0.0295
  677TMC3    C610069   1.873   1.164  11.263  0.4401 -0.1921 -0.3532
  677TMC3     C10070   2.218   1.035  11.084 -0.3813 -0.8687 -0.4363
  677TMC3     O10071   2.316   1.108  11.086 -0.0974  0.4184  0.5964
  677TMC3     H10072   1.973   0.947  11.022  1.7793 -2.5415  1.2752
  677TMC3    H110073   2.208   1.209  11.257 -0.5590  2.0639 -1.9524
  677TMC3    H210074   1.791   1.193  11.328 -1.0331 -0.2771 -2.1669
  677TMC3    C710075   2.004   1.316  11.377  0.3223  0.2800 -0.6646
  677TMC3    C810076   1.754   0.973  11.162 -0.4913 -0.3233 -0.3192
  677TMC3    O110077   1.925   1.307  11.466  0.3215  0.1592 -0.1758
  677TMC3    O210078   1.705   0.965  11.054  0.0201 -0.2216 -0.0487
  678MPD2     C10079   2.801   1.045   0.833 -1.2162 -0.1163 -0.2647
  678MPD2    C110080   2.847   1.142   0.743  0.4912 -1.0111 -1.0079
  678MPD2    C210081   2.761   1.217   0.663  0.0622  0.1406 -0.3506
  678MPD2    C310082   2.631   1.180   0.667 -0.3689 -0.4084 -0.3287
  678MPD2    C410083   2.584   1.083   0.750  0.7050  0.6290  0.7284
  678MPD2    C510084   2.667   1.015   0.834  0.1083 -0.1187 -0.0827
  678MPD2     H10085   2.791   1.293   0.592  1.5535 -1.6123 -1.5740
  678MPD2    H110086   2.481   1.050   0.751  1.8581 -2.9692 -0.8925
  678MPD2    H210087   2.869   0.990   0.898 -1.4883  1.7984  1.6844
  678MPD2    H310088   2.623   0.948   0.907  1.0898 -0.6373  0.0348
  678MPD2     N10089   2.545   1.250   0.583 -0.6226 -0.0770  0.5146
  678MPD2    H510090   2.587   1.335   0.546 -1.8664  0.9237  1.3979
  678MPD2    N110091   2.985   1.167   0.723  0.0209  0.1507  0.1873
  678MPD2    H710092   3.007   1.246   0.664 -1.5530  0.1725 -0.3726
  679TMC3    C110093   3.423   1.097   0.641  0.1814 -0.4495 -0.3861
  679TMC3    C210094   3.319   1.064   0.731 -0.2089 -0.6801 -0.5432
  679TMC3    C310095   3.216   1.160   0.733  0.0677  0.2945 -0.2098
  679TMC3    C410096   3.443   1.217   0.583  0.0363  0.1209 -0.1731
  679TMC3    C510097   3.337   1.304   0.603 -0.7278  0.0478  0.1325
  679TMC3    C610098   3.224   1.279   0.672  0.7384 -0.6907  0.4464
  679TMC3     C10099   3.521   1.003   0.607  0.0801  0.1964  1.0018
  679TMC3     O10100   3.579   1.017   0.499 -0.4315  0.5455  0.0440
  679TMC3     H10101   3.304   0.964   0.769  0.9372 -0.5304  0.2959
  679TMC3    H110102   3.529   1.245   0.524  1.9354 -2.4408  1.3925
  679TMC3    H210103   3.140   1.346   0.678  0.1311 -1.4246  0.1324
  679TMC3    C710104   3.351   1.439   0.552 -0.8350  0.1875 -0.3991
  679TMC3    C810105   3.094   1.107   0.789 -0.1698  0.1204  0.3032
  679TMC3    O110106   3.252   1.501   0.526  0.6122 -0.4337  0.7187
  679TMC3    O210107   3.101   1.017   0.873  0.5229 -0.7186 -0.1263
  680MPD2     C10108   3.676   4.447  13.364  0.3967 -0.6659 -0.3031
  680MPD2    C110109   3.738   4.382  13.469  0.2862  0.2095  0.3061
  680MPD2    C210110   3.814   4.456  13.563  0.1646 -0.2240 -0.2930
  680MPD2    C310111   3.818   4.592  13.559 -0.1674 -0.3689 -0.0261
  680MPD2    C410112   3.757   4.661  13.456  0.0156 -0.2752 -0.4791
  680MPD2    C510113   3.687   4.583  13.363 -0.4209 -0.1086  0.1470
  680MPD2     H10114   3.861   4.406  13.646  1.4506 -0.6373 -1.2598
  680MPD2    H110115   3.764   0.030  13.435  0.7522 -0.4116 -0.9282
  680MPD2    H210116   3.625   4.403  13.279 -0.1142  0.9544 -0.8311
  680MPD2    H310117   3.644   4.639  13.280 -2.8162 -0.4545  1.1654
  680MPD2     N10118   3.888   4.670  13.649 -0.2556 -0.1622  0.3292
  680MPD2    H510119   3.872   0.033  13.636 -1.0243 -0.8176 -3.6335
  680MPD2    N110120   3.717   4.245  13.490  0.1545 -0.4710  0.3279
  680MPD2    H710121   3.753   4.205  13.577 -0.8809 -2.5219 -0.1878
  681TMC3    C110122   3.645   4.032  13.476  0.2282 -0.1211 -0.3540
  681TMC3    C210123   3.531   3.963  13.497 -0.2106  0.3315 -0.4891
  681TMC3    C310124   3.535   3.846  13.561 -0.1074 -0.0342  0.7570
  681TMC3    C410125   3.770   3.983  13.506  0.5594 -0.0244  0.4065
  681TMC3    C510126   3.777   3.859  13.556  0.0462  0.0736 -0.0827
  681TMC3    C610127   3.659   3.794  13.596  0.1219  0.5583  0.0071
  681TMC3     C10128   3.626   4.164  13.429 -0.5343 -0.1848 -0.0859
  681TMC3     O10129   3.533   4.190  13.354 -0.2425  0.5401 -0.1307
  681TMC3     H10130   3.438   4.011  13.470 -0.3471 -0.1964 -0.9556
  681TMC3    H110131   3.854   4.031  13.458  0.6849 -1.1552 -0.4909
  681TMC3    H210132   3.664   3.692  13.633 -0.9345  1.5521  2.8298
  681TMC3    C710133   3.873   3.762  13.509 -0.3523 -0.2257  0.2081
  681TMC3    C810134   3.430   3.827  13.654  0.4107 -1.1383 -0.7897
  681TMC3    O110135   3.838   3.647  13.480  0.1146 -0.4042 -0.4265
  681TMC3    O210136   3.313   3.857  13.615 -0.2248 -0.1139  0.1849
  682MPD2     C10137   1.070   1.485  10.634  0.6230 -0.7662 -0.7397
  682MPD2    C110138   1.050   1.353  10.662  0.5944 -0.2444  0.4762
  682MPD2    C210139   0.950   1.316  10.753  0.0274  0.0857 -0.5158
  682MPD2    C310140   0.864   1.408  10.805  0.5675  0.3807 -0.2183
  682MPD2    C410141   0.887   1.543  10.774 -0.0241 -0.2982  0.2039
  682MPD2    C510142   0.992   1.582  10.691  0.2011 -0.3402  0.6399
  682MPD2     H10143   0.937   1.211  10.773 -0.0072 -0.2524 -2.3391
  682MPD2    H110144   0.820   1.619  10.811  0.6483  1.4725 -2.2258
  682MPD2    H210145   1.133   1.512  10.550 -0.5234  1.0511 -1.0299
  682MPD2    H310146   0.991   1.689  10.669 -0.1272 -0.4167  0.2837
  682MPD2     N10147   0.768   1.373  10.903  0.4680  0.2222 -0.3272
  682MPD2    H510148   0.717   1.443  10.955 -0.1744 -1.0051  0.6822
  682MPD2    N110149   1.122   1.246  10.612  0.1885  0.2145 -0.0917
  682MPD2    H710150   1.085   1.154  10.634 -1.7237  0.4155 -2.4775
  683TMC3    C110151   0.648   1.278  11.296  0.0486 -0.0247 -0.3144
  683TMC3    C210152   0.571   1.168  11.315  0.8199  0.3450 -0.0183
  683TMC3    C310153   0.538   1.102  11.203 -0.2980  0.9729 -0.3121
  683TMC3    C410154   0.694   1.319  11.177  0.3238 -0.5032  0.1237
  683TMC3    C510155   0.650   1.244  11.061  0.2958  0.3222 -0.7078
  683TMC3    C610156   0.578   1.135  11.079  0.2015  0.2314 -0.4728
  683TMC3     C10157   0.711   1.343  11.407 -0.2775  0.6504  0.3202
  683TMC3     O10158   0.728   1.462  11.394  0.3167 -0.1541 -0.4042
  683TMC3     H10159   0.550   1.130  11.415  0.7087  3.5050  1.1734
  683TMC3    H110160   0.782   1.381  11.169  0.9956 -1.2518  1.6235
  683TMC3    H210161   0.546   1.078  10.993  1.0069 -0.8094 -0.0905
  683TMC3    C710162   0.721   1.250  10.933  0.8491  0.3991  0.6925
  683TMC3    C810163   0.480   0.976  11.218 -0.6602 -0.6245 -0.0063
  683TMC3    O110164   0.736   1.142  10.877  0.3430  0.5967 -0.3117
  683TMC3    O210165   0.385   0.973  11.292 -0.1598 -0.3378 -0.1455
  684MPD2     C10166   4.016   0.793  16.561  0.3758  0.1079 -0.0391
  684MPD2    C110167   4.096   0.834  16.451 -0.2424  0.0523 -0.4702
  684MPD2    C210168   4.045   0.893  16.340  0.0206 -0.4876 -0.0050
  684MPD2    C310169   3.909   0.896  16.327  0.0572 -0.4535 -0.1496
  684MPD2    C410170   3.830   0.860  16.435  0.0216  0.3535 -0.4140
  684MPD2    C510171   3.887   0.801  16.541 -0.0384  0.1424 -0.2905
  684MPD2     H10172   4.112   0.944  16.272 -1.3692  2.6888  1.0275
  684MPD2    H110173   3.723   0.875  16.438  0.1772  1.0033  2.2153
  684MPD2    H210174   4.058   0.761  16.656 -0.4923  2.2889  1.0797
  684MPD2    H310175   3.815   0.765  16.615 -0.2531  0.4485 -0.3502
  684MPD2     N10176   3.848   0.955  16.216 -0.4253 -0.5510  0.4793
  684MPD2    H510177   3.758   1.000  16.229 -0.7417 -0.7955 -0.8804
  684MPD2    N110178   4.236   0.813  16.452  0.5719  0.2390  0.1619
  684MPD2    H710179   4.281   0.823  16.362  1.2610 -1.6937  0.3040
  685TMC3    C110180   4.440   0.738  16.511  0.9768 -0.5011 -0.3104
  685TMC3    C210181   4.448   0.683  16.390  0.6964  0.3200  0.1980
  685TMC3    C310182   4.564   0.697  16.315  0.3883  0.5109 -0.0325
  685TMC3    C410183   4.551   0.797  16.567 -0.1812  0.1900 -0.4998
  685TMC3    C510184   4.667   0.810  16.501  0.0376  0.2786  0.5040
  685TMC3    C610185   4.679   0.753  16.374  0.5308 -0.1000  0.2164
  685TMC3     C10186   4.313   0.780  16.557  0.3896  0.4447 -0.6577
  685TMC3     O10187   4.292   0.776  16.677  0.9650  0.6668  0.3968
  685TMC3     H10188   4.353   0.642  16.357  1.2918 -1.3809  0.5837
  685TMC3    H110189   4.543   0.839  16.667 -0.9626  0.1834 -0.5652
  685TMC3    H210190   0.037   0.763  16.323 -0.0805  1.6537 -0.5687
  685TMC3    C710191   0.043   0.876  16.568  0.3712 -0.0854  0.1573
  685TMC3    C810192   4.571   0.639  16.184  0.9273  0.5319 -0.4129
  685TMC3    O110193   0.011   0.915  16.678 -0.7436 -0.3373 -0.0432
  685TMC3    O210194   4.675   0.635  16.122  0.2126 -0.0894  0.1173
  686MPD2     C10195   0.968   0.257  16.530 -0.3251  0.1721  1.1037
  686MPD2    C110196   0.858   0.333  16.539 -0.3817  0.3349  0.1270
  686MPD2    C210197   0.858   0.461  16.481 -0.0670 -0.2017  0.5803
  686MPD2    C310198   0.969   0.513  16.418 -0.1152 -0.3325 -0.3405
  686MPD2    C410199   1.083   0.436  16.415 -0.0534  0.4576 -0.3517
  686MPD2    C510200   1.072   0.310  16.463 -0.2089  0.0450 -0.4395
  686MPD2     H10201   0.762   0.512  16.473  0.8246  1.3510 -0.2135
  686MPD2    H110202   1.177   0.460  16.367 -0.1424  2.5683  0.5359
  686MPD2    H210203   0.974   0.153  16.558  1.1109 -0.6997 -2.4858
  686MPD2    H310204   1.158   0.246  16.446 -0.4134 -0.5403  0.6953
  686MPD2     N10205   0.973   0.630  16.341 -0.6190  0.2184 -0.4809
  686MPD2    H510206   1.061   0.657  16.298  0.9641 -0.1181  2.5217
  686MPD2    N110207   0.743   0.269  16.608 -0.2079  0.2875  0.4874
  686MPD2    H710208   0.749   0.168  16.623  0.0505  0.0840 -0.9521
  687TMC3    C110209   0.911   0.843  16.260 -0.4619  0.0759  0.2552
  687TMC3    C210210   1.019   0.841  16.181 -0.3553  0.1034  0.6200
  687TMC3    C310211   1.093   0.957  16.175 -0.1040 -0.0267  0.3349
  687TMC3    C410212   0.863   0.952  16.316 -0.6002 -0.4816  0.0018
  687TMC3    C510213   0.945   1.067  16.312 -0.2860  0.1848 -0.3880
  687TMC3    C610214   1.069   1.073  16.246  0.0653 -0.9629  1.2135
  687TMC3     C10215   0.866   0.721  16.329 -0.3346  0.4847 -0.8749
  687TMC3     O10216   0.763   0.718  16.395 -0.5106  0.4636  0.5371
  687TMC3     H10217   1.040   0.753  16.120  2.9989 -1.0012  3.3786
  687TMC3    H110218   0.782   0.942  16.387  0.7236 -1.1939  1.4270
  687TMC3    H210219   1.142   1.153  16.250 -3.4385  2.2249  1.2246
  687TMC3    C710220   0.942   1.131  16.441  0.6041  0.1233  0.4711
  687TMC3    C810221   1.157   0.992  16.048  0.2090 -1.1599  0.1114
  687TMC3    O110222   0.832   1.172  16.475  0.2753 -0.2346  0.2042
  687TMC3    O210223   1.244   1.077  16.041 -0.4445  0.4197 -0.7630
  688MPD2     C10224   4.647   4.184  16.935  0.6175  0.3613  0.0538
  688MPD2    C110225   4.657   4.049  16.955  0.2031 -0.0784 -0.3444
  688MPD2    C210226   0.030   3.979  16.912  0.2827  0.5214 -0.3621
  688MPD2    C310227   0.121   4.040  16.831 -0.2309 -0.8983 -1.0412
  688MPD2    C410228   0.109   4.177  16.807 -0.6135  0.1980 -0.1985
  688MPD2    C510229   0.011   4.250  16.862 -0.0833 -0.4139 -0.1170
  688MPD2     H10230   0.037   3.872  16.927 -2.2517  0.2257 -1.2732
  688MPD2    H110231   0.186   4.230  16.752 -0.7060 -0.1812 -0.6971
  688MPD2    H210232   4.576   4.247  16.988 -0.8289 -1.7964  0.7079
  688MPD2    H310233   0.019   4.358  16.861 -0.1141 -0.4157 -0.7069
  688MPD2     N10234   0.239   3.969  16.779  0.5744  0.2353  0.1929
  688MPD2    H510235   0.310   4.025  16.733 -1.8724  2.2025 -1.1254
  688MPD2    N110236   4.555   3.985  17.029 -0.1943  0.2242 -0.4313
  688MPD2    H710237   4.565   3.886  17.050  1.3460  0.4886  0.0433
  689TMC3    C110238   4.404   3.958  17.208 -0.3498 -0.6111  0.1576
  689TMC3    C210239   4.391   3.999  17.336 -0.1473  0.3446  0.7774
  689TMC3    C310240   4.288   3.951  17.412 -0.3475  0.4063 -0.5687
  689TMC3    C410241   4.330   3.854  17.157 -0.4506 -0.3795  0.2480
  689TMC3    C510242   4.239   3.798  17.245 -0.3463 -0.5066 -0.6128
  689TMC3    C610243   4.217   3.841  17.373  0.3573 -0.0014 -0.1070
  689TMC3     C10244   4.474   4.046  17.127 -0.3364  0.6246 -0.0936
  689TMC3     O10245   4.445   4.166  17.144 -0.0127 -0.8035 -0.1817
  689TMC3     H10246   4.442   4.091  17.364 -0.0981  1.0591 -1.5888
  689TMC3    H110247   4.357   3.798  17.068 -1.7480 -0.3714 -0.1483
  689TMC3    H210248   4.150   3.793  17.443 -1.6356  0.4963 -1.6527
  689TMC3    C710249   4.203   3.662  17.232  0.0461 -0.7881 -0.6656
  689TMC3    C810250   4.260   4.023  17.538  0.2313  0.1820  0.0975
  689TMC3    O110251   4.197   3.598  17.335  0.6900  0.1716  0.0500
  689TMC3    O210252   4.351   4.087  17.588 -0.4697  0.0853 -0.5094
  690MPD2     C10253   2.481   1.448  15.759  0.5244 -0.5472 -0.6044
  690MPD2    C110254   2.446   1.384  15.643  0.2119  0.4632  0.3194
  690MPD2    C210255   2.510   1.414  15.521  0.0032  0.6134  0.7120
  690MPD2    C310256   2.614   1.500  15.523  0.3715  0.2845 -0.2357
  690MPD2    C410257   2.653   1.555  15.638  0.2252  0.2262 -0.0416
  690MPD2    C510258   2.587   1.537  15.756 -0.0620  0.2147 -0.3687
  690MPD2     H10259   2.466   1.375  15.430  2.7803 -0.5635 -0.1438
  690MPD2    H110260   2.720   1.640  15.644  1.3723 -0.5412 -2.0553
  690MPD2    H210261   2.414   1.441  15.844  1.1261 -0.2897 -0.1085
  690MPD2    H310262   2.612   1.601  15.839  2.3587  0.6986 -1.4721
  690MPD2     N10263   2.691   1.530  15.407  0.1816  0.4766 -0.1244
  690MPD2    H510264   2.658   1.492  15.319  1.0479  1.6717 -0.9583
  690MPD2    N110265   2.335   1.290  15.650 -0.1677  0.4562 -0.1204
  690MPD2    H710266   2.300   1.257  15.561 -0.7225  0.4844  0.0848
  691TMC3    C110267   2.155   1.165  15.741 -0.0880  0.0521  0.2948
  691TMC3    C210268   2.086   1.179  15.625 -0.0254  0.2273  0.1865
  691TMC3    C310269   1.959   1.125  15.614  0.1447  0.0461  0.4524
  691TMC3    C410270   2.122   1.079  15.842 -0.3722 -0.3192  0.0480
  691TMC3    C510271   1.992   1.038  15.828 -0.3399 -0.1283 -0.1060
  691TMC3    C610272   1.909   1.061  15.722  0.0408  0.3362  0.4308
  691TMC3     C10273   2.267   1.253  15.767  0.1448 -0.4753 -0.3381
  691TMC3     O10274   2.305   1.256  15.882  0.3491  0.1518  0.0908
  691TMC3     H10275   2.112   1.258  15.555 -1.2766 -0.7947 -1.4500
  691TMC3    H110276   2.177   1.071  15.936 -1.8406 -0.6891  0.8778
  691TMC3    H210277   1.808   1.025  15.702  0.3891 -0.3007 -0.2117
  691TMC3    C710278   1.946   0.944  15.942 -0.5632  0.6558  0.0517
  691TMC3    C810279   1.864   1.188  15.531 -0.3228 -0.0799 -0.1321
  691TMC3    O110280   2.013   0.934  16.043 -0.3894  0.6823 -0.0165
  691TMC3    O210281   1.878   1.177  15.411  0.0916 -0.4945  0.2217
  692TMC3    C110282   3.515   2.172  15.662  0.0901  0.0469 -0.2964
  692TMC3    C210283   3.635   2.189  15.722 -0.3477  0.6488 -0.1702
  692TMC3    C310284   3.749   2.109  15.705 -0.0433  0.9998 -0.0924
  692TMC3    C410285   3.495   2.051  15.596 -0.2284  0.3195  0.9798
  692TMC3    C510286   3.608   1.969  15.580 -0.0168 -0.1591  0.2549
  692TMC3    C610287   3.732   1.993  15.636 -0.2527 -0.3406 -0.0008
  692TMC3     C10288   3.396   2.221  15.738  0.5368 -0.3815 -0.0620
  692TMC3     O10289   3.284   2.205  15.693  0.5514 -0.1194 -0.5003
  692TMC3     H10290   3.659   2.294  15.733  1.5238  0.1922  0.1221
  692TMC3    H110291   3.397   2.018  15.567  1.8558 -3.8456 -1.2822
  692TMC3    H210292   3.826   1.953  15.600  0.5456  0.3297  1.3258
  692TMC3    C710293   3.584   1.833  15.525  0.5312 -0.1123  0.5226
  692TMC3    C810294   3.828   2.074  15.825 -0.3011  0.6259 -0.3731
  692TMC3    O110295   3.485   1.794  15.470 -0.2931 -0.0238  0.3717
  692TMC3    O210296   3.881   1.964  15.823  0.6169 -0.3711 -0.1134
  693MPD2     C10297   3.277   4.474  10.715 -0.0638 -0.5018  0.0688
  693MPD2    C110298   3.245   4.338  10.702 -0.6043  0.2505  0.0534
  693MPD2    C210299   3.344   4.245  10.705 -0.3858 -0.8410  0.0747
  693MPD2    C310300   3.471   4.283  10.749 -0.0007  0.8075  0.5806
  693MPD2    C410301   3.503   4.413  10.767 -0.0514  0.1654  0.2197
  693MPD2    C510302   3.409   4.510  10.735  0.0432 -0.5886  0.1666
  693MPD2     H10303   3.322   4.139  10.697 -2.2624 -0.2952 -1.9950
  693MPD2    H110304   3.603   4.438  10.799  0.6141 -1.3075 -0.6956
  693MPD2    H210305   3.204   4.551  10.694  1.2898  0.8868  0.4568
  693MPD2    H310306   3.447   4.611  10.743  1.2254 -1.1698  1.9324
  693MPD2     N10307   3.561   4.184  10.793  0.3788 -0.0800 -0.2028
  693MPD2    H510308   3.643   4.207  10.848  0.7563 -1.3055 -0.2590
  693MPD2    N110309   3.106   4.317  10.692  0.2555  0.1485  0.0351
  693MPD2    H710310   3.037   4.391  10.701 -1.5107 -1.4283 -0.6790
  694TMC3    C110311   2.920   4.190  10.747  0.0191 -0.2293  0.0808
  694TMC3    C210312   2.830   4.095  10.699 -0.8932 -0.5931 -0.2224
  694TMC3    C310313   2.711   4.086  10.769 -0.1470  0.2895 -0.3177
  694TMC3    C410314   2.896   4.265  10.861 -0.4010 -0.2490 -0.3332
  694TMC3    C510315   2.780   4.252  10.919  0.0662  0.6441  0.1111
  694TMC3    C610316   2.686   4.163  10.878 -0.4286 -0.1763 -0.0161
  694TMC3     C10317   3.054   4.187  10.690  0.8975  0.1558  0.6833
  694TMC3     O10318   3.102   4.081  10.649 -0.1600 -0.1021  0.3502
  694TMC3     H10319   2.841   4.043  10.604 -0.0977  0.3789 -0.6518
  694TMC3    H110320   2.973   4.328  10.903  0.8962 -1.8448 -0.3046
  694TMC3    H210321   2.589   4.153  10.927 -0.2163 -1.6959  0.0912
  694TMC3    C710322   2.766   4.320  11.044 -0.1341  0.4254  0.1791
  694TMC3    C810323   2.601   3.998  10.723 -0.1676  0.2946 -0.4280
  694TMC3    O110324   2.842   4.412  11.067 -0.6521  0.3797  0.0061
  694TMC3    O210325   2.490   4.003  10.780  0.2911  0.3475 -0.7451
  695MPD2     C10326   4.221   1.633  13.484 -0.2778  0.0521  0.6556
  695MPD2    C110327   4.216   1.642  13.622 -0.0016 -0.2162  0.2292
  695MPD2    C210328   4.094   1.649  13.681  0.8389 -0.6701 -0.0131
  695MPD2    C310329   3.978   1.652  13.610 -0.6990 -0.2450  0.1453
  695MPD2    C410330   3.982   1.643  13.468  0.7035  0.0755 -0.0181
  695MPD2    C510331   4.108   1.635  13.407 -0.2320  0.5016  0.1021
  695MPD2     H10332   4.086   1.660  13.788 -1.6801 -3.2076  0.0355
  695MPD2    H110333   3.898   1.648  13.400  0.8515 -2.1584 -0.3871
  695MPD2    H210334   4.316   1.624  13.433 -0.0106  0.7242  1.0424
  695MPD2    H310335   4.117   1.629  13.299  2.8705 -0.2948  0.4047
  695MPD2     N10336   3.861   1.672  13.683  0.2284  0.0356  0.7780
  695MPD2    H510337   3.879   1.698  13.779 -1.7724  0.0215  1.1502
  695MPD2    N110338   4.331   1.634  13.702  0.2031  0.2366  0.0637
  695MPD2    H710339   4.324   1.633  13.803 -3.0193  0.9898 -0.1500
  696TMC3    C110340   3.630   1.729  13.712 -0.0188  1.0853 -0.0797
  696TMC3    C210341   3.644   1.745  13.841 -0.0461 -0.4650 -0.1238
  696TMC3    C310342   3.551   1.810  13.917 -0.5062 -0.2964 -0.1456
  696TMC3    C410343   3.525   1.790  13.649  0.0218  0.6445 -0.3862
  696TMC3    C510344   3.438   1.861  13.725 -0.1581  0.0326  0.3053
  696TMC3    C610345   3.444   1.870  13.859  1.0073  0.3681  0.1029
  696TMC3     C10346   3.737   1.684  13.624 -0.0702 -0.1153 -0.3323
  696TMC3     O10347   3.710   1.678  13.509  0.0945  0.4276 -0.6116
  696TMC3     H10348   3.727   1.694  13.888 -0.3697 -1.1833 -0.3310
  696TMC3    H110349   3.513   1.782  13.542 -0.1979 -1.6474 -0.1982
  696TMC3    H210350   3.397   1.955  13.907  3.5401  1.4071  0.7580
  696TMC3    C710351   3.351   1.960  13.666  0.1560  0.2930 -0.0327
  696TMC3    C810352   3.586   1.848  14.055 -0.9980  0.2876  0.2885
  696TMC3    O110353   3.263   1.932  13.583  0.3068  0.3800 -0.3969
  696TMC3    O210354   3.702   1.841  14.094 -0.4751 -0.4984 -0.0169
  697MPD2     C10355   3.222   3.878  15.812  0.6035 -0.5011  0.0280
  697MPD2    C110356   3.284   3.787  15.730 -0.7268  1.2872  0.0397
  697MPD2    C210357   3.364   3.842  15.626 -0.1976  0.1344 -0.3352
  697MPD2    C310358   3.385   3.980  15.619 -0.0268  0.4993 -0.6512
  697MPD2    C410359   3.309   4.064  15.696 -0.0906  0.4369  0.0889
  697MPD2    C510360   3.236   4.014  15.798 -0.1610  0.6407  0.1538
  697MPD2     H10361   3.412   3.772  15.559 -1.7708 -0.4051 -0.8989
  697MPD2    H110362   3.317   4.172  15.695  0.6732  0.3878  1.0122
  697MPD2    H210363   3.158   3.858  15.897  1.8125 -1.2405  0.7459
  697MPD2    H310364   3.198   4.089  15.867 -1.0346  2.1826 -2.0098
  697MPD2     N10365   3.477   4.039  15.523  0.0332  0.1488  0.4195
  697MPD2    H510366   3.521   3.981  15.452 -0.4037 -2.2883  2.1324
  697MPD2    N110367   3.268   3.650  15.739  0.6380  0.3573 -0.5168
  697MPD2    H710368   3.315   3.598  15.666  2.0378  0.3144  0.4122
  698TMC3    C110369   3.586   4.213  15.411 -0.2485  0.4904 -0.2707
  698TMC3    C210370   3.673   4.313  15.434  0.1334 -0.4287 -0.5309
  698TMC3    C310371   3.765   4.341  15.333  0.3793 -0.3709  0.0668
  698TMC3    C410372   3.582   4.135  15.304  0.8884 -0.1211  0.3267
  698TMC3    C510373   3.671   4.172  15.201 -1.2768 -0.6406 -0.2338
  698TMC3    C610374   3.764   4.271  15.213  0.0489  0.6973 -0.7061
  698TMC3     C10375   3.510   4.175  15.526 -0.1007 -0.0497 -0.1011
  698TMC3     O10376   3.510   4.260  15.608 -0.4466 -0.1763  0.2370
  698TMC3     H10377   3.668   4.374  15.524 -0.7376  0.2560 -1.0454
  698TMC3    H110378   3.511   4.055  15.283  0.1035  0.2973  1.4025
  698TMC3    H210379   3.823   4.303  15.128 -1.2759 -1.1939 -2.3327
  698TMC3    C710380   3.653   4.117  15.070 -0.0344  0.0331  0.6653
  698TMC3    C810381   3.884   4.420  15.374 -0.6175  0.7800 -0.4196
  698TMC3    O110382   3.535   4.103  15.038 -0.5346  0.0690  0.1765
  698TMC3    O210383   3.868   4.494  15.470  0.1399  0.2989 -0.1894
  699TMC3    C110384   3.404   2.062  13.078  0.2326  0.5143 -0.0631
  699TMC3    C210385   3.437   1.938  13.111  0.3134  0.3954  0.6036
  699TMC3    C310386   3.351   1.870  13.188 -0.0890 -0.9060 -0.2518
  699TMC3    C410387   3.277   2.113  13.112 -0.7376  0.0512 -0.1249
  699TMC3    C510388   3.201   2.041  13.200  0.2929 -0.4648  0.0554
  699TMC3    C610389   3.233   1.919  13.227 -0.0366  0.5758 -0.3062
  699TMC3     C10390   3.481   2.132  12.978  0.5477 -0.0854 -0.1884
  699TMC3     O10391   3.548   2.071  12.894 -0.0560 -0.4856  0.0720
  699TMC3     H10392   3.535   1.902  13.081 -0.0652 -0.5291  0.4618
  699TMC3    H110393   3.237   2.209  13.083 -1.9044 -0.0759  1.0407
  699TMC3    H210394   3.159   1.857  13.277 -1.2292  1.4854 -0.9406
  699TMC3    C710395   3.064   2.066  13.227 -0.6163  0.0688 -0.1081
  699TMC3    C810396   3.395   1.730  13.226 -0.2456 -0.1508  0.4418
  699TMC3    O110397   3.016   2.033  13.335  0.0835  0.3942  0.3128
  699TMC3    O210398   3.316   1.681  13.311 -0.4078  0.1395 -0.2371
  700TMC3    C110399   2.231   4.575  16.989 -0.1173 -1.0271 -0.5711
  700TMC3    C210400   2.307   4.472  16.953  0.0348 -0.1545 -0.2638
  700TMC3    C310401   2.348   4.386  17.048  0.2550  0.1462 -0.0092
  700TMC3    C410402   2.182   4.590  17.114  0.0755  0.0195 -0.3083
  700TMC3    C510403   2.229   4.508  17.211  0.8774 -0.6748  0.4596
  700TMC3    C610404   2.307   4.400  17.177 -0.1449 -0.2546  0.2556
  700TMC3     C10405   2.207   4.680  16.892  0.1991 -0.5916  0.6651
  700TMC3     O10406   2.098   4.731  16.902 -0.2863 -0.0481 -0.2175
  700TMC3     H10407   2.323   4.450  16.848  0.1033  2.8609 -0.8942
  700TMC3    H110408   2.118   4.672  17.146 -1.2566 -1.1839  0.1429
  700TMC3    H210409   2.342   4.343  17.263 -0.1326 -0.7936 -0.1066
  700TMC3    C710410   2.274   4.589  17.322 -0.4594  0.8777 -0.0392
  700TMC3    C810411   2.392   4.260  16.999  0.0886 -0.0401  0.1109
  700TMC3    O110412   2.389   4.633  17.315 -0.1872 -0.0250 -0.3642
  700TMC3    O210413   2.458   4.259  16.898 -0.4428 -0.7195 -1.2880
  701TMC3    C110414   2.641   3.164  15.486 -0.2211  0.0301  0.1813
  701TMC3    C210415   2.644   3.029  15.455  0.3361 -0.4851  0.3979
  701TMC3    C310416   2.767   2.974  15.419 -0.0237 -0.2323 -0.3844
  701TMC3    C410417   2.746   3.245  15.479  0.2292 -0.0232  0.8830
  701TMC3    C510418   2.867   3.189  15.437  0.0229 -0.1488 -0.2552
  701TMC3    C610419   2.877   3.054  15.411  0.0786 -0.9903  0.8258
  701TMC3     C10420   2.503   3.216  15.499 -0.0521  0.5267 -0.1007
  701TMC3     O10421   2.415   3.134  15.523 -0.0793  0.3381 -0.3725
  701TMC3     H10422   2.549   2.977  15.452 -0.6617  1.3560  0.1898
  701TMC3    H110423   2.747   3.351  15.503  1.2227  0.3297 -0.7207
  701TMC3    H210424   2.972   3.017  15.372 -0.6109 -0.9586 -0.8787
  701TMC3    C710425   2.989   3.265  15.427  0.2265 -0.1632  0.2354
  701TMC3    C810426   2.760   2.846  15.347 -0.6008  0.6718  0.7490
  701TMC3    O110427   3.093   3.201  15.416  0.3785  0.3232  0.0854
  701TMC3    O210428   2.860   2.779  15.326  0.2178  0.0496  0.2829
  702MPD2     C10429   2.435   0.120  10.458 -0.5274  0.1558 -0.2216
  702MPD2    C110430   2.391   0.213  10.552  0.1107 -0.0311  1.3116
  702MPD2    C210431   2.385   0.345  10.507 -0.7300 -0.0194  0.2804
  702MPD2    C310432   2.414   0.388  10.378 -0.1216 -0.4745  0.3512
  702MPD2    C410433   2.450   0.292  10.287 -0.4587 -0.3173 -0.6705
  702MPD2    C510434   2.467   0.161  10.329 -0.2006 -0.2774 -0.1410
  702MPD2     H10435   2.348   0.415  10.581  2.5106 -0.9418  2.7914
  702MPD2    H110436   2.501   0.322  10.196  0.7524  1.2558  0.5373
  702MPD2    H210437   2.452   0.017  10.489  0.1039 -0.0878 -1.3981
  702MPD2    H310438   2.509   0.089  10.259 -3.4666 -1.5052 -0.8343
  702MPD2     N10439   2.406   0.526  10.351  0.2893 -0.5097  0.9445
  702MPD2    H510440   2.367   0.575  10.430 -0.5380 -0.7995  0.7114
  702MPD2    N110441   2.345   0.179  10.686  1.1013 -0.4336  0.6337
  702MPD2    H710442   2.318   0.260  10.742 -0.5944 -0.3115 -0.3418
  703TMC3    C110443   2.452   0.735  10.261  0.5201  0.0320  0.2323
  703TMC3    C210444   2.367   0.795  10.346 -0.3664  0.3598 -0.4925
  703TMC3    C310445   2.372   0.931  10.345  0.6672 -0.5879  0.3095
  703TMC3    C410446   2.537   0.799  10.170  0.1005  0.1644  0.2765
  703TMC3    C510447   2.537   0.935  10.177  1.2197 -0.6496 -0.8195
  703TMC3    C610448   2.449   1.010  10.253  0.4124 -0.0592 -0.3422
  703TMC3     C10449   2.439   0.591  10.237 -0.0935 -0.4470  0.1959
  703TMC3     O10450   2.487   0.550  10.132 -0.0363  0.4117 -0.2979
  703TMC3     H10451   2.294   0.743  10.407 -1.5545  2.3854 -0.1953
  703TMC3    H110452   2.609   0.754  10.103 -1.7549  2.6005 -3.3391
  703TMC3    H210453   2.457   1.118  10.257  1.9458 -0.1788 -0.1854
  703TMC3    C710454   2.624   1.007  10.086  0.1047  0.3104 -0.9339
  703TMC3    C810455   2.296   1.010  10.443  0.2412 -0.6647  0.7499
  703TMC3    O110456   2.736   0.960  10.060  0.4252 -0.2799 -0.3473
  703TMC3    O210457   2.302   1.131  10.433 -0.3670  0.3236  0.3491
  704TMC3    C110458   0.593   3.689  12.803 -0.3867  0.2065 -0.2514
  704TMC3    C210459   0.620   3.711  12.674  0.7078  0.0460  0.2388
  704TMC3    C310460   0.742   3.687  12.626  0.7091  0.3098 -0.0286
  704TMC3    C410461   0.690   3.660  12.891 -0.5540  0.6888  0.3516
  704TMC3    C510462   0.817   3.631  12.842  0.2411  0.1438 -0.0568
  704TMC3    C610463   0.845   3.644  12.706  0.1963 -0.3137  0.6962
  704TMC3     C10464   0.453   3.679  12.851 -0.2213 -0.2025  0.1033
  704TMC3     O10465   0.439   3.668  12.973  0.2460 -0.3397  0.0549
  704TMC3     H10466   0.544   3.736  12.600 -0.8185 -0.7292  1.5290
  704TMC3    H110467   0.673   3.666  12.998 -0.2184 -1.6008  0.5420
  704TMC3    H210468   0.944   3.625  12.666  0.5539 -0.1639  1.5084
  704TMC3    C710469   0.927   3.611  12.939  1.1495  0.0851  0.2711
  704TMC3    C810470   0.739   3.634  12.491 -0.2137 -0.5676  1.0373
  704TMC3    O110471   1.029   3.641  12.878  0.5123 -0.2279 -0.4511
  704TMC3    O210472   0.644   3.564  12.461  0.0326  0.1531 -0.1329
  705MPD2     C10473   3.770   1.549  15.961 -0.1784  0.2687  0.6387
  705MPD2    C110474   3.836   1.619  16.057  0.4762 -0.3701 -0.5201
  705MPD2    C210475   3.767   1.656  16.168  0.9030  0.2286 -0.0212
  705MPD2    C310476   3.630   1.637  16.176  0.7098  0.1244  0.3637
  705MPD2    C410477   3.570   1.570  16.078  0.3367 -0.7400  0.1438
  705MPD2    C510478   3.640   1.522  15.973  0.2660 -0.4470 -0.4381
  705MPD2     H10479   3.816   1.717  16.243  0.7291  0.7575 -0.3445
  705MPD2    H110480   3.462   1.555  16.085 -0.2604  3.8733  0.6392
  705MPD2    H210481   3.819   1.523  15.867 -0.4344 -0.7374  0.7810
  705MPD2    H310482   3.595   1.473  15.887  1.7030  0.1261 -1.5155
  705MPD2     N10483   3.549   1.675  16.285  0.4574  0.1309  0.2713
  705MPD2    H510484   3.451   1.650  16.285 -0.0246  2.0043 -1.1562
  705MPD2    N110485   3.973   1.652  16.056  0.1687 -0.8556  0.2437
  705MPD2    H710486   4.011   1.687  16.144  1.6083 -1.4672 -0.1299
  706TMC3    C110487   4.414   1.718  15.952 -0.0231 -0.2049 -0.1889
  706TMC3    C210488   4.422   1.829  16.034  0.6357  0.7373 -0.6245
  706TMC3    C310489   4.314   1.862  16.106 -0.3223  0.2318 -0.1847
  706TMC3    C410490   4.293   1.660  15.915 -0.2097  0.5838  0.2676
  706TMC3    C510491   4.182   1.702  15.983  0.4439 -0.5483 -0.8973
  706TMC3    C610492   4.195   1.806  16.071  0.4500 -0.1203  0.5529
  706TMC3     C10493   4.532   1.691  15.873  0.3059  0.9337  0.7972
  706TMC3     O10494   4.642   1.702  15.930  0.3888 -1.1981 -0.4465
  706TMC3     H10495   4.508   1.893  16.053  0.5336  0.3177  1.2599
  706TMC3    H110496   4.286   1.571  15.854 -1.3076  1.9312 -1.5726
  706TMC3    H210497   4.110   1.848  16.124 -0.6155 -1.6887  0.0840
  706TMC3    C710498   4.063   1.632  15.954 -0.1219 -0.6748  0.1415
  706TMC3    C810499   4.310   2.007  16.103  0.2363 -0.1022  0.6329
  706TMC3    O110500   4.045   1.565  15.851  0.1477  0.5252  0.5657
  706TMC3    O210501   4.221   2.049  16.032 -0.6276  0.3610 -0.3052
  707TMC3    C110502   1.507   1.644   1.101 -0.1343  0.0841 -0.0767
  707TMC3    C210503   1.634   1.594   1.105 -0.5805 -0.4912  0.2198
  707TMC3    C310504   1.659   1.483   1.186  0.0490  0.3290 -0.0266
  707TMC3    C410505   1.401   1.580   1.172 -1.1011  1.2676  0.2928
  707TMC3    C510506   1.426   1.464   1.244 -0.2704  0.3935 -0.1081
  707TMC3    C610507   1.558   1.417   1.253 -0.1221 -0.4229 -0.1477
  707TMC3     C10508   1.475   1.759   1.018 -0.4436 -0.5327 -0.0415
  707TMC3     O10509   1.552   1.854   1.039  0.4323  0.2320 -0.3283
  707TMC3     H10510   1.715   1.636   1.047  0.5311 -0.2202  1.9677
  707TMC3    H110511   1.305   1.630   1.171 -0.7868  1.8680 -0.1915
  707TMC3    H210512   1.576   1.333   1.319 -1.4073  0.6903  1.6000
  707TMC3    C710513   1.324   1.365   1.273 -0.3923 -0.1983 -0.2434
  707TMC3    C810514   1.799   1.438   1.208 -0.1852  0.4099 -0.0171
  707TMC3    O110515   1.361   1.285   1.352 -0.0786  0.4473  0.3590
  707TMC3    O210516   1.891   1.521   1.200 -0.1624  0.3388  0.0066
  708MPD2     C10517   2.659   4.300  13.867 -0.2692  0.3851  0.3178
  708MPD2    C110518   2.622   4.430  13.904  0.1608  0.4101  0.1585
  708MPD2    C210519   2.575   4.461  14.039 -0.8555 -0.0861  0.7299
  708MPD2    C310520   2.568   4.358  14.129  0.4895  0.7523 -0.2360
  708MPD2    C410521   2.612   4.227  14.099 -0.6785 -0.1063  0.5676
  708MPD2    C510522   2.648   4.201  13.967  1.1526  0.4081  0.5897
  708MPD2     H10523   2.549   4.565  14.056 -0.3305  0.1646  0.0395
  708MPD2    H110524   2.593   4.147  14.170  0.4478 -0.0505  0.9318
  708MPD2    H210525   2.673   4.274  13.763 -0.8626  0.4241  0.2318
  708MPD2    H310526   2.664   4.098  13.937 -0.8630 -0.7695  3.5361
  708MPD2     N10527   2.513   4.377  14.261  0.2336 -0.1552 -0.0556
  708MPD2    H510528   2.532   4.305  14.330  2.6090  0.5395  0.0222
  708MPD2    N110529   2.592   4.536  13.810  0.8035 -0.0165  1.0753
  708MPD2    H710530   2.552   4.618  13.854  1.6583  2.1042 -2.0231
  709TMC3    C110531   2.553   4.666  13.619  0.0150 -0.1605  0.2464
  709TMC3    C210532   2.458   4.639  13.519 -0.1093 -1.1978 -0.3224
  709TMC3    C310533   2.338   4.712  13.525  0.4309  0.0766 -0.1020
  709TMC3    C410534   2.538   0.032  13.706  0.7700  0.3862  0.3883
  709TMC3    C510535   2.418   0.095  13.716 -0.1387 -0.0907  0.3575
  709TMC3    C610536   2.317   0.074  13.621  0.0220  0.0423  0.2443
  709TMC3     C10537   2.609   4.539  13.670  0.1791 -0.0927  0.2183
  709TMC3     O10538   2.648   4.450  13.600  0.3269 -0.1804  0.3621
  709TMC3     H10539   2.480   4.552  13.459 -1.1084  0.0066 -2.4326
  709TMC3    H110540   2.614   0.056  13.779 -0.1203  1.2171  1.0544
  709TMC3    H210541   2.222   0.127  13.626 -0.1405 -0.5144  2.9350
  709TMC3    C710542   2.370   0.110  13.854  0.1191  0.7848 -0.1261
  709TMC3    C810543   2.246   4.708  13.420 -0.3695  0.3082 -0.5721
  709TMC3    O110544   2.439   0.045  13.929 -0.2123 -0.4651 -0.1161
  709TMC3    O210545   2.139   0.023  13.434 -0.3271  0.1707 -0.9074
  710TMC3    C110546   3.179   2.125  17.734 -0.0877  0.3647  0.0264
  710TMC3    C210547   3.265   2.116  17.628  0.2374 -0.0357  0.3413
  710TMC3    C310548   3.360   2.019  17.630  0.0535 -0.1556 -0.1188
  710TMC3    C410549   3.200   2.044   0.097  0.0448 -0.3466 -0.1241
  710TMC3    C510550   3.309   1.954   0.097 -0.1977 -0.2981  0.4513
  710TMC3    C610551   3.395   1.944  17.742 -0.1324  0.4942  0.3501
  710TMC3     C10552   3.055   2.187  17.703 -0.1255 -0.3270  0.0705
  710TMC3     O10553   3.017   2.199  17.590  0.7076  0.5242 -0.1138
  710TMC3     H10554   3.237   2.167  17.536 -1.8502 -0.8995  0.5130
  710TMC3    H110555   3.144   2.052   0.189  0.1880 -0.6794 -0.0080
  710TMC3    H210556   3.470   1.867  17.739  0.2227  0.8633 -0.2618
  710TMC3    C710557   3.333   1.874   0.213 -0.0265 -0.2038  0.0931
  710TMC3    C810558   3.404   1.974  17.495  0.1615 -0.3135 -0.3791
  710TMC3    O110559   3.238   1.835   0.281 -0.4679  0.2997 -0.1065
  710TMC3    O210560   3.378   2.048  17.401 -0.2263  0.5138 -0.6467
  711TMC3    C110561   3.250   2.879  15.136 -0.3438  0.3291 -0.7871
  711TMC3    C210562   3.234   2.890  15.271 -0.6327  0.5980 -0.4090
  711TMC3    C310563   3.329   2.836  15.350 -0.3445  0.3260 -0.4119
  711TMC3    C410564   3.351   2.807  15.087 -0.3970  0.1657 -0.1806
  711TMC3    C510565   3.431   2.729  15.164  0.2758 -0.2375 -0.1562
  711TMC3    C610566   3.421   2.748  15.296 -0.6466 -0.1153 -0.2198
  711TMC3     C10567   3.123   2.867  15.064  0.1640  0.1491 -0.0240
  711TMC3     O10568   3.110   2.759  15.008 -0.1279 -0.2586  0.2046
  711TMC3     H10569   3.149   2.946  15.308 -1.7778 -1.8968  0.7157
  711TMC3    H110570   3.354   2.805  14.978 -0.1546 -2.8311 -0.1062
  711TMC3    H210571   3.485   2.686  15.357  1.2585  1.3666 -0.7288
  711TMC3    C710572   3.440   2.588  15.135 -0.0977 -0.4465  0.1565
  711TMC3    C810573   3.309   2.836  15.494 -0.2339 -0.4832  0.6382
  711TMC3    O110574   3.505   2.514  15.209  0.1257 -0.6545  0.0228
  711TMC3    O210575   3.196   2.844  15.542  0.2648  0.2658 -0.3610
  712MPD2     C10576   0.395   3.565  14.183  0.2458 -0.0024 -0.2955
  712MPD2    C110577   0.294   3.564  14.091 -0.0781  0.8710  0.3107
  712MPD2    C210578   0.254   3.678  14.028 -0.2740 -0.7970 -0.1419
  712MPD2    C310579   0.316   3.798  14.051  0.2136 -0.7123 -0.7044
  712MPD2    C410580   0.418   3.801  14.142 -0.0009  0.1275  0.3893
  712MPD2    C510581   0.457   3.683  14.203  0.1304 -0.1125  0.1708
  712MPD2     H10582   0.178   3.678  13.951  1.5525 -0.0306 -1.9517
  712MPD2    H110583   0.469   3.893  14.169  1.0280  0.1918 -1.7739
  712MPD2    H210584   0.439   3.474  14.221  3.9503  1.1608 -1.8395
  712MPD2    H310585   0.546   3.679  14.266 -0.9851  1.2244  1.8370
  712MPD2     N10586   0.267   3.928  14.010  0.8730 -0.4592  1.0341
  712MPD2    H510587   0.320   4.010  14.037  1.3811 -0.6853  0.7060
  712MPD2    N110588   0.234   3.443  14.037  0.1893  0.7150  0.2331
  712MPD2    H710589   0.174   3.462  13.957 -0.9531  0.2813  0.9787
  713TMC3    C110590   0.162   4.075  13.847 -0.6663  0.0708  0.1376
  713TMC3    C210591   0.294   4.121  13.835  0.3107  0.6418  0.1179
  713TMC3    C310592   0.298   4.235  13.763  0.2097  0.5768 -0.2781
  713TMC3    C410593   0.053   4.143  13.811 -0.1317 -1.0303  0.2060
  713TMC3    C510594   0.066   4.265  13.757 -0.7385 -0.6182  0.6558
  713TMC3    C610595   0.192   4.318  13.724  0.2881 -0.0493 -0.1061
  713TMC3     C10596   0.156   3.951  13.933  0.0711 -0.3686  0.4376
  713TMC3     O10597   0.053   3.885  13.930 -0.3560  0.9710 -0.1486
  713TMC3     H10598   0.379   4.056  13.852 -1.4337 -1.2105  1.7507
  713TMC3    H110599   4.693   4.098  13.831 -1.4835  2.3328  1.2212
  713TMC3    H210600   0.210   4.407  13.665 -1.0182  2.2067  2.8838
  713TMC3    C710601   4.686   4.345  13.742 -0.1838 -0.7270 -0.2665
  713TMC3    C810602   0.432   4.282  13.732 -0.1971  0.0817 -1.0208
  713TMC3    O110603   4.579   4.290  13.725  0.0824 -0.3269 -0.3666
  713TMC3    O210604   0.445   4.357  13.638 -0.1966 -0.2307  0.6261
  714MPD2     C10605   2.018   3.164   1.208  0.0390 -0.6548 -0.5105
  714MPD2    C110606   2.032   3.054   1.130 -0.6333  0.1011  0.3117
  714MPD2    C210607   1.916   2.993   1.069 -0.2436 -0.2626 -0.4979
  714MPD2    C310608   1.792   3.049   1.087 -0.0202 -0.1041 -0.1272
  714MPD2    C410609   1.784   3.147   1.182 -0.1496  0.0753 -0.0112
  714MPD2    C510610   1.894   3.201   1.245 -0.6707  0.1672  0.0318
  714MPD2     H10611   1.929   2.916   0.994 -0.7074 -1.3636  0.5566
  714MPD2    H110612   1.688   3.188   1.209 -1.5679 -2.9502 -0.4716
  714MPD2    H210613   2.102   3.212   1.256  0.2719 -0.7887 -0.7846
  714MPD2    H310614   1.880   3.282   1.316  1.5498  1.7562 -1.3452
  714MPD2     N10615   1.680   2.994   1.018  0.0141  0.6796 -0.3828
  714MPD2    H510616   1.702   2.917   0.955  3.0375  1.9436 -0.8674
  714MPD2    N110617   2.163   3.013   1.104  0.1834  0.4036 -0.4037
  714MPD2    H710618   2.238   3.074   1.134 -1.2632  1.5170  1.0147
  715TMC3    C110619   2.348   2.897   1.020  0.1045  0.1101  0.1359
  715TMC3    C210620   2.400   2.766   1.011 -0.4114 -0.1654 -0.2632
  715TMC3    C310621   2.522   2.744   1.066 -0.5950  0.0055 -0.2642
  715TMC3    C410622   2.415   2.989   1.093 -0.2296 -0.3905  0.1470
  715TMC3    C510623   2.534   2.958   1.152  0.6429  0.3439  0.2155
  715TMC3    C610624   2.594   2.835   1.137  0.3144  0.1371  0.0119
  715TMC3     C10625   2.204   2.907   1.023 -0.3866 -0.3787  0.1743
  715TMC3     O10626   2.144   2.821   0.956 -0.5389  0.1269 -0.5417
  715TMC3     H10627   2.351   2.687   0.956 -1.7123  0.2380  0.3309
  715TMC3    H110628   2.389   3.094   1.078 -2.8883 -0.9063  0.9958
  715TMC3    H210629   2.684   2.812   1.192  0.5295  0.5682 -0.1601
  715TMC3    C710630   2.617   3.055   1.215 -0.0714  0.2616 -0.1850
  715TMC3    C810631   2.581   2.621   1.027 -0.0509 -0.1064 -0.3029
  715TMC3    O110632   2.738   3.051   1.186  0.0843 -0.3515 -0.1368
  715TMC3    O210633   2.541   2.569   0.925  0.0923 -0.1271 -0.6400
  716MPD2     C10634   2.216   0.562   9.544 -0.2737  0.0174 -0.6625
  716MPD2    C110635   2.114   0.483   9.497  0.5381 -0.4645 -0.0670
  716MPD2    C210636   2.114   0.344   9.513  0.3052 -0.4358 -0.4261
  716MPD2    C310637   2.215   0.290   9.589  0.0912  0.0265  0.3583
  716MPD2    C410638   2.315   0.374   9.633  0.1255 -0.1657  0.9598
  716MPD2    C510639   2.319   0.507   9.613  0.4150 -0.3145  0.1758
  716MPD2     H10640   2.030   0.289   9.473 -0.1010 -0.3617  0.3428
  716MPD2    H110641   2.401   0.341   9.691  0.4060 -0.0106  0.6364
  716MPD2    H210642   2.223   0.669   9.526 -0.0963  0.2279  0.6196
  716MPD2    H310643   2.415   0.555   9.627 -0.1285  0.7032  0.4724
  716MPD2     N10644   2.202   0.152   9.604 -0.6413  0.4729 -0.0789
  716MPD2    H510645   2.121   0.108   9.561  0.0240 -0.1116 -0.7304
  716MPD2    N110646   2.012   0.556   9.432 -0.5875 -0.0506 -0.3741
  716MPD2    H710647   2.018   0.658   9.439  1.1213 -0.1969  0.3324
  717TMC3    C110648   2.254   4.673   9.680 -0.1339  0.3667 -0.5070
  717TMC3    C210649   2.143   4.620   9.612  0.1990  0.8302 -0.4462
  717TMC3    C310650   2.103   4.487   9.625 -0.7413 -0.0348  0.2292
  717TMC3    C410651   2.335   4.595   9.749 -0.3428  0.1476  0.7099
  717TMC3    C510652   2.291   4.463   9.773  0.5279  0.4407  0.1044
  717TMC3    C610653   2.179   4.407   9.712  0.0694  0.0447  0.4929
  717TMC3     C10654   2.290   0.070   9.666  0.1471  0.1752  0.2304
  717TMC3     O10655   2.405   0.099   9.690 -0.0861  0.3241 -0.0279
  717TMC3     H10656   2.092   4.673   9.532  0.9602  0.4847 -1.1653
  717TMC3    H110657   2.418   4.636   9.805 -1.0256  1.4469  0.7709
  717TMC3    H210658   2.149   4.304   9.729 -0.5341 -0.3187 -2.7642
  717TMC3    C710659   2.393   4.379   9.834  0.4518 -0.1954  0.4007
  717TMC3    C810660   2.004   4.438   9.532  0.0604  0.4767  0.4025
  717TMC3    O110661   2.511   4.392   9.812  0.3687 -0.2045  1.0388
  717TMC3    O210662   1.954   4.525   9.464  0.0673  0.2373 -0.0427
  718MPD2     C10663   1.085   4.536  12.700 -0.3892  0.6026 -0.1566
  718MPD2    C110664   1.093   4.439  12.605  0.1335  0.7369  0.3986
  718MPD2    C210665   1.188   4.338  12.633 -0.6428  0.3864  0.5264
  718MPD2    C310666   1.271   4.350  12.744 -0.2883  0.7286 -0.2106
  718MPD2    C410667   1.260   4.452  12.833  0.3304  0.4260 -0.3418
  718MPD2    C510668   1.171   4.548  12.810 -0.4556 -0.5295  0.2589
  718MPD2     H10669   1.189   4.249  12.572 -1.2760 -0.1086  1.2365
  718MPD2    H110670   1.313   4.460  12.927 -0.4916  2.7591 -0.0558
  718MPD2    H210671   1.012   4.615  12.687  0.9459  2.1340  1.6166
  718MPD2    H310672   1.149   4.626  12.881  2.5916  3.1677 -2.8336
  718MPD2     N10673   1.370   4.250  12.782 -0.7758  0.7252 -0.0099
  718MPD2    H510674   1.420   4.244  12.871 -0.3801 -2.5975 -0.4415
  718MPD2    N110675   1.035   4.441  12.481 -0.0904 -0.8457 -0.3254
  718MPD2    H710676   0.970   4.516  12.458 -0.0903 -0.9825 -0.7601
  719TMC3    C110677   1.021   4.409  12.246  0.0935 -0.0395  0.2236
  719TMC3    C210678   1.005   4.297  12.168 -0.0880  0.2310 -0.0116
  719TMC3    C310679   1.063   4.286  12.042 -0.2510 -0.8112  0.1012
  719TMC3    C410680   1.104   4.506  12.207 -0.1223 -0.7526 -0.1162
  719TMC3    C510681   1.166   4.499  12.081  0.0747 -0.2415 -0.5749
  719TMC3    C610682   1.137   4.389  11.994  0.1234 -0.0671 -0.6408
  719TMC3     C10683   1.054   4.356  12.378  0.0590 -0.0294 -0.2773
  719TMC3     O10684   1.093   4.238  12.381  0.6723  0.6638 -0.1936
  719TMC3     H10685   0.939   4.215  12.192 -1.4829  1.5601  0.7016
  719TMC3    H110686   1.115   4.599  12.262 -2.3690 -1.8936  2.2604
  719TMC3    H210687   1.180   4.379  11.895 -1.5207 -2.1537 -1.1476
  719TMC3    C710688   1.279   4.577  12.044 -0.1533  0.0117 -0.0301
  719TMC3    C810689   1.120   4.158  12.013  0.4800 -0.3408  0.2215
  719TMC3    O110690   1.321   4.554  11.934  0.2307 -0.2055  0.0839
  719TMC3    O210691   1.166   4.135  11.903  0.0891  0.1304  0.3018
  720MPD2     C10692   4.640   1.319  13.706 -0.4294 -0.0046 -0.4710
  720MPD2    C110693   0.015   1.247  13.675  0.4589  0.0789  0.1028
  720MPD2    C210694   0.107   1.223  13.776  0.0426 -0.6628 -0.3114
  720MPD2    C310695   0.073   1.270  13.906 -0.7978 -0.4301 -0.4367
  720MPD2    C410696   4.697   1.338  13.937 -0.3174  0.4801  0.2636
  720MPD2    C510697   4.606   1.363  13.833  0.3042  0.1041 -0.7825
  720MPD2     H10698   0.194   1.162  13.757  1.3897  1.1586  0.0811
  720MPD2    H110699   4.662   1.363  14.037  2.6843  3.6885  0.5204
  720MPD2    H210700   4.560   1.339  13.636 -0.3609  0.2964 -0.4643
  720MPD2    H310701   4.521   1.429  13.847  0.0502 -0.4502  0.3180
  720MPD2     N10702   0.165   1.230  14.004 -0.4519  0.5481 -0.0215
  720MPD2    H510703   0.254   1.192  13.973 -1.0073  1.1981 -2.3951
  720MPD2    N110704   0.035   1.193  13.539  0.8701 -0.7366  0.2157
  720MPD2    H710705   0.118   1.135  13.529  1.9392  0.4895  1.9800
  721TMC3    C110706   0.247   1.224  14.235  0.4140  0.3336  0.2999
  721TMC3    C210707   0.224   1.263  14.366  0.0928 -0.0532 -0.3472
  721TMC3    C310708   0.328   1.252  14.456  0.8008 -0.8015  0.0372
  721TMC3    C410709   0.364   1.175  14.196  0.5299 -0.3714  0.2212
  721TMC3    C510710   0.469   1.163  14.289  0.3002 -0.1217 -0.3561
  721TMC3    C610711   0.450   1.196  14.422  0.1533 -0.3404 -0.2282
  721TMC3     C10712   0.141   1.244  14.139  0.0975  0.1657 -0.1735
  721TMC3     O10713   0.037   1.282  14.193  0.2737 -0.3353 -0.0699
  721TMC3     H10714   0.135   1.317  14.395  0.6147 -0.8844  2.8830
  721TMC3    H110715   0.372   1.134  14.096  1.1602 -0.4709  0.3150
  721TMC3    H210716   0.540   1.207  14.482  0.1924  0.3854 -0.4156
  721TMC3    C710717   0.593   1.087  14.254 -0.4433  0.0767  0.2388
  721TMC3    C810718   0.321   1.328  14.582 -0.2462  0.4575 -0.4927
  721TMC3    O110719   0.589   1.059  14.134 -0.2076  0.6851 -0.1704
  721TMC3    O210720   0.236   1.418  14.591  0.2913 -0.1764 -0.4063
  722MPD2     C10721   3.962   4.041  13.179 -0.5457 -0.2498 -0.0941
  722MPD2    C110722   3.881   4.153  13.162  0.0323 -0.0768 -0.7285
  722MPD2    C210723   3.752   4.137  13.120 -0.4508  0.3691  0.8645
  722MPD2    C310724   3.687   4.014  13.113  0.2103 -0.0979  0.1222
  722MPD2    C410725   3.770   3.898  13.132 -0.0940 -0.3326  0.5528
  722MPD2    C510726   3.909   3.918  13.159 -0.0763 -1.3815  0.2125
  722MPD2     H10727   3.694   4.228  13.115  0.8156  1.0951 -0.5809
  722MPD2    H110728   3.734   3.796  13.131  1.1231 -0.7595  0.1140
  722MPD2    H210729   4.067   4.055  13.203 -0.9040  1.0667  0.7258
  722MPD2    H310730   3.981   3.838  13.173  1.0667 -0.0549  2.0845
  722MPD2     N10731   3.545   4.011  13.121 -0.8178 -0.1116 -0.5504
  722MPD2    H510732   3.503   4.102  13.138 -0.5627  0.0132 -0.5740
  722MPD2    N110733   3.929   4.283  13.193  0.3578 -0.0393  0.4054
  722MPD2    H710734   3.881   4.362  13.152 -1.0107 -0.2042  1.6739
  723TMC3    C110735   3.342   3.940  13.170 -0.5687 -0.3079 -0.1858
  723TMC3    C210736   3.276   3.830  13.217  0.1884 -0.0753  0.9787
  723TMC3    C310737   3.171   3.853  13.293 -0.2853 -0.2799  0.1964
  723TMC3    C410738   3.311   4.067  13.209 -0.5405  0.3656  0.0114
  723TMC3    C510739   3.201   4.085  13.286 -0.4408 -0.4486  0.5936
  723TMC3    C610740   3.133   3.973  13.338 -0.3295 -0.3776 -0.3065
  723TMC3     C10741   3.472   3.901  13.118 -0.2118  0.2631 -0.3864
  723TMC3     O10742   3.504   3.784  13.091  0.1734 -0.0486  0.3495
  723TMC3     H10743   3.312   3.730  13.195 -0.5398 -0.1838  0.2910
  723TMC3    H110744   3.365   4.149  13.163  0.6490 -0.9315 -0.8920
  723TMC3    H210745   3.054   3.993  13.409  1.1934  0.5962  1.1282
  723TMC3    C710746   3.129   4.207  13.272 -0.3469  0.4754 -0.2548
  723TMC3    C810747   3.094   3.745  13.335  0.1028 -1.1510  0.6073
  723TMC3    O110748   3.197   4.311  13.262 -0.2075 -0.4055  0.5498
  723TMC3    O210749   3.022   3.751  13.435  0.4887 -0.4184 -0.2073
  724TMC3    C110750   4.267   2.155   9.854 -0.0652  0.0684  0.3548
  724TMC3    C210751   4.167   2.241   9.812  0.2043  0.2113  0.0939
  724TMC3    C310752   4.210   2.352   9.740  0.4190 -0.2795  0.6994
  724TMC3    C410753   4.398   2.172   9.819 -0.4231 -0.9959 -0.5893
  724TMC3    C510754   4.431   2.287   9.755 -0.1767  0.3960 -0.1778
  724TMC3    C610755   4.339   2.375   9.701  0.3589 -0.1736 -0.4728
  724TMC3     C10756   4.245   2.051   9.945  0.4926  0.0174 -0.1288
  724TMC3     O10757   4.339   1.983   9.988  0.4436  0.0791  1.3150
  724TMC3     H10758   4.077   2.255   9.871  0.3829  0.2764  0.3511
  724TMC3    H110759   4.469   2.096   9.849  0.8898  0.5075  0.1176
  724TMC3    H210760   4.359   2.470   9.652  0.2387 -0.9919 -2.1256
  724TMC3    C710761   4.552   2.365   9.793  0.5280 -0.0326 -0.5030
  724TMC3    C810762   4.129   2.468   9.738 -0.0870 -0.0063 -0.3998
  724TMC3    O110763   4.549   2.481   9.750 -0.4013 -0.3816 -0.2936
  724TMC3    O210764   4.006   2.462   9.736  0.8371  0.2634  0.7661
  725TMC3    C110765   0.947   1.377  12.276  0.2052 -0.1639 -0.2028
  725TMC3    C210766   0.856   1.429  12.196  0.0645  0.2895 -0.3813
  725TMC3    C310767   0.756   1.346  12.153 -0.2723  0.2450  0.4173
  725TMC3    C410768   0.930   1.249  12.334  0.1380 -0.4590 -0.5960
  725TMC3    C510769   0.827   1.171  12.288 -0.5175  0.6573  0.0286
  725TMC3    C610770   0.738   1.215  12.194  0.5002  0.5976  0.4945
  725TMC3     C10771   1.064   1.456  12.316  0.6556  0.6653 -0.0817
  725TMC3     O10772   1.060   1.574  12.313 -0.0955  0.5715 -0.2625
  725TMC3     H10773   0.863   1.530  12.159 -0.5645  0.0941 -1.0299
  725TMC3    H110774   0.996   1.226  12.416 -1.0940  1.3636  0.9070
  725TMC3    H210775   0.649   1.163  12.159  1.7821 -1.8449  0.8873
  725TMC3    C710776   0.848   1.033  12.322 -0.1036  0.2020  0.3550
  725TMC3    C810777   0.677   1.381  12.036  0.1878  0.5061  0.2094
  725TMC3    O110778   0.956   1.012  12.377 -0.8999 -0.3416 -0.3247
  725TMC3    O210779   0.627   1.283  11.970  0.0872  0.3736 -0.3671
  726MPD2     C10780   3.787   2.222  10.501  0.6148 -0.4025 -0.0972
  726MPD2    C110781   3.714   2.321  10.439  0.1479 -0.2867  0.8779
  726MPD2    C210782   3.588   2.283  10.396 -0.0466  0.0339 -0.3364
  726MPD2    C310783   3.525   2.172  10.445 -0.9908  0.5984  0.3662
  726MPD2    C410784   3.595   2.083  10.529 -0.3657 -0.2544 -0.0015
  726MPD2    C510785   3.725   2.109  10.554  0.6546  0.1009 -0.0696
  726MPD2     H10786   3.528   2.350  10.335 -0.0063 -0.6559 -1.1186
  726MPD2    H110787   3.553   2.000  10.583  1.5917 -0.2438  1.5288
  726MPD2    H210788   3.892   2.232  10.526  0.0287  2.2818  1.2562
  726MPD2    H310789   3.789   2.042  10.611 -0.4583 -2.7753 -2.2052
  726MPD2     N10790   3.391   2.133  10.413 -0.0461 -0.3845  0.4108
  726MPD2    H510791   3.353   2.052  10.461  2.3721 -0.8273  1.6025
  726MPD2    N110792   3.764   2.446  10.415  0.3875  0.1165 -0.0430
  726MPD2    H710793   3.695   2.514  10.382 -0.1572 -1.0490 -1.3427
  727TMC3    C110794   3.874   2.643  10.455 -0.2790  0.3037 -0.1430
  727TMC3    C210795   3.943   2.704  10.552 -0.0035  0.2683 -0.3176
  727TMC3    C310796   3.902   2.825  10.591 -0.0929 -0.1946 -0.3434
  727TMC3    C410797   3.761   2.698  10.399 -0.3674 -0.4367 -0.8168
  727TMC3    C510798   3.739   2.827  10.438  1.3155  0.5522  0.8158
  727TMC3    C610799   3.810   2.895  10.532  0.7649  0.1403  0.1026
  727TMC3     C10800   3.885   2.501  10.442 -0.1216 -0.2346 -0.6157
  727TMC3     O10801   3.989   2.448  10.475  0.1763 -0.3131  0.2002
  727TMC3     H10802   4.034   2.666  10.597  0.1442 -0.5702 -1.3482
  727TMC3    H110803   3.719   2.657  10.308 -0.9364 -0.1997 -0.6589
  727TMC3    H210804   3.767   2.986  10.573 -1.3470 -1.3399  1.2187
  727TMC3    C710805   3.669   2.925  10.359 -0.6482 -0.2124  0.8709
  727TMC3    C810806   4.011   2.906  10.648  0.3246 -0.2192 -0.0021
  727TMC3    O110807   3.696   3.043  10.381 -0.3511 -0.0138 -0.5430
  727TMC3    O210808   4.126   2.875  10.630  0.8233 -0.3369  0.2314
  728TMC3    C110809   2.879   1.589  15.286 -0.3491  0.1065 -0.0302
  728TMC3    C210810   2.991   1.517  15.288  0.4615  0.0887  0.2316
  728TMC3    C310811   3.035   1.463  15.168 -0.6229 -0.3303  0.4295
  728TMC3    C410812   2.799   1.616  15.176 -0.0194 -0.8406  0.4046
  728TMC3    C510813   2.852   1.570  15.058  0.3220 -0.8243  0.7505
  728TMC3    C610814   2.968   1.496  15.047 -0.0646 -0.6188  0.2154
  728TMC3     C10815   2.815   1.590  15.410 -0.3463 -0.9802  0.1233
  728TMC3     O10816   2.889   1.622  15.503  0.0149 -0.6603  0.8042
  728TMC3     H10817   3.036   1.484  15.381  0.5016 -1.8082 -0.4704
  728TMC3    H110818   2.716   1.685  15.175  1.4511  0.9225  1.1540
  728TMC3    H210819   3.016   1.478  14.952 -2.4159  0.4703 -1.1672
  728TMC3    C710820   2.784   1.584  14.928  0.2486 -0.1545  0.7822
  728TMC3    C810821   3.141   1.367  15.167  0.2344  0.4883  0.5636
  728TMC3    O110822   2.819   1.503  14.840  0.2936  0.5223  0.2561
  728TMC3    O210823   3.159   1.313  15.061  0.1492  0.3597  0.1800
  729MPD2     C10824   4.298   2.855  16.659  1.0879  0.2592  0.1533
  729MPD2    C110825   4.411   2.775  16.667 -0.4060  0.5310  0.2477
  729MPD2    C210826   4.477   2.754  16.792 -0.0161 -0.2940 -0.3757
  729MPD2    C310827   4.425   2.816  16.905 -0.1550 -0.2889 -0.4490
  729MPD2    C410828   4.311   2.896  16.902  0.7177  0.3678  0.3263
  729MPD2    C510829   4.257   2.913  16.777  0.4553  0.0142 -0.5245
  729MPD2     H10830   4.563   2.688  16.800 -1.0662 -1.4565  1.2736
  729MPD2    H110831   4.259   2.959  16.974  1.5990 -0.3606  1.6013
  729MPD2    H210832   4.259   2.875  16.560  1.0271  0.7360  0.2757
  729MPD2    H310833   4.172   2.981  16.776  0.2546 -0.1863  2.4859
  729MPD2     N10834   4.492   2.804  17.029 -0.1297 -0.2986  0.4376
  729MPD2    H510835   4.452   2.858  17.105 -3.6174 -0.6052 -1.1836
  729MPD2    N110836   4.459   2.729  16.545  0.0337  0.0015  0.4167
  729MPD2    H710837   4.412   2.748  16.457 -1.3259 -0.6410  0.9995
  730TMC3    C110838   4.649   2.807  17.187 -1.2098 -0.9125  0.1373
  730TMC3    C210839   0.035   2.870  17.186 -0.6504  0.0505 -0.3178
  730TMC3    C310840   0.055   2.977  17.269  0.5835 -0.5274 -0.9340
  730TMC3    C410841   4.554   2.854  17.270  0.6535 -0.3685 -0.3809
  730TMC3    C510842   4.576   2.951  17.363  0.1444  0.4175  0.2006
  730TMC3    C610843   4.700   3.015  17.368  0.1218 -0.1981  0.3165
  730TMC3     C10844   4.618   2.758  17.056 -0.4968 -0.3755  0.9086
  730TMC3     O10845   4.701   2.708  16.984  0.0505  0.4926 -0.4357
  730TMC3     H10846   0.111   2.828  17.121 -2.7517 -1.7654 -1.5891
  730TMC3    H110847   4.460   2.800  17.277 -0.0771  1.1823  1.7435
  730TMC3    H210848   4.718   3.104  17.428  0.2093 -0.6123  0.9084
  730TMC3    C710849   4.484   3.048  17.315 -0.3825 -0.0377 -0.0554
  730TMC3    C810850   0.109   3.084  17.192 -0.6505 -0.5113  0.1321
  730TMC3    O110851   4.470   3.042  17.192 -0.1883 -0.3657 -0.3528
  730TMC3    O210852   0.166   3.043  17.085  0.0632  0.2763 -0.3712
  731MPD2     C10853   4.543   0.723  12.223 -0.5063  0.4992 -0.2390
  731MPD2    C110854   4.673   0.713  12.275 -0.1162  0.6614  0.4978
  731MPD2    C210855   4.685   0.708  12.411 -0.3268  0.6249  0.1165
  731MPD2    C310856   4.577   0.718  12.499  0.0516 -0.3157 -0.4484
  731MPD2    C410857   4.447   0.741  12.447 -0.0557  0.3376 -0.5828
  731MPD2    C510858   4.434   0.729  12.310 -0.1716  0.5810  0.2452
  731MPD2     H10859   0.048   0.685  12.445  1.0575  0.1048 -4.3991
  731MPD2    H110860   4.361   0.746  12.512  0.4554  4.0964 -0.2260
  731MPD2    H210861   4.527   0.723  12.116  1.0602 -1.1762 -0.4724
  731MPD2    H310862   4.331   0.738  12.276 -0.4210  2.2730  1.4555
  731MPD2     N10863   4.604   0.689  12.634 -0.4390 -0.0908 -0.0144
  731MPD2    H510864   4.702   0.686  12.659 -0.1019 -0.0521 -1.3314
  731MPD2    N110865   0.040   0.712  12.178  0.1502  0.5039 -0.3592
  731MPD2    H710866   0.011   0.710  12.080 -0.8566 -0.9108 -0.0300
  732TMC3    C110867   0.255   0.706  12.090  0.5616  0.3687 -0.2590
  732TMC3    C210868   0.235   0.606  12.004  0.8816 -0.0511 -0.1544
  732TMC3    C310869   0.323   0.587  11.900 -0.1647 -1.4320 -0.4174
  732TMC3    C410870   0.367   0.788  12.083 -0.3518  0.2689 -0.5511
  732TMC3    C510871   0.454   0.772  11.981 -0.1530 -0.0842  0.3794
  732TMC3    C610872   0.437   0.665  11.897 -0.4711  0.8421 -0.3297
  732TMC3     C10873   0.171   0.728  12.206 -0.9300 -0.3196 -0.4389
  732TMC3     O10874   0.225   0.749  12.314 -0.1926 -0.5543  0.2658
  732TMC3     H10875   0.157   0.535  12.029 -1.0560  2.2188  0.2796
  732TMC3    H110876   0.386   0.855  12.166 -0.4786  1.1870 -1.2631
  732TMC3    H210877   0.498   0.654  11.808  0.8412 -0.2572  0.6939
  732TMC3    C710878   0.586   0.843  11.989 -0.3652  0.1475  0.0679
  732TMC3    C810879   0.309   0.480  11.804  0.5549 -0.8125 -0.3483
  732TMC3    O110880   0.573   0.949  12.046 -0.5960  0.7727 -0.7375
  732TMC3    O210881   0.415   0.438  11.755 -0.2237 -0.3956 -0.5776
  733TMC3    C110882   1.409   3.857  12.865  0.0295  0.4754 -0.4930
  733TMC3    C210883   1.412   3.990  12.853  0.2465  0.8006 -0.3480
  733TMC3    C310884   1.469   4.034  12.742 -0.2197  0.5132 -0.2978
  733TMC3    C410885   1.448   3.767  12.768  0.1614  0.2347 -0.5697
  733TMC3    C510886   1.517   3.814  12.655 -0.3059  0.1723 -0.0952
  733TMC3    C610887   1.530   3.953  12.646 -0.1051  0.4953  0.5214
  733TMC3     C10888   1.339   3.814  12.985  1.3454 -0.0432 -0.1789
  733TMC3     O10889   1.272   3.899  13.033 -0.5218  0.3929  0.3876
  733TMC3     H10890   1.388   4.066  12.926  1.2763  1.6799 -0.9244
  733TMC3    H110891   1.442   3.662  12.790 -0.4602  0.1582 -1.0991
  733TMC3    H210892   1.570   4.008  12.562  1.0367 -0.6581  0.2985
  733TMC3    C710893   1.465   3.762  12.533 -0.5408  0.7710 -0.4578
  733TMC3    C810894   1.420   4.157  12.692  0.1926 -0.1646  0.2588
  733TMC3    O110895   1.450   3.643  12.524  0.2695  0.4765  0.6096
  733TMC3    O210896   1.411   4.162  12.571  0.4625 -0.5874  0.9200
  734MPD2     C10897   3.285   1.314  12.272 -0.5726  0.1303  0.0996
  734MPD2    C110898   3.178   1.273  12.192 -0.4046 -0.3192 -0.1259
  734MPD2    C210899   3.180   1.325  12.067 -0.2278 -1.1652  0.3635
  734MPD2    C310900   3.280   1.396  12.008  1.0591 -0.3354 -0.3673
  734MPD2    C410901   3.379   1.440  12.090 -0.0553 -0.5206 -0.1174
  734MPD2    C510902   3.380   1.396  12.216  0.0295  0.5426 -0.3356
  734MPD2     H10903   3.106   1.306  11.990 -0.8139  1.0450  0.3687
  734MPD2    H110904   3.462   1.496  12.047  0.3236 -1.6605 -0.8614
  734MPD2    H210905   3.307   1.268  12.368 -0.1538 -0.2472 -0.1813
  734MPD2    H310906   3.467   1.424  12.274  0.6318 -0.2992 -0.8215
  734MPD2     N10907   3.274   1.411  11.867  0.1482 -0.1799 -0.0726
  734MPD2    H510908   3.187   1.384  11.823  0.7623 -0.1353 -1.3066
  734MPD2    N110909   3.077   1.186  12.226 -0.6118 -0.0178 -0.8028
  734MPD2    H710910   3.068   1.146  12.319  0.1322  1.5905 -0.0258
  735TMC3    C110911   2.900   1.029  12.197 -0.9577  0.3991  0.3296
  735TMC3    C210912   2.787   1.012  12.118 -0.5742  0.3185  0.5276
  735TMC3    C310913   2.756   0.883  12.087 -0.3020 -0.3158 -0.1597
  735TMC3    C410914   2.971   0.925  12.258 -0.1548  0.1097 -0.0641
  735TMC3    C510915   2.915   0.800  12.234 -0.0776 -0.2271 -0.6606
  735TMC3    C610916   2.817   0.778  12.147  0.3284 -0.1349 -0.4694
  735TMC3     C10917   2.972   1.145  12.147  0.3416 -0.3570  0.0694
  735TMC3     O10918   2.965   1.133  12.026  0.2469  0.3991  0.3903
  735TMC3     H10919   2.750   1.103  12.073 -2.6267 -1.1190 -0.6884
  735TMC3    H110920   3.069   0.940  12.302  0.0284  1.3436 -0.8850
  735TMC3    H210921   2.792   0.674  12.126 -0.6638 -0.1557  0.7523
  735TMC3    C710922   3.011   0.693  12.242  0.4151 -0.1827  0.1748
  735TMC3    C810923   2.755   0.855  11.945  0.2754 -0.7131 -0.4570
  735TMC3    O110924   2.959   0.597  12.304  0.2758  0.3275 -0.1083
  735TMC3    O210925   2.708   0.745  11.923  0.1720  0.1476  0.3926
  736MPD2     C10926   3.222   0.487  12.257 -0.4207 -0.3093  0.2251
  736MPD2    C110927   3.229   0.599  12.173 -0.5244 -0.5824 -0.3127
  736MPD2    C210928   3.337   0.593  12.085 -0.8117 -0.7305  0.7395
  736MPD2    C310929   3.431   0.500  12.085  0.6050  0.5641 -0.2010
  736MPD2    C410930   3.421   0.394  12.174  0.5374  0.1570 -0.2688
  736MPD2    C510931   3.319   0.392  12.267  0.7123 -0.1793 -0.0073
  736MPD2     H10932   3.347   0.672  12.012 -3.5199 -1.9272 -0.9108
  736MPD2    H110933   3.496   0.316  12.177 -0.3433 -0.7357 -1.5451
  736MPD2    H210934   3.136   0.469  12.320  0.1359  1.8115  1.6244
  736MPD2    H310935   3.314   0.313  12.341  2.2162  1.5000  1.8966
  736MPD2     N10936   3.544   0.505  11.995  0.3282 -0.7815  0.7624
  736MPD2    H510937   3.593   0.416  11.992  1.4899 -0.1206 -0.0179
  736MPD2    N110938   3.132   0.699  12.169 -0.1812 -0.5381  0.5414
  736MPD2    H710939   3.142   0.776  12.103 -0.1068 -0.6687  0.4010
  737TMC3    C110940   3.702   0.586  11.847 -0.0659  0.1475 -0.1995
  737TMC3    C210941   3.796   0.683  11.817  0.7883 -0.1186  1.0505
  737TMC3    C310942   3.880   0.658  11.712 -0.0024  0.3274 -0.2404
  737TMC3    C410943   3.705   0.472  11.777 -0.1220  0.2954  0.0101
  737TMC3    C510944   3.794   0.452  11.677 -0.1796 -0.3449  0.4141
  737TMC3    C610945   3.882   0.547  11.635 -0.5147  0.0330  0.3423
  737TMC3     C10946   3.591   0.616  11.935 -0.6127 -0.5185 -0.0604
  737TMC3     O10947   3.560   0.732  11.951  0.3404 -0.5280 -0.2626
  737TMC3     H10948   3.786   0.787  11.846  0.9991 -0.3342  1.8876
  737TMC3    H110949   3.634   0.396  11.807 -0.1762  0.3589  0.0421
  737TMC3    H210950   3.933   0.543  11.539 -0.4651 -2.6982  0.4992
  737TMC3    C710951   3.802   0.326  11.625 -0.2068  0.0133  0.3882
  737TMC3    C810952   3.921   0.783  11.651 -0.1899 -0.9147  0.2683
  737TMC3    O110953   3.733   0.238  11.670  0.2239 -0.7648 -0.1196
  737TMC3    O210954   3.985   0.865  11.716 -0.0446  0.5290  0.1192
  738MPD2     C10955   4.147   4.549  15.425 -0.3643 -0.0069  0.8351
  738MPD2    C110956   4.108   4.493  15.303 -0.1675  0.3131 -0.0549
  738MPD2    C210957   4.196   4.509  15.194  0.2432 -0.4308 -0.6079
  738MPD2    C310958   4.301   4.585  15.203 -0.1606  0.3743 -0.5169
  738MPD2    C410959   4.336   4.646  15.322  0.1020  0.1963 -0.4191
  738MPD2    C510960   4.260   4.628  15.436  0.0068  0.4582  0.4044
  738MPD2     H10961   4.173   4.463  15.098  0.3134 -1.8540  0.0563
  738MPD2    H110962   4.427   4.704  15.338 -0.0469  0.5205 -0.7394
  738MPD2    H210963   4.094   4.531  15.518  1.0628 -0.6478  1.5178
  738MPD2    H310964   4.283   4.670  15.533  3.7950  0.8335 -0.6942
  738MPD2     N10965   4.397   4.614  15.105 -0.3030  0.3949  0.3165
  738MPD2    H510966   4.468   4.681  15.136  1.5652 -1.1655 -0.6101
  738MPD2    N110967   3.986   4.420  15.286 -0.5319  0.0731  0.6179
  738MPD2    H710968   3.979   4.381  15.192 -5.5208 -0.3981  1.2076
  739TMC3    C110969   4.478   4.651  14.879  0.1377 -0.6976 -0.3097
  739TMC3    C210970   4.459   4.658  14.740  0.3467  0.8008  0.7607
  739TMC3    C310971   4.555   4.723  14.669  0.3169 -0.1950  0.1616
  739TMC3    C410972   4.590   4.698  14.946 -0.0421  0.1679  0.0319
  739TMC3    C510973   4.686   0.004  14.855 -0.4508  0.3620 -0.3267
  739TMC3    C610974   4.676   0.022  14.723  0.5838 -0.2991  0.7058
  739TMC3     C10975   4.386   4.578  14.972 -0.2652  0.0237  0.0928
  739TMC3     O10976   4.300   4.507  14.914  0.2684 -0.4447  0.4354
  739TMC3     H10977   4.379   4.602  14.693 -0.1840  2.6574 -0.5813
  739TMC3    H110978   4.618   4.685  15.049  0.5587  0.1643 -0.1311
  739TMC3    H210979   0.024   0.053  14.663 -0.4721 -0.9622 -1.1346
  739TMC3    C710980   0.059   0.075  14.919  0.7230  0.2038  0.6626
  739TMC3    C810981   4.500   0.047  14.556 -0.0769  0.1909 -0.0605
  739TMC3    O110982   0.100   0.182  14.875 -0.3644 -0.5574  0.5195
  739TMC3    O210983   4.396   0.002  14.509 -0.2723  0.2614 -1.1963
  740TMC3    C110984   3.994   1.287  14.066 -0.4417 -0.1090  0.2519
  740TMC3    C210985   4.113   1.352  14.104 -0.0674 -0.0399 -0.1921
  740TMC3    C310986   4.203   1.386  14.013  0.6191  0.0803 -0.3816
  740TMC3    C410987   3.963   1.250  13.938  0.5528 -0.1487 -0.2960
  740TMC3    C510988   4.066   1.285  13.850 -0.0692  0.6810  0.2768
  740TMC3    C610989   4.189   1.349  13.885  0.2750 -0.2173 -0.1595
  740TMC3     C10990   3.902   1.252  14.171 -0.4656  0.5207  0.3757
  740TMC3     O10991   3.900   1.325  14.263  0.3652 -0.3812 -0.1186
  740TMC3     H10992   4.121   1.381  14.209  2.2901 -1.2088 -0.0513
  740TMC3    H110993   3.869   1.207  13.905 -0.5132  0.1449  2.3789
  740TMC3    H210994   4.253   1.386  13.806  0.2607 -3.9241 -1.8922
  740TMC3    C710995   4.034   1.259  13.713  0.1866  0.2429  0.0910
  740TMC3    C810996   4.323   1.464  14.043 -0.2279 -0.8121 -0.4506
  740TMC3    O110997   3.916   1.242  13.692  0.0303  0.2962  0.5500
  740TMC3    O210998   4.353   1.553  13.970 -0.1535 -0.3276  0.2377
  741TMC3    C110999   4.263   0.487  14.387 -0.8221  0.8055  0.0291
  741TMC3    C211000   4.155   0.412  14.351  0.2591  0.2032  0.8081
  741TMC3    C311001   4.112   0.317  14.443  0.0347 -1.0592  0.6703
  741TMC3    C411002   4.329   0.461  14.498  0.6682 -0.0374  0.1637
  741TMC3    C511003   4.287   0.360  14.582 -0.0434 -0.7093 -0.6111
  741TMC3    C611004   4.182   0.280  14.555 -0.9060  0.1182 -0.0367
  741TMC3     C11005   4.326   0.564  14.283 -0.2228  0.3521 -0.2607
  741TMC3     O11006   4.297   0.536  14.166 -0.5626  0.0842  0.3122
  741TMC3     H11007   4.088   0.425  14.266 -0.9613 -0.4593  1.6804
  741TMC3    H111008   4.416   0.520  14.525  0.0131 -0.4542  3.1600
  741TMC3    H211009   4.162   0.188  14.608  0.5515 -0.3158 -0.2472
  741TMC3    C711010   4.369   0.346  14.705  0.1948 -0.6940 -0.7204
  741TMC3    C811011   3.976   0.269  14.437  0.2042 -0.2381 -0.5270
  741TMC3    O111012   4.466   0.419  14.713 -0.6974 -0.0620  0.1458
  741TMC3    O211013   3.908   0.307  14.340 -0.0955 -0.0931  0.4231
  742TMC3    C111014   4.047   3.933  15.363  0.4134  0.3039  0.7592
  742TMC3    C211015   3.965   3.867  15.269  0.2909  0.2873  0.1405
  742TMC3    C311016   4.024   3.752  15.220 -0.1621 -0.3403  0.0089
  742TMC3    C411017   4.156   3.877  15.420  0.2194  0.0621  0.7256
  742TMC3    C511018   4.204   3.749  15.378 -0.0968 -0.4986 -0.4204
  742TMC3    C611019   4.132   3.691  15.278 -0.1965  0.5478  0.6262
  742TMC3     C11020   3.980   4.040  15.442 -0.8425 -0.8421  0.5702
  742TMC3     O11021   3.860   4.051  15.436 -0.0541 -0.0169  0.1345
  742TMC3     H11022   3.898   3.923  15.205 -1.3702 -1.0325  0.7174
  742TMC3    H111023   4.216   3.943  15.480 -0.6065 -0.1165  1.7521
  742TMC3    H211024   4.167   3.599  15.232 -0.6223  0.3563  0.6847
  742TMC3    C711025   4.321   3.676  15.428 -0.0273 -0.4901 -0.4508
  742TMC3    C811026   3.943   3.672  15.124  0.2175 -0.1931  0.0360
  742TMC3    O111027   4.376   3.606  15.349  0.1002  0.2159  0.4715
  742TMC3    O211028   4.001   3.580  15.062 -0.0713 -0.1719  0.2601
  743MPD2     C11029   2.550   0.659   0.975 -0.1929 -0.3784 -0.1705
  743MPD2    C111030   2.436   0.600   0.928 -0.2582  0.1925 -0.0444
  743MPD2    C211031   2.438   0.558   0.796  0.6841 -0.0907  0.6300
  743MPD2    C311032   2.541   0.590   0.708  0.7600 -0.1446  0.4272
  743MPD2    C411033   2.662   0.642   0.759 -0.2648  0.6355  0.0863
  743MPD2    C511034   2.662   0.673   0.891 -0.8787 -0.3413 -0.4984
  743MPD2     H11035   2.344   0.526   0.755  0.4873 -0.6678  1.5188
  743MPD2    H111036   2.744   0.678   0.696 -0.9170 -1.1065 -1.7510
  743MPD2    H211037   2.560   0.693   1.078  1.4822  0.1301 -0.4955
  743MPD2    H311038   2.752   0.725   0.923 -1.0013  0.2717 -1.1719
  743MPD2     N11039   2.512   0.579   0.568  0.2825  1.0639  0.7596
  743MPD2    H511040   2.416   0.562   0.541  0.7735 -0.4341 -0.0264
  743MPD2    N111041   2.323   0.583   1.011 -0.2939  0.1279 -0.1026
  743MPD2    H711042   2.314   0.636   1.097 -0.0756 -0.6872  0.4223
  744TMC3    C111043   2.100   0.525   1.061  0.5537  0.1065 -0.8664
  744TMC3    C211044   2.080   0.644   1.116 -0.1308  0.3213  0.5617
  744TMC3    C311045   1.955   0.674   1.163 -0.9628 -0.1343  0.8279
  744TMC3    C411046   2.005   0.427   1.046 -0.7195 -0.7794 -0.3058
  744TMC3    C511047   1.882   0.466   1.090  0.3608  0.1781  0.5239
  744TMC3    C611048   1.858   0.588   1.141  0.7454 -0.2025  0.4171
  744TMC3     C11049   2.224   0.498   0.979  0.0099 -0.2830 -0.1049
  744TMC3     O11050   2.216   0.400   0.899 -0.1409 -0.3878  0.0539
  744TMC3     H11051   2.159   0.717   1.118  1.7491 -1.6815 -0.3685
  744TMC3    H111052   2.031   0.329   1.008  2.3861  0.0801 -0.3701
  744TMC3    H211053   1.762   0.615   1.184  0.7281  0.1712  0.1408
  744TMC3    C711054   1.766   0.421   1.013  0.1485  0.3811 -0.0368
  744TMC3    C811055   1.921   0.803   1.219  0.5492  0.2789 -0.0756
  744TMC3    O111056   1.690   0.508   0.967 -0.0788 -0.2898  0.0002
  744TMC3    O211057   1.799   0.832   1.231  0.2418 -0.0436 -0.4772
  745TMC3    C111058   0.185   3.225  13.985 -0.1138 -0.0887 -0.1039
  745TMC3    C211059   0.112   3.126  14.045 -0.1299  0.2456  0.1856
  745TMC3    C311060   0.008   3.077  13.980 -0.0584 -0.0897 -0.2118
  745TMC3    C411061   0.174   3.268  13.855 -0.0041  0.4252 -0.7985
  745TMC3    C511062   0.065   3.221  13.793 -0.3799 -0.1514  0.1490
  745TMC3    C611063   4.730   3.125  13.853  0.4418 -0.6994 -0.3628
  745TMC3     C11064   0.257   3.315  14.079 -0.0850  0.0754 -0.7503
  745TMC3     O11065   0.273   3.281  14.193  0.0913 -0.3027 -0.6339
  745TMC3     H11066   0.136   3.083  14.141  0.5105 -2.5413 -1.2095
  745TMC3    H111067   0.243   3.334  13.804  0.4869 -0.4118 -1.2231
  745TMC3    H211068   4.646   3.094  13.791 -2.1202  0.0011  2.7560
  745TMC3    C711069   0.046   3.242  13.649  0.2764 -0.4053  0.8143
  745TMC3    C811070   4.622   3.123  14.039  0.5433 -0.3289  0.3124
  745TMC3    O111071   4.681   3.190  13.593  0.1156  0.0886 -0.2929
  745TMC3    O211072   4.518   3.090  13.989 -0.2363 -0.6529  0.0145
  746TMC3    C111073   2.261   0.254  11.054 -0.1618 -0.0280  0.3226
  746TMC3    C211074   2.342   0.212  10.954 -0.7663 -0.0678  0.3036
  746TMC3    C311075   2.321   0.095  10.895 -0.3398 -0.1051 -0.4156
  746TMC3    C411076   2.159   0.173  11.101  0.7320 -0.0632 -0.4495
  746TMC3    C511077   2.148   0.050  11.045  0.0661  0.0219  0.3811
  746TMC3    C611078   2.225   0.009  10.938  0.0829 -0.5792  0.6288
  746TMC3     C11079   2.265   0.389  11.103 -0.2179  1.3405  0.3543
  746TMC3     O11080   2.169   0.437  11.161  0.2297  0.2192 -0.0377
  746TMC3     H11081   2.406   0.286  10.906 -3.5272  1.9442 -0.3192
  746TMC3    H111082   2.094   0.208  11.180 -0.0311  1.6047 -1.8134
  746TMC3    H211083   2.215   4.653  10.885  0.3511 -0.2840  0.0578
  746TMC3    C711084   2.016   4.729  11.043 -0.6552  0.5293  0.3387
  746TMC3    C811085   2.365   0.065  10.756  0.0756 -0.7715  0.4600
  746TMC3    O111086   1.983   4.676  10.940 -0.2601 -0.2403  0.0395
  746TMC3    O211087   2.370   4.687  10.714  0.2871 -0.2212 -0.3033
  747TMC3    C111088   4.535   0.056  10.874 -0.2493  0.0508  0.1573
  747TMC3    C211089   4.424   0.006  10.936  0.2356  0.4876  0.9346
  747TMC3    C311090   4.387   0.071  11.054 -0.2181 -0.4286  0.0475
  747TMC3    C411091   4.623   0.145  10.931  0.4905 -0.4092  0.7546
  747TMC3    C511092   4.584   0.190  11.060 -0.2817 -0.5238  0.0365
  747TMC3    C611093   4.470   0.153  11.125  0.4426  0.1968 -0.5466
  747TMC3     C11094   4.548   0.051  10.730  0.5092 -0.4876  0.8685
  747TMC3     O11095   4.600   0.144  10.670  0.3422 -0.4660  0.0186
  747TMC3     H11096   4.355   4.683  10.877 -0.2061  1.0142  0.9160
  747TMC3    H111097   4.712   0.182  10.882  0.3917  2.2374  2.5707
  747TMC3    H211098   4.455   0.186  11.227  3.0174 -1.1429  0.2674
  747TMC3    C711099   4.685   0.239  11.143  1.1173  0.1469 -0.2252
  747TMC3    C811100   4.263   0.029  11.121 -0.3745 -0.7312 -0.6572
  747TMC3    O111101   4.658   0.325  11.227 -0.4485  0.2155 -0.4182
  747TMC3    O211102   4.207   4.668  11.077  0.0432 -0.7575  0.1967
  748MPD2     C11103   0.722   1.863   1.281 -0.2587 -0.2985  0.0566
  748MPD2    C111104   0.860   1.841   1.288  0.3237  0.6045 -0.4421
  748MPD2    C211105   0.945   1.927   1.214  0.2514  0.5236  0.5406
  748MPD2    C311106   0.893   2.016   1.117 -0.0467  0.7861 -0.0023
  748MPD2    C411107   0.755   2.026   1.105 -0.3325  0.4441  0.1729
  748MPD2    C511108   0.678   1.951   1.190 -0.2672  0.3186  0.1032
  748MPD2     H11109   1.052   1.924   1.228  0.4952  3.9987 -0.5459
  748MPD2    H111110   0.700   2.087   1.034 -0.4413  2.6104  2.1193
  748MPD2    H211111   0.646   1.806   1.333  0.2906 -2.7803 -1.8398
  748MPD2    H311112   0.570   1.961   1.189 -0.2856  0.2999  1.1746
  748MPD2     N11113   0.980   2.100   1.037  0.2493  0.5421 -0.6121
  748MPD2    H511114   1.081   2.088   1.032  0.1106 -0.9160  0.0077
  748MPD2    N111115   0.901   1.744   1.378 -0.0220 -0.2206  0.9596
  748MPD2    H711116   0.829   1.701   1.435 -0.3609 -0.6322  0.2271
  749TMC3    C111117   1.032   2.230   0.857 -0.4053 -0.5220 -0.1127
  749TMC3    C211118   1.118   2.127   0.833 -1.0448  0.0561  0.3477
  749TMC3    C311119   1.235   2.167   0.772 -0.2876  0.1567 -0.6265
  749TMC3    C411120   1.060   2.359   0.848  0.2122 -0.1366 -0.3221
  749TMC3    C511121   1.174   2.394   0.778 -0.1969  0.3954 -0.0051
  749TMC3    C611122   1.264   2.299   0.753 -0.5211  0.0514 -0.3914
  749TMC3     C11123   0.926   2.198   0.953  0.4221 -0.2905  0.8295
  749TMC3     O11124   0.844   2.285   0.961 -0.0405  0.2269 -0.3044
  749TMC3     H11125   1.087   2.024   0.840  1.4320 -0.5959  1.8533
  749TMC3    H111126   0.997   2.436   0.891  3.3076  1.6392  0.9888
  749TMC3    H211127   1.336   2.323   0.676  0.6009  0.0458  0.6475
  749TMC3    C711128   1.209   2.528   0.748  0.3548 -0.1394 -0.0547
  749TMC3    C811129   1.340   2.062   0.733 -0.3008 -0.6261 -0.2047
  749TMC3    O111130   1.329   2.544   0.733 -0.6051  0.2379 -1.0199
  749TMC3    O211131   1.303   1.952   0.706  0.0878  0.0092  0.1686
  750MPD2     C11132   2.323   2.283  11.418  0.5661  0.3397  0.3100
  750MPD2    C111133   2.187   2.254  11.404 -0.2869  0.4919  0.5985
  750MPD2    C211134   2.149   2.138  11.340  0.0549 -0.1748 -0.2955
  750MPD2    C311135   2.241   2.059  11.271  0.6516  0.8223 -0.2614
  750MPD2    C411136   2.373   2.087  11.287  0.1295  0.3859  0.1739
  750MPD2    C511137   2.413   2.196  11.360 -0.0714  0.7559  0.1152
  750MPD2     H11138   2.045   2.108  11.334 -0.5582  1.5964  1.4989
  750MPD2    H111139   2.446   2.029  11.231  0.5340 -0.1629  1.2639
  750MPD2    H211140   2.353   2.370  11.475  1.1681 -0.2049  0.8319
  750MPD2    H311141   2.519   2.203  11.378 -0.1681  2.3642  0.0888
  750MPD2     N11142   2.213   1.948  11.191 -0.1430 -0.2649  0.4180
  750MPD2    H511143   2.294   1.904  11.149 -0.6651 -0.8748  0.0581
  750MPD2    N111144   2.090   2.332  11.476 -0.9579 -0.2639 -1.1399
  750MPD2    H711145   2.126   2.421  11.507 -2.5853 -0.4447  1.3085
  751TMC3    C111146   2.099   1.775  11.085 -0.0907 -0.1107 -0.4940
  751TMC3    C211147   1.977   1.721  11.065  0.1226 -0.4798  0.2963
  751TMC3    C311148   1.976   1.594  11.008  0.0211  0.5460  0.7622
  751TMC3    C411149   2.217   1.715  11.063  0.5927 -0.0859  0.5292
  751TMC3    C511150   2.215   1.591  11.010  0.1307  0.1551  0.1982
  751TMC3    C611151   2.091   1.528  10.978 -0.2196  0.2611  1.0748
  751TMC3     C11152   2.088   1.904  11.151 -0.6161  0.2807 -0.1075
  751TMC3     O11153   1.977   1.955  11.156 -0.1845 -0.1544  0.6488
  751TMC3     H11154   1.883   1.770  11.088 -0.6144 -2.1549  0.8278
  751TMC3    H111155   2.314   1.763  11.070 -0.7539  2.6873  0.0773
  751TMC3    H211156   2.089   1.428  10.935  2.7099  1.1501 -1.1702
  751TMC3    C711157   2.332   1.535  10.951 -0.5350  0.0049 -0.2460
  751TMC3    C811158   1.855   1.506  11.023 -0.1202  0.0414  0.4240
  751TMC3    O111159   2.306   1.457  10.865  0.1813  0.4138  0.5027
  751TMC3    O211160   1.848   1.419  10.940 -0.2473 -0.1781 -0.0897
  752TMC3    C111161   0.730   2.319  16.911 -0.0073  0.9494 -0.4090
  752TMC3    C211162   0.787   2.211  16.974  0.3377  0.4730 -0.1740
  752TMC3    C311163   0.767   2.191  17.109 -0.1964  0.0291  0.3926
  752TMC3    C411164   0.660   2.412  16.980  0.4128  0.7544  0.2078
  752TMC3    C511165   0.640   2.387  17.116 -0.2053 -0.3718  0.5047
  752TMC3    C611166   0.701   2.285  17.185 -0.1433 -0.7510 -0.0598
  752TMC3     C11167   0.719   2.313  16.764 -0.6244  0.3659  0.2554
  752TMC3     O11168   0.789   2.233  16.707  0.2143 -0.2841 -0.1428
  752TMC3     H11169   0.820   2.127  16.914  0.1612 -0.4417  1.0296
  752TMC3    H111170   0.595   2.484  16.933  0.5656  0.0773 -1.0419
  752TMC3    H211171   0.717   2.279  17.292 -1.4135  0.6006  0.1921
  752TMC3    C711172   0.549   2.470  17.185 -0.0349 -0.3329  0.1644
  752TMC3    C811173   0.834   2.086  17.185  0.3401 -0.5963 -0.6707
  752TMC3    O111174   0.534   2.582  17.136  0.9228  0.3246 -0.1161
  752TMC3    O211175   0.792   2.070  17.299 -0.4422 -0.4136 -0.1883
  753TMC3    C111176   2.612   3.311  13.531  1.2336  0.2165  0.4231
  753TMC3    C211177   2.679   3.312  13.654  0.3530 -0.3564 -0.3113
  753TMC3    C311178   2.750   3.200  13.693 -0.0413 -0.1168  0.0697
  753TMC3    C411179   2.633   3.208  13.444  0.5454  0.6097  0.6637
  753TMC3    C511180   2.703   3.099  13.496 -0.2386  0.7115 -0.0574
  753TMC3    C611181   2.758   3.084  13.619  0.4673  0.2668 -0.4632
  753TMC3     C11182   2.519   3.419  13.496 -0.0536 -0.3458 -0.3266
  753TMC3     O11183   2.497   3.428  13.374 -0.0019  0.2140  0.0588
  753TMC3     H11184   2.672   3.397  13.720  0.7959 -1.4743  1.1746
  753TMC3    H111185   2.595   3.210  13.343 -0.7448 -1.3809  1.1129
  753TMC3    H211186   2.817   3.002  13.658 -1.8721 -0.0186  2.4924
  753TMC3    C711187   2.701   2.983  13.410  0.2181 -0.5479 -0.1552
  753TMC3    C811188   2.817   3.198  13.823 -0.1325  0.2210  0.6011
  753TMC3    O111189   2.712   2.996  13.286  0.3988  0.2697 -0.0635
  753TMC3    O211190   2.829   3.090  13.883 -0.6368  0.2415  0.0254
  754MPD2     C11191   1.457   2.104  13.441  0.5047  0.3300  0.5845
  754MPD2    C111192   1.409   1.998  13.355 -0.8051  0.8166  0.1179
  754MPD2    C211193   1.446   1.998  13.224 -0.0728 -0.0703  0.4580
  754MPD2    C311194   1.508   2.105  13.169  0.0636 -0.6318  0.0694
  754MPD2    C411195   1.558   2.205  13.244 -0.3593 -0.6523 -0.0159
  754MPD2    C511196   1.535   2.199  13.384  0.1552  1.0149  0.4299
  754MPD2     H11197   1.411   1.918  13.160  1.1449  1.6238 -2.3182
  754MPD2    H111198   1.606   2.284  13.188 -1.0154 -0.0832  0.2176
  754MPD2    H211199   1.430   2.118  13.545  2.2112 -0.5149  1.1399
  754MPD2    H311200   1.567   2.279  13.450  0.6469  0.5236  0.7907
  754MPD2     N11201   1.527   2.113  13.029 -0.0276  0.1842  0.0076
  754MPD2    H511202   1.575   2.196  12.998  2.7061 -0.6727  1.9036
  754MPD2    N111203   1.322   1.891  13.386  0.2062 -0.2309  0.7747
  754MPD2    H711204   1.293   1.836  13.307 -1.8497  0.4114  1.0765
  755MPD2     C11205   0.873   2.540  12.934 -0.6767  0.2211 -0.0843
  755MPD2    C111206   0.867   2.404  12.912 -0.0082 -0.2206 -0.3908
  755MPD2    C211207   0.975   2.343  12.849 -0.1563 -0.0005  0.0359
  755MPD2    C311208   1.093   2.412  12.829 -0.0728 -0.2010 -0.6199
  755MPD2    C411209   1.102   2.546  12.861  0.2554 -0.3436 -0.5858
  755MPD2    C511210   0.988   2.610  12.912  0.3258  0.6064 -0.4619
  755MPD2     H11211   0.981   2.236  12.830 -0.9919 -0.1658  0.7116
  755MPD2    H111212   1.188   2.609  12.842 -0.3974  0.1364 -1.9662
  755MPD2    H211213   0.794   2.600  12.979 -1.0075  0.2521 -0.7153
  755MPD2    H311214   0.991   2.716  12.936 -1.7542  0.6581 -0.4337
  755MPD2     N11215   1.212   2.356  12.773 -0.1989  0.5665  0.4973
  755MPD2    H511216   1.298   2.408  12.789 -0.7066  1.6853 -0.3876
  755MPD2    N111217   0.755   2.316  12.946  0.0651  0.2417 -0.3787
  755MPD2    H711218   0.775   2.221  12.916 -0.0848 -0.3505  1.3568
  756MPD2     C11219   1.395   2.814   9.987 -0.4659  0.1859  0.5201
  756MPD2    C111220   1.388   2.815  10.125 -0.3027 -0.3071 -0.6265
  756MPD2    C211221   1.262   2.809  10.181  0.2230  0.5219  0.6368
  756MPD2    C311222   1.146   2.789  10.112 -0.3667  0.8269  0.0936
  756MPD2    C411223   1.154   2.791   9.972 -0.4786 -0.4439 -0.2660
  756MPD2    C511224   1.279   2.803   9.912  0.4387 -0.8777 -0.2532
  756MPD2     H11225   1.263   2.824  10.288  0.5605  0.5926  0.6262
  756MPD2    H111226   1.068   2.774   9.908 -1.2647  0.4267  0.5537
  756MPD2    H211227   1.489   2.815   9.932 -1.7097  1.1038 -1.5958
  756MPD2    H311228   1.294   2.793   9.806 -0.3153 -1.0644 -0.3407
  756MPD2     N11229   1.025   2.755  10.182  0.6498 -0.8253  0.2598
  756MPD2    H511230   1.021   2.744  10.283 -0.1673  0.0261  0.3283
  756MPD2    N111231   1.500   2.855  10.207  0.8251 -0.2081 -0.5807
  756MPD2    H711232   1.482   2.872  10.305  0.8937  1.1898 -0.8094
  757MPD2     C11233   1.099   1.986  10.522 -0.6273  0.0868 -0.0274
  757MPD2    C111234   1.167   2.101  10.499  0.5993  0.4005 -0.2303
  757MPD2    C211235   1.113   2.216  10.449  0.3749  0.0205  0.4462
  757MPD2    C311236   0.980   2.207  10.428 -0.2615  0.2304 -0.0010
  757MPD2    C411237   0.909   2.078  10.434  0.5375 -0.7684 -0.0940
  757MPD2    C511238   0.965   1.969  10.496 -0.4799  0.5045  0.4563
  757MPD2     H11239   1.169   2.306  10.428 -2.4882  2.1478  2.0353
  757MPD2    H111240   0.802   2.077  10.420  0.2154  1.1385  2.2157
  757MPD2    H211241   1.151   1.902  10.565 -0.9268 -0.4972 -0.8135
  757MPD2    H311242   0.905   1.880  10.509 -0.0676  0.0863 -0.5332
  757MPD2     N11243   0.919   2.318  10.367 -0.6019  0.1212 -0.2740
  757MPD2    H511244   0.988   2.382  10.329  0.7718 -1.0336  0.2909
  757MPD2    N111245   1.308   2.094  10.517  0.2531 -0.5510  0.5234
  757MPD2    H711246   1.349   2.002  10.523 -1.7858 -1.5919 -1.5747
  758MPD2     C11247   1.455   2.184  15.728  0.2040 -0.3575  0.1811
  758MPD2    C111248   1.470   2.111  15.844  0.6321  0.1865  0.7774
  758MPD2    C211249   1.392   2.131  15.954  0.4770  1.0150 -0.2427
  758MPD2    C311250   1.291   2.226  15.950 -0.4261 -0.6510  0.6318
  758MPD2    C411251   1.256   2.283  15.822  0.0382 -0.5718 -0.6607
  758MPD2    C511252   1.337   2.263  15.716 -0.0417 -0.4989 -0.2962
  758MPD2     H11253   1.424   2.074  16.040  2.1880  1.9209 -0.2786
  758MPD2    H111254   1.169   2.348  15.818 -0.1244 -0.9378 -2.8248
  758MPD2    H211255   1.531   2.185  15.650  1.1687  1.5383  1.1284
  758MPD2    H311256   1.316   2.312  15.622 -0.2154  1.5407  0.7952
  758MPD2     N11257   1.199   2.243  16.059  0.0671 -0.1660  0.5704
  758MPD2    H511258   1.108   2.283  16.036 -1.1939 -2.1562  2.0982
  758MPD2    N111259   1.576   2.020  15.851 -0.2993  0.2569  0.0705
  758MPD2    H711260   1.659   2.038  15.795 -0.1365 -1.2874 -0.1787
  759MPD2     C11261   0.663   0.783  10.423  0.6782 -0.5282 -0.2779
  759MPD2    C111262   0.748   0.670  10.409 -0.0673  0.3137 -0.0468
  759MPD2    C211263   0.816   0.654  10.293 -0.3880  0.0329  0.3922
  759MPD2    C311264   0.794   0.736  10.178  0.2029  0.0841  0.6371
  759MPD2    C411265   0.702   0.841  10.186  0.0639  0.2994  0.4577
  759MPD2    C511266   0.633   0.857  10.311  0.1136  0.1351 -0.0545
  759MPD2     H11267   0.867   0.558  10.288 -0.2577  0.1312 -0.2043
  759MPD2    H111268   0.678   0.914  10.109  2.8943  0.3332 -0.3973
  759MPD2    H211269   0.608   0.813  10.511  1.0817 -0.3940 -0.0709
  759MPD2    H311270   0.561   0.937  10.314  0.3694  0.4382 -2.0395
  759MPD2     N11271   0.859   0.698  10.062 -0.2261 -0.0870  0.1387
  759MPD2    H511272   0.935   0.632  10.078  0.7635  1.0223  0.0268
  759MPD2    N111273   0.763   0.572  10.506  0.2068  0.3136 -0.0980
  759MPD2    H711274   0.838   0.504  10.494 -0.1962 -0.1432 -0.0136
  760MPD2     C11275   0.321   2.902  11.806  0.6156 -0.9674  0.0035
  760MPD2    C111276   0.450   2.886  11.762 -0.0264  0.0988 -0.3887
  760MPD2    C211277   0.498   2.761  11.730  0.5258  0.2051  0.2555
  760MPD2    C311278   0.413   2.651  11.714  0.5910  0.0109  1.1558
  760MPD2    C411279   0.280   2.670  11.756  0.1478 -0.2111  0.8869
  760MPD2    C511280   0.241   2.793  11.802 -0.3035  0.0655 -0.3406
  760MPD2     H11281   0.601   2.750  11.695  0.2126 -0.2751 -0.5270
  760MPD2    H111282   0.205   2.593  11.750 -0.4912  0.5029 -0.2419
  760MPD2    H211283   0.270   2.997  11.820 -1.3094 -1.6626 -2.1180
  760MPD2    H311284   0.136   2.805  11.825 -0.2946 -0.3196 -0.1060
  760MPD2     N11285   0.457   2.521  11.672 -0.7843 -0.1616 -0.0993
  760MPD2    H511286   0.399   2.443  11.702 -0.9052 -0.9942 -2.5282
  760MPD2    N111287   0.549   2.988  11.756  0.0575  0.0524  0.0523
  760MPD2    H711288   0.644   2.952  11.754  0.6529  1.6772 -0.7539
  761MPD2     C11289   1.444   1.314  11.270  0.1216 -0.0886  0.1381
  761MPD2    C111290   1.485   1.310  11.136  0.1323  0.7482 -0.6000
  761MPD2    C211291   1.597   1.386  11.093 -0.4963 -0.5844 -0.3429
  761MPD2    C311292   1.667   1.463  11.182  0.6875 -0.4798  0.1437
  761MPD2    C411293   1.624   1.462  11.316 -0.7777 -0.5954 -0.1714
  761MPD2    C511294   1.515   1.383  11.358  1.0997 -0.2398 -0.2576
  761MPD2     H11295   1.620   1.376  10.987  0.4230  1.2316 -0.3074
  761MPD2    H111296   1.692   1.506  11.389  0.2099 -1.0973 -0.7986
  761MPD2    H211297   1.367   1.255  11.319 -0.1595  1.6524  1.8369
  761MPD2    H311298   1.494   1.369  11.463 -0.5032  3.2209 -0.1105
  761MPD2     N11299   1.793   1.528  11.145  0.8943  0.1235  0.0322
  761MPD2    H511300   1.824   1.598  11.211 -0.3241  1.5045 -0.8589
  761MPD2    N111301   1.424   1.212  11.051 -0.1192 -0.2977 -0.3301
  761MPD2    H711302   1.365   1.152  11.108 -0.9879  0.9296  0.0633
  762MPD2     C11303   1.960   1.133  10.784 -0.3769  0.1173  0.0387
  762MPD2    C111304   1.901   1.026  10.721  0.1858 -0.1997 -0.2021
  762MPD2    C211305   1.978   0.956  10.624  1.1390  0.3191 -0.6518
  762MPD2    C311306   2.113   0.994  10.604  0.5277  0.8891 -0.5380
  762MPD2    C411307   2.172   1.096  10.682  0.6273  0.0156 -0.6223
  762MPD2    C511308   2.086   1.167  10.764 -0.1458 -0.5423 -0.1285
  762MPD2     H11309   1.933   0.872  10.572  1.7833  0.0226 -0.7417
  762MPD2    H111310   2.272   1.137  10.677  0.5074  0.4559  0.5181
  762MPD2    H211311   1.911   1.197  10.856  0.9532  2.2434 -0.9328
  762MPD2    H311312   2.114   1.260  10.812 -2.3142 -0.1881  0.4499
  762MPD2     N11313   2.187   0.942  10.499 -0.1409 -0.0543 -0.5397
  762MPD2    H511314   2.143   0.862  10.454  0.0817 -0.8274  0.6104
  762MPD2    N111315   1.769   0.989  10.765  0.0484  0.2828 -0.2370
  762MPD2    H711316   1.723   1.055  10.828 -1.8509  1.5178 -2.9181
  763MPD2     C11317   3.467   1.887  15.906 -0.4552 -0.2267  0.8333
  763MPD2    C111318   3.347   1.936  15.953 -0.3880 -0.3367  0.6314
  763MPD2    C211319   3.332   1.992  16.078 -0.0898  0.3954  0.5292
  763MPD2    C311320   3.446   2.000  16.156 -0.0291  0.5949 -0.1538
  763MPD2    C411321   3.566   1.948  16.112 -0.5401  0.5802 -0.4298
  763MPD2    C511322   3.579   1.897  15.983 -0.0183 -0.0800  0.5468
  763MPD2     H11323   3.239   2.043  16.101  0.2348  1.7285 -1.0841
  763MPD2    H111324   3.658   1.954  16.168 -0.8948  1.0857  0.0934
  763MPD2    H211325   3.489   1.836  15.813  2.0461  0.1464  1.2085
  763MPD2    H311326   3.672   1.848  15.956 -0.5200  0.4808 -2.1580
  763MPD2     N11327   3.457   2.068  16.278 -0.0110  0.0039 -0.4048
  763MPD2    H511328   3.551   2.079  16.316  0.2297 -0.8449 -0.7549
  763MPD2    N111329   3.237   1.946  15.869 -0.0062  0.0061  0.2237
  763MPD2    H711330   3.166   2.012  15.900  1.2046  1.1865  0.4703
  764MPD2     C11331   1.356   4.020  17.391  0.4285  0.3209  0.2518
  764MPD2    C111332   1.234   3.955  17.377  0.5577  0.8354  0.2508
  764MPD2    C211333   1.185   3.883  17.487  0.2313 -0.4764  0.5046
  764MPD2    C311334   1.242   3.886  17.612 -0.5871  0.7680  0.0172
  764MPD2    C411335   1.372   3.932  17.615  0.0349 -0.4189  0.4802
  764MPD2    C511336   1.431   3.992  17.500  0.4048 -0.2236 -0.3962
  764MPD2     H11337   1.086   3.839  17.496 -0.2755  0.6086  0.1473
  764MPD2    H111338   1.416   3.942  17.714 -0.9284  0.4788  0.8191
  764MPD2    H211339   1.403   4.082  17.316  2.7825 -0.4998  1.0565
  764MPD2    H311340   1.529   4.038  17.499 -0.4169  1.5328 -1.0381
  764MPD2     N11341   1.160   3.844  17.721  0.2579 -0.7027  0.6346
  764MPD2    H511342   1.063   3.835  17.692  0.9280 -0.2608 -1.7886
  764MPD2    N111343   1.155   3.952  17.259 -0.0463 -0.1408  0.0987
  764MPD2    H711344   1.079   3.889  17.237 -0.7097  1.2284 -1.5101
  765MPD2     C11345   1.388   1.332  15.451  0.3778  0.6680 -0.3945
  765MPD2    C111346   1.436   1.406  15.551 -0.2854 -0.0058  0.0536
  765MPD2    C211347   1.556   1.374  15.602 -0.4719 -0.6847  0.1207
  765MPD2    C311348   1.635   1.274  15.546  0.3096  0.5264 -0.3394
  765MPD2    C411349   1.587   1.208  15.430  0.2767 -0.1670 -0.0064
  765MPD2    C511350   1.460   1.238  15.389  0.4886  0.2665 -0.6598
  765MPD2     H11351   1.601   1.410  15.694 -0.2325  2.0341 -1.0677
  765MPD2    H111352   1.649   1.135  15.380 -0.4541 -0.8792  0.1258
  765MPD2    H211353   1.290   1.350  15.410  0.5827  4.0578  0.5813
  765MPD2    H311354   1.425   1.171  15.311  0.5342  0.1377 -0.5688
  765MPD2     N11355   1.761   1.248  15.603  0.5674  0.1612 -0.3108
  765MPD2    H511356   1.775   1.264  15.702  0.0377  2.1344 -0.5508
  765MPD2    N111357   1.351   1.513  15.599  0.0409 -0.0893  0.0394
  765MPD2    H711358   1.255   1.514  15.568  0.3625  0.9082 -0.9324
  766MPD2     C11359   0.894   1.584  15.214 -0.2712  0.1272  0.5388
  766MPD2    C111360   1.026   1.604  15.212  0.5044 -0.8000 -0.4353
  766MPD2    C211361   1.107   1.565  15.102  0.8324 -0.0820 -0.2016
  766MPD2    C311362   1.055   1.494  14.999  0.3753  0.3097  0.3134
  766MPD2    C411363   0.920   1.462  15.005  1.2113 -0.4121 -0.1475
  766MPD2    C511364   0.843   1.512  15.108 -0.4402 -0.0426 -0.5395
  766MPD2     H11365   1.209   1.601  15.098 -0.0074  2.0191 -2.2612
  766MPD2    H111366   0.863   1.410  14.929 -0.4980  2.1721 -0.6040
  766MPD2    H211367   0.827   1.618  15.292  0.1498  2.2361 -0.0262
  766MPD2    H311368   0.737   1.489  15.105 -0.5440  0.4780 -0.8313
  766MPD2     N11369   1.125   1.442  14.889  0.3176  0.4467  0.3508
  766MPD2    H511370   1.075   1.386  14.821 -0.7015  2.8551 -0.8954
  766MPD2    N111371   1.084   1.674  15.316 -0.2190 -0.1422  0.4716
  766MPD2    H711372   1.180   1.706  15.305 -0.3374 -0.0667 -0.3516
  767MPD2     C11373   0.779   1.741  14.853 -0.0115  0.5148 -0.3554
  767MPD2    C111374   0.899   1.724  14.790 -0.0354  0.0723 -0.3149
  767MPD2    C211375   0.912   1.667  14.666  0.2223  0.0036 -0.2189
  767MPD2    C311376   0.798   1.619  14.605  0.3890 -0.3991 -0.0070
  767MPD2    C411377   0.679   1.630  14.672 -0.5666 -0.0434 -0.0191
  767MPD2    C511378   0.670   1.698  14.792 -0.7631 -0.1553  1.2120
  767MPD2     H11379   1.003   1.650  14.608 -0.3715  0.7306 -1.3529
  767MPD2    H111380   0.587   1.593  14.628 -0.2530  0.3603 -1.0065
  767MPD2    H211381   0.774   1.804  14.941  1.0259 -1.8919  1.4440
  767MPD2    H311382   0.578   1.734  14.835 -1.7714  0.0464 -1.1217
  767MPD2     N11383   0.815   1.552  14.475 -0.2159  0.0017  0.2380
  767MPD2    H511384   0.906   1.542  14.431 -0.6530 -1.0662 -0.4317
  767MPD2    N111385   1.013   1.789  14.848  0.3520  0.2493  0.1224
  767MPD2    H711386   1.013   1.817  14.946 -0.2521  2.0789 -0.3794
  768MPD2     C11387   1.917   4.734  10.421 -0.3831 -0.1463 -1.2459
  768MPD2    C111388   1.852   4.656  10.507  0.5287 -0.0652  0.0702
  768MPD2    C211389   1.928   4.574  10.593 -0.0276 -0.4316  0.1974
  768MPD2    C311390   2.065   4.569  10.597 -0.1316 -0.6040 -0.1635
  768MPD2    C411391   2.132   4.663  10.513  0.3919 -0.0950 -0.4042
  768MPD2    C511392   2.060   4.734  10.423 -0.1234 -0.0211  0.3317
  768MPD2     H11393   1.870   4.516  10.665 -1.6693  0.1559 -0.6619
  768MPD2    H111394   2.240   4.658  10.501  0.6118  3.9970  0.1388
  768MPD2    H211395   1.863   0.059  10.351  0.5150  0.4607 -1.3990
  768MPD2    H311396   2.121   0.061  10.359 -0.9807  0.5165  0.0561
  768MPD2     N11397   2.146   4.482  10.675  0.4310 -0.2196 -0.5405
  768MPD2    H511398   2.240   4.516  10.693 -0.0003  1.1450 -0.8967
  768MPD2    N111399   1.713   4.624  10.506  0.5592 -0.2554  0.1301
  768MPD2    H711400   1.683   4.567  10.584 -0.7359  2.3518  1.5295
  769MPD2     C11401   2.494   2.500  15.103 -0.5604 -0.1161  0.4414
  769MPD2    C111402   2.431   2.624  15.071  0.4637  0.4019 -0.3720
  769MPD2    C211403   2.488   2.735  15.130  0.3293  0.6688 -0.0330
  769MPD2    C311404   2.595   2.725  15.213 -0.3686 -0.3937 -0.2076
  769MPD2    C411405   2.649   2.603  15.248  0.8822 -0.0469 -0.0847
  769MPD2    C511406   2.600   2.493  15.191 -0.1599  0.4203 -0.4559
  769MPD2     H11407   2.446   2.834  15.118  0.8561  1.0036  0.8562
  769MPD2    H111408   2.726   2.596  15.325 -1.8450 -0.1724  2.6418
  769MPD2    H211409   2.456   2.409  15.059  0.7008 -0.3785 -0.1082
  769MPD2    H311410   2.633   2.393  15.217  2.5855  1.2572 -0.7896
  769MPD2     N11411   2.638   2.839  15.280  0.5443  0.0228  0.0792
  769MPD2    H511412   2.594   2.930  15.271  0.4367 -0.3227 -2.7374
  769MPD2    N111413   2.331   2.620  14.971 -0.3469  0.1949  0.0874
  769MPD2    H711414   2.291   2.531  14.944  2.1172 -1.1567  0.9087
  770MPD2     C11415   2.302   1.892  14.596  0.3025 -0.3801  0.1185
  770MPD2    C111416   2.321   1.953  14.717  0.4912  0.0797 -0.1977
  770MPD2    C211417   2.317   2.091  14.724  0.1005  0.5824 -0.3126
  770MPD2    C311418   2.294   2.172  14.617 -1.0706 -0.0858 -0.4052
  770MPD2    C411419   2.292   2.117  14.494  0.1718 -0.2341  0.0606
  770MPD2    C511420   2.301   1.978  14.485 -0.5077 -0.3193 -0.0138
  770MPD2     H11421   2.330   2.138  14.821 -0.8282 -1.7289  0.9533
  770MPD2    H111422   2.276   2.176  14.405  1.4248 -1.0613 -0.7218
  770MPD2    H211423   2.315   1.785  14.584  0.9693 -0.3347  0.3987
  770MPD2    H311424   2.303   1.933  14.386 -0.0630  0.2600 -0.2659
  770MPD2     N11425   2.265   2.311  14.642  0.6092  0.1141  0.7105
  770MPD2    H511426   2.288   2.343  14.736 -1.5494  0.7532  1.0108
  770MPD2    N111427   2.342   1.860  14.825  0.3781  0.2485  0.0733
  770MPD2    H711428   2.332   1.761  14.808 -3.1240  0.4661  0.8274
  771MPD2     C11429   3.391   0.436  13.865  0.1526 -0.1122  0.6952
  771MPD2    C111430   3.334   0.530  13.779 -0.4891 -0.4663 -0.6937
  771MPD2    C211431   3.231   0.495  13.701 -0.1648 -1.1505 -0.2983
  771MPD2    C311432   3.174   0.372  13.715  0.3418  0.4109  0.3065
  771MPD2    C411433   3.225   0.278  13.805 -0.5719 -0.8069 -0.5830
  771MPD2    C511434   3.336   0.311  13.885  0.5104  0.2273 -0.4117
  771MPD2     H11435   3.183   0.566  13.635  1.8990  0.8556  0.3582
  771MPD2    H111436   3.166   0.192  13.833 -1.7242  0.1844  0.0612
  771MPD2    H211437   3.488   0.462  13.906  0.1841  2.2291 -0.8540
  771MPD2    H311438   3.385   0.236  13.947  3.0186  0.4367 -2.1776
  771MPD2     N11439   3.057   0.357  13.640 -1.1457 -0.0099  0.2439
  771MPD2    H511440   3.022   0.441  13.594 -0.0891  1.3557  1.9416
  771MPD2    N111441   3.393   0.661  13.768 -0.7308  0.5740 -0.1142
  771MPD2    H711442   3.437   0.698  13.852  1.3321  1.9841 -1.7900
  772MPD2     C11443   2.962   1.228  13.922 -0.4993 -0.2211 -0.2568
  772MPD2    C111444   2.989   1.106  13.872 -0.0876 -0.4144 -0.0773
  772MPD2    C211445   2.877   1.019  13.855 -0.2483  0.9212 -0.1267
  772MPD2    C311446   2.749   1.058  13.882 -0.0813  0.3169  0.0519
  772MPD2    C411447   2.731   1.174  13.950 -0.5034  0.2469 -0.4906
  772MPD2    C511448   2.837   1.258  13.965  0.4122  0.0169  0.5672
  772MPD2     H11449   2.902   0.931  13.796 -1.4114  0.6719 -0.2504
  772MPD2    H111450   2.633   1.199  13.988 -0.7683  1.0468 -1.6991
  772MPD2    H211451   3.042   1.300  13.921 -0.0487 -0.7311 -1.7223
  772MPD2    H311452   2.815   1.359  13.998  1.7400  0.8952 -1.2229
  772MPD2     N11453   2.635   0.980  13.863  0.4942  0.3387  0.3004
  772MPD2    H511454   2.548   1.018  13.898  0.5711  0.6451  0.1613
  772MPD2    N111455   3.114   1.067  13.817  0.3584 -0.0693 -0.3546
  772MPD2    H711456   3.129   0.969  13.795 -2.1714 -0.3240 -0.9489
  773MPD2     C11457   2.264   3.038   0.052  0.7662 -0.0289  0.3630
  773MPD2    C111458   2.161   2.948   0.051  0.2180 -0.4330 -0.8182
  773MPD2    C211459   2.172   2.833   0.124  0.0791 -0.3927  0.2981
  773MPD2    C311460   2.283   2.797   0.202 -0.0842  0.0850  0.8277
  773MPD2    C411461   2.381   2.896   0.216  0.4152  0.7101 -0.1728
  773MPD2    C511462   2.376   3.012   0.137  0.3042 -0.3891  0.1060
  773MPD2     H11463   2.100   2.754   0.103 -1.0401  1.4188 -2.6992
  773MPD2    H111464   2.474   2.885   0.270  0.1896 -2.2565 -0.3556
  773MPD2    H211465   2.263   3.125  17.735  1.0822 -0.7798 -0.6478
  773MPD2    H311466   2.459   3.080   0.153  1.2893 -1.6501  0.3317
  773MPD2     N11467   2.292   2.665   0.246  0.2867  0.5395  0.4288
  773MPD2    H511468   2.212   2.606   0.222  0.8628 -0.8197  1.8342
  773MPD2    N111469   2.048   2.951  17.716 -0.3067 -0.1865 -0.5882
  773MPD2    H711470   1.987   2.873  17.737 -0.8232  0.4764  0.4379
  774MPD2     C11471   0.799   1.115  13.532  0.1434  0.0850  0.5687
  774MPD2    C111472   0.934   1.136  13.530 -0.1314  0.5470  0.4386
  774MPD2    C211473   0.987   1.236  13.453 -0.1152 -0.2221 -0.1923
  774MPD2    C311474   0.897   1.322  13.393  0.4767  0.6671 -0.0805
  774MPD2    C411475   0.764   1.292  13.392  0.2868  0.2606  0.3379
  774MPD2    C511476   0.714   1.181  13.450 -0.7233 -0.9714 -0.1503
  774MPD2     H11477   1.093   1.255  13.466 -0.0404 -0.7557 -0.0592
  774MPD2    H111478   0.703   1.362  13.336  1.4042 -0.1106 -1.3345
  774MPD2    H211479   0.763   1.049  13.610 -0.8459 -2.0017 -1.6326
  774MPD2    H311480   0.606   1.169  13.446 -1.0774  2.4367 -0.4857
  774MPD2     N11481   0.930   1.445  13.333  0.2982  0.2735  0.4079
  774MPD2    H511482   0.861   1.517  13.312 -1.7995 -1.8880 -0.0275
  774MPD2    N111483   1.014   1.050  13.613 -0.2635  0.4504  0.2238
  774MPD2    H711484   0.959   0.990  13.674 -0.3140 -0.1501 -0.4132
  775MPD2     C11485   2.680   2.772  15.734 -0.6954  0.2524 -0.4162
  775MPD2    C111486   2.654   2.894  15.790  0.1896  0.4621 -0.1212
  775MPD2    C211487   2.753   2.996  15.789  0.5014 -0.3503  0.0129
  775MPD2    C311488   2.878   2.969  15.736 -1.0406  0.4125  0.0554
  775MPD2    C411489   2.911   2.834  15.695 -0.4507 -0.0513 -0.5818
  775MPD2    C511490   2.805   2.746  15.688 -0.1751  0.4576  0.0960
  775MPD2     H11491   2.738   3.101  15.811  0.6707 -1.1122  3.7144
  775MPD2    H111492   3.008   2.802  15.659 -0.8673 -1.8596 -0.0733
  775MPD2    H211493   2.606   2.693  15.722 -0.7843  0.1304  0.9885
  775MPD2    H311494   2.829   2.650  15.645 -3.6367 -1.1972  1.8128
  775MPD2     N11495   2.986   3.057  15.733 -0.3057  0.0767 -0.0655
  775MPD2    H511496   3.073   3.008  15.713 -0.4343  1.5514 -4.2277
  775MPD2    N111497   2.523   2.917  15.841  0.3697  0.0439  0.0008
  775MPD2    H711498   2.463   2.836  15.834  0.7888 -0.3360  0.9058
  776MPD2     C11499   2.158   2.841  11.868 -0.6771 -0.2397 -1.0775
  776MPD2    C111500   2.064   2.876  11.773  0.4043 -0.4523 -1.5651
  776MPD2    C211501   2.073   2.998  11.713  0.7169  0.4094 -0.2272
  776MPD2    C311502   2.177   3.087  11.730  0.3576  0.2847 -0.2089
  776MPD2    C411503   2.269   3.054  11.825  0.3261 -0.4354  0.0652
  776MPD2    C511504   2.262   2.928  11.885  0.4108  0.1532  0.2098
  776MPD2     H11505   1.996   3.011  11.638 -0.0885  0.4135  0.5973
  776MPD2    H111506   2.355   3.115  11.851  0.2015 -0.6796  1.0532
  776MPD2    H211507   2.170   2.745  11.916 -2.8512  0.8644  1.7242
  776MPD2    H311508   2.337   2.912  11.962 -1.7973 -1.9151  1.9227
  776MPD2     N11509   2.175   3.211  11.665  0.1447 -0.1583 -0.2934
  776MPD2    H511510   2.266   3.256  11.665  0.3341 -0.5423 -0.4152
  776MPD2    N111511   1.971   2.776  11.722  0.0591  0.1105 -0.0549
  776MPD2    H711512   1.934   2.786  11.628 -2.8405  1.3822  1.2326
  777MPD2     C11513   1.356   1.150   0.240 -0.0330 -0.3080 -0.1700
  777MPD2    C111514   1.438   1.093   0.333 -0.3300 -0.1930  0.0242
  777MPD2    C211515   1.461   0.961   0.324  0.7294  0.4289  1.0777
  777MPD2    C311516   1.382   0.880   0.244 -0.2006 -0.0340  0.0317
  777MPD2    C411517   1.276   0.934   0.176 -0.0341  0.8850  0.8729
  777MPD2    C511518   1.275   1.071   0.167  0.1528  0.3873  0.0403
  777MPD2     H11519   1.531   0.916   0.394  0.0731  1.1004  2.1600
  777MPD2    H111520   1.212   0.874   0.113 -1.4991  0.4915  2.7522
  777MPD2    H211521   1.339   1.257   0.233 -0.5423 -0.2804  1.5879
  777MPD2    H311522   1.196   1.119   0.110  0.4477  0.1547 -0.5764
  777MPD2     N11523   1.402   0.741   0.255 -0.3797  0.5100 -0.5453
  777MPD2    H511524   1.469   0.712   0.326 -0.9241  0.8420  0.1083
  777MPD2    N111525   1.516   1.185   0.396  0.1672 -0.3222  0.1870
  777MPD2    H711526   1.471   1.273   0.417 -0.3194 -0.1116 -1.7049
  778MPD2     C11527   3.939   0.422  14.896 -0.0860 -0.3122  0.2144
  778MPD2    C111528   3.825   0.396  14.824 -0.6549  0.4558  0.0967
  778MPD2    C211529   3.816   0.457  14.700  0.5749 -0.4688  0.4465
  778MPD2    C311530   3.915   0.539  14.651  0.0977  0.7639  0.0149
  778MPD2    C411531   4.031   0.561  14.718  0.0732 -0.3687 -0.1114
  778MPD2    C511532   4.038   0.502  14.845 -0.1723  0.2215 -0.4376
  778MPD2     H11533   3.725   0.429  14.648  0.3319 -0.1338  0.6933
  778MPD2    H111534   4.107   0.633  14.688 -1.2551  0.5848 -1.1418
  778MPD2    H211535   3.964   0.382  14.994  0.0292  1.2567  0.8174
  778MPD2    H311536   4.123   0.520  14.910 -0.7839  1.3853  0.0506
  778MPD2     N11537   3.902   0.595  14.521  0.5068 -0.0713  0.3410
  778MPD2    H511538   3.822   0.563  14.468  0.4471 -0.4819  0.6744
  778MPD2    N111539   3.718   0.317  14.868  0.4168 -0.2867  0.2915
  778MPD2    H711540   3.629   0.332  14.822 -0.4351  2.6079  2.8681
  779MPD2     C11541   2.936   4.269  14.322 -0.4292  0.2898  0.1001
  779MPD2    C111542   3.075   4.286  14.318 -1.0709  0.3896 -0.0745
  779MPD2    C211543   3.133   4.409  14.288  0.1399 -0.1792 -0.4062
  779MPD2    C311544   3.052   4.517  14.267 -0.1932  0.4343  0.1611
  779MPD2    C411545   2.914   4.502  14.266 -0.6116 -0.1122 -0.3852
  779MPD2    C511546   2.863   4.376  14.304  0.8774 -0.2909 -0.0525
  779MPD2     H11547   3.241   4.413  14.283  0.1875 -0.5658  0.3222
  779MPD2    H111548   2.838   4.571  14.233 -1.9157 -0.9549  0.8560
  779MPD2    H211549   2.891   4.175  14.352  3.1599 -1.1526  0.9583
  779MPD2    H311550   2.756   4.363  14.315  0.9682 -0.6832  0.3588
  779MPD2     N11551   3.113   4.636  14.234  0.1817 -0.1214 -0.3964
  779MPD2    H511552   3.214   4.640  14.247  0.1582 -1.1768  0.0505
  779MPD2    N111553   3.165   4.174  14.318 -0.3540  0.1997 -0.0014
  779MPD2    H711554   3.263   4.198  14.303  0.8951 -2.2810  4.1857
  780MPD2     C11555   1.340   4.214   0.159  0.3217 -0.1988 -0.1955
  780MPD2    C111556   1.404   4.294   0.249 -0.8166  0.3439  0.2632
  780MPD2    C211557   1.511   4.375   0.206 -0.5064  0.1822 -0.3880
  780MPD2    C311558   1.561   4.373   0.076  0.5069 -0.0682 -0.2108
  780MPD2    C411559   1.497   4.293  17.733  0.3536 -0.3589 -0.2562
  780MPD2    C511560   1.379   4.226   0.025  0.0379 -0.9281  0.7865
  780MPD2     H11561   1.556   4.450   0.270 -0.7010 -1.3648  1.5559
  780MPD2    H111562   1.533   4.287  17.631 -2.9929  3.4487 -1.6426
  780MPD2    H211563   1.249   4.157   0.175  0.0680  1.4063  3.8686
  780MPD2    H311564   1.321   4.168  17.702  0.7712 -0.2408 -0.3831
  780MPD2     N11565   1.671   4.458   0.051  0.8136  0.3814 -0.2220
  780MPD2    H511566   1.712   4.509   0.129  0.1202  0.6099 -0.0131
  780MPD2    N111567   1.350   4.298   0.381  0.3464  0.0566 -0.4361
  780MPD2    H711568   1.264   4.246   0.391  1.0449 -1.1416 -0.7243
  781MPD2     C11569   4.630   1.108  11.578 -0.3130 -0.4747  0.3200
  781MPD2    C111570   4.694   1.070  11.691  0.8187  0.8996 -0.5490
  781MPD2    C211571   0.068   0.997  11.671  0.0322  0.0030  0.2452
  781MPD2    C311572   0.126   0.970  11.548 -0.2272  0.2999 -0.1604
  781MPD2    C411573   0.048   0.995  11.438 -0.6765  0.0834 -0.0411
  781MPD2    C511574   4.670   1.063  11.451  0.6515 -0.5869  0.0789
  781MPD2     H11575   0.140   0.991  11.752  1.4532  1.2644 -0.9134
  781MPD2    H111576   0.092   0.966  11.343 -2.0929 -1.7763 -0.1299
  781MPD2    H211577   4.547   1.177  11.584  0.0045 -0.2230  1.9303
  781MPD2    H311578   4.606   1.081  11.365  0.7171  1.0001  0.3746
  781MPD2     N11579   0.244   0.893  11.523  0.5340  0.4780  0.5052
  781MPD2    H511580   0.270   0.882  11.426 -1.8636  1.2439 -0.2198
  781MPD2    N111581   4.640   1.094  11.821  0.4164 -0.7502 -0.1556
  781MPD2    H711582   4.687   1.057  11.904 -2.1132 -2.1200  0.6501
  782MPD2     C11583   2.590   1.708   9.900 -0.4468  1.1055 -0.2508
  782MPD2    C111584   2.620   1.651  10.025  0.6883  0.0480 -0.3355
  782MPD2    C211585   2.704   1.724  10.110 -0.3337  0.1831  0.2532
  782MPD2    C311586   2.758   1.843  10.077 -0.0462  0.5246  0.2353
  782MPD2    C411587   2.740   1.892   9.952 -0.8729  0.9386  0.6393
  782MPD2    C511588   2.655   1.822   9.871 -0.8045  0.5686  0.5177
  782MPD2     H11589   2.719   1.701  10.214 -1.0513 -1.5182 -0.0204
  782MPD2    H111590   2.780   1.986   9.917 -0.8010  0.1791 -1.3112
  782MPD2    H211591   2.513   1.672   9.832 -0.6388  0.2994  0.4025
  782MPD2    H311592   2.638   1.878   9.780  0.9331 -1.2873 -0.9320
  782MPD2     N11593   2.837   1.904  10.176  0.3840 -0.1297 -0.0686
  782MPD2    H511594   2.849   1.843  10.256 -0.2488 -0.2581 -0.0690
  782MPD2    N111595   2.539   1.546  10.076  0.2413 -0.2877 -0.5158
  782MPD2    H711596   2.452   1.533  10.027  0.4028 -1.2275 -0.5656
  783MPD2     C11597   2.688   1.593  11.008 -0.0375 -0.1595  1.0654
  783MPD2    C111598   2.577   1.545  10.945 -0.5809  0.0552  0.1452
  783MPD2    C211599   2.595   1.476  10.824 -0.4480 -0.7455 -0.2715
  783MPD2    C311600   2.716   1.460  10.764  0.1484  0.1203 -0.1373
  783MPD2    C411601   2.832   1.505  10.832 -0.2802  0.3623  0.0187
  783MPD2    C511602   2.815   1.568  10.954  0.8749  0.9929  0.5110
  783MPD2     H11603   2.517   1.435  10.761 -1.8342  1.7326 -0.1513
  783MPD2    H111604   2.933   1.494  10.793  0.3476 -1.7978  2.2255
  783MPD2    H211605   2.679   1.643  11.103 -0.5663 -0.4705  1.1771
  783MPD2    H311606   2.900   1.603  11.012  1.0857  1.8439 -0.3167
  783MPD2     N11607   2.722   1.397  10.639 -0.0662 -0.9833 -0.5561
  783MPD2    H511608   2.637   1.365  10.594  0.4640 -0.6760 -1.7535
  783MPD2    N111609   2.451   1.579  11.002 -0.7309 -0.0628 -0.6441
  783MPD2    H711610   2.442   1.642  11.081 -2.2017 -1.7469  0.5418
  784MPD2     C11611   4.586   2.876   0.390 -0.3212  0.2552 -0.0086
  784MPD2    C111612   4.578   2.974   0.489 -0.8085 -0.6082  0.2466
  784MPD2    C211613   4.480   3.073   0.468 -0.8011  0.2001 -0.1610
  784MPD2    C311614   4.395   3.064   0.364  0.6143 -0.1859 -1.2211
  784MPD2    C411615   4.399   2.966   0.270  0.0534  1.0418 -0.0594
  784MPD2    C511616   4.495   2.872   0.287 -0.1287  0.3396  0.2242
  784MPD2     H11617   4.471   3.145   0.548  1.1959  0.7742 -0.4624
  784MPD2    H111618   4.328   2.959   0.189  0.4894 -0.4322 -0.3080
  784MPD2    H211619   4.655   2.793   0.401 -2.0415 -1.1558  0.2608
  784MPD2    H311620   4.496   2.785   0.222 -0.2228  1.0546 -0.7425
  784MPD2     N11621   4.294   3.161   0.349  0.3472 -0.5089  0.0809
  784MPD2    H511622   4.280   3.225   0.427  1.0962  0.4609 -0.5774
  784MPD2    N111623   4.652   2.974   0.617  0.3508 -0.1585 -0.1190
  784MPD2    H711624   4.640   3.052   0.681 -1.5195 -1.7839  1.5191
  785MPD2     C11625   0.126   1.634  10.067 -0.5481 -0.2078  0.7400
  785MPD2    C111626   0.095   1.710   9.955 -0.2687  0.2487  0.3730
  785MPD2    C211627   0.064   1.636   9.837 -0.0015  0.2601 -0.5796
  785MPD2    C311628   0.054   1.499   9.832 -0.1260  0.2396  1.0105
  785MPD2    C411629   0.071   1.430   9.950 -0.3015 -0.2491  0.3489
  785MPD2    C511630   0.108   1.501  10.064  0.3226 -1.3804  0.3376
  785MPD2     H11631   0.065   1.675   9.736  0.2643 -1.5132 -1.2553
  785MPD2    H111632   0.067   1.322   9.953 -1.2397 -0.2123  0.2994
  785MPD2    H211633   0.144   1.697  10.154 -5.1371  0.9680  0.8296
  785MPD2    H311634   0.131   1.443  10.153 -0.5325 -0.4388  1.1686
  785MPD2     N11635   0.038   1.436   9.706  0.3213 -0.6513  0.5643
  785MPD2    H511636   0.025   1.502   9.631  1.4435 -0.0485  0.9023
  785MPD2    N111637   0.097   1.853   9.964 -0.0191 -0.2373  0.2046
  785MPD2    H711638   0.134   1.887  10.053  1.8028  0.0856 -0.6640
  786MPD2     C11639   3.531   3.622  14.808  0.2149 -0.3115  0.0838
  786MPD2    C111640   3.649   3.562  14.807 -0.1633  0.4951  0.1675
  786MPD2    C211641   3.751   3.601  14.892  0.0388 -0.4665 -0.2800
  786MPD2    C311642   3.723   3.682  15.003 -0.5765  0.3051  1.3005
  786MPD2    C411643   3.601   3.737  15.008  0.3759  0.0782 -0.8892
  786MPD2    C511644   3.514   3.711  14.906 -0.6124  0.4657 -0.1697
  786MPD2     H11645   3.852   3.561  14.884  0.8181  1.7187 -1.2189
  786MPD2    H111646   3.573   3.799  15.092  0.7515 -1.6443  0.5292
  786MPD2    H211647   3.448   3.587  14.748  1.3500 -2.4928 -0.1997
  786MPD2    H311648   3.421   3.766  14.905  0.0454  1.5936  0.0459
  786MPD2     N11649   3.817   3.721  15.104  0.1965  0.2225  0.1570
  786MPD2    H511650   3.779   3.786  15.172 -0.6824 -1.1695  1.0050
  786MPD2    N111651   3.698   3.495  14.695  0.9521  0.3414  0.4160
  786MPD2    H711652   3.794   3.462  14.693  0.4714 -1.0737  0.5908
  787MPD2     C11653   4.135   3.041  14.741  0.0369  0.2676 -0.4531
  787MPD2    C111654   4.099   3.034  14.611  0.2078  0.0868 -0.7011
  787MPD2    C211655   4.133   2.922  14.538 -0.5356  0.4193  0.1338
  787MPD2    C311656   4.198   2.816  14.592 -0.6677 -0.0577  0.5736
  787MPD2    C411657   4.248   2.833  14.718 -0.4993 -0.5323 -0.4184
  787MPD2    C511658   4.211   2.941  14.794 -0.1435  0.4717  0.0490
  787MPD2     H11659   4.099   2.898  14.438  0.3691 -1.8026  0.3441
  787MPD2    H111660   4.314   2.760  14.765  0.7354  0.2380 -0.9681
  787MPD2    H211661   4.111   3.131  14.798 -1.1664 -0.1759 -0.2564
  787MPD2    H311662   4.237   2.939  14.899 -1.7799 -0.5893  0.4386
  787MPD2     N11663   4.235   2.709  14.518 -0.6697 -0.3035  0.3418
  787MPD2    H511664   4.211   2.706  14.419 -1.7087  2.5261  0.4986
  787MPD2    N111665   4.022   3.146  14.567 -0.1002 -0.0784  0.0044
  787MPD2    H711666   3.991   3.213  14.636 -0.5350 -1.8379  1.5331
  788MPD2     C11667   0.622   2.774   0.866 -0.7085  0.2621  0.4829
  788MPD2    C111668   0.559   2.705   0.763 -0.2018 -0.7822 -0.1261
  788MPD2    C211669   0.545   2.760   0.640  0.2294 -0.2953  0.6292
  788MPD2    C311670   0.580   2.891   0.611  0.0143 -0.2155 -0.0117
  788MPD2    C411671   0.631   2.964   0.711  0.2477 -0.0734  0.0299
  788MPD2    C511672   0.653   2.908   0.838  0.5086  0.0514 -0.1415
  788MPD2     H11673   0.486   2.713   0.563 -3.1071 -0.1794  3.1049
  788MPD2    H111674   0.671   3.063   0.693 -0.5801  0.3489  0.5215
  788MPD2    H211675   0.639   2.726   0.962  1.0177  0.1984  0.1392
  788MPD2    H311676   0.721   2.961   0.905 -1.4627  0.9092  1.1652
  788MPD2     N11677   0.557   2.942   0.481 -0.6052 -0.2208  0.3406
  788MPD2    H511678   0.522   2.875   0.413 -0.7606  0.9824 -0.7694
  788MPD2    N111679   0.515   2.575   0.790 -0.1908 -0.3589  0.5002
  788MPD2    H711680   0.558   2.526   0.868 -2.0838  0.0834  1.8304
  789MPD2     C11681   1.241   1.861  16.591  1.0202 -0.3310 -1.0573
  789MPD2    C111682   1.179   1.832  16.472 -0.0366  0.3632  0.3093
  789MPD2    C211683   1.056   1.887  16.446 -0.1145  0.6067 -0.2788
  789MPD2    C311684   0.990   1.963  16.542  0.6188 -0.5533  0.3045
  789MPD2    C411685   1.052   1.977  16.665 -0.9263  0.4179 -0.3440
  789MPD2    C511686   1.170   1.924  16.693  0.4803  0.7511  0.4500
  789MPD2     H11687   1.011   1.880  16.347 -1.9214 -0.9744  0.6710
  789MPD2    H111688   1.005   2.036  16.743 -0.6830 -0.1007  0.1995
  789MPD2    H211689   1.339   1.822  16.617  0.8365 -0.8701 -1.1628
  789MPD2    H311690   1.222   1.925  16.789  1.4859 -1.9795 -0.0600
  789MPD2     N11691   0.857   2.002  16.533 -0.3169  0.6111  0.0525
  789MPD2    H511692   0.832   2.070  16.604 -0.3052  2.2443 -1.4895
  789MPD2    N111693   1.241   1.759  16.367 -0.0017  0.3096  0.7269
  789MPD2    H711694   1.172   1.746  16.293 -1.2098 -1.2773  2.1067
  790MPD2     C11695   2.295   3.214  13.725  0.4392 -0.7568  0.3329
  790MPD2    C111696   2.359   3.093  13.705 -0.4685  0.4969  0.2750
  790MPD2    C211697   2.351   3.026  13.582 -0.4512  0.2297 -0.2204
  790MPD2    C311698   2.263   3.076  13.485 -0.0172  0.1778  0.6674
  790MPD2    C411699   2.219   3.203  13.498  1.0107  0.4048 -0.0609
  790MPD2    C511700   2.239   3.281  13.617  0.3225 -0.0128  0.0773
  790MPD2     H11701   2.376   2.922  13.563  1.7941  0.4404  1.5987
  790MPD2    H111702   2.164   3.265  13.428  1.9257  1.6752  0.3242
  790MPD2    H211703   2.309   3.279  13.811  0.6833  1.5049 -1.3988
  790MPD2    H311704   2.198   3.380  13.634  0.4202  0.7303 -4.0590
  790MPD2     N11705   2.229   3.000  13.371  0.4881 -0.0046 -0.3049
  790MPD2    H511706   2.257   2.903  13.363  0.5394 -0.0040 -0.1309
  790MPD2    N111707   2.420   3.045  13.821  0.3581  0.4919 -0.4995
  790MPD2    H711708   2.383   3.085  13.907  2.1873 -0.1331  0.5741
  791MPD2     C11709   1.624   3.083  12.966  0.3347  0.4475 -0.0552
  791MPD2    C111710   1.663   2.958  12.949 -0.0040  0.4917  0.3686
  791MPD2    C211711   1.585   2.869  12.869  0.2068 -0.1887 -0.2750
  791MPD2    C311712   1.467   2.918  12.805 -0.3632  0.3427 -0.5744
  791MPD2    C411713   1.428   3.044  12.839 -0.6124 -0.1516 -0.1001
  791MPD2    C511714   1.506   3.129  12.918  0.1538  0.4274  0.1605
  791MPD2     H11715   1.624   2.771  12.844  1.8732  0.7812 -1.4470
  791MPD2    H111716   1.334   3.089  12.809  0.3483  1.2109 -1.0243
  791MPD2    H211717   1.672   3.148  13.038  1.2816 -0.1314 -0.1676
  791MPD2    H311718   1.455   3.223  12.935 -0.3292 -0.3463  2.9339
  791MPD2     N11719   1.388   2.831  12.728 -0.1620  0.4468  0.6347
  791MPD2    H511720   1.415   2.733  12.725  0.3127  0.5632  1.2199
  791MPD2    N111721   1.787   2.913  13.001  0.3837  0.2405  0.3403
  791MPD2    H711722   1.837   2.991  13.043 -1.6369  2.5049 -1.4877
  792MPD2     C11723   2.726   2.827  10.728 -0.3428  0.8588 -0.1104
  792MPD2    C111724   2.662   2.860  10.845  0.2819  0.9467 -0.5401
  792MPD2    C211725   2.626   2.761  10.933 -0.0619  0.2128  0.1852
  792MPD2    C311726   2.641   2.633  10.899  0.6251  0.4661 -0.1729
  792MPD2    C411727   2.707   2.599  10.785  0.5949  0.3965 -0.2953
  792MPD2    C511728   2.752   2.698  10.699 -0.5816  0.4972  0.0578
  792MPD2     H11729   2.571   2.791  11.022  0.0909 -1.2439  0.7619
  792MPD2    H111730   2.713   2.495  10.757  0.1857  0.9144 -2.2746
  792MPD2    H211731   2.750   2.903  10.655  0.9996 -0.8599 -1.4461
  792MPD2    H311732   2.803   2.679  10.606  2.2254 -3.4535  2.3867
  792MPD2     N11733   2.571   2.528  10.960  0.1692 -0.2792  0.0918
  792MPD2    H511734   2.564   2.443  10.905  1.8318 -0.2915 -0.0934
  792MPD2    N111735   2.625   2.994  10.862 -0.3059  0.2942  0.9477
  792MPD2    H711736   2.642   3.054  10.782  0.6785 -0.9228  0.2474
  793MPD2     C11737   1.848   2.943  10.886 -0.3045 -0.2288 -0.5893
  793MPD2    C111738   1.903   2.869  10.788 -0.7017  0.3862  0.7874
  793MPD2    C211739   1.975   2.754  10.826 -0.0564 -0.9130 -1.0052
  793MPD2    C311740   1.986   2.709  10.963  0.1397 -0.3509  0.4766
  793MPD2    C411741   1.921   2.784  11.056 -0.0756 -0.1283 -0.5082
  793MPD2    C511742   1.849   2.895  11.017 -0.3569 -0.2939 -0.0425
  793MPD2     H11743   2.038   2.713  10.749  0.6359  1.0743 -1.4896
  793MPD2    H111744   1.917   2.756  11.160 -0.6719  2.5400  0.1858
  793MPD2    H211745   1.794   3.036  10.873  0.6471  0.3270 -0.5030
  793MPD2    H311746   1.804   2.955  11.095 -0.4529  2.7095 -2.4162
  793MPD2     N11747   2.054   2.588  10.982  0.3438 -0.2584  0.3919
  793MPD2    H511748   2.091   2.537  10.902  0.0760  0.4283 -0.1763
  793MPD2    N111749   1.896   2.908  10.655 -0.7218  0.1196  0.6858
  793MPD2    H711750   1.950   2.859  10.584  1.2731  1.9823  0.9202
  794MPD2     C11751   1.742   2.887  16.908 -0.2999  0.3831  0.0480
  794MPD2    C111752   1.641   2.905  17.003  0.0676 -0.2622 -0.5812
  794MPD2    C211753   1.509   2.917  16.961 -0.7590  0.2173  0.0455
  794MPD2    C311754   1.473   2.910  16.831 -0.3300  0.3219  0.0263
  794MPD2    C411755   1.575   2.905  16.744  0.0202 -0.6181  0.2082
  794MPD2    C511756   1.709   2.900  16.777  0.6980 -0.1396  0.0573
  794MPD2     H11757   1.434   2.948  17.034 -0.1534  0.0392  0.7417
  794MPD2    H111758   1.555   2.886  16.640 -1.7409  0.0958  0.4197
  794MPD2    H211759   1.847   2.882  16.934 -0.8699  0.5841  2.4014
  794MPD2    H311760   1.786   2.899  16.700  0.7234  1.3085  0.0694
  794MPD2     N11761   1.338   2.900  16.791  0.1716 -0.5811 -0.6902
  794MPD2    H511762   1.322   2.860  16.699 -2.4850 -2.2014  0.4897
  794MPD2    N111763   1.667   2.922  17.144 -0.1095  0.6280  0.0137
  794MPD2    H711764   1.585   2.921  17.204 -0.2808 -0.5179 -0.2473
  795MPD2     C11765   4.422   0.058  13.684 -0.8371  0.1657  0.0344
  795MPD2    C111766   4.407   4.670  13.632 -0.5824  0.6417 -0.4042
  795MPD2    C211767   4.483   4.567  13.673 -0.2497  0.1839 -0.0820
  795MPD2    C311768   4.597   4.584  13.746  0.2074  0.0676 -1.0822
  795MPD2    C411769   4.622   4.707  13.792  0.1403  0.2555  0.1281
  795MPD2    C511770   4.536   0.075  13.756  0.5676  1.2457 -0.0452
  795MPD2     H11771   4.459   4.469  13.633  0.4842  0.5327 -1.3491
  795MPD2    H111772   4.717   4.735  13.836  0.0562 -0.8440  1.0166
  795MPD2    H211773   4.355   0.141  13.667 -0.0016  0.6743 -0.7864
  795MPD2    H311774   4.550   0.166  13.813 -1.5407 -0.4601  3.1656
  795MPD2     N11775   4.697   4.482  13.764 -0.1981  0.5595  0.2711
  795MPD2    H511776   0.048   4.524  13.789 -0.5463  1.2325  0.3703
  795MPD2    N111777   4.307   4.634  13.537  0.0737 -0.3539 -0.0265
  795MPD2    H711778   4.306   4.534  13.518  0.2782 -0.7892  2.2312
  796MPD2     C11779   3.771   1.350  15.495 -0.4774 -0.3202  0.3045
  796MPD2    C111780   3.831   1.416  15.597  0.3654 -0.3091 -0.1358
  796MPD2    C211781   3.804   1.553  15.607  0.4285 -0.1889 -0.2911
  796MPD2    C311782   3.712   1.623  15.532 -0.1929 -0.3601  0.1821
  796MPD2    C411783   3.652   1.557  15.433  0.1551 -0.4123 -0.3326
  796MPD2    C511784   3.679   1.420  15.419 -0.1333  0.2084 -0.1923
  796MPD2     H11785   3.849   1.613  15.685 -0.4464  0.4404 -0.2788
  796MPD2    H111786   3.584   1.601  15.361 -0.5308 -1.1442 -0.1339
  796MPD2    H211787   3.776   1.242  15.483  0.8238 -0.2468  0.2240
  796MPD2    H311788   3.645   1.353  15.341 -1.3246  0.3259  0.2167
  796MPD2     N11789   3.695   1.760  15.560 -0.2411  0.1019 -0.4319
  796MPD2    H511790   3.753   1.805  15.630  0.0130 -1.1616  0.1625
  796MPD2    N111791   3.919   1.353  15.697 -0.5960  0.3059 -0.5508
  796MPD2    H711792   3.963   1.415  15.764 -0.5200  0.5303 -0.8081
  797MPD2     C11793   4.653   1.330  17.434  0.1170 -0.3633  0.0528
  797MPD2    C111794   4.690   1.459  17.390  0.6463 -0.3883 -0.0722
  797MPD2    C211795   4.644   1.513  17.277 -0.7870  0.5007  1.1636
  797MPD2    C311796   4.543   1.449  17.206 -0.1586 -0.5953 -0.6147
  797MPD2    C411797   4.505   1.321  17.242  0.1358  0.4347  0.7943
  797MPD2    C511798   4.564   1.257  17.348  0.3359 -0.1017 -0.4281
  797MPD2     H11799   4.673   1.614  17.251 -0.8209 -0.3651 -2.2229
  797MPD2    H111800   4.427   1.271  17.184  1.9359 -2.5590  0.9402
  797MPD2    H211801   4.697   1.280  17.520 -1.4307 -0.2132  0.9147
  797MPD2    H311802   4.531   1.156  17.373  0.4750  0.4950  2.1182
  797MPD2     N11803   4.485   1.519  17.098 -0.4969 -0.0650 -0.7848
  797MPD2    H511804   4.512   1.615  17.077 -1.6129  0.6509  1.0111
  797MPD2    N111805   0.040   1.540  17.467  0.6401 -0.5406 -0.0227
  797MPD2    H711806   0.053   1.629  17.420 -0.8018  0.6184  1.7626
  798MPD2     C11807   4.446   2.132  17.240 -0.5206  0.0637 -0.7672
  798MPD2    C111808   4.514   2.025  17.185  0.1076  0.7041 -0.2301
  798MPD2    C211809   4.629   1.973  17.248  0.6925  0.2983  0.2056
  798MPD2    C311810   4.671   2.028  17.371  0.0068  0.4943  0.0767
  798MPD2    C411811   4.598   2.133  17.425  0.3279 -0.5819 -0.0582
  798MPD2    C511812   4.491   2.181  17.362 -0.3886 -0.3746 -0.6856
  798MPD2     H11813   4.676   1.877  17.233  0.2075  0.8752 -5.0462
  798MPD2    H111814   4.631   2.176  17.518  1.2739  0.1310 -0.7274
  798MPD2    H211815   4.356   2.173  17.197 -0.8869 -1.7338 -1.7305
  798MPD2    H311816   4.436   2.268  17.397  0.9005 -0.1386  0.7105
  798MPD2     N11817   0.038   1.965  17.446 -0.0290  0.2389  0.4801
  798MPD2    H511818   0.076   1.878  17.409  1.1249  1.1800 -0.5227
  798MPD2    N111819   4.462   1.964  17.071 -0.3723 -0.0820 -0.1734
  798MPD2    H711820   4.365   1.985  17.050 -1.1101 -2.2766  1.1161
  799MPD2     C11821   3.866   2.736  14.719  1.1008  0.2653 -0.2302
  799MPD2    C111822   3.835   2.628  14.645  0.2035 -0.1041 -0.1591
  799MPD2    C211823   3.769   2.648  14.522  0.2429 -0.5271 -1.2687
  799MPD2    C311824   3.726   2.780  14.487 -0.3110 -0.6140 -0.2056
  799MPD2    C411825   3.759   2.889  14.567  0.3636 -0.3950 -0.6115
  799MPD2    C511826   3.826   2.860  14.684 -0.6823  0.2158  0.5245
  799MPD2     H11827   3.734   2.558  14.474 -0.9414 -0.3031 -0.8240
  799MPD2    H111828   3.733   2.993  14.550 -1.8368 -0.9102 -0.3992
  799MPD2    H211829   3.935   2.727  14.803  1.0556  3.0013  0.0928
  799MPD2    H311830   3.850   2.949  14.742 -0.5614 -0.5896  1.7065
  799MPD2     N11831   3.634   2.810  14.384  0.0543  0.1040  0.2263
  799MPD2    H511832   3.597   2.903  14.367  0.9016  0.4529  0.3052
  799MPD2    N111833   3.852   2.493  14.684 -0.2735  0.2018 -0.2026
  799MPD2    H711834   3.808   2.424  14.625  1.0990  0.3827 -1.4321
  800MPD2     C11835   4.393   3.541  14.225 -0.3838  0.4773 -0.2113
  800MPD2    C111836   4.527   3.549  14.243 -0.4447  0.4137  0.0292
  800MPD2    C211837   4.604   3.436  14.230 -0.1091  0.1767  1.1454
  800MPD2    C311838   4.553   3.328  14.171  0.0666  0.2023 -0.2425
  800MPD2    C411839   4.420   3.322  14.142  0.4347 -0.6052  0.4885
  800MPD2    C511840   4.343   3.424  14.182 -1.1252 -0.2891  1.4038
  800MPD2     H11841   4.711   3.441  14.248  0.3997 -0.1755 -1.6713
  800MPD2    H111842   4.374   3.234  14.096  0.0279  0.9499 -2.0762
  800MPD2    H211843   4.327   3.626  14.236 -0.8428  0.1206 -0.2236
  800MPD2    H311844   4.241   3.430  14.144 -0.7344 -0.4834  0.3460
  800MPD2     N11845   4.640   3.225  14.138 -1.0053  0.0888  0.8464
  800MPD2    H511846   4.731   3.235  14.181  0.2709  1.4777 -2.1850
  800MPD2    N111847   4.581   3.674  14.288 -0.2373 -0.4142 -0.0952
  800MPD2    H711848   4.522   3.756  14.277 -1.0155 -1.0668 -0.7772
  801MPD2     C11849   4.448   4.334  14.076  0.7993 -0.0810 -0.5079
  801MPD2    C111850   4.425   4.229  14.165  0.2777 -0.0224 -0.8242
  801MPD2    C211851   4.301   4.216  14.218 -0.0907 -0.0466 -0.1032
  801MPD2    C311852   4.195   4.302  14.193  0.6535 -0.1934  0.2824
  801MPD2    C411853   4.218   4.403  14.106 -0.2160  0.3972 -0.3309
  801MPD2    C511854   4.340   4.422  14.044 -0.6908 -0.2692 -0.3669
  801MPD2     H11855   4.290   4.137  14.292 -1.6262 -0.2810 -0.5899
  801MPD2    H111856   4.138   4.475  14.093  0.0067  0.7300  0.1465
  801MPD2    H211857   4.529   4.345  14.005  0.0701 -2.0671 -1.6421
  801MPD2    H311858   4.356   4.498  13.968  0.9665 -0.1581  0.0891
  801MPD2     N11859   4.063   4.293  14.250 -0.1823 -0.9409  0.1667
  801MPD2    H511860   3.997   4.359  14.212 -1.5034 -0.6756  2.9451
  801MPD2    N111861   4.529   4.141  14.202  0.0254  0.1821  0.9438
  801MPD2    H711862   4.509   4.072  14.274  1.3503 -0.5106  0.6417
  802MPD2     C11863   3.124   0.386   0.534 -0.1540 -0.5578 -0.2921
  802MPD2    C111864   3.018   0.294   0.501  0.4144  0.3789 -0.5931
  802MPD2    C211865   3.022   0.238   0.375  0.5990  0.0486 -0.0756
  802MPD2    C311866   3.117   0.279   0.282 -0.8806 -0.2988  0.0135
  802MPD2    C411867   3.215   0.369   0.315  0.6911  0.2866  0.0394
  802MPD2    C511868   3.216   0.422   0.436  0.7826  0.3114 -0.1187
  802MPD2     H11869   2.938   0.175   0.348  1.5415 -0.4013 -1.9501
  802MPD2    H111870   3.278   0.410   0.237  3.8716 -3.0020  0.8601
  802MPD2    H211871   3.122   0.444   0.626  0.3730  1.0738 -1.3309
  802MPD2    H311872   3.291   0.492   0.471  0.8332 -1.0603  2.4218
  802MPD2     N11873   3.107   0.218   0.150  0.0942 -0.5146 -0.0952
  802MPD2    H511874   3.033   0.149   0.137 -0.4467 -0.0173  0.3464
  802MPD2    N111875   2.906   0.281   0.586  0.1404  0.0560 -0.4195
  802MPD2    H711876   2.829   0.225   0.549  0.3530  1.8037 -3.5834
  803MPD2     C11877   4.718   3.366  12.136  0.3314 -0.7620 -0.0170
  803MPD2    C111878   0.119   3.372  12.158  0.5396  0.0650  0.5905
  803MPD2    C211879   0.168   3.343  12.286 -0.0740 -0.3743 -0.8241
  803MPD2    C311880   0.080   3.287  12.376  0.5417  0.0902 -0.2837
  803MPD2    C411881   4.681   3.268  12.346  0.0552 -0.3145 -0.1559
  803MPD2    C511882   4.632   3.315  12.227 -0.8304 -0.9590 -0.0111
  803MPD2     H11883   0.272   3.352  12.315 -1.2683  2.1956  2.7163
  803MPD2    H111884   4.619   3.239  12.430 -2.1884 -0.1285 -1.7520
  803MPD2    H211885   4.680   3.404  12.042  1.4617 -2.5658 -1.2192
  803MPD2    H311886   4.526   3.316  12.203 -1.0104 -1.8028  0.7640
  803MPD2     N11887   0.119   3.231  12.502 -0.4359  0.7784  0.3415
  803MPD2    H511888   0.050   3.179  12.556 -1.5956 -0.0012 -1.8833
  803MPD2    N111889   0.207   3.416  12.056  0.4452  0.0842 -0.1359
  803MPD2    H711890   0.303   3.434  12.084 -0.0653 -0.2039  1.8195
  804MPD2     C11891   4.316   4.607  16.728 -0.7555  0.3379  0.4491
  804MPD2    C111892   4.373   4.548  16.842 -0.0476  0.5436  0.2181
  804MPD2    C211893   4.437   4.628  16.939  0.7728  0.0146  0.5250
  804MPD2    C311894   4.434   0.028  16.929 -0.2385 -0.2303  0.0850
  804MPD2    C411895   4.390   0.085  16.812 -0.1099 -0.3977  0.3078
  804MPD2    C511896   4.337   0.010  16.706 -0.0421 -0.1340 -0.5338
  804MPD2     H11897   4.481   4.580  17.026  1.6773 -0.2167 -0.0666
  804MPD2    H111898   4.379   0.191  16.791 -0.4433 -0.4642  0.1333
  804MPD2    H211899   4.261   4.567  16.643  2.3244 -0.8119 -1.0190
  804MPD2    H311900   4.299   0.065  16.620 -2.7535  0.0143  0.7417
  804MPD2     N11901   4.501   0.107  17.028 -0.4279 -0.3017  0.6490
  804MPD2    H511902   4.554   0.058  17.099 -1.5683 -0.7733  1.1667
  804MPD2    N111903   4.346   4.412  16.878  0.0951  0.4095 -0.0117
  804MPD2    H711904   4.359   4.391  16.977  1.5759 -0.6311 -0.4180
  805MPD2     C11905   3.334   2.748  15.774 -0.3432  0.2298 -0.4054
  805MPD2    C111906   3.436   2.799  15.693  0.0633  0.3650 -0.5584
  805MPD2    C211907   3.567   2.807  15.744 -0.2489  0.1649 -0.4981
  805MPD2    C311908   3.601   2.761  15.870  0.3570  0.3689 -0.0667
  805MPD2    C411909   3.511   2.702  15.943  0.0514 -0.0868 -0.6750
  805MPD2    C511910   3.379   2.710  15.899  0.1716  0.6051 -0.3433
  805MPD2     H11911   3.639   2.859  15.681  1.0882 -1.8209 -0.5998
  805MPD2    H111912   3.532   2.664  16.042 -0.2010  0.9821 -0.2045
  805MPD2    H211913   3.229   2.745  15.746  0.1511 -2.9946 -1.9288
  805MPD2    H311914   3.303   2.660  15.958 -0.0561  0.3901 -0.8166
  805MPD2     N11915   3.733   2.774  15.918  0.0127 -0.7096  0.4549
  805MPD2    H511916   3.790   2.834  15.859  0.5621 -0.0047  1.6956
  805MPD2    N111917   3.426   2.842  15.558  0.4282 -0.4412 -0.2559
  805MPD2    H711918   3.517   2.846  15.512  0.1929 -1.8569 -0.8350
  806MPD2     C11919   3.565   2.777   0.176  0.1906 -0.4890 -0.3744
  806MPD2    C111920   3.582   2.905   0.220  0.9851  0.1557  0.2980
  806MPD2    C211921   3.662   2.985   0.140  0.2879  0.3192  0.2888
  806MPD2    C311922   3.728   2.939   0.025 -0.9824 -0.7771 -0.0906
  806MPD2    C411923   3.713   2.809  17.734 -0.8874 -0.0787 -0.1163
  806MPD2    C511924   3.633   2.728   0.059  0.3705  0.9042 -0.2278
  806MPD2     H11925   3.676   3.086   0.177  2.9751  0.0401 -0.0019
  806MPD2    H111926   3.760   2.757  17.651 -1.3360 -0.7190  0.0309
  806MPD2    H211927   3.489   2.714   0.220  2.2776  0.1291  4.1277
  806MPD2    H311928   3.610   2.630   0.019 -2.4523  0.8038  1.5791
  806MPD2     N11929   3.797   3.040  17.698  0.2464  0.4034 -0.2461
  806MPD2    H511930   3.805   3.136  17.730 -1.2833  0.8470 -1.2124
  806MPD2    N111931   3.521   2.955   0.340 -0.5034  0.1684 -0.2508
  806MPD2    H711932   3.473   2.886   0.398 -0.5186  1.0859  0.8194
  807MPD2     C11933   3.032   2.755   0.819  0.1816  0.2510  0.5180
  807MPD2    C111934   3.145   2.732   0.741  0.4001  0.7254 -0.4903
  807MPD2    C211935   3.165   2.610   0.683 -0.4622  0.1674  0.4771
  807MPD2    C311936   3.077   2.509   0.709 -0.1415 -0.7632 -0.2461
  807MPD2    C411937   2.976   2.529   0.797 -0.6521  0.2551  0.5487
  807MPD2    C511938   2.940   2.654   0.843  0.0331 -0.1101  0.4088
  807MPD2     H11939   3.255   2.592   0.625 -0.7664  1.6460 -0.4626
  807MPD2    H111940   2.902   2.450   0.805 -0.7082  0.2617  0.0874
  807MPD2    H211941   3.015   2.849   0.871 -0.4835  0.3077  0.1974
  807MPD2    H311942   2.854   2.679   0.905 -0.5209 -0.0574 -0.3899
  807MPD2     N11943   3.101   2.381   0.651 -0.3158 -0.1902 -0.3107
  807MPD2    H511944   3.181   2.377   0.589 -1.2306 -1.5305 -1.4317
  807MPD2    N111945   3.241   2.831   0.711 -0.5340 -0.5231  0.0297
  807MPD2    H711946   3.324   2.819   0.654 -1.0812 -1.5199 -0.5551
  808MPD2     C11947   0.099   3.533   9.994 -0.0841  0.4184  0.8141
  808MPD2    C111948   0.020   3.562  10.108 -0.1854 -0.7750  0.3420
  808MPD2    C211949   0.002   3.697  10.145 -0.1275  0.1557 -0.6606
  808MPD2    C311950   0.072   3.792  10.066  0.1047 -0.0513 -0.0534
  808MPD2    C411951   0.158   3.758   9.964 -0.1953 -0.5375 -0.3032
  808MPD2    C511952   0.168   3.625   9.923  0.1125 -0.4622 -0.2556
  808MPD2     H11953   4.684   3.730  10.232  1.9558  3.3807 -0.5485
  808MPD2    H111954   0.210   3.843   9.920  2.7104 -1.9417  0.3947
  808MPD2    H211955   0.136   3.434   9.966  1.5094  1.5090 -0.9199
  808MPD2    H311956   0.228   3.590   9.840  0.2193  1.3024 -0.9066
  808MPD2     N11957   0.076   3.921  10.107  0.6236 -1.1947  0.4981
  808MPD2    H511958   0.114   3.985  10.039 -1.8419  0.1871  0.4509
  808MPD2    N111959   4.673   3.464  10.170  0.6083 -0.4950  0.5858
  808MPD2    H711960   4.614   3.500  10.244  0.2543 -1.2358  0.6591
  809MPD2     C11961   4.504   4.469   9.595 -0.0288  0.1922 -0.1960
  809MPD2    C111962   4.636   4.508   9.623  0.0938  0.6036 -0.4472
  809MPD2    C211963   4.687   4.490   9.745 -0.3531  0.1874  0.5044
  809MPD2    C311964   4.615   4.411   9.833 -0.3866  0.1677 -0.0688
  809MPD2    C411965   4.493   4.361   9.802 -0.5432  0.8517  0.4100
  809MPD2    C511966   4.428   4.399   9.691  0.6277  0.5009 -0.0745
  809MPD2     H11967   0.045   4.537   9.763  1.8998 -3.3693 -1.9370
  809MPD2    H111968   4.444   4.300   9.877 -1.8093 -1.9964 -2.7450
  809MPD2    H211969   4.462   4.498   9.500  1.1987  1.8152 -0.2363
  809MPD2    H311970   4.332   4.365   9.653  0.5120  0.8604 -0.1029
  809MPD2     N11971   4.675   4.375   9.960  0.6612  0.0743  0.3388
  809MPD2    H511972   4.615   4.333  10.031  0.4548 -0.3066 -0.0593
  809MPD2    N111973   4.711   4.575   9.518  0.4870 -0.9865  0.3378
  809MPD2    H711974   0.066   4.599   9.554 -0.1041  2.0454 -0.1663
  810MPD2     C11975   4.646   2.764  10.248 -0.0076 -0.4526  0.2612
  810MPD2    C111976   4.532   2.817  10.300  0.0838  0.8028 -0.5431
  810MPD2    C211977   4.548   2.930  10.374  0.4844  0.2805 -0.0860
  810MPD2    C311978   4.677   2.981  10.402  0.5835 -0.3715 -0.0520
  810MPD2    C411979   0.051   2.917  10.347 -0.5557 -0.0876 -0.7819
  810MPD2    C511980   0.034   2.816  10.267  0.2424 -0.0001 -0.0779
  810MPD2     H11981   4.463   2.985  10.414 -0.7364  0.1486 -2.5086
  810MPD2    H111982   0.152   2.952  10.365  0.1021 -1.6343 -1.5135
  810MPD2    H211983   4.637   2.681  10.178 -1.3753 -0.8487  0.9061
  810MPD2    H311984   0.124   2.764  10.236  0.2482 -0.3010  0.4411
  810MPD2     N11985   4.697   3.099  10.478  0.8012 -0.2405  0.3446
  810MPD2    H511986   0.056   3.132  10.475  0.5157  0.5717  0.3606
  810MPD2    N111987   4.405   2.754  10.272 -0.3239  0.5182 -0.0984
  810MPD2    H711988   4.401   2.663  10.226  0.3594  0.8630 -0.8478
  811MPD2     C11989   3.655   2.788   9.739  0.2674 -0.3148  0.2476
  811MPD2    C111990   3.729   2.862   9.831 -0.6096 -0.1535  0.1893
  811MPD2    C211991   3.728   2.999   9.824  0.8468  0.0017  1.0015
  811MPD2    C311992   3.652   3.060   9.720  0.2078  0.1863 -0.2438
  811MPD2    C411993   3.587   2.975   9.631  0.0054  0.1942 -0.6968
  811MPD2    C511994   3.574   2.844   9.644 -0.2817 -0.1813  0.1307
  811MPD2     H11995   3.783   3.055   9.899 -0.3193  0.5524  1.4440
  811MPD2    H111996   3.523   3.012   9.552 -0.8257 -2.4198 -1.2362
  811MPD2    H211997   3.658   2.680   9.739 -1.7780 -0.3592  1.3836
  811MPD2    H311998   3.518   2.799   9.563  0.5119  1.6813 -1.4442
  811MPD2     N11999   3.643   3.203   9.728  0.0401 -0.4679  0.8426
  811MPD2    H512000   3.692   3.253   9.802 -3.1323  1.7040  1.4637
  811MPD2    N112001   3.798   2.788   9.937  0.2457  0.0004 -0.6413
  811MPD2    H712002   3.796   2.687   9.929  3.5038 -0.1658  0.5033
  812MPD2     C12003   2.693   2.823  12.142 -0.6971  0.2228 -0.7945
  812MPD2    C112004   2.792   2.897  12.199  0.7395 -0.2761  0.5178
  812MPD2    C212005   2.890   2.827  12.271  0.1140  0.4239  0.8956
  812MPD2    C312006   2.882   2.688  12.271  0.7555  0.5992  0.5593
  812MPD2    C412007   2.786   2.612  12.203  0.5877  0.3194 -0.1764
  812MPD2    C512008   2.685   2.685  12.142  0.1279  0.1757 -0.2093
  812MPD2     H12009   2.978   2.875  12.313  0.4347 -0.3109  1.0529
  812MPD2    H112010   2.787   2.503  12.197  0.4140  0.3808 -1.1632
  812MPD2    H212011   2.615   2.874  12.088  0.4850  3.7844  0.8420
  812MPD2    H312012   2.597   2.639  12.097  0.5531 -0.4479 -0.4098
  812MPD2     N12013   2.973   2.617  12.358  0.1213 -0.0341 -0.5592
  812MPD2    H512014   3.011   2.681  12.426  0.1911  0.3221 -0.9354
  812MPD2    N112015   2.772   3.035  12.198  1.0924  0.2717 -0.2093
  812MPD2    H712016   2.686   3.067  12.155 -0.0096 -0.7166  1.2768
  813MPD2     C12017   2.020   0.177  12.629 -0.1216  0.1748 -0.8118
  813MPD2    C112018   2.133   0.245  12.678 -0.1760  0.1863 -0.3472
  813MPD2    C212019   2.122   0.293  12.807  0.0310 -0.0157 -0.3126
  813MPD2    C312020   2.015   0.271  12.894  0.3458 -0.5273 -0.2992
  813MPD2    C412021   1.903   0.199  12.842  0.5625  0.9032  0.2232
  813MPD2    C512022   1.911   0.157  12.709  0.7778 -0.3963 -0.3727
  813MPD2     H12023   2.213   0.339  12.843  0.0180 -1.1245  1.1374
  813MPD2    H112024   1.821   0.169  12.907  0.0245  1.1422 -0.3412
  813MPD2    H212025   2.014   0.132  12.530  0.4175 -1.8563  0.0776
  813MPD2    H312026   1.835   0.099  12.657 -1.6075  1.3686  1.1378
  813MPD2     N12027   2.022   0.318  13.032  0.0473 -0.7469 -0.2872
  813MPD2    H512028   2.111   0.361  13.055 -0.0045 -0.7682 -0.0433
  813MPD2    N112029   2.260   0.235  12.615 -0.1087  0.5448 -1.0425
  813MPD2    H712030   2.337   0.272  12.670  0.0621 -0.4914 -0.5756
  814MPD2     C12031   2.517   1.249  12.069 -0.6250  0.5154  0.7223
  814MPD2    C112032   2.585   1.281  11.955 -0.0070 -0.0657 -0.6713
  814MPD2    C212033   2.666   1.394  11.964  0.1380  0.2238  0.1320
  814MPD2    C312034   2.688   1.475  12.076  0.2262 -0.9098 -0.1283
  814MPD2    C412035   2.612   1.436  12.187 -0.1407  0.2327 -0.0663
  814MPD2    C512036   2.529   1.329  12.180 -0.0582 -0.0939 -0.4697
  814MPD2     H12037   2.731   1.400  11.877  0.6690  2.7409  0.7093
  814MPD2    H112038   2.618   1.484  12.284 -2.2552 -0.5372  0.4289
  814MPD2    H212039   2.451   1.167  12.093 -0.4384  0.2143  0.2159
  814MPD2    H312040   2.476   1.289  12.265 -1.3717  1.0358 -0.7517
  814MPD2     N12041   2.774   1.590  12.094 -0.3691  0.5939 -0.7659
  814MPD2    H512042   2.760   1.648  12.175 -0.3527  0.9907 -1.0487
  814MPD2    N112043   2.556   1.221  11.826  0.1946 -0.3178  0.8105
  814MPD2    H712044   2.600   1.258  11.742  2.3035 -1.3612  1.4449
  815MPD2     C12045   2.809   0.033  11.798  0.2796 -0.1631 -0.3050
  815MPD2    C112046   2.764   4.643  11.799  0.0583 -0.1818  0.2475
  815MPD2    C212047   2.626   4.629  11.821  0.3491 -0.2572 -0.8031
  815MPD2    C312048   2.538   0.001  11.824 -0.2110 -0.6712 -0.2781
  815MPD2    C412049   2.590   0.129  11.816 -0.3471 -0.4897 -0.3146
  815MPD2    C512050   2.726   0.141  11.805 -0.3704  0.8455 -0.5960
  815MPD2     H12051   2.576   4.534  11.833  1.7201 -0.7612  0.9117
  815MPD2    H112052   2.533   0.221  11.808  0.8379  0.2837  0.1584
  815MPD2    H212053   2.913   0.055  11.780  0.0749  0.3385 -0.8885
  815MPD2    H312054   2.764   0.243  11.806  0.3569  0.5757 -1.4304
  815MPD2     N12055   2.400   4.718  11.829  0.0667 -0.6104  0.8093
  815MPD2    H512056   2.367   4.621  11.830 -1.8544  0.0190 -0.2574
  815MPD2    N112057   2.851   4.540  11.779  0.1694  0.0507 -0.4117
  815MPD2    H712058   2.947   4.565  11.757  0.2426  0.8766  0.8411
  816MPD2     C12059   2.284   3.943  17.138  0.4109  0.9377  0.4397
  816MPD2    C112060   2.354   4.025  17.055  0.2355 -0.3370  0.1151
  816MPD2    C212061   2.426   3.969  16.946  0.2435 -0.1112  0.4327
  816MPD2    C312062   2.435   3.839  16.916  0.2348 -0.1855  0.0001
  816MPD2    C412063   2.354   3.764  16.994  0.0861  0.2766  0.8943
  816MPD2    C512064   2.278   3.812  17.099  0.7431  0.1323 -0.2281
  816MPD2     H12065   2.490   4.035  16.888  3.0244 -2.1150  1.2385
  816MPD2    H112066   2.354   3.658  16.972 -2.1924  0.5274 -0.3572
  816MPD2    H212067   2.218   3.977  17.218  0.2520 -0.4973  0.9223
  816MPD2    H312068   2.221   3.736  17.152  2.4350 -1.2932 -0.4281
  816MPD2     N12069   2.523   3.790  16.819  0.5907 -0.0984 -0.1244
  816MPD2    H512070   2.572   3.860  16.765  0.9267  2.0847  2.9762
  816MPD2    N112071   2.353   4.161  17.084  0.6300 -0.2602  0.4881
  816MPD2    H712072   2.299   4.192  17.165  2.7037  0.9659  1.4124
  817MPD2     C12073   3.128   0.353   9.726  0.0156 -0.1341  0.0205
  817MPD2    C112074   2.991   0.337   9.696 -0.3767  0.4755 -0.0456
  817MPD2    C212075   2.910   0.438   9.649  0.3005  0.4532  0.2348
  817MPD2    C312076   2.959   0.565   9.642 -0.4089 -0.4215  0.3958
  817MPD2    C412077   3.092   0.580   9.673  0.6593  0.3277 -0.7468
  817MPD2    C512078   3.179   0.477   9.712  0.1447 -0.2552 -0.4291
  817MPD2     H12079   2.805   0.425   9.626  0.0999  3.2979 -0.5183
  817MPD2    H112080   3.140   0.677   9.676  1.0167  0.1018  0.7295
  817MPD2    H212081   3.188   0.273   9.768  0.8394 -0.0551 -0.9820
  817MPD2    H312082   3.285   0.494   9.727  0.2632 -2.0535  0.8458
  817MPD2     N12083   2.883   0.676   9.594 -0.1346  0.5279 -0.3809
  817MPD2    H512084   2.932   0.763   9.610 -0.4763  1.0321 -2.0981
  817MPD2    N112085   2.923   0.214   9.712  0.7675  0.3130 -0.1254
  817MPD2    H712086   2.834   0.196   9.666 -0.6167  0.6689  2.3490
  818MPD2     C12087   1.918   1.010  10.294 -0.2777 -0.5742 -0.3997
  818MPD2    C112088   1.821   0.912  10.272 -0.3307  0.9057  0.7428
  818MPD2    C212089   1.848   0.783  10.223 -0.0643  0.0850 -0.2578
  818MPD2    C312090   1.974   0.768  10.170 -0.7806  0.6214 -0.0593
  818MPD2    C412091   2.058   0.874  10.171 -0.3140 -0.4383  0.0954
  818MPD2    C512092   2.037   0.988  10.237  0.4899  0.2064 -0.2363
  818MPD2     H12093   1.774   0.705  10.211 -1.0097  0.7978  0.8732
  818MPD2    H112094   2.152   0.881  10.118 -0.0036  1.3707  0.8406
  818MPD2    H212095   1.910   1.106  10.345  1.1894 -0.1769 -0.8952
  818MPD2    H312096   2.118   1.059  10.224  0.6267  0.4289  1.8301
  818MPD2     N12097   1.990   0.651  10.082 -0.5164  0.2632  0.2255
  818MPD2    H512098   1.908   0.591  10.075 -0.1816 -0.0537 -1.0462
  818MPD2    N112099   1.685   0.928  10.297  0.2617  0.7492  0.5202
  818MPD2    H712100   1.624   0.848  10.281  1.3202 -0.4021  2.1814
  819MPD2     C12101   4.015   2.151  15.187  0.3863 -0.1866  0.2698
  819MPD2    C112102   3.999   2.032  15.256  0.9011 -0.5544 -0.7936
  819MPD2    C212103   4.115   1.974  15.310  0.3791  0.2036 -0.3017
  819MPD2    C312104   4.236   2.044  15.300  0.1092 -0.6703  0.1408
  819MPD2    C412105   4.235   2.176  15.255  0.1373 -0.6707  0.1285
  819MPD2    C512106   4.124   2.229  15.200  1.3226 -0.0868 -0.5122
  819MPD2     H12107   4.121   1.874  15.351  1.9790  0.5842  0.3661
  819MPD2    H112108   4.323   2.237  15.271  0.2071 -0.9236  0.7197
  819MPD2    H212109   3.932   2.194  15.132  0.0769  0.9129  1.6127
  819MPD2    H312110   4.128   2.335  15.175 -0.2321 -0.0873 -0.7620
  819MPD2     N12111   4.349   1.978  15.354 -0.5786  0.5273  0.2238
  819MPD2    H512112   4.330   1.890  15.401 -1.1970  0.3702 -0.3145
  819MPD2    N112113   3.875   1.974  15.239 -0.2188 -0.3675 -0.3326
  819MPD2    H712114   3.804   2.031  15.195  1.8860  1.7096 -1.0208
  820MPD2     C12115   3.163   2.441  14.923  0.0622 -0.0345  0.1688
  820MPD2    C112116   3.286   2.448  14.986  0.7853 -0.0208  0.2724
  820MPD2    C212117   3.358   2.333  15.002  0.0067  0.0539 -0.0261
  820MPD2    C312118   3.323   2.209  14.955 -0.0714  0.3091  0.0623
  820MPD2    C412119   3.206   2.202  14.892  0.4196  0.5440  0.2626
  820MPD2    C512120   3.130   2.317  14.876 -0.5757  0.5250  0.1716
  820MPD2     H12121   3.449   2.342  15.060  0.1981  2.4975 -0.7255
  820MPD2    H112122   3.164   2.119  14.837  0.3303  0.0329  1.1138
  820MPD2    H212123   3.107   2.530  14.900 -1.6845 -0.7157  1.7179
  820MPD2    H312124   3.040   2.299  14.819  0.2148  0.6130 -1.1095
  820MPD2     N12125   3.410   2.096  14.966 -0.3059 -0.5930  0.2422
  820MPD2    H512126   3.376   2.005  14.936 -0.2261 -0.6968  0.4610
  820MPD2    N112127   3.341   2.568  15.038  0.2002  0.1761  0.2632
  820MPD2    H712128   3.278   2.646  15.018  0.3580 -0.0241 -0.9697
  821MPD2     C12129   0.110   3.275  13.363 -0.2512  1.0634 -0.1228
  821MPD2    C112130   0.167   3.353  13.463 -0.5207 -0.2810 -0.0506
  821MPD2    C212131   0.247   3.456  13.426  0.0740 -0.3108 -0.2456
  821MPD2    C312132   0.286   3.478  13.294  1.2667 -0.2205  0.3835
  821MPD2    C412133   0.232   3.395  13.202 -0.0188  0.0307  0.3915
  821MPD2    C512134   0.155   3.285  13.235 -0.6812  0.6508 -1.0126
  821MPD2     H12135   0.279   3.529  13.500 -2.7019  0.7040 -0.0518
  821MPD2    H112136   0.271   3.393  13.100 -0.6412  1.1245  0.1259
  821MPD2    H212137   0.043   3.192  13.383  0.4445  0.7398  0.8795
  821MPD2    H312138   0.118   3.228  13.151  1.0488  0.1271 -1.4217
  821MPD2     N12139   0.382   3.574  13.257 -0.3568  0.4334 -0.2536
  821MPD2    H512140   0.417   3.577  13.162 -0.2385  0.6746 -0.2053
  821MPD2    N112141   0.133   3.330  13.594  0.2213 -0.6656 -0.8472
  821MPD2    H712142   0.200   3.366  13.661 -1.5000 -0.2392  0.6368
  822MPD2     C12143   0.541   3.590  15.532 -0.1047 -0.3543  0.2376
  822MPD2    C112144   0.498   3.557  15.661  0.0057  0.4182  0.7789
  822MPD2    C212145   0.401   3.639  15.714  0.2492  0.6237  0.4234
  822MPD2    C312146   0.344   3.745  15.649 -0.0935  0.0039  0.1094
  822MPD2    C412147   0.377   3.764  15.514  0.4883  0.2582 -0.3176
  822MPD2    C512148   0.479   3.687  15.462 -0.1349 -0.3173  1.3305
  822MPD2     H12149   0.380   3.625  15.820  0.8575 -1.5038  0.2763
  822MPD2    H112150   0.336   3.845  15.456  1.8595  0.4937 -0.9616
  822MPD2    H212151   0.625   3.539  15.486 -0.1035  0.1079 -0.2569
  822MPD2    H312152   0.511   3.711  15.361 -0.3839  1.2719  1.6408
  822MPD2     N12153   0.278   3.843  15.726 -0.2680  0.4367  0.3497
  822MPD2    H512154   0.309   3.861  15.821  1.3119  1.8518 -0.4333
  822MPD2    N112155   0.554   3.455  15.743  0.0709  0.7880  0.4103
  822MPD2    H712156   0.506   3.440  15.832  0.3676  0.8146  0.5763
  823MPD2     C12157   4.624   4.250  16.382 -0.4399  0.3474  0.6585
  823MPD2    C112158   4.663   4.137  16.314 -0.0649 -0.3552 -0.1557
  823MPD2    C212159   4.689   4.020  16.381  0.4461 -0.6916 -0.6776
  823MPD2    C312160   4.666   4.006  16.515  0.1217  0.3235 -0.8074
  823MPD2    C412161   4.615   4.115  16.583  0.2880 -0.2436  0.3431
  823MPD2    C512162   4.612   4.239  16.519  0.2224 -0.1326  0.3940
  823MPD2     H12163   4.721   3.932  16.327  1.8174 -0.4596 -0.2204
  823MPD2    H112164   4.593   4.104  16.688 -0.7656 -0.3746  0.1127
  823MPD2    H212165   4.629   4.349  16.338  0.1894  0.0135 -0.0245
  823MPD2    H312166   4.593   4.328  16.577  1.1959 -0.9674  1.9894
  823MPD2     N12167   4.686   3.885  16.583 -0.5066 -0.2600  0.4939
  823MPD2    H512168   4.664   3.876  16.682 -0.3811  2.6522  0.7782
  823MPD2    N112169   4.699   4.163  16.180 -0.0048 -0.3227  0.0399
  823MPD2    H712170   4.704   4.257  16.144 -1.1468 -0.9226 -1.6951
  824MPD2     C12171   0.960   2.710  15.783 -0.1874 -0.3696  0.7723
  824MPD2    C112172   0.977   2.830  15.726 -0.1590  0.5229  0.4959
  824MPD2    C212173   1.080   2.841  15.638 -0.2468  0.3981  0.0662
  824MPD2    C312174   1.150   2.733  15.586 -0.1564  0.2352  0.1239
  824MPD2    C412175   1.114   2.604  15.623  0.4045 -0.2022  0.2254
  824MPD2    C512176   1.021   2.595  15.724  0.3117 -0.9912  0.2446
  824MPD2     H12177   1.110   2.941  15.609  0.1542 -0.0978 -1.2196
  824MPD2    H112178   1.158   2.514  15.581 -3.1727 -1.7368 -0.2115
  824MPD2    H212179   0.896   2.699  15.870  0.9435 -1.8781  1.4122
  824MPD2    H312180   1.005   2.500  15.774 -1.1230 -1.1658 -0.5461
  824MPD2     N12181   1.246   2.756  15.487  0.1259 -0.0762  0.0700
  824MPD2    H512182   1.255   2.853  15.459  2.3911 -0.2744  0.1274
  824MPD2    N112183   0.913   2.946  15.769 -0.0782  0.2572 -0.4483
  824MPD2    H712184   0.935   3.033  15.723 -3.1993  0.4059 -1.6855
  825MPD2     C12185   1.948   3.156  15.178 -0.1260  0.4285 -0.4835
  825MPD2    C112186   1.817   3.146  15.221  0.1840  0.0434  0.6370
  825MPD2    C212187   1.740   3.254  15.236  0.1510 -0.3825 -0.0193
  825MPD2    C312188   1.800   3.382  15.206 -0.9085 -0.2727  0.0091
  825MPD2    C412189   1.928   3.393  15.173 -0.4247 -0.2420 -0.1266
  825MPD2    C512190   2.004   3.280  15.159 -1.0089  0.3850 -0.8756
  825MPD2     H12191   1.634   3.241  15.256 -0.5992  1.3644 -2.7705
  825MPD2    H112192   1.973   3.490  15.153  0.4470 -0.2358  1.8714
  825MPD2    H212193   2.003   3.063  15.167 -0.2256  0.4682 -1.3036
  825MPD2    H312194   2.108   3.274  15.130 -0.8224  0.3875 -0.2006
  825MPD2     N12195   1.728   3.506  15.199  0.2177 -0.2466 -0.5838
  825MPD2    H512196   1.778   3.587  15.164  0.0913 -0.2823 -0.8450
  825MPD2    N112197   1.768   3.012  15.236  0.0768  0.5627 -0.2499
  825MPD2    H712198   1.823   2.928  15.220 -0.3224  0.1187  0.7043
  826MPD2     C12199   0.537   3.065  13.604  0.1732 -0.4598 -0.0978
  826MPD2    C112200   0.616   3.068  13.717 -0.0756 -0.1973  0.0966
  826MPD2    C212201   0.634   3.183  13.789  0.7297  0.0948  0.4848
  826MPD2    C312202   0.571   3.300  13.748  0.0182 -0.5342  0.1727
  826MPD2    C412203   0.491   3.296  13.634 -0.7003  0.0204 -0.4019
  826MPD2    C512204   0.478   3.184  13.559 -0.3653  0.3235 -0.0381
  826MPD2     H12205   0.696   3.179  13.878  0.6696 -1.1853  0.4780
  826MPD2    H112206   0.446   3.390  13.606 -1.6008 -0.1102  0.6063
  826MPD2    H212207   0.525   2.975  13.545 -0.5518  0.8998 -2.0147
  826MPD2    H312208   0.423   3.180  13.465 -1.2008 -0.8971  0.4878
  826MPD2     N12209   0.582   3.423  13.810 -0.3610  0.6386 -0.4283
  826MPD2    H512210   0.541   3.500  13.758 -2.1063  1.0689  1.5967
  826MPD2    N112211   0.682   2.945  13.746  0.7549 -0.4575  0.0328
  826MPD2    H712212   0.661   2.870  13.680  2.7259  0.5372 -1.7302
  827MPD2     C12213   1.784   3.565  10.058  0.6048 -0.3562  0.0232
  827MPD2    C112214   1.712   3.613  10.165  0.5836  0.2815 -0.0796
  827MPD2    C212215   1.576   3.617  10.154  0.2005 -1.1788  0.6305
  827MPD2    C312216   1.511   3.560  10.046 -0.4868  1.1413  0.5637
  827MPD2    C412217   1.585   3.505   9.946  0.8052  0.1500  0.4196
  827MPD2    C512218   1.721   3.513   9.949  0.3252 -0.1793 -0.2519
  827MPD2     H12219   1.522   3.651  10.242  0.9613 -0.0276  0.6559
  827MPD2    H112220   1.549   3.445   9.863  0.0333  0.9431  0.1807
  827MPD2    H212221   1.892   3.565  10.063  0.6777 -1.6339 -1.5367
  827MPD2    H312222   1.776   3.460   9.872  1.0882 -1.1986  1.0085
  827MPD2     N12223   1.368   3.554  10.051  0.5094 -0.1103 -0.5879
  827MPD2    H512224   1.318   3.615  10.114 -0.9485  0.9848 -2.8007
  827MPD2    N112225   1.773   3.652  10.292  0.8391 -0.3545  0.6682
  827MPD2    H712226   1.869   3.620  10.300  1.6334  2.5032  2.5608
  828MPD2     C12227   0.705   4.010  12.368  0.1289 -0.1266  0.3321
  828MPD2    C112228   0.580   4.038  12.325  0.8869 -0.0193 -0.3886
  828MPD2    C212229   0.566   4.047  12.189 -0.4099  0.0343  0.5568
  828MPD2    C312230   0.662   4.016  12.099  0.8175 -0.6706 -0.1856
  828MPD2    C412231   0.791   3.997  12.144 -0.1359 -0.2414  0.2583
  828MPD2    C512232   0.813   3.997  12.281  0.1396 -0.2109 -0.6641
  828MPD2     H12233   0.469   4.070  12.146  0.2149  0.4658 -0.6168
  828MPD2    H112234   0.882   3.990  12.086 -0.6161  1.5797 -0.7205
  828MPD2    H212235   0.735   3.998  12.472  0.0981  1.5248  0.5234
  828MPD2    H312236   0.914   3.985  12.318 -0.5682  0.9210  1.6166
  828MPD2     N12237   0.633   4.009  11.960 -0.7932 -0.2134  0.0359
  828MPD2    H512238   0.718   4.007  11.904 -1.2408 -0.3250 -0.6356
  828MPD2    N112239   0.467   4.048  12.405 -0.1449 -0.2535  0.4178
  828MPD2    H712240   0.380   4.075  12.359  0.0532  0.9360  0.7399
  829MPD2     C12241   4.264   3.997  12.246 -0.1291 -0.3510 -0.3646
  829MPD2    C112242   4.387   3.984  12.186  0.4818  0.0283  0.1142
  829MPD2    C212243   4.500   3.960  12.267 -0.5287 -0.3654  0.0428
  829MPD2    C312244   4.484   3.946  12.402  0.6448 -0.1102  0.3003
  829MPD2    C412245   4.358   3.950  12.461 -0.0501  0.2871 -0.6495
  829MPD2    C512246   4.251   3.978  12.382 -0.4147 -0.7357  1.0485
  829MPD2     H12247   4.597   3.955  12.219 -0.7995 -0.6999 -0.4725
  829MPD2    H112248   4.336   3.924  12.564 -1.4679  1.5798 -0.6177
  829MPD2    H212249   4.175   4.014  12.186 -0.0244 -1.3299 -0.8120
  829MPD2    H312250   4.155   3.985  12.432 -1.8134  2.9239 -2.1315
  829MPD2     N12251   4.589   3.924  12.490  0.4963  0.6259  0.6406
  829MPD2    H512252   4.565   3.926  12.588 -0.2360  0.0231  0.4784
  829MPD2    N112253   4.384   4.002  12.048 -1.0166 -0.1899  0.0102
  829MPD2    H712254   4.296   4.025  12.003  0.5595  0.5909 -2.6725
  830MPD2     C12255   0.483   1.778  15.527 -0.1162  1.0368 -0.2968
  830MPD2    C112256   0.407   1.869  15.458 -0.6805 -0.7293 -0.5783
  830MPD2    C212257   0.465   1.953  15.368  0.3214 -0.0257  0.0161
  830MPD2    C312258   0.604   1.951  15.358  0.4066 -0.2456  0.7882
  830MPD2    C412259   0.675   1.866  15.438  0.1907 -0.5022 -0.0617
  830MPD2    C512260   0.617   1.772  15.518 -0.1288  1.3481  0.3311
  830MPD2     H12261   0.409   2.037  15.327 -1.1766 -0.4844  1.1315
  830MPD2    H112262   0.784   1.868  15.435  0.0925  0.5637 -2.9528
  830MPD2    H212263   0.440   1.711  15.601 -2.1053 -0.5893 -2.9634
  830MPD2    H312264   0.675   1.703  15.578  0.0592  0.8435 -0.4393
  830MPD2     N12265   0.676   2.039  15.270  0.2097  0.1071  0.4931
  830MPD2    H512266   0.776   2.041  15.288  0.5097  0.1483 -1.2068
  830MPD2    N112267   0.270   1.870  15.491 -0.5185  0.0685  0.0993
  830MPD2    H712268   0.241   1.822  15.576  2.5996 -0.5853  0.7842
  831MPD2     C12269   0.497   3.997  16.144 -0.5862 -0.0884  0.0063
  831MPD2    C112270   0.516   3.882  16.073  0.7679  0.6441  0.9433
  831MPD2    C212271   0.440   3.764  16.087  0.4958  0.1823  0.0015
  831MPD2    C312272   0.324   3.776  16.168 -0.4544  0.3276 -0.6221
  831MPD2    C412273   0.297   3.899  16.233 -0.4599 -0.4415  0.7087
  831MPD2    C512274   0.384   4.004  16.220 -0.4116 -0.2851  0.3808
  831MPD2     H12275   0.462   3.667  16.044 -0.2303  0.6387 -1.4008
  831MPD2    H112276   0.209   3.914  16.294  0.5641 -1.6687  2.4755
  831MPD2    H212277   0.558   4.086  16.135 -1.5496  0.5387 -0.3317
  831MPD2    H312278   0.376   4.089  16.286 -3.3429  1.8527 -2.7867
  831MPD2     N12279   0.229   3.672  16.175  0.3188  0.3315  0.2582
  831MPD2    H512280   0.142   3.685  16.226  0.0579  0.5387 -0.2336
  831MPD2    N112281   0.635   3.879  15.994 -0.0149 -0.4848  0.2292
  831MPD2    H712282   0.665   3.970  15.961 -0.4325 -0.4839 -0.1520
  832MPD2     C12283   3.341   0.562  17.181 -0.9514 -0.3197  1.0325
  832MPD2    C112284   3.382   0.595  17.053 -0.4905  0.5895 -0.1791
  832MPD2    C212285   3.303   0.554  16.948  0.1044  0.2587  0.5961
  832MPD2    C312286   3.187   0.485  16.963 -0.2280 -0.2077  0.3582
  832MPD2    C412287   3.151   0.439  17.087  0.3626  0.4441  0.6996
  832MPD2    C512288   3.232   0.469  17.191  0.2080  0.0743  0.4369
  832MPD2     H12289   3.343   0.584  16.852 -0.4440 -0.0505  0.2705
  832MPD2    H112290   3.061   0.382  17.109 -0.5146  1.0760 -1.2555
  832MPD2    H212291   3.403   0.590  17.265 -1.9537  2.8388  0.7326
  832MPD2    H312292   3.215   0.422  17.287 -1.2669 -0.1542  0.0596
  832MPD2     N12293   3.107   0.454  16.850 -0.1950  0.0004  0.8237
  832MPD2    H512294   3.044   0.375  16.861  1.4089 -1.3506  0.2471
  832MPD2    N112295   3.506   0.664  17.031  0.6508  0.0015  0.3109
  832MPD2    H712296   3.556   0.687  17.116 -0.0423 -0.1475  0.7585
  833MPD2     C12297   0.664   1.907  12.511  0.7951  0.6565 -0.5790
  833MPD2    C112298   0.695   2.015  12.432  0.5377  0.2108 -0.6306
  833MPD2    C212299   0.816   2.019  12.361 -0.4242 -0.4290  0.4630
  833MPD2    C312300   0.902   1.909  12.375  0.5971 -0.4043  0.0407
  833MPD2    C412301   0.879   1.817  12.474  0.2590  0.0318 -0.1263
  833MPD2    C512302   0.756   1.803  12.534  0.5354  0.1195  0.7556
  833MPD2     H12303   0.848   2.101  12.298 -1.0756  0.3800  1.1789
  833MPD2    H112304   0.959   1.748  12.497  0.2831  1.0628  2.8878
  833MPD2    H212305   0.570   1.907  12.564  1.3004  0.1164  0.3166
  833MPD2    H312306   0.733   1.734  12.614  0.7396  0.2028  0.8861
  833MPD2     N12307   1.015   1.888  12.287  0.0026 -0.6320 -0.6179
  833MPD2    H512308   1.055   1.794  12.289 -0.4617 -0.8457 -1.8484
  833MPD2    N112309   0.603   2.126  12.437  0.4330  0.1050 -0.6380
  833MPD2    H712310   0.516   2.115  12.488  1.4789 -2.2110  0.6270
  834MPD2     C12311   0.909   1.186  11.658  0.9800  0.2185  0.4330
  834MPD2    C112312   0.843   1.290  11.601 -0.4258 -0.5161  0.1565
  834MPD2    C212313   0.861   1.416  11.650  0.1775 -0.1254 -0.0872
  834MPD2    C312314   0.943   1.437  11.756  0.1558 -0.7151  0.4749
  834MPD2    C412315   1.003   1.333  11.818  0.5018  0.5089  0.9188
  834MPD2    C512316   0.984   1.204  11.769 -0.0222  0.1372 -0.0817
  834MPD2     H12317   0.807   1.496  11.603  2.5009  0.7785 -1.2164
  834MPD2    H112318   1.069   1.349  11.903 -1.0709  1.4208  1.9692
  834MPD2    H212319   0.887   1.087  11.620  0.5484  0.0007  1.2616
  834MPD2    H312320   1.030   1.116  11.815 -1.0599 -0.5080 -0.2703
  834MPD2     N12321   0.972   1.570  11.793  0.1248  0.0824 -0.1464
  834MPD2    H512322   0.926   1.634  11.729  0.3164  0.3875  0.0226
  834MPD2    N112323   0.762   1.252  11.490 -0.3009 -0.6048 -0.1232
  834MPD2    H712324   0.742   1.158  11.459  3.8942 -0.9069 -1.9052
  835MPD2     C12325   0.940   4.329  10.770  0.5250  0.4547 -0.0298
  835MPD2    C112326   0.839   4.313  10.871 -0.1154 -0.1608 -0.2047
  835MPD2    C212327   0.875   4.276  10.995 -0.3738  0.0379 -0.6830
  835MPD2    C312328   1.006   4.250  11.035  0.0040 -0.5259 -0.2236
  835MPD2    C412329   1.103   4.250  10.934  0.1431  0.5932 -0.2031
  835MPD2    C512330   1.068   4.295  10.808 -0.3183 -0.6697 -0.0392
  835MPD2     H12331   0.801   4.258  11.073  1.6085 -1.1728  0.9226
  835MPD2    H112332   1.206   4.239  10.967  0.2115  1.8267 -0.0170
  835MPD2    H212333   0.921   4.356  10.667 -0.5598 -1.6111 -0.3676
  835MPD2    H312334   1.148   4.315  10.738  0.5307 -0.5404  0.9598
  835MPD2     N12335   1.041   4.223  11.168  0.0518 -0.5235  0.3048
  835MPD2    H512336   1.133   4.184  11.187  0.0346 -0.0228  1.3973
  835MPD2    N112337   0.699   4.331  10.852 -0.2138  0.3170  0.4248
  835MPD2    H712338   0.640   4.311  10.932 -0.4757  1.8257  0.6137
  836MPD2     C12339   0.541   4.359  11.648  0.5885  0.7279 -0.0051
  836MPD2    C112340   0.642   4.326  11.734 -0.4429  0.3969  0.4899
  836MPD2    C212341   0.640   4.351  11.866  0.1969  0.3593  0.9347
  836MPD2    C312342   0.517   4.388  11.922  0.2381  0.1039  0.2167
  836MPD2    C412343   0.406   4.394  11.836  0.2713  0.7640 -0.3083
  836MPD2    C512344   0.415   4.386  11.695  0.2865 -0.3589  0.1813
  836MPD2     H12345   0.729   4.337  11.926  1.8690 -0.5342 -1.7178
  836MPD2    H112346   0.311   4.422  11.879  0.0296 -2.3373  1.1428
  836MPD2    H212347   0.553   4.337  11.543 -0.7422  1.4531 -0.3106
  836MPD2    H312348   0.331   4.390  11.626  0.3283  0.8196  0.2107
  836MPD2     N12349   0.505   4.405  12.060  0.4686 -0.1063  0.1409
  836MPD2    H512350   0.411   4.430  12.090  0.5964  1.6866 -0.9406
  836MPD2    N112351   0.756   4.268  11.666  0.7755  0.0998  0.6795
  836MPD2    H712352   0.752   4.262  11.565 -0.2874 -0.1175  0.7296
  837MPD2     C12353   3.815   3.554  10.213 -0.1431  0.3944 -0.4451
  837MPD2    C112354   3.783   3.636  10.111 -0.1274  0.7236  0.3917
  837MPD2    C212355   3.739   3.765  10.140  0.0776  0.1311 -0.5614
  837MPD2    C312356   3.742   3.816  10.270  0.0069  0.2997  0.2348
  837MPD2    C412357   3.781   3.734  10.373  0.0291  0.6279  1.0962
  837MPD2    C512358   3.809   3.601  10.338 -0.2870  0.2094 -0.7829
  837MPD2     H12359   3.706   3.835  10.065  1.8495  0.8905 -0.6307
  837MPD2    H112360   3.773   3.752  10.480  2.9992  2.8775  0.9647
  837MPD2    H212361   3.842   3.450  10.200  1.5458  0.4532  2.6672
  837MPD2    H312362   3.824   3.524  10.413  2.3807 -1.3997 -2.9486
  837MPD2     N12363   3.705   3.949  10.295  0.2068 -0.1313  0.3728
  837MPD2    H512364   3.680   4.006  10.214  1.2039 -1.6250 -0.9905
  837MPD2    N112365   3.765   3.586   9.977 -0.9398 -0.2626  0.3664
  837MPD2    H712366   3.774   3.487   9.954  0.8017  0.0208 -0.1577
  838MPD2     C12367   2.684   2.225  11.899 -0.7434 -0.7448  0.1037
  838MPD2    C112368   2.645   2.098  11.865 -0.4062 -0.3239 -0.1838
  838MPD2    C212369   2.574   2.018  11.951 -0.0650 -0.0448 -0.5035
  838MPD2    C312370   2.529   2.070  12.076  0.0275  0.5797 -0.1385
  838MPD2    C412371   2.551   2.202  12.100  0.4105 -0.5400 -0.1303
  838MPD2    C512372   2.626   2.276  12.010  0.6263  0.1355 -0.0698
  838MPD2     H12373   2.557   1.913  11.928 -1.4080  0.5026 -2.0310
  838MPD2    H112374   2.507   2.249  12.187  1.5763  1.8270 -0.8157
  838MPD2    H212375   2.728   2.296  11.830 -0.7716  0.6299  1.4990
  838MPD2    H312376   2.632   2.381  12.040 -1.4573  0.5833 -1.2445
  838MPD2     N12377   2.450   1.999  12.169 -0.3491 -0.3883 -0.5290
  838MPD2    H512378   2.412   2.049  12.249 -0.9382 -1.4489 -0.1569
  838MPD2    N112379   2.673   2.038  11.743  0.6145  0.6070  0.0132
  838MPD2    H712380   2.640   1.942  11.733 -1.2584  1.2138  0.4123
  839MPD2     C12381   2.025   1.582  11.518 -0.1007 -0.5233  0.2727
  839MPD2    C112382   2.114   1.534  11.424  0.4828  0.3372 -0.4058
  839MPD2    C212383   2.231   1.608  11.402 -0.6689 -0.1641  0.3521
  839MPD2    C312384   2.261   1.718  11.488 -0.1327 -0.0174 -0.0605
  839MPD2    C412385   2.171   1.747  11.590  0.6930  0.4502 -0.0863
  839MPD2    C512386   2.048   1.684  11.600 -0.1257 -0.4374  0.5484
  839MPD2     H12387   2.296   1.566  11.326  0.3964  2.3287 -0.1318
  839MPD2    H112388   2.193   1.818  11.669  1.0418  2.9256 -2.4216
  839MPD2    H212389   1.924   1.546  11.534 -0.9115  0.1488 -3.5126
  839MPD2    H312390   1.976   1.725  11.670  0.5468 -0.2510  1.1222
  839MPD2     N12391   2.385   1.779  11.484  0.7458  0.4677  0.0663
  839MPD2    H512392   2.409   1.836  11.565  3.7263 -1.0506  0.2324
  839MPD2    N112393   2.093   1.419  11.351  0.7098  0.6379  0.2667
  839MPD2    H712394   2.146   1.398  11.268  3.1170  2.0425  1.4356
  840MPD2     C12395   2.394   3.628  10.420 -0.1680 -0.2053  0.2321
  840MPD2    C112396   2.339   3.696  10.521 -0.3274  0.5419  0.6438
  840MPD2    C212397   2.411   3.789  10.587 -0.2254  0.6813  0.5304
  840MPD2    C312398   2.543   3.823  10.556  0.0783  0.3632  0.4097
  840MPD2    C412399   2.596   3.745  10.457 -0.4887  0.8673  0.5653
  840MPD2    C512400   2.531   3.641  10.394 -0.3152 -0.3228 -0.0959
  840MPD2     H12401   2.368   3.837  10.674 -3.0806 -0.7965 -0.0651
  840MPD2    H112402   2.699   3.758  10.424  0.4073 -0.4439  2.8394
  840MPD2    H212403   2.337   3.560  10.358 -1.9774 -1.0311  2.8233
  840MPD2    H312404   2.575   3.585  10.313 -0.5647 -0.0569 -0.4140
  840MPD2     N12405   2.634   3.910  10.616  0.0280  0.0880 -0.4118
  840MPD2    H512406   2.725   3.911  10.573 -0.6545  1.3238 -1.8008
  840MPD2    N112407   2.203   3.685  10.542 -0.0023 -0.8033 -0.1682
  840MPD2    H712408   2.143   3.659  10.465 -0.4634 -0.0811 -0.0475
  841MPD2     C12409   1.972   4.521  14.696  0.0370 -0.1485 -0.8537
  841MPD2    C112410   2.070   4.431  14.713  0.6277  0.1499 -0.1174
  841MPD2    C212411   2.165   4.459  14.809 -0.4139 -0.8029 -0.3871
  841MPD2    C312412   2.166   4.569  14.886  0.2006 -0.0550  0.1507
  841MPD2    C412413   2.063   4.659  14.863  0.4376  0.0134 -0.4007
  841MPD2    C512414   1.969   4.635  14.768  0.1168  0.1769  0.5380
  841MPD2     H12415   2.243   4.387  14.832 -1.9441 -2.3106  0.1327
  841MPD2    H112416   2.064   0.018  14.913  0.9345  0.6773 -1.6930
  841MPD2    H212417   1.895   4.508  14.620  0.8188 -1.1634 -1.4604
  841MPD2    H312418   1.896   4.712  14.747 -1.1173 -0.7379  1.4280
  841MPD2     N12419   2.259   4.575  14.992 -0.3146  0.6102 -0.3667
  841MPD2    H512420   2.337   4.511  15.002  0.5679  1.6032 -0.9087
  841MPD2    N112421   2.072   4.307  14.640  0.3328 -0.5174  0.8739
  841MPD2    H712422   2.132   4.231  14.672  1.6237 -0.0946 -0.5312
  842MPD2     C12423   2.766   0.529  16.917 -0.4030  0.3350 -0.5427
  842MPD2    C112424   2.659   0.607  16.877 -0.4009  0.1384 -0.6906
  842MPD2    C212425   2.536   0.589  16.925 -0.7505  0.3790  0.3856
  842MPD2    C312426   2.512   0.488  17.014  0.9533 -0.5532  0.0684
  842MPD2    C412427   2.617   0.404  17.048  0.0016 -0.0559 -0.9206
  842MPD2    C512428   2.743   0.435  17.003  0.1668  0.2822 -0.4747
  842MPD2     H12429   2.450   0.636  16.878 -0.3186 -1.5650 -2.3671
  842MPD2    H112430   2.610   0.325  17.122 -1.3961 -0.5381 -1.5633
  842MPD2    H212431   2.868   0.549  16.885  0.4406 -0.5623  1.5546
  842MPD2    H312432   2.819   0.366  17.039  1.8307  2.0752 -0.5355
  842MPD2     N12433   2.382   0.483  17.064 -0.4970 -0.2877 -0.7637
  842MPD2    H512434   2.311   0.552  17.039 -0.7237 -0.4154 -0.4770
  842MPD2    N112435   2.669   0.709  16.780  0.2151  0.1164 -0.1245
  842MPD2    H712436   2.584   0.747  16.739 -0.4226  0.2552  1.3491
  843MPD2     C12437   4.024   1.988  17.607  0.4122  0.6310 -0.2730
  843MPD2    C112438   4.141   1.916  17.590 -0.6033  0.3917  1.6789
  843MPD2    C212439   4.256   1.953  17.665 -0.1590 -0.9431 -0.1458
  843MPD2    C312440   4.258   2.066  17.741 -0.0545  0.5314 -0.3937
  843MPD2    C412441   4.140   2.137   0.006 -0.3398 -0.5674  0.0092
  843MPD2    C512442   4.025   2.091  17.694  0.8860  0.2408 -0.4281
  843MPD2     H12443   4.342   1.890  17.646  0.8341  0.1455  0.7598
  843MPD2    H112444   4.125   2.237   0.046  3.0279 -0.9711  2.2095
  843MPD2    H212445   3.935   1.963  17.550  0.6396 -1.4167  0.2406
  843MPD2    H312446   3.935   2.147  17.715  1.4473  0.7501  0.6470
  843MPD2     N12447   4.368   2.114   0.065 -0.2505  0.0494 -0.5193
  843MPD2    H512448   4.350   2.183   0.136  2.3761 -2.9018  3.0133
  843MPD2    N112449   4.138   1.808  17.502  0.2386 -0.3492  0.1374
  843MPD2    H712450   4.051   1.788  17.454 -0.1423  0.7865  0.3580
  844MPD2     C12451   2.810   4.551  16.300 -0.1750 -0.0551 -0.7201
  844MPD2    C112452   2.925   4.569  16.219 -0.1703 -0.4483  0.3473
  844MPD2    C212453   3.027   4.651  16.267 -0.6341 -0.3096 -0.0553
  844MPD2    C312454   3.014   4.713  16.394  0.1046 -0.2218  0.1900
  844MPD2    C412455   2.896   4.697  16.465  0.2919 -0.4430 -0.3143
  844MPD2    C512456   2.795   4.620  16.413 -0.0749 -0.0244 -0.1860
  844MPD2     H12457   3.120   4.655  16.212  0.4047 -2.2708  1.5985
  844MPD2    H112458   2.884   4.725  16.569 -0.8377  3.3102 -1.4603
  844MPD2    H212459   2.728   4.485  16.274  1.9161 -3.4798  1.3583
  844MPD2    H312460   2.707   4.610  16.476  1.5202  0.5559  2.1415
  844MPD2     N12461   3.115   0.052  16.458 -0.2842  0.1779 -0.3016
  844MPD2    H512462   3.098   0.092  16.549  0.4743 -1.4828  0.5679
  844MPD2    N112463   2.943   4.503  16.097  0.5169  0.1969  0.6283
  844MPD2    H712464   3.029   4.514  16.044  0.3037  1.8177  0.6238
  845MPD2     C12465   3.454   1.024  16.413  0.3813 -0.1177 -0.3611
  845MPD2    C112466   3.422   0.983  16.536 -0.1387  0.1738 -0.1630
  845MPD2    C212467   3.427   0.850  16.565 -0.5463  0.1949 -0.0718
  845MPD2    C312468   3.453   0.754  16.464 -0.2207 -1.1702 -0.2332
  845MPD2    C412469   3.464   0.803  16.335 -0.2981  0.4390 -0.0466
  845MPD2    C512470   3.461   0.935  16.309 -0.7754 -0.4389 -0.6314
  845MPD2     H12471   3.413   0.813  16.666 -0.7567  2.5030  0.7339
  845MPD2    H112472   3.451   0.735  16.251 -0.4758 -1.5504  1.5971
  845MPD2    H212473   3.470   1.130  16.395 -1.3943  0.0735 -0.8212
  845MPD2    H312474   3.483   0.965  16.207  0.4956  3.8994  0.9206
  845MPD2     N12475   3.442   0.621  16.499 -0.6086  0.2785 -0.4354
  845MPD2    H512476   3.414   0.607  16.596  1.0750 -0.1199 -0.0012
  845MPD2    N112477   3.393   1.079  16.639  0.6342 -0.2769 -0.1520
  845MPD2    H712478   3.386   1.176  16.612 -0.0442 -0.0622  0.7617
  846MPD2     C12479   4.143   1.348  13.221  0.5639 -0.2804 -0.4651
  846MPD2    C112480   4.265   1.347  13.293  0.7639 -0.3867 -0.8832
  846MPD2    C212481   4.250   1.311  13.427 -0.3696  0.1533  0.8497
  846MPD2    C312482   4.130   1.281  13.491 -0.1293 -0.7538 -0.0969
  846MPD2    C412483   4.016   1.276  13.417 -0.5650  0.0955 -0.3687
  846MPD2    C512484   4.026   1.324  13.288 -0.2253 -0.1358 -0.3994
  846MPD2     H12485   4.337   1.299  13.490  0.3863 -2.8223 -0.7911
  846MPD2    H112486   3.915   1.266  13.454  0.3972 -1.6687  1.7558
  846MPD2    H212487   4.148   1.362  13.113  0.8915  1.9158 -0.1416
  846MPD2    H312488   3.929   1.338  13.241 -1.8865 -0.2032  2.9918
  846MPD2     N12489   4.141   1.278  13.633  0.0534  0.9922 -0.2735
  846MPD2    H512490   4.232   1.278  13.678  0.0148  0.3889 -0.1991
  846MPD2    N112491   4.399   1.380  13.242  0.3869  0.0277  0.1143
  846MPD2    H712492   4.471   1.374  13.313  0.5796  2.4751  0.1075
  847MPD2     C12493   0.721   2.278  14.659  0.4828 -0.4888 -0.1989
  847MPD2    C112494   0.782   2.392  14.709  0.0366 -0.8878  0.5585
  847MPD2    C212495   0.874   2.373  14.811 -0.8838  0.7519  0.0374
  847MPD2    C312496   0.894   2.254  14.880  0.1530  0.4218 -0.2319
  847MPD2    C412497   0.844   2.142  14.820  0.7567 -0.0981 -0.1884
  847MPD2    C512498   0.759   2.154  14.710  0.8094 -0.1873  0.0127
  847MPD2     H12499   0.917   2.460  14.858 -2.6103  2.6869 -1.9493
  847MPD2    H112500   0.860   2.048  14.870 -0.1946  0.4218  1.0992
  847MPD2    H212501   0.642   2.282  14.584  0.7651  1.5102 -0.4015
  847MPD2    H312502   0.714   2.062  14.671  1.1816  0.5376 -2.1168
  847MPD2     N12503   0.980   2.258  14.993 -0.1129  0.4203  0.6633
  847MPD2    H512504   1.021   2.349  15.012  0.2939  0.3550  0.0788
  847MPD2    N112505   0.751   2.526  14.680  0.3254  0.3584 -0.3424
  847MPD2    H712506   0.809   2.594  14.728 -3.1121  2.0308  1.4548
  848MPD2     C12507   3.177   0.427  16.044  0.3132 -0.0131  0.0355
  848MPD2    C112508   3.120   0.528  16.109  0.4440  0.0332  0.1833
  848MPD2    C212509   3.150   0.653  16.075  0.0838 -0.3472 -0.3993
  848MPD2    C312510   3.243   0.676  15.972 -0.2642 -0.5957 -0.0681
  848MPD2    C412511   3.320   0.571  15.926 -0.3768  0.1865 -0.5420
  848MPD2    C512512   3.284   0.442  15.959 -0.0465  0.3751  0.3446
  848MPD2     H12513   3.092   0.735  16.118 -2.1464 -2.1565  0.0765
  848MPD2    H112514   3.407   0.590  15.864  1.0874 -1.5107  0.9933
  848MPD2    H212515   3.155   0.324  16.069  3.1488 -0.2307  1.5728
  848MPD2    H312516   3.340   0.359  15.918 -2.9276 -0.5959 -1.5841
  848MPD2     N12517   3.276   0.802  15.919 -0.8775 -0.5485 -0.6386
  848MPD2    H512518   3.356   0.811  15.857  0.3806  0.8820  1.1887
  848MPD2    N112519   3.038   0.518  16.223 -0.1998  0.6215 -0.0844
  848MPD2    H712520   3.032   0.597  16.287  2.4889  0.2743  0.6071
  849MPD2     C12521   2.089   0.271  14.003  0.5208 -0.4835  0.7735
  849MPD2    C112522   2.178   0.176  13.984 -0.1011  1.3091  0.0213
  849MPD2    C212523   2.194   0.087  14.088 -0.0795  0.8971  0.4225
  849MPD2    C312524   2.139   0.103  14.214 -0.4169 -0.4326 -0.1422
  849MPD2    C412525   2.059   0.214  14.231  0.5344  0.3224 -0.5295
  849MPD2    C512526   2.021   0.284  14.125  0.1523 -1.0148 -0.2743
  849MPD2     H12527   2.253   4.735  14.067 -0.0447  0.7480  1.1343
  849MPD2    H112528   2.025   0.232  14.332  1.2924  0.7997 -0.3615
  849MPD2    H212529   2.067   0.338  13.920  1.9891  1.1520  1.7267
  849MPD2    H312530   1.963   0.372  14.153  0.8790 -0.4139 -0.6497
  849MPD2     N12531   2.191   0.030  14.317 -0.0930 -0.2838  0.2562
  849MPD2    H512532   2.268   4.708  14.288 -0.3902 -0.8219  0.5727
  849MPD2    N112533   2.256   0.182  13.868 -0.0908  0.2332 -0.0519
  849MPD2    H712534   2.222   0.239  13.791  0.4854 -1.7299 -1.7659
  850MPD2     C12535   0.578   3.366  14.855  0.5788 -0.3316 -0.4023
  850MPD2    C112536   0.616   3.319  14.979  0.3172  0.0191 -0.2789
  850MPD2    C212537   0.742   3.266  14.990 -0.3918  0.1264 -0.1556
  850MPD2    C312538   0.831   3.269  14.888 -0.0236 -0.4771  0.6149
  850MPD2    C412539   0.794   3.315  14.769 -0.2084  0.1413 -0.7120
  850MPD2    C512540   0.669   3.370  14.753  0.6094  0.1338  0.6555
  850MPD2     H12541   0.774   3.243  15.091  1.8546 -0.0039 -0.8878
  850MPD2    H112542   0.847   3.301  14.675 -0.1882 -1.2517 -0.4990
  850MPD2    H212543   0.479   3.403  14.833  0.4380  0.3252  1.3068
  850MPD2    H312544   0.641   3.409  14.655  0.9944 -2.3215 -0.4401
  850MPD2     N12545   0.956   3.203  14.890 -0.7973  0.3755  0.0326
  850MPD2    H512546   0.996   3.194  14.797 -2.8652  0.5620 -0.8847
  850MPD2    N112547   0.540   3.325  15.095 -0.3995 -0.5181 -0.6282
  850MPD2    H712548   0.592   3.308  15.180  1.5639 -0.0090 -1.7044
  851MPD2     C12549   0.529   2.939  15.656  0.3887 -1.0594 -0.0155
  851MPD2    C112550   0.491   2.943  15.522 -0.7679  0.0502 -0.2867
  851MPD2    C212551   0.505   2.833  15.442  0.3906  0.8504 -0.2131
  851MPD2    C312552   0.561   2.721  15.490  0.1382 -0.1453 -0.0271
  851MPD2    C412553   0.589   2.707  15.628  0.5345  0.4274  0.2034
  851MPD2    C512554   0.575   2.822  15.705  0.9495  0.1964 -0.1703
  851MPD2     H12555   0.496   2.849  15.336 -0.3914 -2.1179 -0.5768
  851MPD2    H112556   0.632   2.616  15.669 -1.3715 -1.4919 -2.0857
  851MPD2    H212557   0.523   3.025  15.721  1.0026  0.0202 -1.3829
  851MPD2    H312558   0.612   2.819  15.807  2.2374 -0.0563 -0.6456
  851MPD2     N12559   0.594   2.625  15.392 -0.1883 -1.0524 -0.0405
  851MPD2    H512560   0.553   2.648  15.302 -0.6508  0.6067  0.5944
  851MPD2    N112561   0.448   3.062  15.462  0.3648  0.6284  0.7577
  851MPD2    H712562   0.429   3.062  15.363 -1.3119 -0.5971  1.0805
  852MPD2     C12563   0.610   1.145   9.279 -0.3218  0.3686  0.4420
  852MPD2    C112564   0.562   1.229   9.374 -0.1833  0.2964  0.0431
  852MPD2    C212565   0.650   1.309   9.445  0.5006 -0.0600  0.0996
  852MPD2    C312566   0.788   1.297   9.428 -0.4754 -0.0177  0.7018
  852MPD2    C412567   0.839   1.208   9.339  0.1425 -0.7738 -0.5593
  852MPD2    C512568   0.745   1.137   9.258 -0.0038  0.5146 -0.6723
  852MPD2     H12569   0.606   1.380   9.515 -0.5073 -0.6745  0.0930
  852MPD2    H112570   0.944   1.195   9.316  0.4755 -2.9810  2.3096
  852MPD2    H212571   0.542   1.084   9.220 -0.1374  1.2808 -0.7121
  852MPD2    H312572   0.797   1.078   9.183  1.7468 -0.2934  1.1625
  852MPD2     N12573   0.861   1.385   9.516  0.5754 -0.2275  0.6546
  852MPD2    H512574   0.811   1.444   9.582  0.6582 -0.6623  1.1054
  852MPD2    N112575   0.426   1.251   9.397 -0.4087 -0.8650  0.3189
  852MPD2    H712576   0.400   1.304   9.480  1.1421 -2.6108  1.9106
  853MPD2     C12577   2.167   0.464  12.302  0.0579 -0.2178  0.4870
  853MPD2    C112578   2.102   0.567  12.232 -0.5728 -0.2042  0.2523
  853MPD2    C212579   2.109   0.569  12.089  0.6628  0.2682  0.2413
  853MPD2    C312580   2.184   0.473  12.022  0.1325 -0.0331 -0.5761
  853MPD2    C412581   2.258   0.383  12.102 -0.4871  0.2063  0.5587
  853MPD2    C512582   2.234   0.366  12.231 -0.0005  0.0147 -0.4661
  853MPD2     H12583   2.045   0.637  12.034  0.1424 -0.9665 -0.6835
  853MPD2    H112584   2.316   0.300  12.061  0.3815  1.8570 -1.5492
  853MPD2    H212585   2.161   0.451  12.410 -0.8185 -1.4810  0.2860
  853MPD2    H312586   2.282   0.284  12.283  0.1117 -0.5072 -1.3756
  853MPD2     N12587   2.180   0.455  11.879  0.3218  0.4542  0.1536
  853MPD2    H512588   2.234   0.376  11.845 -2.6735 -0.9049 -1.4806
  853MPD2    N112589   2.017   0.657  12.296  0.7826 -0.6470 -0.5589
  853MPD2    H712590   2.001   0.648  12.396 -0.9470  0.0979 -0.7714
  854MPD2     C12591   3.569   0.838  12.693 -0.3602  0.4066  0.6063
  854MPD2    C112592   3.545   0.702  12.660 -0.1116  0.4507  0.0008
  854MPD2    C212593   3.653   0.618  12.664 -0.4804 -0.5297 -0.4124
  854MPD2    C312594   3.778   0.660  12.696  0.0334 -0.4742 -0.2834
  854MPD2    C412595   3.792   0.791  12.730  0.4247  0.5612  0.4109
  854MPD2    C512596   3.695   0.883  12.724  0.1754 -0.4175 -0.2001
  854MPD2     H12597   3.637   0.516  12.630  0.3739 -0.7331 -0.2046
  854MPD2    H112598   3.886   0.823  12.774 -0.4137  1.3956  1.5755
  854MPD2    H212599   3.490   0.913  12.693  1.8407  2.6964  0.7381
  854MPD2    H312600   3.708   0.986  12.753 -2.5519 -0.2295  0.2988
  854MPD2     N12601   3.885   0.575  12.719 -0.0270 -0.4185 -0.1405
  854MPD2    H512602   3.972   0.603  12.764 -0.8510  2.0792 -0.1139
  854MPD2    N112603   3.410   0.662  12.642  0.2217 -0.5220  0.1002
  854MPD2    H712604   3.347   0.741  12.648  1.1548  0.2725 -0.6227
  855MPD2     C12605   4.108   0.575  13.516 -0.5222 -0.2659 -0.3799
  855MPD2    C112606   4.127   0.445  13.485  0.0924 -0.2912 -0.8243
  855MPD2    C212607   4.145   0.396  13.353  0.1147 -0.3314 -0.4861
  855MPD2    C312608   4.138   0.489  13.253 -0.4777  0.4027  0.0548
  855MPD2    C412609   4.105   0.620  13.285  0.3837 -0.6144 -0.0912
  855MPD2    C512610   4.084   0.664  13.414  0.8366 -0.0147  0.3252
  855MPD2     H12611   4.165   0.291  13.332 -0.5215 -0.5645  0.0713
  855MPD2    H112612   4.092   0.689  13.203 -1.4947  0.3703  1.0272
  855MPD2    H212613   4.103   0.610  13.619 -1.7331  0.8903 -0.8323
  855MPD2    H312614   4.059   0.767  13.433 -0.1088 -0.0064 -0.9603
  855MPD2     N12615   4.136   0.459  13.116 -0.1071 -0.0785 -0.2092
  855MPD2    H512616   4.085   0.528  13.062 -0.6035  0.3589  0.8144
  855MPD2    N112617   4.133   0.346  13.582  0.1566 -0.6295  0.1048
  855MPD2    H712618   4.163   0.253  13.555  3.0290  0.3997 -0.1684
  856MPD2     C12619   1.083   1.494  13.764  0.2560 -0.6347 -0.1591
  856MPD2    C112620   1.111   1.624  13.800  0.1517 -0.1670 -0.4951
  856MPD2    C212621   1.009   1.714  13.795  0.1030 -0.1117  0.2595
  856MPD2    C312622   0.880   1.676  13.754 -0.1008 -0.1664 -0.5865
  856MPD2    C412623   0.855   1.539  13.722 -0.3169  0.2256 -0.1424
  856MPD2    C512624   0.955   1.453  13.735 -0.2291 -0.6541  0.9041
  856MPD2     H12625   1.036   1.815  13.824  0.5538  0.4078 -1.9831
  856MPD2    H112626   0.755   1.504  13.701 -0.4140  0.2580  0.2672
  856MPD2    H212627   1.161   1.419  13.755 -0.4044 -1.1832 -1.3519
  856MPD2    H312628   0.943   1.346  13.721  1.0477 -0.5277 -1.1898
  856MPD2     N12629   0.772   1.770  13.749  0.0338  0.0681  0.0846
  856MPD2    H512630   0.680   1.731  13.734  1.0260 -1.9618 -0.5826
  856MPD2    N112631   1.238   1.667  13.841  0.0410  0.0520  0.1622
  856MPD2    H712632   1.253   1.764  13.867  0.1354  0.0441  0.1363
  857MPD2     C12633   2.972   3.278  13.209 -0.6786  0.6591  0.3600
  857MPD2    C112634   3.041   3.327  13.107 -0.1062 -0.1251 -0.7315
  857MPD2    C212635   3.069   3.460  13.114  1.0668 -0.1613  0.0979
  857MPD2    C312636   3.045   3.528  13.233  0.9515  0.0207 -0.3851
  857MPD2    C412637   2.994   3.470  13.344  0.0675 -0.0576 -0.0883
  857MPD2    C512638   2.947   3.340  13.328 -0.0506  0.9270  0.3100
  857MPD2     H12639   3.111   3.513  13.029 -0.3223  0.2891 -0.3128
  857MPD2    H112640   2.983   3.508  13.445 -1.4790  0.9199 -0.6182
  857MPD2    H212641   2.945   3.173  13.208 -0.0983  0.5215 -0.2303
  857MPD2    H312642   2.894   3.280  13.401  0.3746 -0.9645 -0.9494
  857MPD2     N12643   3.092   3.660  13.231 -0.2786 -0.6002 -0.1771
  857MPD2    H512644   3.126   3.707  13.147  2.5198 -1.1839  0.6105
  857MPD2    N112645   3.052   3.245  12.989  0.4734  0.2487 -0.1102
  857MPD2    H712646   3.009   3.153  12.989  1.2999 -0.1236 -1.9260
  858MPD2     C12647   3.018   2.634  16.604 -0.3638 -0.2869  0.3542
  858MPD2    C112648   3.147   2.631  16.649 -0.0825  0.2966  0.7731
  858MPD2    C212649   3.201   2.745  16.710 -0.2376  0.0109 -0.1246
  858MPD2    C312650   3.114   2.843  16.740 -0.1177 -0.0408  0.5553
  858MPD2    C412651   2.990   2.844  16.685  0.3013 -0.1237 -0.0962
  858MPD2    C512652   2.937   2.739  16.624  1.1219  0.7622 -0.2705
  858MPD2     H12653   3.299   2.744  16.757 -0.4519 -0.1584  0.3252
  858MPD2    H112654   2.922   2.924  16.712  0.1988  0.3213 -1.6917
  858MPD2    H212655   2.975   2.547  16.558  2.1063 -0.9818 -0.6581
  858MPD2    H312656   2.836   2.749  16.586  0.8669 -0.5328  0.0651
  858MPD2     N12657   3.139   2.953  16.822  0.8730  0.0077 -0.3704
  858MPD2    H512658   3.058   3.004  16.855  1.4978  0.7038  0.0885
  858MPD2    N112659   3.220   2.510  16.632  0.0467  0.1206  0.1408
  858MPD2    H712660   3.168   2.431  16.596  1.5724 -0.2849 -1.1452
  859MPD2     C12661   2.711   1.130  15.655  0.4879  0.5865 -0.1874
  859MPD2    C112662   2.605   1.054  15.600  0.0212  0.3531  0.0928
  859MPD2    C212663   2.520   0.990  15.682 -1.1650  0.9714 -0.7742
  859MPD2    C312664   2.541   1.002  15.821 -0.2920  0.4491 -0.2649
  859MPD2    C412665   2.635   1.084  15.874 -0.0102 -0.5381 -0.0796
  859MPD2    C512666   2.725   1.145  15.792  0.2389 -0.5942  0.2714
  859MPD2     H12667   2.440   0.933  15.637 -3.3165  2.2601  1.4403
  859MPD2    H112668   2.648   1.110  15.978  0.4638 -0.6092 -0.1184
  859MPD2    H212669   2.778   1.188  15.593  0.9877  0.9083  0.6479
  859MPD2    H312670   2.796   1.211  15.839 -0.3186  1.1068 -1.2817
  859MPD2     N12671   2.475   0.919  15.911  0.5838  0.0561 -0.4991
  859MPD2    H512672   2.520   0.918  16.002 -1.6372 -2.1584  0.5646
  859MPD2    N112673   2.611   1.022  15.464 -0.8489 -0.0401  0.3722
  859MPD2    H712674   2.703   1.033  15.421 -1.7014  2.3234 -0.8226
  860MPD2     C12675   0.210   0.280  11.617 -0.2252  1.0964  0.2370
  860MPD2    C112676   0.134   0.341  11.709 -0.3722 -0.0983 -0.0351
  860MPD2    C212677   4.732   0.325  11.713  0.3801  0.4579  0.2651
  860MPD2    C312678   4.671   0.252  11.623 -0.0375 -0.4622  0.1222
  860MPD2    C412679   0.011   0.176  11.541 -0.4872 -0.1492 -0.1785
  860MPD2    C512680   0.147   0.189  11.539 -0.4735  0.3108 -0.1341
  860MPD2     H12681   4.676   0.373  11.792 -1.5879 -0.7194 -0.4159
  860MPD2    H112682   4.711   0.113  11.461  0.5946 -1.3045  0.2193
  860MPD2    H212683   0.319   0.285  11.612 -0.2468  1.6547  0.3422
  860MPD2    H312684   0.195   0.136  11.458 -0.6472 -0.3784  0.2132
  860MPD2     N12685   4.531   0.239  11.635  0.2792 -0.5564 -0.2182
  860MPD2    H512686   4.491   0.295  11.710 -2.7387 -0.9274 -1.5313
  860MPD2    N112687   0.179   0.447  11.797  0.4254  0.4242 -0.2699
  860MPD2    H712688   0.110   0.506  11.842  0.2386 -1.6423  2.1110
  861MPD2     C12689   3.007   2.973  10.927  0.0735 -0.2844 -0.8696
  861MPD2    C112690   2.948   3.061  11.007 -0.1228  0.4625 -0.0247
  861MPD2    C212691   2.903   3.184  10.963  0.3145  0.0630 -0.3074
  861MPD2    C312692   2.899   3.209  10.830 -0.3195  0.2231 -0.0362
  861MPD2    C412693   2.956   3.120  10.740 -0.0966  0.3733  0.8068
  861MPD2    C512694   3.003   2.998  10.790 -0.2532  0.0869  0.5545
  861MPD2     H12695   2.883   3.268  11.028  1.5311 -2.2407  3.0723
  861MPD2    H112696   2.965   3.145  10.634  0.5095  0.0443  0.7785
  861MPD2    H212697   3.047   2.878  10.959  1.6758  0.5581 -0.3599
  861MPD2    H312698   3.037   2.916  10.727  0.5415  1.1637 -0.4069
  861MPD2     N12699   2.868   3.335  10.778 -0.3665  0.1385 -0.0997
  861MPD2    H512700   2.892   3.352  10.681  1.6758  0.3083  0.4277
  861MPD2    N112701   2.958   3.036  11.151 -0.4372 -0.1722  0.3431
  861MPD2    H712702   3.023   2.966  11.185  1.4185  0.4099 -1.9943
  862MPD2     C12703   2.861   3.688  10.217 -0.5264 -0.5475  0.3607
  862MPD2    C112704   2.934   3.591  10.273  0.0582 -0.3057  0.3506
  862MPD2    C212705   2.940   3.465  10.207 -0.1810 -0.6362 -0.1747
  862MPD2    C312706   2.887   3.446  10.078 -0.3761  0.3747 -0.2113
  862MPD2    C412707   2.820   3.555  10.027 -0.2198  0.3261  0.0695
  862MPD2    C512708   2.798   3.670  10.098 -0.0166  0.4472 -0.6364
  862MPD2     H12709   2.987   3.386  10.264  0.9734 -0.6773 -1.1784
  862MPD2    H112710   2.761   3.549   9.936 -0.2603 -2.2496  0.2623
  862MPD2    H212711   2.843   3.782  10.269  1.2096  0.8384 -1.5454
  862MPD2    H312712   2.733   3.752  10.071 -0.6252  0.2115  0.1225
  862MPD2     N12713   2.887   3.316  10.013  0.1277 -0.0874  0.1522
  862MPD2    H512714   2.814   3.306   9.943  0.1063  1.9394 -0.1315
  862MPD2    N112715   2.978   3.602  10.406  0.2925 -0.0348 -0.5990
  862MPD2    H712716   3.006   3.511  10.440 -1.1607  0.5625  2.1742
  863MPD2     C12717   1.638   2.307  16.480  0.0615  0.2970  0.0156
  863MPD2    C112718   1.546   2.277  16.579  1.0366  0.5946  0.1214
  863MPD2    C212719   1.583   2.267  16.712 -0.4194  0.7337 -0.7859
  863MPD2    C312720   1.712   2.302  16.750  0.2038  0.0370  0.5273
  863MPD2    C412721   1.798   2.327  16.650  0.3507 -0.0084  0.8098
  863MPD2    C512722   1.769   2.330  16.519  0.0876 -0.4266 -0.3709
  863MPD2     H12723   1.507   2.229  16.780  2.4080  0.5000  2.2558
  863MPD2    H112724   1.900   2.343  16.683  1.4913 -1.0977 -2.2584
  863MPD2    H212725   1.617   2.300  16.373 -0.8341 -0.0173  0.2098
  863MPD2    H312726   1.848   2.355  16.449 -0.3652  1.2411 -0.3044
  863MPD2     N12727   1.767   2.304  16.881 -0.2767  0.4545  0.3162
  863MPD2    H512728   1.863   2.334  16.894 -0.0668 -0.4400  0.7998
  863MPD2    N112729   1.411   2.249  16.536 -0.2670 -0.0158  0.1015
  863MPD2    H712730   1.390   2.255  16.437 -0.5803 -0.6191  0.1267
  864MPD2     C12731   2.186   3.254  17.266  0.6296  0.6717  0.5055
  864MPD2    C112732   2.224   3.155  17.183  0.1166 -0.3522  0.1245
  864MPD2    C212733   2.242   3.194  17.048 -0.0650  0.3838  0.5162
  864MPD2    C312734   2.227   3.326  17.008 -0.2983 -0.4799  0.1634
  864MPD2    C412735   2.186   3.417  17.098 -0.3953 -0.8327  0.0799
  864MPD2    C512736   2.164   3.382  17.225  0.5023  0.3428 -0.0412
  864MPD2     H12737   2.262   3.119  16.973 -1.4990 -0.5376  1.0567
  864MPD2    H112738   2.178   3.519  17.063 -1.4284 -0.8986  0.1363
  864MPD2    H212739   2.169   3.226  17.370  0.4117  0.0209  0.2959
  864MPD2    H312740   2.138   3.457  17.299  0.1153 -0.5041  0.6793
  864MPD2     N12741   2.255   3.375  16.880  0.2356  0.2927  0.5232
  864MPD2    H512742   2.257   3.475  16.865  1.0867  0.4074  1.3671
  864MPD2    N112743   2.234   3.024  17.228 -0.7504  0.2064 -0.7417
  864MPD2    H712744   2.190   2.986  17.311 -2.9834  5.6952  0.5732
  865MPD2     C12745   2.101   3.575  16.047 -0.3118  0.5169  0.1172
  865MPD2    C112746   2.120   3.495  16.156 -0.2313 -0.5643 -0.5819
  865MPD2    C212747   2.134   3.534  16.286 -0.7483 -0.5663 -0.1647
  865MPD2    C312748   2.114   3.671  16.307 -1.0376 -0.2107 -0.5065
  865MPD2    C412749   2.067   3.748  16.209  0.0552 -0.0685 -0.4015
  865MPD2    C512750   2.067   3.702  16.077  0.0275  0.1678  0.3080
  865MPD2     H12751   2.165   3.466  16.364  0.5070  0.8754  0.5750
  865MPD2    H112752   2.032   3.848  16.229 -2.7436 -1.0762 -0.2003
  865MPD2    H212753   2.116   3.552  15.942 -3.2038 -0.9085  0.0063
  865MPD2    H312754   2.046   3.772  15.997 -0.4099 -0.2497  0.0594
  865MPD2     N12755   2.132   3.739  16.431  0.7579  0.2517 -0.0313
  865MPD2    H512756   2.101   3.836  16.434 -0.0730 -0.1303  3.5409
  865MPD2    N112757   2.150   3.363  16.122  0.6480  0.8214  0.2685
  865MPD2    H712758   2.156   3.333  16.026  0.5825  0.7527  0.2862
  866MPD2     C12759   3.612   3.295  11.831  0.5730 -0.2414  0.5048
  866MPD2    C112760   3.609   3.253  11.697 -0.3620 -0.2973 -0.7126
  866MPD2    C212761   3.573   3.351  11.600  0.0401 -0.2102 -0.3652
  866MPD2    C312762   3.511   3.469  11.644  0.2836  0.0623 -0.0081
  866MPD2    C412763   3.492   3.486  11.780  1.2652 -0.4263  0.1680
  866MPD2    C512764   3.556   3.412  11.873  0.3015  0.0737 -0.4420
  866MPD2     H12765   3.560   3.323  11.496  2.0293 -0.9679 -0.4117
  866MPD2    H112766   3.445   3.576  11.818 -0.0272 -0.9882 -0.0764
  866MPD2    H212767   3.635   3.227  11.913  1.9741  0.4294  0.6601
  866MPD2    H312768   3.554   3.431  11.980  1.2638  0.8041 -0.5554
  866MPD2     N12769   3.471   3.569  11.554  0.1783 -0.6246 -0.4098
  866MPD2    H512770   3.421   3.648  11.592 -0.0345 -0.7119 -0.5063
  866MPD2    N112771   3.646   3.116  11.664  0.8058 -0.3059  0.3513
  866MPD2    H712772   3.695   3.067  11.738  0.8843 -0.4008  0.2381
  867MPD2     C12773   0.883   3.407  16.470  0.7620  0.3616  0.6843
  867MPD2    C112774   0.887   3.379  16.609 -0.5607 -0.4200  0.1135
  867MPD2    C212775   0.904   3.488  16.703  0.2413 -0.0979 -0.5015
  867MPD2    C312776   0.914   3.620  16.655 -0.4086  0.3023  0.5801
  867MPD2    C412777   0.916   3.634  16.515  0.2983  0.6002  0.2075
  867MPD2    C512778   0.893   3.535  16.430  0.3536  0.6520  0.0154
  867MPD2     H12779   0.899   3.472  16.810  1.0855 -1.4374 -0.6757
  867MPD2    H112780   0.908   3.737  16.484  0.9054  0.3762 -0.6885
  867MPD2    H212781   0.884   3.329  16.395 -2.7584 -0.7026  1.7464
  867MPD2    H312782   0.892   3.560  16.324  1.5847  0.8593  0.0426
  867MPD2     N12783   0.933   3.736  16.735 -0.0321  0.3142  0.4878
  867MPD2    H512784   0.939   3.825  16.686  2.8107  0.3027  0.7942
  867MPD2    N112785   0.885   3.240  16.647  0.1534 -0.1838  0.4107
  867MPD2    H712786   0.864   3.174  16.572  0.4196 -0.2963  0.4339
  868MPD2     C12787   2.812   2.184  12.988 -0.3010  0.6346 -1.0048
  868MPD2    C112788   2.866   2.159  13.108  0.0600  0.6698  0.5777
  868MPD2    C212789   2.779   2.150  13.213 -0.0485  1.0037 -0.3680
  868MPD2    C312790   2.647   2.161  13.204  0.7416 -0.6913  0.3988
  868MPD2    C412791   2.591   2.179  13.083  0.2703 -0.3644 -0.4845
  868MPD2    C512792   2.679   2.187  12.976  0.0565 -0.2855 -0.7007
  868MPD2     H12793   2.814   2.153  13.315  0.5514 -0.3147 -0.5379
  868MPD2    H112794   2.486   2.190  13.059  0.7383  2.2250 -1.2999
  868MPD2    H212795   2.877   2.183  12.901  1.1460 -3.3271  0.1154
  868MPD2    H312796   2.640   2.185  12.875 -1.6884  1.0378 -0.0520
  868MPD2     N12797   2.575   2.141  13.326  0.0818  0.0249 -0.4420
  868MPD2    H512798   2.631   2.140  13.411 -1.7071 -1.8957  0.7117
  868MPD2    N112799   3.005   2.133  13.118  0.0176 -0.0819  0.1781
  868MPD2    H712800   3.062   2.138  13.034  0.7506  1.0699  0.7477
  869MPD2     C12801   3.859   4.615   0.168 -0.2507 -0.5534 -0.3136
  869MPD2    C112802   3.899   4.694   0.060  0.2829  0.6955 -0.0992
  869MPD2    C212803   3.963   0.070   0.079 -0.5952  0.6948  1.0937
  869MPD2    C312804   3.966   0.131   0.199  0.1558 -1.3526  0.3986
  869MPD2    C412805   3.929   0.056   0.310 -0.7851  0.5529 -0.1591
  869MPD2    C512806   3.871   4.663   0.295  0.0889  0.1472 -0.0992
  869MPD2     H12807   3.981   0.129  17.737  0.2639 -0.9577  0.1835
  869MPD2    H112808   3.932   0.104   0.407  0.5134  0.4750 -0.1601
  869MPD2    H212809   3.804   4.522   0.151  1.5679 -1.4940 -1.0401
  869MPD2    H312810   3.833   4.626   0.390 -2.2725  1.5547 -0.4801
  869MPD2     N12811   4.008   0.263   0.218  0.1285 -0.0891  0.3083
  869MPD2    H512812   3.973   0.307   0.303  0.8612 -0.8578  1.0177
  869MPD2    N112813   3.861   4.657  17.666 -0.1301  0.5608 -0.0113
  869MPD2    H712814   3.788   4.587  17.660 -0.7843  1.3932 -1.6315
  870MPD2     C12815   4.330   4.380   0.920  0.1640  0.6132 -0.1938
  870MPD2    C112816   4.226   4.283   0.928  0.2339  0.7793  0.1623
  870MPD2    C212817   4.096   4.323   0.966 -0.3225  0.7805 -0.2556
  870MPD2    C312818   4.074   4.460   0.981 -0.0576 -0.3959  0.2856
  870MPD2    C412819   4.177   4.550   0.974  0.4688  0.1640 -0.5022
  870MPD2    C512820   4.306   4.509   0.947 -0.2272 -0.4089 -0.2937
  870MPD2     H12821   4.010   4.257   0.967 -0.1277  0.4251 -4.3541
  870MPD2    H112822   4.163   4.657   0.980  0.1817 -0.0011  1.7997
  870MPD2    H212823   4.436   4.358   0.914  0.1259  0.9085 -1.9393
  870MPD2    H312824   4.389   4.578   0.951  0.0186 -0.9044  3.4610
  870MPD2     N12825   3.943   4.496   0.992 -0.5032 -0.5974 -0.9989
  870MPD2    H512826   3.876   4.423   0.973  0.6789 -2.4479  2.0773
  870MPD2    N112827   4.257   4.153   0.883  0.0804 -0.6125  0.1346
  870MPD2    H712828   4.358   4.143   0.878 -0.1492 -1.8300 -2.1018
  871MPD2     C12829   0.266   3.287  16.290  0.2622  0.1972  0.1200
  871MPD2    C112830   0.170   3.254  16.384  0.1569 -0.0384  0.2126
  871MPD2    C212831   0.089   3.144  16.374  0.5062  0.2581 -1.2387
  871MPD2    C312832   0.091   3.068  16.258  0.6028 -0.5053 -0.5233
  871MPD2    C412833   0.177   3.113  16.157  0.1943 -0.3940 -0.1074
  871MPD2    C512834   0.262   3.220  16.171  0.1805 -0.9066  0.8877
  871MPD2     H12835   0.018   3.109  16.448  2.4916 -0.2250  0.4139
  871MPD2    H112836   0.177   3.064  16.060 -0.8280 -0.0098 -0.3017
  871MPD2    H212837   0.345   3.358  16.310  0.1750 -0.0491  1.3472
  871MPD2    H312838   0.337   3.245  16.098 -1.5214  0.5537 -0.3574
  871MPD2     N12839   0.010   2.961  16.255 -0.2591 -0.4947  0.3510
  871MPD2    H512840   4.693   2.946  16.340  0.7478 -1.4019  0.8336
  871MPD2    N112841   0.175   3.334  16.503 -0.3778  0.2112 -0.3289
  871MPD2    H712842   0.220   3.425  16.496  2.1980 -1.2567 -3.1426
  872MPD2     C12843   1.047   0.875  14.317  0.1088 -0.0806  0.3053
  872MPD2    C112844   0.982   0.915  14.202 -0.8428 -0.3464  0.4160
  872MPD2    C212845   0.858   0.975  14.214 -0.0132 -0.0735  0.6224
  872MPD2    C312846   0.807   0.995  14.336  0.2317 -0.7255 -0.1002
  872MPD2    C412847   0.875   0.968  14.446 -0.3606  0.6820  0.8222
  872MPD2    C512848   0.984   0.886  14.435  0.0169  0.3163  0.3438
  872MPD2     H12849   0.807   1.003  14.123  0.0951 -2.3892 -0.1571
  872MPD2    H112850   0.831   0.985  14.544  0.1277  1.1011  0.9680
  872MPD2    H212851   1.145   0.829  14.323  0.2660  0.1784 -0.2873
  872MPD2    H312852   1.031   0.854  14.527  0.0684  0.9383  0.5324
  872MPD2     N12853   0.678   1.057  14.358 -0.1277 -0.0004 -0.3969
  872MPD2    H512854   0.642   1.070  14.452  2.3121  0.9948  0.4247
  872MPD2    N112855   1.043   0.897  14.076 -0.0559 -0.5537  0.5314
  872MPD2    H712856   0.982   0.920  13.998  0.6911  0.5566  0.2735
  873MPD2     C12857   1.867   1.559   0.029  0.4747  0.0389  0.0826
  873MPD2    C112858   1.899   1.440   0.091 -0.0422 -0.0496  0.2570
  873MPD2    C212859   1.825   1.325   0.066  0.8141 -0.7949 -0.4565
  873MPD2    C312860   1.716   1.334  17.729 -0.0583  0.1989 -0.7040
  873MPD2    C412861   1.676   1.458  17.676  0.0453 -0.8119 -0.3144
  873MPD2    C512862   1.748   1.571  17.705  0.3911  0.1842  1.3092
  873MPD2     H12863   1.842   1.238   0.129  2.8789 -0.1840 -0.1566
  873MPD2    H112864   1.583   1.477  17.624 -0.6644  0.1874  1.3687
  873MPD2    H212865   1.928   1.649   0.036 -1.4756  1.6286 -3.0751
  873MPD2    H312866   1.716   1.666  17.663  1.8472  0.3824  0.6649
  873MPD2     N12867   1.629   1.220  17.705  0.0276 -0.1245  0.8479
  873MPD2    H512868   1.535   1.237  17.670  0.9965 -0.7072 -1.9976
  873MPD2    N112869   2.007   1.445   0.182  0.4118  0.0531 -0.0493
  873MPD2    H712870   2.053   1.535   0.192 -1.1251  0.5320  2.4836
  874MPD2     C12871   2.712   1.377  16.177  0.0395 -0.5755 -0.1318
  874MPD2    C112872   2.761   1.249  16.191 -0.2259 -0.8120 -0.1760
  874MPD2    C212873   2.874   1.207  16.122  0.2916 -0.5019  0.2820
  874MPD2    C312874   2.936   1.300  16.036  0.3116 -0.2067  0.7479
  874MPD2    C412875   2.884   1.426  16.015  0.6595  0.1784  0.2296
  874MPD2    C512876   2.769   1.464  16.085  0.3452 -0.5123 -0.4555
  874MPD2     H12877   2.925   1.112  16.130 -0.0171 -0.8950 -2.3895
  874MPD2    H112878   2.926   1.503  15.952 -1.0104  0.1049 -0.9634
  874MPD2    H212879   2.631   1.407  16.243  0.1947  0.7337 -0.5253
  874MPD2    H312880   2.743   1.569  16.076 -1.1639 -0.7646  0.9753
  874MPD2     N12881   3.057   1.263  15.983  0.5094 -0.4373 -0.2898
  874MPD2    H512882   3.089   1.169  16.001 -0.8273 -0.6958  0.6770
  874MPD2    N112883   2.705   1.165  16.293 -0.1140 -0.7561  0.1369
  874MPD2    H712884   2.626   1.210  16.339 -0.0812 -0.3683 -0.1888
  875MPD2     C12885   3.816   3.906  14.630  0.5232 -0.2778 -0.6456
  875MPD2    C112886   3.690   3.936  14.667 -0.1055  0.3017 -0.1055
  875MPD2    C212887   3.673   4.006  14.785  0.1365 -0.0408  1.0857
  875MPD2    C312888   3.778   4.036  14.875  0.5412  0.2620 -0.1644
  875MPD2    C412889   3.910   4.009  14.823  0.1072 -0.4938  0.4899
  875MPD2    C512890   3.919   3.945  14.704  0.4234  0.1057  0.2183
  875MPD2     H12891   3.573   4.027  14.821 -0.5038  1.3295 -1.4747
  875MPD2    H112892   3.992   4.048  14.882 -0.8130  0.9023  0.8373
  875MPD2    H212893   3.843   3.849  14.541  1.2919 -0.6170 -0.1898
  875MPD2    H312894   4.011   3.897  14.672  0.1061 -0.9523  0.9131
  875MPD2     N12895   3.772   4.083  15.008  0.6793 -0.3458 -0.7027
  875MPD2    H512896   3.862   4.103  15.050 -0.0564  4.6336 -1.4878
  875MPD2    N112897   3.573   3.916  14.585  0.2729  0.2142  0.8272
  875MPD2    H712898   3.484   3.928  14.633 -1.1192 -1.7649 -1.2731
  876MPD2     C12899   2.814   0.753  16.090 -0.2362  0.1475 -0.9606
  876MPD2    C112900   2.817   0.697  15.965 -0.4422  0.2785  0.1928
  876MPD2    C212901   2.758   0.571  15.940 -0.8133 -0.2984 -0.2699
  876MPD2    C312902   2.695   0.507  16.049 -0.0550 -0.1302  0.4781
  876MPD2    C412903   2.688   0.569  16.174 -0.6483 -0.0264  0.1328
  876MPD2    C512904   2.739   0.693  16.190  0.8209 -0.6863 -0.1775
  876MPD2     H12905   2.770   0.521  15.845  3.5222 -1.8605  1.0893
  876MPD2    H112906   2.639   0.527  16.261  0.6666  0.7389  1.2520
  876MPD2    H212907   2.867   0.842  16.122  1.3217 -1.3758  0.6790
  876MPD2    H312908   2.721   0.742  16.285  1.3628  1.7646 -1.3457
  876MPD2     N12909   2.634   0.378  16.027  0.1171 -0.0425  0.6245
  876MPD2    H512910   2.644   0.329  15.938 -0.2745 -1.2954  1.2705
  876MPD2    N112911   2.900   0.754  15.862  0.2486  0.5217  0.1044
  876MPD2    H712912   2.966   0.829  15.879 -0.2125  0.4412  2.2139
  877MPD2     C12913   2.889   1.103  15.085  0.0183  0.0301  0.0918
  877MPD2    C112914   2.975   0.997  15.095  0.2994  0.3137  0.7081
  877MPD2    C212915   3.012   0.928  14.978 -0.2312 -0.0414 -0.2579
  877MPD2    C312916   2.955   0.968  14.857 -0.0952  0.5896 -0.0004
  877MPD2    C412917   2.861   1.064  14.854  0.6396  0.7770  0.4939
  877MPD2    C512918   2.830   1.129  14.965 -0.6230  0.5984 -0.1807
  877MPD2     H12919   3.088   0.852  14.990 -0.7995 -0.9282 -2.3208
  877MPD2    H112920   2.805   1.088  14.764 -0.5806  3.9914  2.1169
  877MPD2    H212921   2.865   1.167  15.170 -3.5807 -1.2808  0.0905
  877MPD2    H312922   2.773   1.220  14.956 -1.6331  0.1368  1.5027
  877MPD2     N12923   2.985   0.897  14.736  0.1283 -0.1127 -0.2222
  877MPD2    H512924   2.920   0.911  14.660  0.5754 -1.7889 -0.9134
  877MPD2    N112925   3.031   0.952  15.218  0.2750 -0.2680 -0.1469
  877MPD2    H712926   3.106   0.884  15.213 -0.3731 -0.9957  0.0808
  878MPD2     C12927   2.172   4.653  12.922  0.7380 -0.5122 -0.4911
  878MPD2    C112928   2.306   4.653  12.942 -0.7498  0.3486 -0.3261
  878MPD2    C212929   2.347   4.667  13.076  0.0215  0.0384 -0.6657
  878MPD2    C312930   2.264   4.671  13.178  0.1194 -0.1881  0.0654
  878MPD2    C412931   2.129   4.681  13.152  0.0240 -0.4510 -0.0963
  878MPD2    C512932   2.084   4.674  13.022 -0.3925 -0.2021 -0.0489
  878MPD2     H12933   2.453   4.665  13.097 -0.0397 -0.8449 -0.4165
  878MPD2    H112934   2.057   4.690  13.232 -1.3004  2.2815 -1.5895
  878MPD2    H212935   2.140   4.636  12.819 -1.6370  0.3536  0.1031
  878MPD2    H312936   1.979   4.672  12.993 -1.0498 -0.2953  2.3167
  878MPD2     N12937   2.315   4.664  13.304 -0.3482 -0.6454  0.2095
  878MPD2    H512938   2.416   4.665  13.310 -0.4696 -0.0732  2.2986
  878MPD2    N112939   2.390   4.643  12.824 -0.2543  0.6054  0.3230
  878MPD2    H712940   2.332   4.636  12.741  2.8691  1.7746 -1.9615
  879MPD2     C12941   2.688   1.304  17.351 -0.0672  0.1906  0.0394
  879MPD2    C112942   2.678   1.418  17.283 -0.1801 -0.1053 -0.2686
  879MPD2    C212943   2.573   1.455  17.202  0.0207 -0.1081  0.1594
  879MPD2    C312944   2.469   1.366  17.207  0.4968  0.2583  0.8182
  879MPD2    C412945   2.473   1.250  17.276  0.3911 -0.2295 -0.0015
  879MPD2    C512946   2.582   1.220  17.354  0.3776  0.0341  0.2828
  879MPD2     H12947   2.565   1.551  17.152 -3.2559  0.1760  1.1735
  879MPD2    H112948   2.379   1.195  17.278 -1.3182  2.6739 -1.1554
  879MPD2    H212949   2.779   1.265  17.395  0.1594 -1.5551 -1.9957
  879MPD2    H312950   2.588   1.129  17.413  2.8835  0.6710  1.0115
  879MPD2     N12951   2.345   1.387  17.148  0.5885 -0.0266  0.6971
  879MPD2    H512952   2.269   1.334  17.189 -0.4877  0.9141 -0.0660
  879MPD2    N112953   2.796   1.496  17.300 -0.0942  0.4348 -1.1174
  879MPD2    H712954   2.867   1.461  17.364 -0.4473  0.3736 -0.7592
  880MPD2     C12955   3.529   3.657  17.520 -0.4578 -1.0208  0.1525
  880MPD2    C112956   3.544   3.739  17.629 -0.8736  0.7442 -0.0987
  880MPD2    C212957   3.620   3.689  17.730  0.6813  0.3913  0.0466
  880MPD2    C312958   3.687   3.574  17.726 -0.2779 -0.7679 -0.4734
  880MPD2    C412959   3.668   3.493  17.620 -0.3668 -0.1233  0.3794
  880MPD2    C512960   3.591   3.540  17.514 -0.1442 -0.3776  0.0995
  880MPD2     H12961   3.657   3.754   0.061  1.5765 -0.3453  0.2413
  880MPD2    H112962   3.717   3.396  17.613 -0.4631 -0.0736 -1.0308
  880MPD2    H212963   3.468   3.685  17.435 -1.5420 -3.5753  0.0727
  880MPD2    H312964   3.573   3.474  17.430 -0.1932  0.2655 -0.3901
  880MPD2     N12965   3.773   3.542   0.084 -0.5787  0.3594 -0.8220
  880MPD2    H512966   3.793   3.613   0.155  0.8096  0.8833 -1.7287
  880MPD2    N112967   3.484   3.870  17.632  0.1169  0.0945 -0.1173
  880MPD2    H712968   3.439   3.898  17.545  0.2888 -1.3752 -0.6923
  881MPD2     C12969   4.134   4.347  17.437  0.1545 -0.6395 -0.2428
  881MPD2    C112970   4.062   4.258  17.359  0.4210  0.2486 -0.5036
  881MPD2    C212971   3.933   4.231  17.399  0.1757  0.0581 -0.8772
  881MPD2    C312972   3.876   4.295  17.513 -0.4031  0.5128 -0.2057
  881MPD2    C412973   3.954   4.377  17.588 -0.0547 -0.5396  0.2780
  881MPD2    C512974   4.083   4.399  17.552  0.4043  0.1450  0.1242
  881MPD2     H12975   3.863   4.172  17.342 -0.0986 -2.8040  2.4045
  881MPD2    H112976   3.934   4.412  17.688 -1.0400 -1.0931  0.2799
  881MPD2    H212977   4.230   4.386  17.406  0.5392 -1.0649  0.3973
  881MPD2    H312978   4.150   4.460  17.612 -0.7578  1.2713  0.2786
  881MPD2     N12979   3.743   4.273  17.544 -0.4279 -0.2705 -0.4330
  881MPD2    H512980   3.688   4.210  17.486  0.4383  0.5932 -2.2051
  881MPD2    N112981   4.103   4.229  17.230  0.0894  0.6646  0.4203
  881MPD2    H712982   4.187   4.276  17.198 -0.1752  0.3935 -0.7016
  882MPD2     C12983   2.624   0.429  14.108 -0.2466 -0.6067 -0.5353
  882MPD2    C112984   2.623   0.501  14.223  0.1048  0.1367  0.5602
  882MPD2    C212985   2.505   0.551  14.272  0.6128 -0.5681 -0.7512
  882MPD2    C312986   2.389   0.535  14.198  0.1527  0.3067  0.1819
  882MPD2    C412987   2.390   0.462  14.084  0.1717 -0.5149 -0.1420
  882MPD2    C512988   2.499   0.393  14.047  0.5194  0.8011 -0.0620
  882MPD2     H12989   2.507   0.605  14.366 -0.7439 -2.4168  0.3464
  882MPD2    H112990   2.297   0.446  14.030 -0.9496  0.4844  1.4568
  882MPD2    H212991   2.719   0.389  14.074 -0.3182 -1.5745  0.4150
  882MPD2    H312992   2.495   0.321  13.967 -0.6284  0.6912  0.0996
  882MPD2     N12993   2.258   0.581  14.237 -0.1970  0.0351 -0.0118
  882MPD2    H512994   2.187   0.572  14.165  0.0189  0.5514 -0.2864
  882MPD2    N112995   2.748   0.519  14.289 -0.3590  0.2595  0.0267
  882MPD2    H712996   2.821   0.456  14.259  0.8541  1.3858  0.6137
  883MPD2     C12997   4.415   1.090  16.370  0.9587 -0.0301  0.7518
  883MPD2    C112998   4.513   1.073  16.280  0.3415  0.7950 -0.1001
  883MPD2    C212999   4.642   1.116  16.303  0.2616 -0.2253  0.2441
  883MPD2    C313000   4.667   1.176  16.419  0.2711  0.7186  0.6448
  883MPD2    C413001   4.570   1.192  16.514  0.1044 -0.0190  0.0068
  883MPD2    C513002   4.447   1.143  16.492 -0.3094  0.1483  0.4370
  883MPD2     H13003   4.718   1.094  16.229 -1.2910  0.1732 -1.4638
  883MPD2    H113004   4.588   1.243  16.608  2.1156  1.1055 -0.9786
  883MPD2    H213005   4.314   1.053  16.356  0.4011  2.6657 -2.2832
  883MPD2    H313006   4.372   1.153  16.570 -0.9856  2.2206 -0.4621
  883MPD2     N13007   0.066   1.212  16.439  0.0481  0.2673  0.0148
  883MPD2    H513008   0.129   1.186  16.364  1.7147  0.9380  1.1870
  883MPD2    N113009   4.491   1.010  16.150  0.7022 -0.6677  0.7628
  883MPD2    H713010   4.566   1.036  16.086 -0.4683 -0.2188 -0.4306
  884MPD2     C13011   1.824   1.544  15.215 -0.4282 -0.2044  0.0947
  884MPD2    C113012   1.885   1.659  15.165  0.2427 -0.4291 -0.0631
  884MPD2    C213013   1.789   1.759  15.137 -0.1512 -0.1707 -0.2142
  884MPD2    C313014   1.653   1.747  15.166 -0.1936  0.0106  0.1121
  884MPD2    C413015   1.603   1.637  15.230 -0.0169 -0.2303 -0.2227
  884MPD2    C513016   1.692   1.536  15.249  0.8673 -0.2729  0.6039
  884MPD2     H13017   1.819   1.855  15.097  0.7249 -0.2152  0.3547
  884MPD2    H113018   1.497   1.620  15.245  0.0695 -0.2694  0.3399
  884MPD2    H213019   1.885   1.457  15.238  0.4597 -0.3813 -2.9184
  884MPD2    H313020   1.665   1.441  15.293  0.9874 -0.1105  1.0261
  884MPD2     N13021   1.561   1.856  15.131 -0.4009 -0.6693 -0.6862
  884MPD2    H513022   1.604   1.929  15.076 -1.4190  1.1805  0.9692
  884MPD2    N113023   2.025   1.679  15.152 -0.0675  0.0471 -0.3059
  884MPD2    H713024   2.047   1.765  15.103 -0.2505 -0.4653 -1.2701
  885MPD2     C13025   4.183   2.951  17.535 -0.0836  0.0659  0.1383
  885MPD2    C113026   4.190   2.825  17.578  0.5695 -0.2897 -0.1330
  885MPD2    C213027   4.192   2.730  17.478 -0.0961 -0.1154 -0.3835
  885MPD2    C313028   4.180   2.764  17.343 -0.1516  0.8041 -0.0906
  885MPD2    C413029   4.155   2.895  17.308  0.1436 -0.0952 -0.0922
  885MPD2    C513030   4.170   2.986  17.409  0.4671 -0.3142  0.6181
  885MPD2     H13031   4.207   2.627  17.509  1.4648 -0.5053 -2.4000
  885MPD2    H113032   4.136   2.921  17.205 -3.6960  1.4828  0.9935
  885MPD2    H213033   4.203   3.028  17.608  0.1228 -1.5948  1.8486
  885MPD2    H313034   4.160   3.093  17.395 -1.7846 -0.9530 -2.6471
  885MPD2     N13035   4.219   2.681  17.243 -0.2699 -0.6437 -0.3792
  885MPD2    H513036   4.193   2.717  17.151 -0.3256  0.6345  0.1445
  885MPD2    N113037   4.192   2.793  17.712 -0.7010 -0.1837  0.2213
  885MPD2    H713038   4.195   2.872   0.028  0.8509  1.5172 -2.0051
  886MPD2     C13039   0.942   0.661  15.352  0.0307 -0.2791 -0.8380
  886MPD2    C113040   1.062   0.685  15.415 -0.4986  0.1439 -0.4779
  886MPD2    C213041   1.156   0.751  15.344  0.7666  0.2532  0.8504
  886MPD2    C313042   1.135   0.804  15.212 -0.1650 -0.2878  0.4524
  886MPD2    C413043   1.011   0.781  15.156  0.6024 -0.3018  0.3524
  886MPD2    C513044   0.911   0.707  15.225  1.0126 -0.0475 -0.1076
  886MPD2     H13045   1.251   0.768  15.394  1.1546  2.6628 -0.6955
  886MPD2    H113046   0.994   0.827  15.059  0.5546  1.4302  1.1906
  886MPD2    H213047   0.854   0.641  15.412  0.5363  1.2161  0.4051
  886MPD2    H313048   0.810   0.696  15.188 -0.1040  0.2204  2.8365
  886MPD2     N13049   1.223   0.871  15.131 -0.5799  0.2212 -0.6064
  886MPD2    H513050   1.187   0.893  15.039  1.7032  1.7439 -1.1443
  886MPD2    N113051   1.094   0.652  15.551  0.0813 -0.9583  0.6144
  886MPD2    H713052   1.186   0.678  15.586 -0.0668  2.7937 -1.7964
  887MPD2     C13053   1.515   0.797  16.173  0.3330 -0.3352  0.1312
  887MPD2    C113054   1.494   0.778  16.038  0.4057  0.0902  0.0009
  887MPD2    C213055   1.604   0.805  15.951  0.1227 -0.2535  0.1723
  887MPD2    C313056   1.726   0.854  16.006  0.1883  0.4369  0.0925
  887MPD2    C413057   1.740   0.873  16.146 -1.1282 -0.1075 -0.0871
  887MPD2    C513058   1.628   0.849  16.227 -0.3199 -0.1743 -0.1286
  887MPD2     H13059   1.594   0.796  15.844  0.4904 -1.4620  0.2396
  887MPD2    H113060   1.834   0.907  16.188 -1.1330  1.4521 -1.3745
  887MPD2    H213061   1.429   0.781  16.236 -0.1209  1.6725  0.0364
  887MPD2    H313062   1.630   0.865  16.334  1.9382  2.8150 -0.6396
  887MPD2     N13063   1.823   0.900  15.914  0.0828 -0.1895  0.1420
  887MPD2    H513064   1.794   0.905  15.816  0.8767 -2.4356 -0.2168
  887MPD2    N113065   1.377   0.727  15.980 -0.3916 -0.1904 -0.8293
  887MPD2    H713066   1.385   0.720  15.879 -0.1153 -1.0388 -0.7452
  888MPD2     C13067   3.823   0.637  15.110  0.4739  0.1870 -0.0533
  888MPD2    C113068   3.888   0.759  15.119  0.1201  0.1103  0.0402
  888MPD2    C213069   3.828   0.866  15.071 -0.2700  0.1935  0.6354
  888MPD2    C313070   3.693   0.857  15.025  0.0972 -1.2105 -0.1991
  888MPD2    C413071   3.631   0.735  15.013  0.2917 -0.5138  0.1427
  888MPD2    C513072   3.701   0.625  15.052 -0.4264 -0.4217  0.3107
  888MPD2     H13073   3.875   0.963  15.066  1.8493 -0.7665  2.1550
  888MPD2    H113074   3.531   0.724  14.975 -0.1325  0.6356  0.9299
  888MPD2    H213075   3.879   0.546  15.128 -2.1365 -1.5777 -0.8056
  888MPD2    H313076   3.664   0.524  15.045  2.7070 -1.2938 -3.2732
  888MPD2     N13077   3.610   0.954  14.977 -0.6926 -0.3054  0.4695
  888MPD2    H513078   3.530   0.933  14.918 -1.3102 -1.4944  1.7142
  888MPD2    N113079   4.018   0.768  15.169  0.1360 -0.1653 -0.1635
  888MPD2    H713080   4.075   0.846  15.137  2.4691 -0.8692  2.3085
  889MPD2     C13081   2.765   4.266  13.207  0.0779 -0.1891  0.3639
  889MPD2    C113082   2.894   4.302  13.237  0.2526 -0.0806 -0.4796
  889MPD2    C213083   2.916   4.434  13.272  0.3668 -0.5878 -0.0290
  889MPD2    C313084   2.803   4.525  13.258  0.4946 -0.1242 -0.3204
  889MPD2    C413085   2.679   4.481  13.214 -0.4368  0.5651  0.8191
  889MPD2    C513086   2.665   4.354  13.189 -0.2685  0.2570  0.0284
  889MPD2     H13087   3.013   4.480  13.282 -0.2834  0.4093  1.7045
  889MPD2    H113088   2.590   4.543  13.203 -0.1851  0.3895 -2.1001
  889MPD2    H213089   2.746   4.164  13.178 -0.4513 -0.3159  1.1463
  889MPD2    H313090   2.567   4.316  13.164 -1.0663  0.8514  2.2511
  889MPD2     N13091   2.826   4.665  13.287 -0.4105 -0.5752  0.1452
  889MPD2    H513092   2.921   4.692  13.307 -0.3598 -0.7612  0.1583
  889MPD2    N113093   2.992   4.198  13.257 -0.2505 -0.1322  0.0600
  889MPD2    H713094   2.955   4.106  13.235 -0.6237  0.5778 -2.2812
  890MPD2     C13095   2.634   1.871  14.525 -1.3113  0.0414  0.9128
  890MPD2    C113096   2.676   1.964  14.631 -0.4383  0.2214  0.1920
  890MPD2    C213097   2.711   1.908  14.757 -0.0567  0.3717 -1.2826
  890MPD2    C313098   2.712   1.771  14.773  0.7246  1.2334 -0.1638
  890MPD2    C413099   2.676   1.687  14.673 -0.3829  0.6246  0.6190
  890MPD2    C513100   2.630   1.736  14.555 -0.2276  0.6807  0.7423
  890MPD2     H13101   2.744   1.978  14.833  0.8586 -2.0145  0.5182
  890MPD2    H113102   2.697   1.581  14.674 -1.5937  0.4037  2.3226
  890MPD2    H213103   2.606   1.899  14.424  0.4371 -0.8823  0.1736
  890MPD2    H313104   2.605   1.662  14.481  1.4129  1.2645 -0.3820
  890MPD2     N13105   2.742   1.715  14.905  0.7228 -0.3631  0.3014
  890MPD2    H513106   2.764   1.785  14.975  2.0930 -1.3460  0.8723
  890MPD2    N113107   2.666   2.105  14.610  0.1710 -0.6534  0.7859
  890MPD2    H713108   2.633   2.141  14.521 -1.3419  0.0325  1.6138
  891MPD2     C13109   0.951   0.755  17.506 -0.1491 -0.3164  0.0604
  891MPD2    C113110   0.855   0.683  17.431 -0.4608  0.3290  0.1391
  891MPD2    C213111   0.858   0.543  17.438  0.5919 -0.6788 -0.5156
  891MPD2    C313112   0.954   0.477  17.510 -0.1463 -0.0154  0.1080
  891MPD2    C413113   1.047   0.554  17.586  0.3130 -0.2182  0.2158
  891MPD2    C513114   1.034   0.691  17.592  0.8973 -0.0996  0.2262
  891MPD2     H13115   0.789   0.476  17.387  0.8874  0.2732 -2.1921
  891MPD2    H113116   1.112   0.511  17.662 -0.7969 -2.3932 -0.0683
  891MPD2    H213117   0.957   0.864  17.506 -0.1222 -0.3154 -0.8044
  891MPD2    H313118   1.100   0.754  17.650  2.2935 -0.8786 -0.5067
  891MPD2     N13119   0.949   0.340  17.501  0.1963  0.0455 -0.3436
  891MPD2    H513120   0.877   0.297  17.444 -1.4568  0.5606  1.3782
  891MPD2    N113121   0.758   0.752  17.357  0.2957  0.5623 -0.2369
  891MPD2    H713122   0.763   0.853  17.346 -3.5440  0.7191 -0.6960
  892MPD2     C13123   1.895   1.315  14.857 -0.1319 -0.5363 -0.1154
  892MPD2    C113124   1.811   1.291  14.748  0.2581 -0.1512 -0.2526
  892MPD2    C213125   1.842   1.188  14.668 -0.6585 -0.0566 -0.1202
  892MPD2    C313126   1.941   1.092  14.695  0.2226  0.3733 -0.7144
  892MPD2    C413127   2.024   1.121  14.803 -0.2309  0.2825  0.1858
  892MPD2    C513128   1.994   1.226  14.886 -0.7110  0.5424  0.1209
  892MPD2     H13129   1.794   1.179  14.572 -2.0735 -2.2320  0.7951
  892MPD2    H113130   2.099   1.050  14.837  0.6258  0.0426 -2.1814
  892MPD2    H213131   1.876   1.398  14.923  0.2195 -0.1968 -0.4422
  892MPD2    H313132   2.066   1.253  14.962  1.8522 -1.4037 -1.6029
  892MPD2     N13133   1.966   0.974  14.614  0.0563  0.0845 -1.0343
  892MPD2    H513134   2.055   0.926  14.619  1.5872  3.0804  0.4642
  892MPD2    N113135   1.709   1.388  14.724 -0.5471 -0.5923 -0.3239
  892MPD2    H713136   1.676   1.446  14.801  1.6067 -1.6682  1.4294
  893MPD2     C13137   2.794   4.714   1.002  0.7405  0.5660  0.9667
  893MPD2    C113138   2.792   4.696   0.865  0.6301 -0.0439  0.0315
  893MPD2    C213139   2.674   4.672   0.799 -0.5951 -0.0302  0.0980
  893MPD2    C313140   2.567   4.648   0.877  0.0056 -0.1047  0.0795
  893MPD2    C413141   2.574   4.648   1.019  0.3992  0.4182 -0.0706
  893MPD2    C513142   2.689   4.679   1.085 -1.0199  0.2336  0.9120
  893MPD2     H13143   2.657   4.664   0.693 -0.1224  3.3959 -0.2455
  893MPD2    H113144   2.486   4.619   1.075  0.1847  0.8483 -0.1846
  893MPD2    H213145   2.885   4.735   1.058 -0.4985 -1.1687  3.6497
  893MPD2    H313146   2.706   4.682   1.192 -0.0508  1.0338  0.7314
  893MPD2     N13147   2.433   4.616   0.833  0.2391  0.0679 -1.0569
  893MPD2    H513148   2.365   4.597   0.906 -0.8449  1.8402 -1.5985
  893MPD2    N113149   2.915   4.710   0.796  0.4177  0.1905 -0.3028
  893MPD2    H713150   2.996   4.737   0.850 -0.7707 -1.1004  2.1287
  894MPD2     C13151   1.167   2.223   1.316 -0.5186  0.0403 -0.2505
  894MPD2    C113152   1.065   2.306   1.284 -0.4679 -0.6100  0.3494
  894MPD2    C213153   1.085   2.416   1.205  0.5953 -0.1432 -0.3667
  894MPD2    C313154   1.209   2.463   1.161 -0.5666  0.0906  0.5614
  894MPD2    C413155   1.310   2.373   1.190 -0.4991  0.4012  0.7535
  894MPD2    C513156   1.291   2.262   1.273 -0.3307 -0.8351 -0.0941
  894MPD2     H13157   0.997   2.480   1.201 -1.3998 -2.8910 -0.1745
  894MPD2    H113158   1.410   2.392   1.154  0.1915 -3.7348  0.5796
  894MPD2    H213159   1.155   2.128   1.367  1.3897  1.1110  2.2009
  894MPD2    H313160   1.383   2.207   1.292 -0.8091 -1.9851 -1.1073
  894MPD2     N13161   1.220   2.585   1.098 -0.5875  0.3075 -0.0953
  894MPD2    H513162   1.133   2.633   1.078 -0.4934  0.8522  0.7883
  894MPD2    N113163   0.939   2.284   1.343  0.0736 -0.1717  0.8513
  894MPD2    H713164   0.854   2.334   1.319  2.0668  2.7098 -0.1541
  895MPD2     C13165   1.077   0.575  13.646  0.9373  0.0784  0.3489
  895MPD2    C113166   0.986   0.509  13.567 -0.3217  0.1486 -0.1057
  895MPD2    C213167   1.008   0.379  13.528 -0.1740  0.2795 -0.1236
  895MPD2    C313168   1.119   0.313  13.573 -1.0253 -0.0877 -0.6373
  895MPD2    C413169   1.204   0.373  13.655 -0.0599 -0.2605  0.5560
  895MPD2    C513170   1.186   0.502  13.691  0.5962  0.1414  0.2800
  895MPD2     H13171   0.933   0.319  13.478 -0.2191 -0.3755  0.7295
  895MPD2    H113172   1.285   0.316  13.700  1.3094  0.2050 -1.3271
  895MPD2    H213173   1.067   0.681  13.666  1.4041  0.6539 -2.4987
  895MPD2    H313174   1.260   0.547  13.756 -0.6898 -0.1712  1.9548
  895MPD2     N13175   1.128   0.180  13.529 -0.3739 -0.1201 -0.0883
  895MPD2    H513176   1.055   0.157  13.461 -1.9005 -0.2143  1.5903
  895MPD2    N113177   0.876   0.578  13.507  0.2492  0.3724  0.4783
  895MPD2    H713178   0.817   0.528  13.440 -3.3885 -1.4738  5.1033
  896MPD2     C13179   3.055   3.921   1.126 -0.0198  0.6146  0.6850
  896MPD2    C113180   2.993   3.858   1.026  0.4182  0.2523  0.2027
  896MPD2    C213181   2.881   3.783   1.046 -0.1567  0.0864 -0.0325
  896MPD2    C313182   2.828   3.773   1.170  0.7495  0.1112 -0.4895
  896MPD2    C413183   2.887   3.831   1.274 -0.3184 -0.0593  0.4020
  896MPD2    C513184   3.001   3.902   1.247  0.4223  0.1100 -0.4569
  896MPD2     H13185   2.823   3.740   0.965 -0.2244  1.6875 -0.8349
  896MPD2    H113186   2.847   3.833   1.375 -0.7852  0.6240  0.2055
  896MPD2    H213187   3.145   3.978   1.110  0.0305  0.5351  0.6858
  896MPD2    H313188   3.036   3.965   1.329 -1.7381  2.2597 -1.1878
  896MPD2     N13189   2.698   3.714   1.175 -0.1392 -0.4037 -0.0319
  896MPD2    H513190   2.653   3.696   1.085  0.5252  0.1525 -0.4762
  896MPD2    N113191   3.057   3.874   0.902  0.3671  0.0883  0.4054
  896MPD2    H713192   3.140   3.932   0.901 -1.4243  2.6374  0.4784
  897MPD2     C13193   4.211   3.517  10.539  0.3614  0.3376  0.8775
  897MPD2    C113194   4.194   3.652  10.520  0.1787  0.1323 -0.2044
  897MPD2    C213195   4.076   3.709  10.574 -0.1464 -0.1651 -0.0888
  897MPD2    C313196   3.987   3.635  10.655  0.1839  0.5178 -0.4358
  897MPD2    C413197   4.017   3.504  10.682 -0.4459 -0.2975 -0.3290
  897MPD2    C513198   4.120   3.451  10.613 -0.3080 -0.1067 -0.1652
  897MPD2     H13199   4.044   3.804  10.533 -1.5206 -0.7212 -0.3103
  897MPD2    H113200   3.958   3.443  10.749 -0.6262 -0.6357 -0.7964
  897MPD2    H213201   4.296   3.461  10.501  0.3547  1.2922 -0.5413
  897MPD2    H313202   4.135   3.346  10.638 -0.4034 -0.1159 -0.1462
  897MPD2     N13203   3.887   3.702  10.718 -0.4531  0.0876 -0.8595
  897MPD2    H513204   3.875   3.799  10.692  0.4896  0.9708  1.9932
  897MPD2    N113205   4.293   3.721  10.454 -0.0018  0.4981  0.7474
  897MPD2    H713206   4.352   3.669  10.390 -0.4281 -0.6334  1.2791
  898MPD2     C13207   0.446   1.059  17.555 -0.2680 -0.0471 -0.1824
  898MPD2    C113208   0.564   1.057  17.630 -0.6125 -0.6037  0.4509
  898MPD2    C213209   0.628   1.173  17.664 -0.0087 -0.7940 -0.0667
  898MPD2    C313210   0.569   1.296  17.632 -0.6159  0.4603 -0.1313
  898MPD2    C413211   0.454   1.295  17.566  0.0860  0.4363 -0.3040
  898MPD2    C513212   0.392   1.180  17.527  0.2430 -0.1161 -0.2551
  898MPD2     H13213   0.716   1.165  17.727  0.9857 -0.0152 -1.3658
  898MPD2    H113214   0.407   1.391  17.549  0.0856  0.9367  2.5246
  898MPD2    H213215   0.386   0.973  17.528  0.1814 -0.2723 -0.4593
  898MPD2    H313216   0.297   1.190  17.475  0.8422  1.6073 -1.0171
  898MPD2     N13217   0.638   1.413  17.682  0.2395 -0.1603  0.4076
  898MPD2    H513218   0.721   1.395  17.738 -0.7682 -2.5059  1.1078
  898MPD2    N113219   0.622   0.939  17.685 -0.4458  0.0331  0.3266
  898MPD2    H713220   0.713   0.936  17.730 -0.0240  0.9488 -0.4610
  899MPD2     C13221   1.428   1.965  17.473  0.3547  0.3143 -0.2339
  899MPD2    C113222   1.528   2.052  17.514 -0.1497 -0.4246 -0.4910
  899MPD2    C213223   1.533   2.089  17.650  0.3994 -0.9385 -0.0626
  899MPD2    C313224   1.458   2.023  17.741  0.7509 -0.5941 -0.5018
  899MPD2    C413225   1.372   1.929  17.698  0.7002 -0.2347  0.0517
  899MPD2    C513226   1.347   1.913  17.562 -0.0212  0.6660 -0.2085
  899MPD2     H13227   1.604   2.168  17.673  0.3818 -0.6419 -1.0133
  899MPD2    H113228   1.309   1.865   0.011  1.9726 -1.0543  0.5346
  899MPD2    H213229   1.418   1.943  17.367  0.4091 -0.3904 -0.0908
  899MPD2    H313230   1.262   1.855  17.527 -0.1093  0.6217  0.0781
  899MPD2     N13231   1.471   2.047   0.129  0.3636  0.5553  0.3809
  899MPD2    H513232   1.410   2.002   0.196 -0.1248  1.4410  0.5379
  899MPD2    N113233   1.619   2.100  17.421 -0.6193  0.1401  0.0426
  899MPD2    H713234   1.595   2.085  17.323  1.8592  0.1522 -0.5637
  900MPD2     C13235   2.182   2.616  12.659 -0.3020 -0.1274 -0.4301
  900MPD2    C113236   2.064   2.549  12.643 -0.2997  0.0339  0.7096
  900MPD2    C213237   1.953   2.621  12.593  0.5848  0.9805 -0.4450
  900MPD2    C313238   1.954   2.757  12.593  0.2133  0.5861  0.2743
  900MPD2    C413239   2.076   2.822  12.615 -0.1131  0.2874 -0.0933
  900MPD2    C513240   2.185   2.751  12.652 -0.2612 -0.2652  0.0161
  900MPD2     H13241   1.864   2.562  12.572 -0.5884  1.8612  1.9862
  900MPD2    H113242   2.105   2.926  12.607 -0.4092  0.3770  0.0032
  900MPD2    H213243   2.278   2.580  12.696 -0.8984 -1.8629 -0.5932
  900MPD2    H313244   2.274   2.805  12.682  0.1195 -1.6417  1.3571
  900MPD2     N13245   1.835   2.827  12.581 -0.7751 -0.0165  0.1298
  900MPD2    H513246   1.752   2.778  12.548  0.9144 -2.6579 -0.2260
  900MPD2    N113247   2.072   2.412  12.662  0.1847 -0.3729 -0.5998
  900MPD2    H713248   2.163   2.373  12.684  0.6545  1.0871  0.0496
  901MPD2     C13249   1.884   1.486  13.180 -0.0380  0.6661  0.1248
  901MPD2    C113250   1.966   1.457  13.070 -0.2374  0.3267 -0.7079
  901MPD2    C213251   1.998   1.550  12.978 -0.0404  0.3479  0.5224
  901MPD2    C313252   1.954   1.680  13.003  0.3534  0.3701  0.3973
  901MPD2    C413253   1.880   1.717  13.117 -0.3632 -0.3894  0.8372
  901MPD2    C513254   1.841   1.614  13.206  1.0492  0.1593 -0.7622
  901MPD2     H13255   2.061   1.521  12.895  1.1159  2.4186  0.6534
  901MPD2    H113256   1.847   1.817  13.145  0.5192 -0.1172  0.9056
  901MPD2    H213257   1.842   1.413  13.248  3.1814 -0.4444  0.9211
  901MPD2    H313258   1.774   1.637  13.287  0.6172 -1.8228 -0.5775
  901MPD2     N13259   1.990   1.775  12.901  0.5095  0.4071 -0.1956
  901MPD2    H513260   2.040   1.751  12.815  0.1167  2.0798 -0.9035
  901MPD2    N113261   2.016   1.323  13.042  0.5464 -0.0297 -0.4355
  901MPD2    H713262   2.052   1.300  12.950 -0.1419  1.2131 -1.0124
  902MPD2     C13263   0.609   0.759  12.354  0.4321 -0.1650 -0.6251
  902MPD2    C113264   0.733   0.816  12.342  0.2835 -0.0354  0.1260
  902MPD2    C213265   0.846   0.738  12.354 -0.0679  0.7083  0.2621
  902MPD2    C313266   0.835   0.606  12.390  0.2817 -0.3530 -0.1570
  902MPD2    C413267   0.707   0.547  12.393 -0.2912  0.1302  0.3390
  902MPD2    C513268   0.598   0.624  12.376  0.2627  0.3757  0.1494
  902MPD2     H13269   0.947   0.776  12.348  0.7826 -1.2651  1.8355
  902MPD2    H113270   0.698   0.442  12.419  4.9094 -0.9053 -2.0386
  902MPD2    H213271   0.522   0.823  12.346 -0.3157 -1.0376  0.5216
  902MPD2    H313272   0.504   0.571  12.389 -0.2182  1.6769  1.9801
  902MPD2     N13273   0.945   0.516  12.408 -0.1638  0.1294  0.6432
  902MPD2    H513274   0.920   0.420  12.430 -0.4236  0.4315  1.6771
  902MPD2    N113275   0.738   0.955  12.307 -0.1960 -0.2946 -0.4063
  902MPD2    H713276   0.648   0.995  12.285  1.1657  2.2852 -1.3011
  903MPD2     C13277   1.100   0.851  12.034 -0.5945  0.1668  0.8549
  903MPD2    C113278   1.052   0.720  12.010  0.7118  0.2753 -0.0782
  903MPD2    C213279   0.914   0.695  11.986  0.6879  0.1641 -0.5814
  903MPD2    C313280   0.820   0.794  11.978 -0.4973 -0.2743  0.1041
  903MPD2    C413281   0.867   0.919  12.002  0.1879 -0.6939 -0.2319
  903MPD2    C513282   1.001   0.946  12.041  0.1567 -0.2069  0.3806
  903MPD2     H13283   0.882   0.592  11.974 -2.6373  0.9879  1.2192
  903MPD2    H113284   0.795   1.001  12.005 -0.9589 -1.6805 -0.9759
  903MPD2    H213285   1.201   0.882  12.055 -0.9053  1.3398  0.6260
  903MPD2    H313286   1.034   1.045  12.071  0.7426  0.3717 -2.0943
  903MPD2     N13287   0.688   0.761  11.953 -0.1164  0.1727  0.5297
  903MPD2    H513288   0.664   0.664  11.932  2.1383 -0.8006  2.4665
  903MPD2    N113289   1.132   0.604  12.034 -0.7340 -0.2793 -0.0798
  903MPD2    H713290   1.082   0.517  12.019 -2.1128  0.2769  1.3006
  904MPD2     C13291   0.804   4.683  14.332 -0.0137 -0.3726 -0.0964
  904MPD2    C113292   0.839   4.725  14.201 -0.5538 -0.5472  0.3270
  904MPD2    C213293   0.958   0.057  14.185  0.2867  0.1932 -0.0332
  904MPD2    C313294   1.047   0.087  14.287  0.1120 -0.5533  0.0381
  904MPD2    C413295   1.007   0.040  14.414 -0.4594 -0.2955  0.2701
  904MPD2    C513296   0.885   4.715  14.435  0.5058  0.5921  0.6173
  904MPD2     H13297   0.981   0.066  14.079  2.4955 -1.0431  0.3245
  904MPD2    H113298   1.074   0.059  14.497  1.9545 -1.6423 -1.3839
  904MPD2    H213299   0.712   4.630  14.354 -1.4268  1.9743 -0.3020
  904MPD2    H313300   0.870   4.685  14.538  0.5049 -0.1401  0.4046
  904MPD2     N13301   1.180   0.124  14.265 -0.2649  0.1264  0.1055
  904MPD2    H513302   1.210   0.144  14.170  1.5908 -0.6495  0.5357
  904MPD2    N113303   0.758   4.690  14.088  0.4425 -0.0279  0.3583
  904MPD2    H713304   0.782   4.726  13.996 -0.3186 -1.4786 -0.4132
  905MPD2     C13305   0.560   4.390  13.335 -0.3537  0.1238  0.4431
  905MPD2    C113306   0.641   4.488  13.395 -0.7381  0.3281  0.5259
  905MPD2    C213307   0.759   4.520  13.345 -0.5814  0.1126 -0.9478
  905MPD2    C313308   0.812   4.468  13.228 -0.3545 -0.4207 -0.8361
  905MPD2    C413309   0.737   4.372  13.167  0.6647 -0.0719  0.1962
  905MPD2    C513310   0.615   4.330  13.223 -0.0348  0.1288 -0.7470
  905MPD2     H13311   0.821   4.594  13.393 -0.9572 -1.4804  2.0150
  905MPD2    H113312   0.765   4.337  13.068 -1.3220 -3.2854  0.7600
  905MPD2    H213313   0.465   4.360  13.378 -0.1546 -1.5654 -0.3046
  905MPD2    H313314   0.562   4.250  13.173 -0.5379 -0.2183  0.3476
  905MPD2     N13315   0.936   4.495  13.167 -0.5461 -0.4934  0.1467
  905MPD2    H513316   0.955   4.442  13.083 -0.3735  1.0697 -0.7889
  905MPD2    N113317   0.596   4.545  13.522 -0.2629  0.6086  0.0383
  905MPD2    H713318   0.518   4.496  13.564 -1.5141  1.8933 -0.7765
  906MPD2     C13319   2.728   4.381  11.330  0.7202  0.3510  0.6892
  906MPD2    C113320   2.654   4.286  11.260 -0.5568 -1.0015 -0.3418
  906MPD2    C213321   2.561   4.216  11.328 -0.5073  0.3883  0.4647
  906MPD2    C313322   2.532   4.236  11.457 -0.7637  0.5297 -0.3762
  906MPD2    C413323   2.600   4.332  11.526  0.3049  0.0467 -0.4120
  906MPD2    C513324   2.700   4.402  11.462  0.4447  0.8895  0.4218
  906MPD2     H13325   2.504   4.141  11.274  1.3723 -1.9120  1.6578
  906MPD2    H113326   2.594   4.364  11.630 -0.1613  0.0798 -0.4501
  906MPD2    H213327   2.810   4.437  11.287  0.3363 -0.7277 -1.4308
  906MPD2    H313328   2.751   4.471  11.528 -0.6021  2.4868 -0.4245
  906MPD2     N13329   2.415   4.169  11.506 -0.5401  0.3594 -0.2307
  906MPD2    H513330   2.373   4.108  11.437 -0.7237 -0.2263  0.4019
  906MPD2    N113331   2.676   4.252  11.127 -0.3456  0.5844  0.4661
  906MPD2    H713332   2.638   4.164  11.096 -2.6110  1.9639 -0.7076
  907MPD2     C13333   1.320   3.960  15.736 -0.6149 -0.0249 -0.2749
  907MPD2    C113334   1.359   3.840  15.679  0.1460 -0.3653 -0.6077
  907MPD2    C213335   1.400   3.734  15.762 -0.0018  0.7947 -0.0334
  907MPD2    C313336   1.419   3.755  15.899  0.5917 -0.0838  0.5799
  907MPD2    C413337   1.385   3.880  15.947 -0.1830 -0.0119 -0.7085
  907MPD2    C513338   1.324   3.979  15.872 -0.2516 -0.0296  0.2434
  907MPD2     H13339   1.437   3.640  15.724 -2.6607 -0.8598  1.4789
  907MPD2    H113340   1.400   3.908  16.051 -0.4657 -0.2875 -0.5946
  907MPD2    H213341   1.279   4.046  15.684 -1.0345  0.0731  0.2164
  907MPD2    H313342   1.285   4.068  15.920  1.2723  0.8743 -0.2185
  907MPD2     N13343   1.480   3.651  15.967  0.4416  0.4396  0.2537
  907MPD2    H513344   1.524   3.575  15.916  2.7858  2.4013 -0.6602
  907MPD2    N113345   1.365   3.807  15.542 -0.3743  0.0277 -0.8424
  907MPD2    H713346   1.397   3.712  15.529 -2.8340 -0.6839 -1.7779
  908MPD2     C13347   4.416   3.489   9.592 -0.1983  0.2777 -0.6138
  908MPD2    C113348   4.420   3.417   9.709  0.2474 -0.5562 -0.7045
  908MPD2    C213349   4.438   3.481   9.831 -0.1097 -0.1050 -0.4433
  908MPD2    C313350   4.436   3.621   9.841 -0.0596 -0.3924 -0.4523
  908MPD2    C413351   4.433   3.688   9.721 -0.6019 -0.0873 -0.1396
  908MPD2    C513352   4.423   3.622   9.601 -0.8431  1.1211  0.1535
  908MPD2     H13353   4.425   3.424   9.922 -1.4479  0.2662 -0.3955
  908MPD2    H113354   4.436   3.796   9.715  2.1729 -0.1386  0.0904
  908MPD2    H213355   4.410   3.444   9.494 -1.4758 -0.0055 -0.4072
  908MPD2    H313356   4.420   3.679   9.509 -1.8163  1.3532  0.3310
  908MPD2     N13357   4.446   3.692   9.970  0.5561 -0.0593 -0.7200
  908MPD2    H513358   4.464   3.625  10.044  0.4347 -0.7208 -1.2824
  908MPD2    N113359   4.412   3.281   9.702  0.1120  0.0329 -0.2607
  908MPD2    H713360   4.440   3.222   9.779 -0.5288  1.8819  1.4009
  909MPD2     C13361   4.243   2.547  12.092  0.1993 -0.0089 -0.1419
  909MPD2    C113362   4.164   2.569  11.983  0.0885 -0.3194 -0.1782
  909MPD2    C213363   4.037   2.619  12.000  0.2503 -0.6873  0.8300
  909MPD2    C313364   3.988   2.638  12.131  0.4047  0.1430  0.0891
  909MPD2    C413365   4.069   2.614  12.235  0.1266 -0.5605  0.8370
  909MPD2    C513366   4.200   2.572  12.215  0.5461  0.5316  0.3820
  909MPD2     H13367   3.974   2.634  11.914  1.2968 -2.1375 -0.1855
  909MPD2    H113368   4.055   2.631  12.341 -0.0081  0.2894  0.6844
  909MPD2    H213369   4.351   2.539  12.087  0.3045  2.2031 -1.6216
  909MPD2    H313370   4.259   2.551  12.303  1.3924 -0.3089 -0.3974
  909MPD2     N13371   3.849   2.659  12.146 -0.4338  0.4018  0.1107
  909MPD2    H513372   3.798   2.670  12.059 -1.1031  1.1770  0.5976
  909MPD2    N113373   4.212   2.543  11.849  0.4027  0.3109  0.3062
  909MPD2    H713374   4.151   2.569  11.772 -0.7777 -2.9908  0.1492
  910MPD2     C13375   1.337   4.700  15.986  0.8418  0.1057  0.4426
  910MPD2    C113376   1.217   4.635  15.972  0.5031 -0.2131  0.2779
  910MPD2    C213377   1.127   4.683  15.877 -0.7774  0.1647 -0.9019
  910MPD2    C313378   1.157   0.032  15.777  0.4139 -0.3189 -0.6182
  910MPD2    C413379   1.286   0.082  15.780  0.0960 -0.1559 -0.5743
  910MPD2    C513380   1.378   0.049  15.884 -0.6314  0.1518 -0.2860
  910MPD2     H13381   1.028   4.641  15.876 -0.3657 -0.8236 -0.0455
  910MPD2    H113382   1.319   0.159  15.711  1.1617  0.4486  0.6227
  910MPD2    H213383   1.403   4.687  16.071 -0.2304 -2.9318  0.7916
  910MPD2    H313384   1.475   0.097  15.888 -1.9243  2.6108  1.8180
  910MPD2     N13385   1.070   0.080  15.677  0.4902  0.0105 -0.0899
  910MPD2    H513386   1.114   0.140  15.608  2.5760 -1.1459  0.2550
  910MPD2    N113387   1.187   4.530  16.062  0.1870  0.3911 -0.3445
  910MPD2    H713388   1.253   4.507  16.135 -1.3297 -2.5125  0.1293
  911MPD2     C13389   3.927   0.332  16.746 -0.0702  0.0432 -0.3516
  911MPD2    C113390   3.997   0.391  16.649 -1.2158 -0.1092 -0.2227
  911MPD2    C213391   3.943   0.403  16.520  0.3204 -0.1794 -0.1700
  911MPD2    C313392   3.821   0.351  16.492 -0.2594  0.3934  0.0766
  911MPD2    C413393   3.755   0.273  16.584  0.3953 -0.5495  0.1826
  911MPD2    C513394   3.811   0.270  16.712  0.4102  0.2087  0.3991
  911MPD2     H13395   3.994   0.459  16.442 -1.2476  1.1146 -0.2658
  911MPD2    H113396   3.662   0.223  16.560  2.1178 -2.0909 -3.3806
  911MPD2    H213397   3.965   0.329  16.847 -2.2659  2.1608  0.5238
  911MPD2    H313398   3.764   0.211  16.789  0.3732  1.2942  1.2025
  911MPD2     N13399   3.790   0.362  16.359 -0.5203  0.0799 -0.7831
  911MPD2    H513400   3.840   0.434  16.309  0.9178  0.9754  1.9307
  911MPD2    N113401   4.133   0.420  16.685  0.6904 -0.2450 -0.6190
  911MPD2    H713402   4.161   0.414  16.782 -4.1740  0.3225  0.8254
  912MPD2     C13403   3.544   4.712  15.565 -0.1744 -0.1394  0.2940
  912MPD2    C113404   3.481   0.024  15.672  0.5522 -0.5590  0.3512
  912MPD2    C213405   3.360   4.710  15.711 -0.1537  0.2310 -0.2246
  912MPD2    C313406   3.305   4.603  15.647  0.2026  0.0143  0.2674
  912MPD2    C413407   3.371   4.560  15.535  0.1363  0.4166  0.5440
  912MPD2    C513408   3.488   4.620  15.491 -0.1298 -0.6094  0.1721
  912MPD2     H13409   3.308   4.732  15.802  0.7093  0.5185  0.2004
  912MPD2    H113410   3.331   4.478  15.477 -0.2232  1.5370 -0.7870
  912MPD2    H213411   3.642   0.014  15.540  0.3304 -1.1721  0.6500
  912MPD2    H313412   3.539   4.576  15.406  1.2085 -2.9018  2.1568
  912MPD2     N13413   3.191   4.538  15.700  0.4712 -0.9981  0.3287
  912MPD2    H513414   3.148   4.584  15.780 -1.8856 -1.3122 -0.7786
  912MPD2    N113415   3.554   0.116  15.747  0.1170 -0.0714  0.1318
  912MPD2    H713416   3.644   0.147  15.712 -0.3519  1.3304  0.1576
  913MPD2     C13417   3.820   1.114  10.011 -1.2633  0.7941  0.1526
  913MPD2    C113418   3.925   1.193  10.032 -0.6060 -0.5870 -0.3195
  913MPD2    C213419   3.941   1.319   9.973  0.6414 -0.2439 -0.6109
  913MPD2    C313420   3.849   1.360   9.876  0.0181 -0.2895  0.0406
  913MPD2    C413421   3.739   1.283   9.860  0.1401 -0.5772  0.2911
  913MPD2    C513422   3.717   1.160   9.930  0.5159 -0.7152 -0.2365
  913MPD2     H13423   4.030   1.371  10.006  0.7057  0.8908 -2.5587
  913MPD2    H113424   3.655   1.318   9.800 -0.1069 -0.5927  0.6234
  913MPD2    H213425   3.819   1.022  10.069  0.5333  0.4839 -0.3120
  913MPD2    H313426   3.626   1.105   9.915  0.3842 -0.5487 -0.0578
  913MPD2     N13427   3.857   1.478   9.808  0.0254  0.6102 -0.5793
  913MPD2    H513428   3.772   1.507   9.760 -0.1694  2.6930  0.9864
  913MPD2    N113429   4.007   1.155  10.141 -0.2600  0.8161  0.0076
  913MPD2    H713430   3.984   1.069  10.188  0.0527  1.1429  0.7616
  914MPD2     C13431   2.221   1.203  12.272  0.2055  0.7860  0.3045
  914MPD2    C113432   2.226   1.297  12.375  0.1934  0.6642 -0.7192
  914MPD2    C213433   2.200   1.253  12.505 -0.2709  0.1590  0.0848
  914MPD2    C313434   2.171   1.120  12.539  0.1933 -0.1680 -0.8412
  914MPD2    C413435   2.168   1.028  12.431  0.4675  0.9009  0.3430
  914MPD2    C513436   2.198   1.070  12.305  0.6089  0.2134 -0.1447
  914MPD2     H13437   2.199   1.319  12.590 -2.7457 -0.5046  0.5893
  914MPD2    H113438   2.150   0.922  12.448  0.5337  0.7752 -0.3686
  914MPD2    H213439   2.231   1.231  12.168 -0.3343  0.7886  0.2573
  914MPD2    H313440   2.215   0.999  12.225 -1.6345 -1.6615  1.0309
  914MPD2     N13441   2.158   1.097  12.674 -0.0079 -0.1801  0.1521
  914MPD2    H513442   2.172   1.180  12.731 -1.8499 -1.0812  1.9129
  914MPD2    N113443   2.235   1.436  12.340 -0.3116  0.5715 -0.6713
  914MPD2    H713444   2.246   1.465  12.243  0.6568  0.0278 -0.7162
  915MPD2     C13445   0.052   1.580  15.438 -0.4936  0.2099 -0.4320
  915MPD2    C113446   4.654   1.573  15.415 -0.4304  0.3067 -0.3544
  915MPD2    C213447   4.562   1.596  15.521 -0.3187  0.1488 -0.8710
  915MPD2    C313448   4.610   1.617  15.652 -0.9437  0.2494 -0.1707
  915MPD2    C413449   0.013   1.614  15.676 -0.1048  0.3865  0.0644
  915MPD2    C513450   0.096   1.596  15.562  0.6830  0.3061 -0.0697
  915MPD2     H13451   4.456   1.594  15.497 -0.1204  0.1515 -1.7351
  915MPD2    H113452   0.066   1.631  15.769  1.1024  0.4331 -0.6358
  915MPD2    H213453   0.129   1.583  15.361 -2.9323 -1.1086 -2.9431
  915MPD2    H313454   0.204   1.594  15.578  0.2504 -2.2900  2.5089
  915MPD2     N13455   4.505   1.650  15.749 -0.1771  0.8143  0.1445
  915MPD2    H513456   4.407   1.647  15.721  0.4608 -0.1260 -1.9863
  915MPD2    N113457   4.617   1.565  15.279 -0.6465  0.5944 -0.0779
  915MPD2    H713458   4.696   1.576  15.216 -0.3913 -1.4697 -0.1135
  916MPD2     C13459   2.407   4.420  15.622  0.0983  0.8098  0.0960
  916MPD2    C113460   2.521   4.482  15.668  0.3638  0.3214  0.7414
  916MPD2    C213461   2.643   4.456  15.594 -0.2292  0.2134 -0.4233
  916MPD2    C313462   2.644   4.377  15.484  1.2828 -0.5934  0.2049
  916MPD2    C413463   2.522   4.323  15.441 -0.0469  0.5802  0.2635
  916MPD2    C513464   2.411   4.344  15.509 -0.2434  0.6582  0.4088
  916MPD2     H13465   2.731   4.510  15.628 -0.9191  1.7653 -1.1254
  916MPD2    H113466   2.505   4.287  15.341 -0.3085  1.6934 -0.0917
  916MPD2    H213467   2.309   4.426  15.668 -0.9066  1.0159 -2.0801
  916MPD2    H313468   2.319   4.302  15.471 -0.6115  1.7097  0.1468
  916MPD2     N13469   2.771   4.344  15.437  0.1170  0.2734  0.3043
  916MPD2    H513470   2.854   4.392  15.469  0.0444  1.0671 -0.6961
  916MPD2    N113471   2.511   4.566  15.787 -0.6917  0.1176  0.0541
  916MPD2    H713472   2.424   4.559  15.839 -0.5284 -1.4445  0.1125
  917MPD2     C13473   3.271   1.906  10.873  0.2116  0.5441 -0.1567
  917MPD2    C113474   3.234   1.974  10.987 -0.6390 -1.0195  0.0707
  917MPD2    C213475   3.248   2.110  10.994  0.3592 -0.3212 -0.6078
  917MPD2    C313476   3.308   2.182  10.893 -0.2374 -0.3370 -0.6126
  917MPD2    C413477   3.355   2.106  10.781 -0.4533  0.4083 -0.3119
  917MPD2    C513478   3.335   1.973  10.773  0.5413 -0.4314 -0.3977
  917MPD2     H13479   3.201   2.165  11.075 -0.1435 -2.3342  0.4731
  917MPD2    H113480   3.402   2.156  10.698  2.4315  0.2589  1.2325
  917MPD2    H213481   3.244   1.801  10.870 -1.2870  0.9944 -1.9313
  917MPD2    H313482   3.383   1.919  10.692  3.6563 -0.6752  1.6267
  917MPD2     N13483   3.322   2.327  10.907  1.1300 -0.9083  1.3657
  917MPD2    H513484   3.366   2.372  10.828  2.1675 -0.6577  2.0791
  917MPD2    N113485   3.196   1.902  11.101  0.0733  0.0310 -0.2661
  917MPD2    H713486   3.185   1.802  11.087 -3.1680  0.7000 -2.5841
  918MPD2     C13487   3.186   2.208  12.067  0.4042  0.1392  0.0569
  918MPD2    C113488   3.307   2.166  12.019 -0.0081 -0.2180  0.3432
  918MPD2    C213489   3.303   2.081  11.913 -0.4293  0.2611 -0.7658
  918MPD2    C313490   3.187   2.033  11.858 -0.4737 -0.1819  0.3509
  918MPD2    C413491   3.063   2.087  11.903  0.5587  0.0936 -0.1721
  918MPD2    C513492   3.070   2.173  12.004  0.1137 -0.2481  0.2232
  918MPD2     H13493   3.398   2.053  11.870 -0.2649 -2.0267  1.1562
  918MPD2    H113494   2.962   2.078  11.864  0.4394  2.9818 -0.5324
  918MPD2    H213495   3.183   2.267  12.158 -0.4349  0.5671 -0.2479
  918MPD2    H313496   2.978   2.216  12.043 -1.4106 -2.6679 -0.7652
  918MPD2     N13497   3.194   1.964  11.733  0.5760 -0.8446 -0.4274
  918MPD2    H513498   3.287   1.944  11.700  1.0476 -2.3630  1.8667
  918MPD2    N113499   3.434   2.194  12.069 -0.2451  0.0968 -0.2168
  918MPD2    H713500   3.511   2.141  12.031 -0.9244 -2.0411  1.3783
  919MPD2     C13501   3.983   1.004  11.451  0.5220  0.4813 -0.3983
  919MPD2    C113502   3.907   0.888  11.420 -0.6380  0.2312  0.2799
  919MPD2    C213503   3.835   0.878  11.302 -0.6108 -0.4608 -0.6236
  919MPD2    C313504   3.850   0.979  11.211  0.0266 -0.0548  0.6983
  919MPD2    C413505   3.946   1.081  11.225 -0.5576 -0.6344 -0.7502
  919MPD2    C513506   4.011   1.093  11.343  0.6774  0.4320 -0.2749
  919MPD2     H13507   3.761   0.801  11.284 -0.9976 -0.6580  1.8413
  919MPD2    H113508   3.972   1.149  11.145  0.3708 -1.6032 -1.2631
  919MPD2    H213509   4.014   1.026  11.552  1.5007 -1.4142 -0.2936
  919MPD2    H313510   4.063   1.184  11.372  0.4579  0.2723  0.6034
  919MPD2     N13511   3.771   0.987  11.091  1.0049  1.1617  0.3554
  919MPD2    H513512   3.800   1.060  11.027  0.4988  0.5064 -0.6242
  919MPD2    N113513   3.881   0.782  11.518  0.1220  0.1345 -0.4478
  919MPD2    H713514   3.816   0.716  11.476 -0.6806  1.4107 -1.2082
  920MPD2     C13515   3.681   1.430  10.208  0.8993 -0.5253  0.2683
  920MPD2    C113516   3.551   1.377  10.215  0.3145  0.0116  0.4439
  920MPD2    C213517   3.524   1.294  10.317 -0.2789  0.2265  0.3864
  920MPD2    C313518   3.614   1.266  10.412  0.1138  0.7388 -0.1935
  920MPD2    C413519   3.741   1.319  10.409  1.1380  0.2016 -0.1188
  920MPD2    C513520   3.772   1.396  10.300  0.3712 -0.0323 -0.7130
  920MPD2     H13521   3.431   1.238  10.316 -0.5034  0.6287 -1.6677
  920MPD2    H113522   3.822   1.294  10.477  0.1385  1.3145  1.4839
  920MPD2    H213523   3.718   1.490  10.126  0.9257  1.5978  1.8379
  920MPD2    H313524   3.874   1.433  10.295 -0.2507  1.7511 -0.1813
  920MPD2     N13525   3.579   1.171  10.516  0.2045  0.2434  0.1615
  920MPD2    H513526   3.482   1.140  10.513  0.6169 -0.8457 -2.1542
  920MPD2    N113527   3.458   1.403  10.119 -0.5950 -0.5645  0.1800
  920MPD2    H713528   3.364   1.368  10.139 -1.7504  2.1190 -0.5212
  921MPD2     C13529   4.631   1.011  17.115 -0.3018 -0.0438  0.5538
  921MPD2    C113530   4.726   0.912  17.103  0.1584 -0.2161 -0.3339
  921MPD2    C213531   4.688   0.800  17.032 -0.4102  0.0390 -0.1651
  921MPD2    C313532   4.567   0.784  16.969 -0.2249 -0.0310 -0.0510
  921MPD2    C413533   4.471   0.884  16.991  0.0221  0.2639  0.2706
  921MPD2    C513534   4.507   0.997  17.063  0.2379 -0.6822 -0.5211
  921MPD2     H13535   0.028   0.728  17.012  0.3423  0.9304 -0.4784
  921MPD2    H113536   4.370   0.879  16.952 -0.3481  2.1270  0.9713
  921MPD2    H213537   4.647   1.100  17.176  1.2284  1.2119 -1.6825
  921MPD2    H313538   4.436   1.074  17.089  1.0190  0.0922 -0.6898
  921MPD2     N13539   4.540   0.681  16.878  0.3548 -0.1472 -0.3581
  921MPD2    H513540   4.448   0.670  16.837  1.2282  0.8293 -2.5424
  921MPD2    N113541   0.112   0.928  17.161  0.3993 -0.2439  0.4428
  921MPD2    H713542   0.134   1.020  17.199 -1.7272 -0.3458  1.9157
  922MPD2     C13543   0.228   3.579  17.083 -0.1295  0.0005 -0.2848
  922MPD2    C113544   0.161   3.572  17.203 -0.6041  0.1969  0.0042
  922MPD2    C213545   0.109   3.453  17.248 -0.4175 -0.6733  0.8941
  922MPD2    C313546   0.131   3.332  17.181 -0.4761  0.6584  0.3591
  922MPD2    C413547   0.188   3.338  17.059 -0.7937 -0.2975  0.5236
  922MPD2    C513548   0.239   3.459  17.010 -0.8087 -0.5425 -0.3848
  922MPD2     H13549   0.046   3.449  17.336  0.4590 -0.7954  1.5292
  922MPD2    H113550   0.207   3.250  16.999 -2.5679 -1.0433  1.0544
  922MPD2    H213551   0.259   3.674  17.041 -0.2801  0.3701  0.4446
  922MPD2    H313552   0.271   3.467  16.907  2.6414 -1.3504  0.6351
  922MPD2     N13553   0.087   3.213  17.241  0.4115  0.2728  0.1670
  922MPD2    H513554   0.047   3.233  17.332  1.5931  1.5177  0.4219
  922MPD2    N113555   0.135   3.688  17.274 -0.8008  0.1685 -0.5938
  922MPD2    H713556   0.087   3.662  17.360  0.3001 -1.2770 -0.3971
  923MPD2     C13557   1.657   4.094   9.350  0.1028 -0.3007  0.0939
  923MPD2    C113558   1.649   4.231   9.358  0.4659  0.5343 -0.8837
  923MPD2    C213559   1.755   4.300   9.422  0.0227 -0.4429 -0.4338
  923MPD2    C313560   1.859   4.239   9.490 -0.0448  0.0583 -0.0860
  923MPD2    C413561   1.856   4.100   9.489 -0.3533 -0.3866 -0.3990
  923MPD2    C513562   1.759   4.031   9.424 -0.2537  0.0458 -0.0822
  923MPD2     H13563   1.756   4.408   9.429 -2.0255 -0.5387  1.1745
  923MPD2    H113564   1.932   4.037   9.535  0.2906  0.3857 -0.3974
  923MPD2    H213565   1.576   4.039   9.305  0.7871 -0.1937 -1.2871
  923MPD2    H313566   1.777   3.925   9.414  2.0610  0.2376  2.1473
  923MPD2     N13567   1.961   4.307   9.566 -0.9590  0.2413  0.9680
  923MPD2    H513568   2.023   4.252   9.624 -0.2692  0.5867  0.5586
  923MPD2    N113569   1.537   4.300   9.294  0.5099  0.5587 -0.7993
  923MPD2    H713570   1.478   4.232   9.246  2.4269 -1.5193 -0.2187
  924MPD2     C13571   1.293   3.282  16.669  0.1297 -0.1406 -0.1504
  924MPD2    C113572   1.419   3.326  16.693 -0.7577  0.2500  0.3887
  924MPD2    C213573   1.504   3.317  16.578  0.0706  0.1049 -0.1012
  924MPD2    C313574   1.459   3.274  16.457 -0.2795 -0.5192  0.3622
  924MPD2    C413575   1.332   3.226  16.447 -0.0230  0.4084 -0.6507
  924MPD2    C513576   1.253   3.227  16.552 -0.6222  0.2424 -0.6530
  924MPD2     H13577   1.606   3.351  16.589  0.0370  0.2218 -0.1497
  924MPD2    H113578   1.300   3.165  16.363 -1.0461 -2.1903  1.6224
  924MPD2    H213579   1.218   3.278  16.746  0.4602 -2.5687  0.0426
  924MPD2    H313580   1.148   3.203  16.541  0.0642 -2.4846 -1.1159
  924MPD2     N13581   1.544   3.274  16.350  0.1714  0.3366 -0.8854
  924MPD2    H513582   1.639   3.304  16.367  0.0981  0.3468 -0.4976
  924MPD2    N113583   1.470   3.383  16.813 -0.3297 -0.4657  0.0394
  924MPD2    H713584   1.567   3.410  16.821 -0.7558  0.8717  0.8254
  925MPD2     C13585   0.397   1.466  14.845 -0.2615  0.8784  0.4141
  925MPD2    C113586   0.432   1.337  14.807  0.2203 -0.8451 -0.1295
  925MPD2    C213587   0.482   1.252  14.909  0.4358 -0.4700 -0.0151
  925MPD2    C313588   0.493   1.278  15.047 -0.4796 -0.6089 -0.0134
  925MPD2    C413589   0.450   1.411  15.078  0.2346 -0.6773  0.6289
  925MPD2    C513590   0.404   1.499  14.980  0.0281 -0.1448  0.5822
  925MPD2     H13591   0.514   1.157  14.867  1.6327 -0.2569  0.4366
  925MPD2    H113592   0.453   1.443  15.181  2.5807 -0.7077  0.5542
  925MPD2    H213593   0.369   1.545  14.776  0.7111  0.8089 -0.0616
  925MPD2    H313594   0.372   1.595  15.020  0.5026  0.1954  0.1499
  925MPD2     N13595   0.533   1.183  15.142 -0.7682  0.7800  0.2551
  925MPD2    H513596   0.536   1.217  15.238 -0.8797 -2.1261  1.2901
  925MPD2    N113597   0.418   1.284  14.672  0.1244  0.2391 -0.4692
  925MPD2    H713598   0.455   1.192  14.650  0.8542  0.3271  0.4161
  926MPD2     C13599   4.096   3.657  13.346  0.5791  0.2512 -0.9502
  926MPD2    C113600   4.109   3.775  13.415 -1.0313  0.0002  0.7687
  926MPD2    C213601   4.221   3.855  13.406 -0.5893 -0.7230 -0.5335
  926MPD2    C313602   4.320   3.824  13.307 -0.1260  0.0868 -0.1431
  926MPD2    C413603   4.296   3.711  13.233  0.5310 -0.2139 -0.7548
  926MPD2    C513604   4.193   3.623  13.257  0.3379 -0.7266  0.4160
  926MPD2     H13605   4.228   3.950  13.456 -0.3696  0.0628 -2.0598
  926MPD2    H113606   4.362   3.688  13.150  0.0602 -2.0858 -0.6089
  926MPD2    H213607   4.009   3.592  13.342  1.8409 -1.5551  1.8491
  926MPD2    H313608   4.181   3.540  13.189  0.2503 -0.3409 -0.0372
  926MPD2     N13609   4.433   3.902  13.272  0.3198 -0.0923  0.1226
  926MPD2    H513610   4.491   3.873  13.194  0.9517 -0.3354  0.6774
  926MPD2    N113611   3.999   3.822  13.490 -1.0063 -0.0735  0.5976
  926MPD2    H713612   4.012   3.909  13.539 -1.3568 -0.9203  2.2142
  927MPD2     C13613   3.523   1.641  17.384  0.0497  0.1678 -0.4963
  927MPD2    C113614   3.496   1.776  17.370 -0.0068  0.4747  0.0259
  927MPD2    C213615   3.530   1.842  17.253  0.1364 -0.1638  0.2936
  927MPD2    C313616   3.608   1.773  17.161 -0.0055  0.1805 -0.1857
  927MPD2    C413617   3.644   1.642  17.190  0.0596 -0.5411 -0.3010
  927MPD2    C513618   3.596   1.573  17.295 -0.3887 -0.2553 -0.0551
  927MPD2     H13619   3.518   1.949  17.236 -3.1649 -0.7590 -0.9980
  927MPD2    H113620   3.703   1.592  17.114 -0.3988 -0.6703 -0.5779
  927MPD2    H213621   3.486   1.586  17.470 -0.6870 -0.1812 -1.0409
  927MPD2    H313622   3.622   1.469  17.311  1.6677  0.2833  0.0284
  927MPD2     N13623   3.655   1.845  17.046  0.1859 -0.3871  0.1523
  927MPD2    H513624   3.629   1.943  17.039  0.0200 -0.5081 -0.9869
  927MPD2    N113625   3.443   1.844  17.486 -0.7346  0.2742  0.7837
  927MPD2    H713626   3.432   1.778  17.563 -0.1521 -2.8290 -1.7927
  928MPD2     C13627   1.642   0.081   0.952  0.1800  0.6471  0.1365
  928MPD2    C113628   1.662   0.214   0.921 -0.2267  0.5161 -0.0066
  928MPD2    C213629   1.597   0.275   0.808 -0.0211  0.1161 -0.2795
  928MPD2    C313630   1.514   0.194   0.726 -0.4376  0.2141  0.6577
  928MPD2    C413631   1.494   0.070   0.767 -0.0136  0.0759 -0.8174
  928MPD2    C513632   1.559   0.014   0.872 -1.2321  0.1751 -0.3734
  928MPD2     H13633   1.628   0.374   0.776 -3.9507  1.7875  1.1063
  928MPD2    H113634   1.436   0.004   0.704  0.6399 -1.3956  0.1453
  928MPD2    H213635   1.701   0.033   1.029 -3.7364 -1.0333  2.0877
  928MPD2    H313636   1.532   4.648   0.892  0.4488  0.0595  1.3550
  928MPD2     N13637   1.469   0.227   0.593  0.6881  0.4960  0.0501
  928MPD2    H513638   1.412   0.158   0.544  0.5416 -0.2731  1.2925
  928MPD2    N113639   1.755   0.284   1.000 -0.2703 -0.2007  0.1716
  928MPD2    H713640   1.825   0.234   1.053 -0.1074 -0.2608 -0.1028
  929MPD2     C13641   2.324   4.515  10.149 -0.1941  0.0438 -0.1223
  929MPD2    C113642   2.187   4.538  10.152 -0.8761  0.0428  0.3274
  929MPD2    C213643   2.135   4.651  10.087 -0.2734  0.0262 -0.4167
  929MPD2    C313644   2.225   0.014  10.046  0.3858  0.2644 -0.3064
  929MPD2    C413645   2.358   4.733  10.047  0.6947  0.1217 -0.4918
  929MPD2    C513646   2.404   4.609  10.094  0.0216  0.0180  0.8177
  929MPD2     H13647   2.032   4.680  10.104 -0.1874 -0.7303  1.3872
  929MPD2    H113648   2.425   0.077  10.020  0.8106  0.5174  0.9659
  929MPD2    H213649   2.358   4.428  10.205  1.9000  0.1642 -1.1919
  929MPD2    H313650   2.511   4.594  10.103  0.0518 -0.4439 -0.3441
  929MPD2     N13651   2.177   0.134   9.990  0.4054 -0.5809 -0.2316
  929MPD2    H513652   2.244   0.209   9.973 -0.4487 -0.4235 -3.0221
  929MPD2    N113653   2.116   4.450  10.232  0.1516 -0.0531 -0.1211
  929MPD2    H713654   2.169   4.382  10.285 -0.8103 -1.6546 -1.2126
  930MPD2     C13655   3.435   2.241  14.338 -0.5100 -0.4842  0.8616
  930MPD2    C113656   3.549   2.214  14.273 -0.5972 -0.4593 -0.2439
  930MPD2    C213657   3.569   2.097  14.209  0.3233  0.3596 -0.8037
  930MPD2    C313658   3.461   2.006  14.202 -0.8059 -0.2842 -0.3157
  930MPD2    C413659   3.337   2.031  14.262  0.0409  0.1162 -0.1698
  930MPD2    C513660   3.335   2.150  14.340  0.5278  0.4824  0.1764
  930MPD2     H13661   3.658   2.073  14.151  0.1144  2.0464 -1.8160
  930MPD2    H113662   3.253   1.963  14.266 -1.4475  2.0682  1.5839
  930MPD2    H213663   3.419   2.332  14.395  0.4800  1.3647 -1.8114
  930MPD2    H313664   3.239   2.172  14.386  0.4462  0.5866 -0.0464
  930MPD2     N13665   3.476   1.885  14.129  0.6242  0.4686  0.2740
  930MPD2    H513666   3.391   1.834  14.106  1.6818 -0.2771 -1.9589
  930MPD2    N113667   3.645   2.320  14.260  0.5475  0.1046  0.3586
  930MPD2    H713668   3.620   2.418  14.274 -0.7494  0.0521 -1.6340
  931MPD2     C13669   3.647   1.824   0.391 -0.1486  0.2506  0.1990
  931MPD2    C113670   3.521   1.789   0.355  0.6497 -0.7740  0.6559
  931MPD2    C213671   3.455   1.685   0.420 -0.0025 -0.7070 -0.0234
  931MPD2    C313672   3.528   1.599   0.500 -0.4715  0.2374  1.0470
  931MPD2    C413673   3.655   1.638   0.528  0.6141 -0.0636 -0.2410
  931MPD2    C513674   3.717   1.743   0.468 -0.7322  0.0016 -0.1515
  931MPD2     H13675   3.363   1.650   0.375 -0.6831 -1.1533  1.7005
  931MPD2    H113676   3.723   1.575   0.584 -0.7333  0.5416  2.0845
  931MPD2    H213677   3.701   1.903   0.341  1.5431  0.1389  1.8365
  931MPD2    H313678   3.817   1.778   0.492 -0.7129 -0.3509  0.2849
  931MPD2     N13679   3.483   1.483   0.568  0.1435  0.0195 -0.4103
  931MPD2    H513680   3.543   1.429   0.629 -0.6874  0.0309  0.4219
  931MPD2    N113681   3.463   1.865   0.249  0.0885  0.3884 -0.1805
  931MPD2    H713682   3.533   1.923   0.202  1.3686 -0.8426  0.2012
  932MPD2     C13683   0.387   0.715  11.120  0.0638 -0.3551 -0.8698
  932MPD2    C113684   0.523   0.748  11.146  0.1238 -0.5724  0.4257
  932MPD2    C213685   0.621   0.656  11.145 -0.5055 -0.4669 -0.6214
  932MPD2    C313686   0.592   0.530  11.108 -0.0296 -0.1969  0.0263
  932MPD2    C413687   0.465   0.500  11.055  0.2967  0.1082  0.0277
  932MPD2    C513688   0.361   0.589  11.067  0.4818 -0.1986  0.1674
  932MPD2     H13689   0.723   0.678  11.174 -1.4163  0.5343  1.8916
  932MPD2    H113690   0.435   0.398  11.032 -2.1419  0.3546  2.0792
  932MPD2    H213691   0.306   0.782  11.146  0.0790 -0.2534 -1.0840
  932MPD2    H313692   0.257   0.559  11.056 -0.1532  1.5607  1.3988
  932MPD2     N13693   0.689   0.422  11.120  0.3367 -0.1805 -0.1342
  932MPD2    H513694   0.648   0.336  11.083  0.0844  0.0060 -0.2896
  932MPD2    N113695   0.563   0.879  11.170  0.1879 -0.1629  0.3229
  932MPD2    H713696   0.656   0.908  11.144 -0.8506  0.5065 -2.5780
  933MPD2     C13697   2.150   1.083   1.311 -0.3105  0.4262 -0.3661
  933MPD2    C113698   2.031   1.015   1.279 -0.0197  0.1919  0.0165
  933MPD2    C213699   1.920   1.094   1.268 -0.0380 -0.1942  0.7935
  933MPD2    C313700   1.923   1.232   1.280 -0.3396  0.4236 -0.5197
  933MPD2    C413701   2.037   1.294   1.328  0.2742  0.0653  0.2220
  933MPD2    C513702   2.145   1.212   1.344  0.2949 -0.4244 -0.8046
  933MPD2     H13703   1.823   1.050   1.245  0.4559  0.0786 -1.7898
  933MPD2    H113704   2.047   1.399   1.355  0.7057 -0.1348  0.8302
  933MPD2    H213705   2.245   1.035   1.331 -0.5120 -0.5422 -1.7549
  933MPD2    H313706   2.239   1.258   1.372 -0.1862 -0.1936  0.4671
  933MPD2     N13707   1.808   1.304   1.247 -0.6208  0.1517 -0.0610
  933MPD2    H513708   1.726   1.248   1.226 -1.1409  1.0085 -0.3309
  933MPD2    N113709   2.034   0.873   1.251  0.0531  0.2495 -0.1150
  933MPD2    H713710   2.126   0.830   1.240  0.2612  1.1011 -1.7300
  934MPD2     C13711   2.718   3.454   1.521  0.0952  0.6801  0.4452
  934MPD2    C113712   2.786   3.404   1.409  0.0262  0.1814 -0.4754
  934MPD2    C213713   2.737   3.299   1.338 -0.6730  0.5638 -0.6750
  934MPD2    C313714   2.619   3.244   1.370 -0.2391  0.3477  0.6535
  934MPD2    C413715   2.542   3.292   1.475 -0.1714  0.2934 -0.2274
  934MPD2    C513716   2.601   3.393   1.552 -0.3940 -0.3384  0.2759
  934MPD2     H13717   2.788   3.269   1.248  0.6254  2.0737 -0.4338
  934MPD2    H113718   2.444   3.260   1.509  0.3739 -1.3044 -0.1571
  934MPD2    H213719   2.752   3.540   1.578  1.1888  1.3016 -1.1486
  934MPD2    H313720   2.544   3.435   1.634  3.0850  1.4748  1.7378
  934MPD2     N13721   2.554   3.140   1.299  0.2967 -0.2572 -1.0105
  934MPD2    H513722   2.465   3.106   1.334 -0.6619  3.3301 -0.0089
  934MPD2    N113723   2.913   3.453   1.371  0.5956 -0.0906 -0.2724
  934MPD2    H713724   2.965   3.406   1.297  0.8930  0.9931 -0.7596
  935MPD2     C13725   2.801   2.176   1.144 -0.3591 -0.5323  0.8447
  935MPD2    C113726   2.743   2.217   1.023 -0.6846  0.4075  0.1974
  935MPD2    C213727   2.712   2.350   1.017 -0.3225 -0.3752  0.3273
  935MPD2    C313728   2.727   2.439   1.123  0.5936 -0.5516  0.6945
  935MPD2    C413729   2.781   2.394   1.240 -0.5265 -0.4771 -0.2851
  935MPD2    C513730   2.816   2.262   1.247 -0.3548  0.1105  0.5713
  935MPD2     H13731   2.669   2.386   0.924 -0.6635  1.5888  1.2651
  935MPD2    H113732   2.795   2.449   1.333 -0.0764 -1.2026  0.0784
  935MPD2    H213733   2.828   2.072   1.161  1.0025 -0.4429 -0.7630
  935MPD2    H313734   2.869   2.219   1.332  0.4825  0.7238  0.3525
  935MPD2     N13735   2.662   2.565   1.123  0.1400 -0.2741 -0.0038
  935MPD2    H513736   2.658   2.611   1.214 -0.5253 -0.4983  0.0801
  935MPD2    N113737   2.712   2.135   0.908  0.3138  0.0980 -0.0793
  935MPD2    H713738   2.659   2.183   0.836  2.0880  1.1642 -0.6546
  936MPD2     C13739   1.390   3.769  12.234 -0.1740  0.5161 -0.0373
  936MPD2    C113740   1.348   3.861  12.333 -0.1796  0.3422  0.2257
  936MPD2    C213741   1.262   3.963  12.293 -0.3718 -0.0751 -0.3705
  936MPD2    C313742   1.236   3.986  12.160 -0.3815 -0.4969  0.3639
  936MPD2    C413743   1.285   3.901  12.053 -0.9635 -0.3186  0.1652
  936MPD2    C513744   1.354   3.792  12.101 -0.1814 -0.4159 -0.1088
  936MPD2     H13745   1.224   4.025  12.373 -2.9296 -0.8952 -0.9488
  936MPD2    H113746   1.255   3.906  11.949 -1.6730 -0.2502  0.3727
  936MPD2    H213747   1.460   3.689  12.258 -1.8592 -0.8973  0.1399
  936MPD2    H313748   1.382   3.715  12.030  2.3087  0.7834 -0.4486
  936MPD2     N13749   1.144   4.092  12.131 -0.7269 -0.6202 -0.2985
  936MPD2    H513750   1.098   4.130  12.214 -1.5457  1.3803 -1.6605
  936MPD2    N113751   1.392   3.860  12.467  0.3101 -0.0177 -0.0437
  936MPD2    H713752   1.372   3.949  12.513  1.4906 -0.7842  1.9416
  937MPD2     C13753   3.894   0.071  11.492 -0.0478  0.3283  0.2527
  937MPD2    C113754   3.947   0.196  11.462 -0.9270  0.2171  0.4157
  937MPD2    C213755   4.058   0.211  11.371  0.1565 -0.2808 -0.5353
  937MPD2    C313756   4.105   0.102  11.300  0.1880 -0.1918  0.5343
  937MPD2    C413757   4.046   4.724  11.322 -1.1738  0.3855 -0.4890
  937MPD2    C513758   3.945   4.705  11.415 -0.0503  0.0263  0.1605
  937MPD2     H13759   4.109   0.307  11.367 -1.8823  0.8576  0.9929
  937MPD2    H113760   4.088   4.637  11.273 -1.9264  0.3605 -1.0833
  937MPD2    H213761   3.822   0.046  11.568 -0.3388  1.1518  0.2473
  937MPD2    H313762   3.904   4.610  11.447 -0.4289  0.9151  2.2874
  937MPD2     N13763   4.216   0.119  11.212 -0.7248 -0.2009 -0.4653
  937MPD2    H513764   4.269   0.205  11.222  1.7684 -1.4652 -2.7137
  937MPD2    N113765   3.907   0.314  11.535  0.0365 -0.6680 -0.2897
  937MPD2    H713766   3.955   0.402  11.519 -2.1988  0.7865  0.8217
  938MPD2     C13767   1.080   2.977   0.545 -0.3963  0.0768 -0.3267
  938MPD2    C113768   1.207   2.932   0.572  0.2423  0.2903 -0.2811
  938MPD2    C213769   1.222   2.813   0.635 -0.5652 -0.8654 -0.4603
  938MPD2    C313770   1.103   2.748   0.684  0.3887 -0.2509  0.4319
  938MPD2    C413771   0.984   2.805   0.661 -0.1718  0.0357 -1.3533
  938MPD2    C513772   0.970   2.919   0.596  0.3774 -0.0393 -0.1855
  938MPD2     H13773   1.315   2.758   0.643 -0.6559 -0.9577 -0.0406
  938MPD2    H113774   0.896   2.751   0.696 -0.2177  0.6170 -0.5896
  938MPD2    H213775   1.060   3.059   0.478 -0.7147  1.4076  1.3858
  938MPD2    H313776   0.872   2.961   0.575 -1.1662 -3.7730 -0.4949
  938MPD2     N13777   1.095   2.617   0.747  0.4175 -0.3876  0.3246
  938MPD2    H513778   1.004   2.573   0.751  1.5634 -2.6472  1.7226
  938MPD2    N113779   1.313   3.006   0.516  0.3201 -0.1872 -0.0504
  938MPD2    H713780   1.294   3.078   0.447  1.1482  0.7498  0.6809
  939MPD2     C13781   2.152   3.611   0.722 -0.3240 -0.0683  0.0340
  939MPD2    C113782   2.273   3.667   0.756 -0.6375 -0.6484  0.5017
  939MPD2    C213783   2.384   3.621   0.693 -0.0012 -0.3275  0.6304
  939MPD2    C313784   2.373   3.517   0.597 -0.6199  0.5436 -0.3621
  939MPD2    C413785   2.247   3.470   0.566  0.1734  1.0871  0.1919
  939MPD2    C513786   2.138   3.515   0.630  0.1046  0.4775 -0.5779
  939MPD2     H13787   2.483   3.665   0.698 -0.4765  1.2481 -3.5009
  939MPD2    H113788   2.239   3.394   0.489 -0.6498 -0.1634  1.4906
  939MPD2    H213789   2.065   3.646   0.776 -0.8879  0.7856 -1.4332
  939MPD2    H313790   2.042   3.478   0.597  0.3779 -0.3863 -0.4152
  939MPD2     N13791   2.483   3.468   0.529  0.0826 -0.0085 -0.3646
  939MPD2    H513792   2.569   3.518   0.549  0.7299 -1.0414 -0.5473
  939MPD2    N113793   2.267   3.770   0.856 -0.4015  0.0096 -0.0984
  939MPD2    H713794   2.176   3.806   0.881 -0.4172  0.0113 -0.1601
  940MPD2     C13795   1.766   4.184  12.784 -0.1742  0.8428  0.0550
  940MPD2    C113796   1.759   4.082  12.877 -0.0544 -0.8108 -0.7070
  940MPD2    C213797   1.794   3.958  12.847  0.2547  0.2857  0.1669
  940MPD2    C313798   1.834   3.927  12.715 -0.8342 -0.7361 -0.3514
  940MPD2    C413799   1.846   4.028  12.625 -0.5774  0.0039 -0.4624
  940MPD2    C513800   1.810   4.160  12.658  0.2437 -0.0531 -0.7341
  940MPD2     H13801   1.772   3.876  12.916  1.2894 -0.4797 -0.4108
  940MPD2    H113802   1.877   4.010  12.523  1.0138  2.4480 -0.3995
  940MPD2    H213803   1.742   4.285  12.812 -0.2085  1.3412 -1.7808
  940MPD2    H313804   1.812   4.243  12.589 -1.4997 -0.0751 -0.8140
  940MPD2     N13805   1.862   3.794  12.674 -0.4951 -0.1136  0.1213
  940MPD2    H513806   1.898   3.789  12.580 -0.5070 -2.3593  0.2450
  940MPD2    N113807   1.707   4.102  13.004 -0.1745  0.0019  1.0014
  940MPD2    H713808   1.714   4.025  13.071  0.0176 -1.2311 -0.4346
  941MPD2     C13809   0.817   3.108  10.114 -0.4164  0.3005 -0.1489
  941MPD2    C113810   0.885   3.091  10.234 -0.9134 -0.6489 -0.5536
  941MPD2    C213811   0.807   3.050  10.341 -0.8700 -0.0026 -0.3909
  941MPD2    C313812   0.666   3.022  10.329 -0.5095 -0.4770  0.3195
  941MPD2    C413813   0.607   3.054  10.211  0.1166 -0.0808 -0.2579
  941MPD2    C513814   0.678   3.103  10.107  0.2605 -0.9093 -0.2248
  941MPD2     H13815   0.858   3.028  10.434  0.2258 -0.3528 -1.0804
  941MPD2    H113816   0.504   3.031  10.187  0.3158 -0.9039 -0.3411
  941MPD2    H213817   0.861   3.142  10.021  1.1672  2.1282  1.2489
  941MPD2    H313818   0.634   3.128  10.012 -1.2511 -0.9546  0.4614
  941MPD2     N13819   0.592   2.969  10.435 -0.5300  0.3118 -0.2313
  941MPD2    H513820   0.496   2.948  10.412  0.0584 -1.7819 -0.7876
  941MPD2    N113821   1.025   3.114  10.251  0.8313  0.8321  0.1085
  941MPD2    H713822   1.072   3.102  10.340 -0.1100  3.1934  0.9213
  942MPD2     C13823   1.104   4.597   9.469  0.6145 -0.0147  0.4562
  942MPD2    C113824   1.047   4.490   9.414  0.3141  0.0438 -0.0300
  942MPD2    C213825   1.108   4.371   9.434  0.4233  0.1322 -0.0722
  942MPD2    C313826   1.226   4.359   9.509  0.0619 -0.2911  0.6305
  942MPD2    C413827   1.286   4.475   9.559  0.0378 -0.2920 -0.7346
  942MPD2    C513828   1.220   4.591   9.545 -0.2479 -0.4211  0.0833
  942MPD2     H13829   1.062   4.280   9.396 -0.6622  0.0885  1.3357
  942MPD2    H113830   1.370   4.468   9.626  0.0523  2.1297 -0.4819
  942MPD2    H213831   1.060   4.696   9.460 -0.4477 -0.3625  1.7797
  942MPD2    H313832   1.242   4.689   9.586  0.2239 -0.3016 -0.4652
  942MPD2     N13833   1.292   4.237   9.543 -0.0631  0.3127 -0.3175
  942MPD2    H513834   1.377   4.257   9.595  0.8954 -2.3404 -0.8835
  942MPD2    N113835   0.929   4.506   9.341 -0.0692  0.0320  0.2780
  942MPD2    H713836   0.902   4.603   9.330  1.4752  0.5568  1.0234
  943MPD2     C13837   4.518   3.137   9.291 -0.3645  0.2067  0.1935
  943MPD2    C113838   4.570   3.009   9.289 -0.2298 -0.0953  0.2748
  943MPD2    C213839   4.692   2.987   9.348  0.2701 -0.7616  0.2131
  943MPD2    C313840   0.023   3.091   9.410 -0.1374 -0.2963  0.5732
  943MPD2    C413841   4.706   3.217   9.410  0.1007  0.5146 -0.0224
  943MPD2    C513842   4.586   3.238   9.351  0.8482 -0.0377  0.7295
  943MPD2     H13843   0.004   2.891   9.338  2.1967  0.2961 -0.3516
  943MPD2    H113844   0.020   3.303   9.453 -0.2524 -0.4063  2.2546
  943MPD2    H213845   4.415   3.158   9.264 -0.5805 -1.9347 -0.6303
  943MPD2    H313846   4.544   3.337   9.337 -0.6105 -0.7336  0.2152
  943MPD2     N13847   0.142   3.080   9.486  0.5018  0.2201 -0.1703
  943MPD2    H513848   0.167   3.164   9.537  0.0460  0.6269 -0.6191
  943MPD2    N113849   4.502   2.905   9.216  0.0612 -0.0388 -0.2547
  943MPD2    H713850   4.414   2.938   9.178 -0.2955 -0.4045  0.2413
  944MPD2     C13851   0.036   1.892  11.013 -0.3057 -0.1462 -0.6175
  944MPD2    C113852   4.694   1.805  11.082 -0.1332 -0.6261  0.4260
  944MPD2    C213853   4.699   1.803  11.218 -0.5387 -0.6202 -0.4232
  944MPD2    C313854   0.043   1.894  11.286  0.1827 -0.1754 -0.4241
  944MPD2    C413855   0.113   1.988  11.214  0.3965 -0.6531  0.1191
  944MPD2    C513856   0.111   1.988  11.074  0.9170  0.5720 -0.5477
  944MPD2     H13857   4.641   1.730  11.274 -3.3727  2.1343  0.2607
  944MPD2    H113858   0.179   2.055  11.268 -1.3970  0.7167  0.5874
  944MPD2    H213859   0.043   1.902  10.906  0.1831 -0.5547 -0.6204
  944MPD2    H313860   0.178   2.056  11.023  1.2720  0.9740  0.4619
  944MPD2     N13861   0.041   1.913  11.427 -0.0691 -0.1756 -0.2079
  944MPD2    H513862   0.087   1.997  11.463  1.6562 -1.2676  0.0961
  944MPD2    N113863   4.612   1.717  11.013  0.9327 -0.7167 -0.1850
  944MPD2    H713864   4.625   1.707  10.912  0.2497  1.1066 -0.4506
    1TMC1    C113865   3.110   2.765  14.642 -0.5962 -0.4501 -0.0723
    1TMC1    C213866   3.014   2.689  14.572 -0.0010  0.1605 -0.3478
    1TMC1    C313867   3.045   2.563  14.534  0.3145  0.1319 -0.1244
    1TMC1    C413868   3.227   2.707  14.679 -0.2494  0.3562  0.1503
    1TMC1    C513869   3.253   2.577  14.638 -0.2615 -1.1783  0.2691
    1TMC1    C613870   3.163   2.499  14.572  0.7806  0.7471  1.0048
    1TMC1     C13871   3.088   2.893  14.714  0.3140 -0.2952 -0.2919
    1TMC1     O13872   3.186   2.948  14.770  0.1445  0.5196 -0.4394
    1TMC1     H13873   2.915   2.729  14.557 -0.2079 -0.4501 -0.5970
    1TMC1    H113874   3.301   2.768  14.730  0.1188 -1.3759  1.6723
    1TMC1    H213875   3.183   2.395  14.552 -2.0299  0.1811  1.0234
    1TMC1    C713876   3.381   2.531  14.680 -0.2180 -0.0074 -0.1453
    1TMC1    C813877   2.951   2.479  14.461 -0.1836 -0.0431  0.0528
    1TMC1    O113878   3.457   2.599  14.747 -0.1993  0.1043 -0.0738
    1TMC1    O213879   2.962   2.358  14.478 -0.5422  0.4635  0.2073
    1TMC1    O313880   3.393   2.407  14.634  0.4342 -0.6652 -0.8127
    1TMC1    H313881   3.461   2.345  14.667  0.7378  1.3313  2.3201
    1TMC1    O513882   2.841   2.543  14.417  0.5001 -0.9886  0.5607
    1TMC1    H513883   2.860   2.637  14.396  1.4495 -0.5631  3.3971
    2MPD2     C13884   2.852   3.366  14.719  0.5272  0.5405 -0.3342
    2MPD2    C113885   2.811   3.290  14.614 -0.5230  0.2885 -0.0679
    2MPD2    C213886   2.844   3.149  14.600  0.3543  0.1484 -0.0117
    2MPD2    C313887   2.936   3.091  14.679 -0.1120  0.0595 -0.7025
    2MPD2    C413888   2.989   3.178  14.784  0.0747 -0.2417  0.8335
    2MPD2    C513889   2.942   3.312  14.804 -0.3028 -0.4027  0.3359
    2MPD2     H13890   2.812   3.086  14.518 -0.1881  3.1030 -2.0489
    2MPD2    H113891   3.061   3.148  14.859  0.7507 -1.0785 -0.1484
    2MPD2    H213892   2.811   3.466  14.732 -1.5059 -0.5360  1.6336
    2MPD2    H313893   2.968   3.369  14.893  0.0124  0.1801 -0.1296
    2MPD2     N13894   2.982   2.961  14.654  0.2399 -0.4161  0.9600
    2MPD2    H513895   2.909   2.914  14.601 -0.0164  0.0524  0.8958
    2MPD2    N113896   2.720   3.361  14.528  0.1145 -0.0481  0.2132
    2MPD2    H713897   2.700   3.458  14.546 -1.6334 -0.3734 -0.0320
    3TMC2    C113898   2.634   3.394  14.315 -0.7218  0.1453 -0.0136
    3TMC2    C213899   2.543   3.351  14.222  0.2740  0.1853  0.3183
    3TMC2    C313900   2.531   3.430  14.112  0.2365  0.1440 -0.4379
    3TMC2    C413901   2.701   3.511  14.302 -0.0148 -0.2336  0.1089
    3TMC2    C513902   2.683   3.587  14.192  0.2251 -0.5579 -0.3320
    3TMC2    C613903   2.601   3.546  14.091  0.1398 -0.4105 -0.3791
    3TMC2     C13904   2.649   3.301  14.426 -0.0889 -0.7826  0.6698
    3TMC2     O13905   2.597   3.189  14.425  0.0763 -0.2373  0.2754
    3TMC2     H13906   2.483   3.265  14.252  0.1586  0.4318  0.7947
    3TMC2    H113907   2.776   3.541  14.374  1.5481 -0.3471 -1.5003
    3TMC2    H213908   2.569   3.602  14.004  2.5199  1.7983  0.1750
    3TMC2    C713909   2.775   3.695  14.156 -0.2496  0.0640  0.4901
    3TMC2    C813910   2.466   3.365  14.001  0.3692  1.0270  0.1087
    3TMC2    O113911   2.855   3.739  14.237  0.0170  0.0838 -0.3692
    3TMC2    O213912   2.515   3.375  13.890 -0.1700  0.1638  0.3436
    3TMC2    O513913   2.378   3.272  14.049 -0.4510 -0.3033 -0.1570
    3TMC2    H513914   2.346   3.291  14.140  0.5311 -0.3125  0.1866
    4TMC2    C113915   2.448   4.198  13.439  0.0172 -0.2584 -0.4355
    4TMC2    C213916   2.422   4.143  13.317 -0.2391 -0.6157 -0.5972
    4TMC2    C313917   2.494   4.035  13.275 -0.2318 -0.3442  0.2112
    4TMC2    C413918   2.550   4.145  13.513  0.7382 -0.0794 -0.0743
    4TMC2    C513919   2.627   4.042  13.465  0.7811 -0.1482 -0.1244
    4TMC2    C613920   2.589   3.977  13.350 -0.1004 -0.5236 -0.0476
    4TMC2     C13921   2.336   4.244  13.517  0.2909  0.6132  0.1955
    4TMC2     O13922   2.347   4.212  13.634  0.2555  0.2137 -0.3957
    4TMC2     H13923   2.335   4.171  13.257  0.9860  0.5940 -1.8226
    4TMC2    H113924   2.565   4.177  13.616  0.4727  2.5216 -0.8524
    4TMC2    H213925   2.660   3.900  13.321  1.1428  0.7530 -0.4203
    4TMC2    C713926   2.701   3.961  13.559 -0.7115 -0.0843 -0.3011
    4TMC2    C813927   2.494   3.992  13.136  0.0791  0.7977  0.1998
    4TMC2    O113928   2.694   3.841  13.547 -0.1009 -0.2757 -0.6248
    4TMC2    O213929   2.585   3.927  13.089  0.7581  0.2998  0.1738
    4TMC2    O513930   2.360   3.971  13.111 -0.1800 -0.4895 -0.1371
    4TMC2    H513931   2.308   3.995  13.191 -2.3393 -3.2226 -0.7336
    5MPD2     C13932   1.881   4.447  13.610 -0.2068 -0.2605 -0.8241
    5MPD2    C113933   1.908   4.470  13.473  0.0954 -0.0613  0.2611
    5MPD2    C213934   2.031   4.428  13.424  0.2237 -0.0048 -0.4436
    5MPD2    C313935   2.123   4.360  13.508  0.3663 -0.1998 -0.0026
    5MPD2    C413936   2.083   4.335  13.641 -0.0984  0.4280  0.8178
    5MPD2    C513937   1.961   4.371  13.689  0.1698 -0.3773 -0.4546
    5MPD2     H13938   2.063   4.433  13.321 -0.6924 -1.4152 -0.8005
    5MPD2    H113939   2.146   4.271  13.702 -0.3791  0.5198  1.2048
    5MPD2    H213940   1.793   4.485  13.660  1.4790  1.6556  0.6691
    5MPD2    H313941   1.933   4.333  13.787 -1.4999  2.7667  0.3067
    5MPD2     N13942   2.243   4.314  13.448 -0.5359 -0.1067 -0.1499
    5MPD2    H513943   2.268   4.344  13.354 -0.1169  1.6853  0.5255
    5MPD2    N113944   1.819   4.544  13.390 -0.1820  0.2298 -0.0012
    5MPD2    H713945   1.752   4.596  13.445 -0.5243  0.2545 -0.4480
    6MPD1     C13946   1.479   1.600  13.063 -0.0084 -0.2514  0.0607
    6MPD1    C113947   1.410   1.560  12.951  0.2879  0.3683  0.2129
    6MPD1    C213948   1.393   1.427  12.926  0.1008  0.1981  0.0221
    6MPD1    C313949   1.441   1.334  13.015  0.1742  0.1613  0.2079
    6MPD1    C413950   1.517   1.370  13.125  0.5083 -0.1314 -0.6965
    6MPD1    C513951   1.535   1.506  13.149 -0.3972  0.8856 -0.1273
    6MPD1     H13952   1.332   1.395  12.842  1.5616 -2.2173 -0.1407
    6MPD1    H113953   1.559   1.297  13.193  2.4392  2.1145  0.5617
    6MPD1    H213954   1.504   1.705  13.077 -0.1792 -0.4615  2.0283
    6MPD1    H313955   1.595   1.534  13.235  1.8296  0.3436 -1.4771
    6MPD1     N13956   1.418   1.195  13.006  0.0316 -0.3682  0.1903
    6MPD1    H513957   1.464   1.148  13.083 -0.4307  0.0547  0.7296
    6MPD1    N113958   1.352   1.660  12.870  0.3608 -0.0079  0.5002
    6MPD1    H613959   1.400   1.749  12.881  0.2655  0.0340  0.5805
    6MPD1    H713960   1.346   1.638  12.771  2.8296  4.1939 -0.5942
    7MPD2     C13961   1.508   0.601  13.445  0.7487  0.8269 -0.3001
    7MPD2    C113962   1.473   0.558  13.317  0.2234  0.3590  0.0630
    7MPD2    C213963   1.458   0.417  13.297  0.2125 -0.0487  1.1773
    7MPD2    C313964   1.498   0.326  13.401  0.5401 -0.0537  0.5753
    7MPD2    C413965   1.527   0.375  13.525  0.4501 -0.7350 -0.1734
    7MPD2    C513966   1.530   0.514  13.547 -0.4283 -0.4255  0.2854
    7MPD2     H13967   1.428   0.387  13.197  0.3668 -1.2571  1.4911
    7MPD2    H113968   1.540   0.312  13.613  0.4075  2.8519  2.4168
    7MPD2    H213969   1.509   0.706  13.472  0.7351 -0.0422  3.1810
    7MPD2    H313970   1.554   0.556  13.643 -0.8959 -2.0793  1.1320
    7MPD2     N13971   1.512   0.184  13.381 -0.5170 -0.3166 -0.1894
    7MPD2    H513972   1.548   0.125  13.455  1.1692 -0.7731 -1.3473
    7MPD2    N113973   1.442   0.638  13.207  0.3823  0.1930 -0.3725
    7MPD2    H713974   1.408   0.587  13.126 -2.0440  1.0021  0.1574
    8TMC3    C113975   1.512   4.730  13.243 -0.5146 -0.0185  0.3248
    8TMC3    C213976   1.645   4.709  13.283  0.1059  0.1756 -0.0363
    8TMC3    C313977   1.724   4.630  13.200 -0.1341 -0.0539 -0.1285
    8TMC3    C413978   1.470   4.692  13.118  0.2946 -0.3699 -0.0153
    8TMC3    C513979   1.560   4.641  13.033 -0.0762  0.0228  0.7536
    8TMC3    C613980   1.680   4.594  13.073  0.0661 -0.7637 -0.0942
    8TMC3     C13981   1.475   0.128  13.265 -0.3068  0.0603  0.9983
    8TMC3     O13982   1.409   0.180  13.179  0.8939  0.4748 -0.2131
    8TMC3     H13983   1.682   0.011  13.377 -2.0212  0.7145  0.5776
    8TMC3    H113984   1.371   4.716  13.081 -0.2450 -2.1114  0.3370
    8TMC3    H213985   1.742   4.543  13.000 -1.8765 -2.7022 -0.3723
    8TMC3    C713986   1.566   4.709  12.906 -0.3801  0.5096 -0.8119
    8TMC3    C813987   1.828   4.550  13.251 -0.3032  0.4762  0.6575
    8TMC3    O113988   1.632   4.657  12.817  0.0209 -0.1160 -0.3781
    8TMC3    O213989   1.883   4.476  13.174  0.1727 -0.3821  0.2347
    9TMC3    C113990   1.366   0.985  12.926 -0.6530  0.3074  0.1563
    9TMC3    C213991   1.379   0.904  12.818 -0.0738  0.1542  0.7041
    9TMC3    C313992   1.430   0.778  12.839  0.0787  1.1238 -0.0246
    9TMC3    C413993   1.394   0.940  13.053  0.9586  0.0950  0.4381
    9TMC3    C513994   1.439   0.820  13.068 -0.2413  0.1614  0.1380
    9TMC3    C613995   1.461   0.732  12.964  0.0375 -0.5686  0.0016
    9TMC3     C13996   1.345   1.127  12.912 -1.1846 -0.4932 -0.3055
    9TMC3     O13997   1.307   1.162  12.804 -0.2206  0.0437 -0.2979
    9TMC3     H13998   1.347   0.936  12.719 -0.0741 -0.7356  0.4114
    9TMC3    H113999   1.348   0.992  13.137  1.9069 -0.0545  1.0531
    9TMC3    H214000   1.524   0.646  12.983  1.5717  0.7609  1.0147
    9TMC3    C714001   1.445   0.771  13.204  0.2397  0.3301  0.8287
    9TMC3    C814002   1.413   0.672  12.744 -0.9161  0.0124  0.6794
    9TMC3    O114003   1.455   0.851  13.294  0.9170 -0.0886  0.2850
    9TMC3    O214004   1.419   0.703  12.625  0.3252 -0.5996  0.0362
   10MPD2     C14005   1.549   0.170  12.682  0.0646  0.2337 -0.4686
   10MPD2    C114006   1.494   0.190  12.808  0.0675 -0.0821 -0.4823
   10MPD2    C214007   1.445   0.315  12.836  0.3540  0.6714 -0.1394
   10MPD2    C314008   1.437   0.421  12.745  0.7595 -0.0612  0.4133
   10MPD2    C414009   1.483   0.395  12.616 -0.0073 -0.7088  0.5168
   10MPD2    C514010   1.540   0.275  12.591 -0.2266 -0.2333 -0.2868
   10MPD2     H14011   1.407   0.339  12.935  0.7715 -2.7316  0.8213
   10MPD2    H114012   1.489   0.475  12.543 -1.7965  0.4648  1.6708
   10MPD2    H214013   1.579   0.074  12.642 -0.4143 -0.7201  1.4906
   10MPD2    H314014   1.592   0.254  12.499  0.0978  0.2112 -0.2040
   10MPD2     N14015   1.410   0.550  12.802 -0.3323 -0.4853  0.4194
   10MPD2    H514016   1.393   0.551  12.902 -0.2619 -0.9920  0.4327
   10MPD2    N114017   1.504   0.096  12.916 -0.0017  0.2030 -0.7513
   10MPD2    H714018   1.460   0.121  13.004  0.1433 -0.6258 -0.4456
   11MPD2     C14019   2.905   3.935  14.032 -0.0495 -0.0316 -0.4174
   11MPD2    C114020   2.810   3.855  13.965  0.1125 -0.5543  0.2625
   11MPD2    C214021   2.772   3.877  13.834  0.7160 -0.0303 -0.9946
   11MPD2    C314022   2.819   3.992  13.766 -0.9452  0.1455  0.2846
   11MPD2    C414023   2.918   4.065  13.827  0.1667 -0.1526  0.7072
   11MPD2    C514024   2.965   4.030  13.955 -0.2949 -0.1675  0.6613
   11MPD2     H14025   2.698   3.811  13.790  0.5830 -0.5819  0.0686
   11MPD2    H114026   2.972   4.147  13.781  0.9747 -1.1579 -0.1222
   11MPD2    H214027   2.936   3.917  14.134 -1.2501  1.1879  0.1655
   11MPD2    H314028   3.053   4.087  13.983  0.6405 -0.7532 -1.0536
   11MPD2     N14029   2.766   4.040  13.645 -0.3028 -0.4060  0.0917
   11MPD2    H514030   2.791   4.132  13.611 -0.4745 -1.2936 -2.3779
   11MPD2    N114031   2.758   3.740  14.024 -0.4709  0.1241 -0.0307
   11MPD2    H714032   2.681   3.691  13.981 -1.3919 -1.2339  3.2147
    1MPD1     C14033   1.598   1.158  16.354 -0.5278  0.0634  0.5063
    1MPD1    C114034   1.485   1.184  16.281  0.2126 -0.8489 -0.0345
    1MPD1    C214035   1.386   1.261  16.346 -0.7545  0.2630  0.3324
    1MPD1    C314036   1.399   1.306  16.480  0.3048 -0.4509  0.7626
    1MPD1    C414037   1.510   1.278  16.549 -0.0989 -0.2705  0.4501
    1MPD1    C514038   1.609   1.210  16.485 -0.2618  0.4187 -0.1097
    1MPD1     H14039   1.298   1.284  16.287 -0.0499  0.6401 -0.5652
    1MPD1    H114040   1.534   1.305  16.651 -0.1210  1.0438  0.1113
    1MPD1    H214041   1.689   1.123  16.306 -0.5507  0.1734  0.3848
    1MPD1    H314042   1.700   1.192  16.542 -1.6080 -2.1699  1.2317
    1MPD1     N14043   1.300   1.393  16.541  0.0443  0.7803 -0.1791
    1MPD1    H514044   1.317   1.418  16.638 -0.1486 -0.0114  0.0562
    1MPD1    N114045   1.480   1.148  16.149 -0.1097  0.0133 -0.3947
    1MPD1    H614046   1.541   1.068  16.129 -1.7490 -1.5179  0.7737
    1MPD1    H714047   1.384   1.125  16.123 -1.4693  1.2925  3.5343
    2MPD1     C14048   0.820   1.351  17.387 -0.0927 -0.2303 -0.0651
    2MPD1    C114049   0.729   1.326  17.284 -0.2156  0.0977  0.4962
    2MPD1    C214050   0.752   1.377  17.156 -0.0055  0.8740  0.4696
    2MPD1    C314051   0.871   1.441  17.125 -0.1390  0.5472  0.0403
    2MPD1    C414052   0.962   1.467  17.226 -0.2115 -0.5323  0.0995
    2MPD1    C514053   0.940   1.412  17.350  0.2473  0.5515 -0.4033
    2MPD1     H14054   0.685   1.351  17.074 -0.6868  3.5618  0.1493
    2MPD1    H114055   1.060   1.509  17.210  0.0474 -0.1649  2.6029
    2MPD1    H214056   0.820   1.308  17.487 -1.7142  0.0410  0.0590
    2MPD1    H314057   1.016   1.414  17.427 -0.1202 -0.1192 -0.0170
    2MPD1     N14058   0.899   1.488  16.990  0.0541  0.7859 -0.0417
    2MPD1    H514059   0.825   1.491  16.921  1.7829  0.9246 -1.8687
    2MPD1    N114060   0.623   1.231  17.305 -0.8391 -0.0283  0.0707
    2MPD1    H614061   0.586   1.233  17.400  1.3870 -2.1535  0.9523
    2MPD1    H714062   0.537   1.262  17.260 -2.3653 -1.2400  2.1646
    3TMC3    C114063   1.013   1.553  16.792 -0.5490  0.0514  0.2728
    3TMC3    C214064   0.898   1.596  16.739  0.5226  0.0154 -0.5279
    3TMC3    C314065   0.885   1.599  16.599 -0.2524 -0.5400  0.1258
    3TMC3    C414066   1.113   1.515  16.707 -0.1496  0.6995 -0.0292
    3TMC3    C514067   1.096   1.515  16.569  0.3415  0.1813  0.7834
    3TMC3    C614068   0.984   1.561  16.512  0.5058 -0.2700 -0.1707
    3TMC3     C14069   1.025   1.513  16.936  0.9702 -0.2448  0.5457
    3TMC3     O14070   1.135   1.493  16.984  0.7669 -0.0579  0.3062
    3TMC3     H14071   0.819   1.630  16.805 -0.9084 -1.1821 -1.6082
    3TMC3    H114072   1.204   1.485  16.757  0.1778  1.4842 -0.1556
    3TMC3    H214073   0.966   1.556  16.405 -0.8620  0.4856  0.0266
    3TMC3    C714074   1.190   1.452  16.476  0.4843 -0.2526 -0.3832
    3TMC3    C814075   0.757   1.612  16.539  0.3489  0.4663  0.0076
    3TMC3    O114076   1.154   1.444  16.359  0.4416 -1.0812  0.0122
    3TMC3    O214077   0.724   1.529  16.455 -0.2451 -0.6187  0.4504
    4MPD1     C14078   0.251   1.671  16.529  0.1130 -0.7598 -0.0585
    4MPD1    C114079   0.294   1.711  16.647 -0.1407  0.9823  0.3085
    4MPD1    C214080   0.428   1.710  16.672 -0.6551  0.1337  0.1728
    4MPD1    C314081   0.519   1.677  16.572  0.4324  0.2902 -0.1229
    4MPD1    C414082   0.470   1.653  16.444 -0.1117 -0.0451 -0.1703
    4MPD1    C514083   0.335   1.657  16.425  0.2201  0.5799  0.5733
    4MPD1     H14084   0.454   1.738  16.773 -0.4275  0.7055 -0.0473
    4MPD1    H114085   0.532   1.636  16.356 -0.7469  0.6047 -0.7433
    4MPD1    H214086   0.145   1.667  16.507  0.3101  0.8862 -1.3467
    4MPD1    H314087   0.289   1.632  16.330  2.0917  0.7896 -0.3877
    4MPD1     N14088   0.661   1.683  16.606  0.5188 -0.4674  0.2494
    4MPD1    H514089   0.685   1.732  16.692  3.1703  0.0480 -0.7946
    4MPD1    N114090   0.200   1.734  16.745  0.1745 -0.0339  0.1998
    4MPD1    H614091   0.125   1.795  16.712 -0.0364 -0.0578  0.6307
    4MPD1    H714092   0.240   1.756  16.836 -2.2607 -0.7502  1.4464
    1TCq1    O114093   1.389   0.056  11.696 -0.3041  0.1089 -0.4111
    1TCq1    C114094   1.482   0.068  11.600  0.4310  0.3945 -0.2779
    1TCq1    O214095   1.570   0.156  11.600 -0.9465  0.3439  0.8711
    1TCq1    C214096   1.407   0.041  11.475  0.4342  0.1072  0.1183
    1TCq1    C314097   1.318   4.668  11.475 -0.1599 -0.0861  0.4860
    1TCq1    C414098   1.232   4.665  11.368 -0.1612 -0.2338 -0.4548
    1TCq1    C514099   1.240   0.019  11.272 -0.3139  0.5703 -0.6215
    1TCq1    C614100   1.324   0.122  11.278 -0.2504 -0.3141 -0.1596
    1TCq1    C714101   1.401   0.139  11.385 -0.3227  0.2382 -0.0265
    1TCq1    C814102   1.357   0.188  11.150  0.2418 -0.3680  0.0705
    1TCq1    O414103   1.277   0.188  11.054 -0.5467  0.7855  0.0076
    1TCq1    C914104   1.181   4.540  11.337  0.1997  0.2803  0.3496
    1TCq1    O514105   1.108   4.543  11.236 -1.0385  0.3444 -0.2924
    1TCq1    O614106   1.239   4.438  11.387  0.4082 -0.2481 -0.1842
    1TCq1    H114107   1.312   4.737  11.674 -1.7439  2.3321 -1.0564
    1TCq1    H214108   1.349   4.584  11.536 -1.6912 -0.8936  0.1302
    1TCq1    H314109   1.197   0.002  11.173  1.7530  0.0089 -1.4249
    1TCq1    H414110   1.460   0.229  11.401  1.6797 -1.0998  0.1518
    2MPD1     C14111   1.695   0.431  10.847  0.4211  0.1670  1.2138
    2MPD1    C114112   1.768   0.382  10.952  0.8175  0.0185 -0.3175
    2MPD1    C214113   1.699   0.301  11.040 -0.1774  0.2653 -0.0940
    2MPD1    C314114   1.559   0.289  11.045 -0.4314  0.7225  0.1357
    2MPD1    C414115   1.494   0.364  10.951 -0.9464 -0.0891  0.1941
    2MPD1    C514116   1.560   0.425  10.844  0.0770  0.6772  1.1249
    2MPD1     H14117   1.745   0.240  11.117  0.8178 -0.0635 -0.9533
    2MPD1    H114118   1.386   0.373  10.949 -0.8881  0.9487  1.5757
    2MPD1    H214119   1.752   0.480  10.769 -0.7717 -0.2817  0.0762
    2MPD1    H314120   1.506   0.483  10.770  1.2056  0.0317 -0.2106
    2MPD1     N14121   1.493   0.216  11.147 -0.4087  0.3546 -0.2573
    2MPD1    H514122   1.550   0.183  11.225  2.1448  0.5229 -2.0777
    2MPD1    N114123   1.909   0.381  10.939  0.7891 -0.1192 -0.1205
    2MPD1    H614124   1.967   0.385  11.023 -0.2193 -1.6947  0.6673
    2MPD1    H714125   1.940   0.459  10.882 -1.6964  0.2254 -0.9918
    1TMC1    C114126   4.181   4.315   1.290  0.3001 -0.0298 -0.3952
    1TMC1    C214127   4.061   4.291   1.349 -0.1934  0.0292  0.6176
    1TMC1    C314128   3.988   4.399   1.392 -0.7244  0.7636 -0.8903
    1TMC1    C414129   4.228   4.445   1.290  0.2519  0.3138  0.2056
    1TMC1    C514130   4.156   4.550   1.337  0.5866  0.0912  0.6074
    1TMC1    C614131   4.032   4.530   1.395 -0.0156  0.8984 -0.2612
    1TMC1     C14132   4.273   4.205   1.276 -0.1336 -0.5887  0.6334
    1TMC1     O14133   4.392   4.228   1.293 -0.2665  0.2826 -0.5855
    1TMC1     H14134   4.008   4.196   1.340  3.2845 -1.6244 -2.3633
    1TMC1    H114135   4.322   4.467   1.241  0.4977 -1.5448 -0.1446
    1TMC1    H214136   3.971   4.609   1.436 -0.1303  0.6775 -0.0078
    1TMC1    C714137   4.212   4.683   1.310  0.3688 -0.0389  0.8595
    1TMC1    C814138   3.856   4.376   1.451  0.1432  1.1900  0.0815
    1TMC1    O114139   4.304   4.705   1.231  0.3194  0.2689 -0.6951
    1TMC1    O214140   3.764   4.456   1.426 -1.1305  0.6427  0.3916
    1TMC1    O314141   4.152   0.026   1.394  0.3680 -0.4916 -0.7220
    1TMC1    H314142   4.115   4.714   1.470 -2.0528 -0.5016 -1.9086
    1TMC1    O514143   3.865   4.262   1.527  0.2878 -0.0456  0.3645
    1TMC1    H514144   3.956   4.244   1.557  0.4015 -1.1526 -0.6620
    2MPD1     C14145   4.387   3.709   1.217 -0.2463 -0.5019  0.2580
    2MPD1    C114146   4.256   3.728   1.183 -0.1966 -0.4329 -0.0833
    2MPD1    C214147   4.206   3.857   1.186 -0.3085  0.3770 -0.1976
    2MPD1    C314148   4.281   3.968   1.221 -0.7721 -0.2002 -0.2534
    2MPD1    C414149   4.415   3.945   1.246  0.8356  0.6193 -0.0776
    2MPD1    C514150   4.469   3.815   1.238  1.5763  0.6687  0.2141
    2MPD1     H14151   4.100   3.875   1.171 -0.2976 -0.0739 -0.8017
    2MPD1    H114152   4.479   4.013   1.302 -1.3920  1.3293  1.6350
    2MPD1    H214153   4.423   3.607   1.227 -0.9553 -0.6758  1.0201
    2MPD1    H314154   4.576   3.800   1.253  1.0239 -3.1419  0.4978
    2MPD1     N14155   4.218   4.091   1.227 -0.4839 -0.1668  0.5864
    2MPD1    H514156   4.118   4.091   1.209 -0.7061  0.5252  1.7943
    2MPD1    N114157   4.169   3.620   1.171 -0.5661 -0.6266 -0.0862
    2MPD1    H614158   4.089   3.634   1.109 -0.4385 -3.9824 -1.0094
    2MPD1    H714159   4.222   3.534   1.158 -0.1380 -0.1569 -1.4952
    1MPD1     C14160   1.884   4.598  12.112  0.9767  0.3658 -0.4367
    1MPD1    C114161   1.912   4.710  12.194  0.0494  0.1388 -0.2255
    1MPD1    C214162   2.047   0.004  12.215 -0.3548  0.1248  0.4967
    1MPD1    C314163   2.145   4.665  12.160  0.6330  0.4031  0.3775
    1MPD1    C414164   2.113   4.545  12.086  0.0219 -0.4667 -0.5365
    1MPD1    C514165   1.980   4.523  12.057 -0.0821  0.5593  0.2507
    1MPD1     H14166   2.062   0.087  12.283  0.4159  0.5373 -0.1734
    1MPD1    H114167   2.186   4.480  12.039  0.2452 -0.3222 -0.3892
    1MPD1    H214168   1.781   4.572  12.094  1.0382  0.4828 -0.9520
    1MPD1    H314169   1.954   4.439  11.993 -1.8124 -0.3869  2.1847
    1MPD1     N14170   2.283   4.693  12.179  0.2260 -0.0593 -0.0398
    1MPD1    H514171   2.308   0.049  12.212  0.7422 -0.0513 -0.4630
    1MPD1    N114172   1.804   0.033  12.263  0.3166  0.6726  0.1673
    1MPD1    H614173   1.812   0.128  12.298  1.3873  0.4678  0.4622
    1MPD1    H714174   1.724   0.046  12.201  1.0423  4.3039 -0.0097
    2MPD1     C14175   2.679   0.665  10.564  0.5286 -0.0837 -0.4403
    2MPD1    C114176   2.609   0.651  10.679 -0.0403  0.2079  0.4075
    2MPD1    C214177   2.611   0.527  10.733 -0.0917 -0.2126  0.1884
    2MPD1    C314178   2.690   0.417  10.687  0.7652  0.1273  0.6030
    2MPD1    C414179   2.765   0.438  10.575 -0.7570 -0.0489 -0.5235
    2MPD1    C514180   2.746   0.559  10.522 -0.0363 -0.0794 -0.2851
    2MPD1     H14181   2.551   0.512  10.822 -0.6797 -0.0444 -0.1765
    2MPD1    H114182   2.830   0.370  10.521 -0.9574 -1.3846  0.9557
    2MPD1    H214183   2.664   0.749  10.497 -2.1000 -1.1081 -1.1329
    2MPD1    H314184   2.780   0.582  10.421  0.8722  0.7782  0.2198
    2MPD1     N14185   2.718   0.297  10.760  0.1051  0.3539 -0.3751
    2MPD1    H514186   2.764   0.228  10.701  0.3961  0.4846 -0.3009
    2MPD1    N114187   2.512   0.740  10.721  0.1781 -0.0484 -0.1874
    2MPD1    H614188   2.490   0.731  10.820 -0.5743  0.6320 -0.2940
    2MPD1    H714189   2.547   0.834  10.700 -2.5201  0.1123 -3.9208
    3MPD1     C14190   2.557   4.233  10.410  1.1099 -0.8168 -0.5227
    3MPD1    C114191   2.469   4.318  10.477  0.4190  0.0388 -0.2036
    3MPD1    C214192   2.517   4.433  10.545  0.2314  0.1038  0.3108
    3MPD1    C314193   2.652   4.449  10.562  0.1587 -0.0015 -0.1380
    3MPD1    C414194   2.737   4.364  10.502 -0.0101  0.4411 -0.0111
    3MPD1    C514195   2.694   4.261  10.424 -0.3538  0.4505  1.1746
    3MPD1     H14196   2.456   4.518  10.573 -0.6899 -0.0023 -1.3443
    3MPD1    H114197   2.841   4.366  10.531 -0.1656 -1.7237  0.6690
    3MPD1    H214198   2.533   4.144  10.353 -2.0974 -1.0345  1.1586
    3MPD1    H314199   2.767   4.189  10.391 -0.6858 -0.0222  1.4631
    3MPD1     N14200   2.688   4.553  10.657  0.4335  0.6282  0.4631
    3MPD1    H514201   2.611   4.605  10.697 -1.3418  0.0282 -2.1641
    3MPD1    N114202   2.332   4.293  10.457 -0.2911  0.0090 -0.0713
    3MPD1    H614203   2.276   4.312  10.540  0.0587  1.2852 -0.1403
    3MPD1    H714204   2.322   4.191  10.453 -0.7683  0.0807 -0.6591
    4MPD2     C14205   2.850   0.427  11.978  0.3976  0.5723 -0.4602
    4MPD2    C114206   2.892   0.316  12.057 -0.3599  0.4485  0.1251
    4MPD2    C214207   3.016   0.271  12.030 -0.0136 -0.4082  0.7154
    4MPD2    C314208   3.096   0.320  11.926 -0.3049  0.1936 -0.1531
    4MPD2    C414209   3.047   0.422  11.852 -0.0451  1.1293 -0.1689
    4MPD2    C514210   2.923   0.484  11.879 -0.6771 -0.0259 -0.3747
    4MPD2     H14211   3.051   0.182  12.081  0.8461  0.6134  1.9283
    4MPD2    H114212   3.097   0.459  11.763 -1.0170  1.7973 -0.4484
    4MPD2    H214213   2.751   0.465  11.998 -0.5662 -1.3302 -1.6769
    4MPD2    H314214   2.888   0.558  11.808  1.0722  0.1377 -1.0721
    4MPD2     N14215   3.224   0.270  11.902 -0.0458 -0.5149  1.1886
    4MPD2    H514216   3.276   0.312  11.825 -0.0628  0.6394  1.8008
    4MPD2    N114217   2.813   0.243  12.144  0.1664 -0.4276  1.1038
    4MPD2    H714218   2.857   0.157  12.176 -2.2575 -1.5456  1.3814
    5TMC3    C114219   2.627   0.145  12.233 -0.6417  0.3281  0.7671
    5TMC3    C214220   2.511   0.084  12.190 -0.5267  0.2087  0.5775
    5TMC3    C314221   2.515   4.685  12.184  0.1063  0.2840 -0.1026
    5TMC3    C414222   2.725   0.076  12.297 -0.1762 -0.1623 -0.3518
    5TMC3    C514223   2.723   4.677  12.296  0.0118 -0.0950 -0.5063
    5TMC3    C614224   2.619   4.609  12.240 -0.4283  0.2517 -0.2842
    5TMC3     C14225   2.680   0.262  12.172  0.1399  0.7682  0.1610
    5TMC3     O14226   2.602   0.346  12.124 -0.7853 -0.3983  0.2662
    5TMC3     H14227   2.459   0.144  12.115 -1.9928  0.1212  1.5297
    5TMC3    H114228   2.804   0.131  12.347  0.1819 -2.0661  1.1749
    5TMC3    H214229   2.621   4.504  12.214 -3.8538 -0.3704  1.9471
    5TMC3    C714230   2.854   4.640  12.248  0.2627 -0.6369  0.9513
    5TMC3    C814231   2.392   4.617  12.147  0.3407 -0.0063 -0.2819
    5TMC3    O114232   2.939   4.727  12.226 -0.1498 -0.0662 -0.2852
    5TMC3    O214233   2.403   4.501  12.111  0.1156  0.0697  0.4648
    6TMC3    C114234   2.738   0.130  10.918  0.1986  0.0423 -0.9121
    6TMC3    C214235   2.728   0.039  10.817 -0.4774 -0.2000  0.0825
    6TMC3    C314236   2.820   4.672  10.818  0.5496 -0.6386  0.5789
    6TMC3    C414237   2.836   0.129  11.008  0.0619 -0.3116 -0.5311
    6TMC3    C514238   2.931   0.024  11.005  0.0688  0.2319 -0.3968
    6TMC3    C614239   2.925   4.670  10.904 -0.2620 -0.3030  0.1980
    6TMC3     C14240   2.692   0.265  10.889  0.6918  0.0826  0.3032
    6TMC3     O14241   2.646   0.337  10.976 -0.1317 -0.4725 -0.2502
    6TMC3     H14242   2.649   0.037  10.742 -0.1097  3.6492 -0.4515
    6TMC3    H114243   2.833   0.202  11.089 -1.8804 -0.5199 -0.4232
    6TMC3    H214244   3.003   4.596  10.892 -1.0743 -1.0536 -0.4349
    6TMC3    C714245   3.039   0.027  11.099 -1.0739  0.1358  0.1344
    6TMC3    C814246   2.814   4.574  10.711  0.2862  0.6919 -0.2939
    6TMC3    O114247   3.023   0.099  11.196 -0.5041 -0.4149  0.1196
    6TMC3    O214248   2.919   4.510  10.695 -0.0489  0.3656 -0.1380
    7MPD2     C14249   3.189   4.316  12.007  0.0366 -0.4266 -0.1612
    7MPD2    C114250   3.173   4.454  12.002  0.7194  0.2361 -0.4273
    7MPD2    C214251   3.070   4.513  12.068  1.1022  0.8833 -0.0206
    7MPD2    C314252   2.976   4.443  12.140 -0.0658 -0.5548  0.3284
    7MPD2    C414253   2.988   4.304  12.141 -0.0696 -0.2342 -0.6698
    7MPD2    C514254   3.102   4.250  12.089 -0.1447  0.1935  0.3716
    7MPD2     H14255   3.062   4.621  12.076  1.1320  0.7323  2.2236
    7MPD2    H114256   2.922   4.233  12.189  3.0170 -1.0190  2.4411
    7MPD2    H214257   3.271   4.259  11.965 -0.3312 -1.6210  0.7344
    7MPD2    H314258   3.114   4.142  12.101  1.4872  0.4755  1.3157
    7MPD2     N14259   2.870   4.501  12.218 -0.3463  0.4198  0.4858
    7MPD2    H514260   2.791   4.444  12.249 -1.7142  2.5461  0.8918
    7MPD2    N114261   3.263   4.532  11.934  0.1983 -0.0034  0.3312
    7MPD2    H714262   3.250   4.632  11.924 -2.2056 -0.4040 -0.4882
    8TMC3    C114263   3.452   4.618  11.842 -0.3088 -0.4978 -0.2986
    8TMC3    C214264   3.447   4.644  11.709 -0.3827  0.3896  0.4546
    8TMC3    C314265   3.401   0.023  11.662 -0.6613  0.2806 -0.0588
    8TMC3    C414266   3.412   4.714  11.930 -0.3355 -0.0484  0.0723
    8TMC3    C514267   3.387   0.104  11.881  0.0754 -1.0698  0.6608
    8TMC3    C614268   3.371   0.125  11.747  0.0126  0.5477  0.7513
    8TMC3     C14269   3.381   4.495  11.874 -0.3621 -0.5011 -0.5158
    8TMC3     O14270   3.417   4.391  11.817  0.9189  0.6293  0.4779
    8TMC3     H14271   3.467   4.553  11.654 -0.8264  0.7052 -0.2285
    8TMC3    H114272   3.422   4.707  12.037  1.4818  1.8569  0.0280
    8TMC3    H214273   3.345   0.223  11.708  1.8033  0.2267 -1.2517
    8TMC3    C714274   3.282   0.158  11.965 -0.7151  0.5318  0.4094
    8TMC3    C814275   3.373   0.026  11.518 -0.2449  0.2522  0.0740
    8TMC3    O114276   3.241   0.090  12.056 -0.3684 -0.5176  0.5615
    8TMC3    O214277   3.294   0.108  11.478 -0.2041  0.1409 -0.2241
    9MPD2     C14278   3.499   4.570  11.223  0.4685 -0.3517  0.2865
    9MPD2    C114279   3.416   4.657  11.295  0.1594 -0.1418 -0.2442
    9MPD2    C214280   3.295   4.702  11.239 -0.1557 -0.0597 -0.6026
    9MPD2    C314281   3.257   4.645  11.119  0.1949  0.2387  0.0862
    9MPD2    C414282   3.325   4.539  11.069 -0.2769  0.2708 -0.1692
    9MPD2    C514283   3.453   4.508  11.107 -0.2478 -0.2049  0.0837
    9MPD2     H14284   3.233   0.036  11.292 -1.0999 -1.9490  0.8294
    9MPD2    H114285   3.293   4.486  10.981  1.6021 -2.4688  0.7982
    9MPD2    H214286   3.594   4.530  11.257  0.6367 -0.2555 -0.0736
    9MPD2    H314287   3.520   4.429  11.073 -0.2814  0.5022 -1.6215
    9MPD2     N14288   3.132   4.672  11.062  0.7092 -0.3794  0.3383
    9MPD2    H514289   3.119   4.620  10.975 -0.0531  0.1165  0.1645
    9MPD2    N114290   3.447   4.675  11.432 -0.4144  0.2375  0.3564
    9MPD2    H714291   3.516   4.610  11.467  0.1882  1.1588  0.8874
    1MPD1     C14292   1.660   4.211  16.661  0.4997  0.3053  0.5239
    1MPD1    C114293   1.773   4.136  16.688 -0.0066  0.5039 -0.5352
    1MPD1    C214294   1.871   4.120  16.589  0.0258 -0.1033 -0.1939
    1MPD1    C314295   1.864   4.195  16.468 -0.4482 -0.8612 -0.2845
    1MPD1    C414296   1.745   4.273  16.443 -0.1340  0.1979  0.0969
    1MPD1    C514297   1.648   4.277  16.541 -0.1934  0.6310  0.3119
    1MPD1     H14298   1.964   4.071  16.616 -0.5586 -0.6904  0.7602
    1MPD1    H114299   1.731   4.330  16.352  1.7212  0.9145  0.2558
    1MPD1    H214300   1.581   4.214  16.734 -0.0725 -1.5077 -0.0260
    1MPD1    H314301   1.557   4.334  16.524 -0.2122  0.1859 -1.0823
    1MPD1     N14302   1.963   4.197  16.362  0.1983  0.0431 -0.0376
    1MPD1    H514303   1.947   4.245  16.274 -1.0329  1.0534  0.7458
    1MPD1    N114304   1.794   4.097  16.823 -0.0605  0.7070 -0.3072
    1MPD1    H614305   1.706   4.100  16.874  0.4672  1.0122  0.5671
    1MPD1    H714306   1.842   4.009  16.836 -0.4142  0.4585 -0.6490
    2TMC2    C114307   2.296   4.084  16.064  0.1790 -0.1094  0.2090
    2TMC2    C214308   2.303   4.204  16.010  0.0920 -0.3871  0.2784
    2TMC2    C314309   2.231   4.304  16.075 -0.6412  0.4035 -0.2401
    2TMC2    C414310   2.231   4.058  16.179 -0.1221  0.4042 -0.4114
    2TMC2    C514311   2.164   4.155  16.242  0.0938  0.4833  0.2952
    2TMC2    C614312   2.154   4.279  16.188  0.2027  0.4286 -0.2833
    2TMC2     C14313   2.324   3.982  15.969 -0.9206 -0.3545  0.1192
    2TMC2     O14314   2.303   4.018  15.853  0.0201  0.0881  0.4478
    2TMC2     H14315   2.354   4.221  15.915  1.3982 -1.3987  0.7900
    2TMC2    H114316   2.221   3.957  16.216  0.0258  1.0212  1.3260
    2TMC2    H214317   2.119   4.363  16.247 -0.3777 -0.8556  1.2168
    2TMC2    C714318   2.080   4.124  16.356  0.0341 -0.4459 -0.2637
    2TMC2    C814319   2.216   4.424  15.997  0.0416  0.4453  0.0890
    2TMC2    O114320   2.104   4.018  16.416  0.0349 -0.0376 -0.4373
    2TMC2    O214321   2.293   4.458  15.907  0.5782  0.7552  0.5404
    2TMC2    O514322   2.082   4.441  15.994 -0.1457  0.3747 -0.3068
    2TMC2    H514323   2.039   4.418  16.079  2.2889  0.1242  0.8609
    3MPD1     C14324   2.382   3.498  15.814  0.2872 -0.2374 -0.0663
    3MPD1    C114325   2.441   3.508  15.936 -0.0646 -0.1267 -0.6750
    3MPD1    C214326   2.448   3.630  15.998  0.1482  0.6611 -0.2883
    3MPD1    C314327   2.381   3.740  15.941 -0.3206 -0.1440  0.4963
    3MPD1    C414328   2.312   3.731  15.821  0.2758 -0.0630  0.6078
    3MPD1    C514329   2.321   3.605  15.758  0.0858  0.0104  0.1332
    3MPD1     H14330   2.492   3.637  16.096 -1.8202  0.2038  0.6195
    3MPD1    H114331   2.255   3.810  15.773  0.9594 -0.4491 -0.8579
    3MPD1    H214332   2.396   3.413  15.749 -4.2847 -1.1426  0.1209
    3MPD1    H314333   2.288   3.612  15.655 -0.2817 -0.1048  0.2420
    3MPD1     N14334   2.373   3.856  16.016 -0.0866  0.4076  0.6650
    3MPD1    H514335   2.388   3.850  16.117 -0.1857 -0.7782  0.6084
    3MPD1    N114336   2.536   3.407  15.965 -0.0995  0.0779  0.5452
    3MPD1    H614337   2.554   3.412  16.065 -0.4968 -0.9490  0.6754
    3MPD1    H714338   2.524   3.310  15.935  0.5402  1.4525 -4.1410
    1TMC1    C114339   1.189   3.314  13.759  0.7036  0.0518  0.7140
    1TMC1    C214340   1.285   3.239  13.827  0.3247 -0.3772  0.7808
    1TMC1    C314341   1.384   3.310  13.895 -0.3006  0.3890 -0.0729
    1TMC1    C414342   1.207   3.446  13.737  0.5931  0.9770 -0.3989
    1TMC1    C514343   1.302   3.505  13.811 -0.8327 -0.6629 -0.8035
    1TMC1    C614344   1.396   3.446  13.888 -0.3693 -0.1741 -0.2989
    1TMC1     C14345   1.085   3.260  13.669  0.3514  0.0196 -0.1555
    1TMC1     O14346   0.985   3.328  13.651  0.1750 -0.3970  0.0641
    1TMC1     H14347   1.289   3.132  13.813 -1.5000 -0.4217  0.6066
    1TMC1    H114348   1.132   3.510  13.693 -1.0185 -1.1118 -0.6736
    1TMC1    H214349   1.478   3.500  13.935 -0.8464  1.5060 -1.4020
    1TMC1    C714350   1.293   3.646  13.806 -0.4875  0.1287 -0.5946
    1TMC1    C814351   1.473   3.236  13.987  0.2055 -0.1054 -0.1206
    1TMC1    O114352   1.265   3.706  13.702 -0.1985 -0.7657  0.2534
    1TMC1    O214353   1.585   3.274  14.018 -0.0736  0.2663 -0.1853
    1TMC1    O314354   1.344   3.700  13.922  0.1532  0.6596  0.1198
    1TMC1    H314355   1.369   3.632  13.987 -0.6437  2.3155  2.1566
    1TMC1    O514356   1.428   3.107  13.998  0.2360  0.0655  0.2983
    1TMC1    H514357   1.330   3.112  14.009  0.1917  0.9778 -0.5730
    2MPD2     C14358   0.905   3.090  13.507 -1.1789 -0.7337 -0.1654
    2MPD2    C114359   1.038   3.060  13.530 -0.7301 -0.0245 -0.4133
    2MPD2    C214360   1.094   2.942  13.466  0.0892 -0.3222 -0.5053
    2MPD2    C314361   1.017   2.856  13.395 -0.0498  0.2974  0.2087
    2MPD2    C414362   0.889   2.893  13.378  0.0534 -0.1596  0.1490
    2MPD2    C514363   0.830   3.005  13.432 -0.4565 -0.1990 -0.4697
    2MPD2     H14364   1.198   2.919  13.485  0.6841  1.9183 -1.0517
    2MPD2    H114365   0.821   2.827  13.324  0.0281  0.9195 -1.1463
    2MPD2    H214366   0.860   3.180  13.548 -0.4488 -0.0853 -0.8003
    2MPD2    H314367   0.730   3.037  13.407  0.4086  2.0229 -1.0482
    2MPD2     N14368   1.073   2.732  13.350 -0.0065  0.8604 -0.1642
    2MPD2    H514369   1.174   2.724  13.361  0.1017  1.6107 -0.6246
    2MPD2    N114370   1.121   3.141  13.612  0.9632 -0.2643  0.3000
    2MPD2    H714371   1.220   3.124  13.597  1.1894  2.3492 -0.9739
    3TCq1    O114372   1.130   2.123  13.240 -0.2538  0.2467 -0.4628
    3TCq1    C114373   1.111   2.187  13.122 -0.4435  0.4435 -0.4329
    3TCq1    O214374   1.133   2.135  13.013 -0.1683 -0.4557  0.4429
    3TCq1    C214375   1.147   2.326  13.149 -0.7365 -0.6643  0.3723
    3TCq1    C314376   1.274   2.360  13.118  0.1472  0.8213  0.2797
    3TCq1    C414377   1.317   2.477  13.148  0.8685  0.5477 -0.8055
    3TCq1    C514378   1.230   2.567  13.197 -0.2061 -0.3371 -0.2956
    3TCq1    C614379   1.107   2.534  13.233 -0.8766  0.1870  0.4285
    3TCq1    C714380   1.061   2.405  13.218  0.3383 -0.7161  0.7770
    3TCq1    C814381   1.009   2.631  13.285  0.6016  0.1128  0.6213
    3TCq1    O414382   0.890   2.606  13.290  0.1712  0.4756  0.3995
    3TCq1    C914383   1.445   2.524  13.108  0.0344  0.1274 -0.5273
    3TCq1    O514384   1.503   2.470  13.012  0.0576  0.0481 -0.2461
    3TCq1    O614385   1.493   2.613  13.183  0.3468  0.3140 -0.0315
    3TCq1    H114386   1.146   2.180  13.318  1.3354 -1.3249  0.3599
    3TCq1    H214387   1.346   2.297  13.067 -2.7113 -0.6178 -1.9853
    3TCq1    H314388   1.263   2.670  13.201 -1.9801  0.2352 -0.0239
    3TCq1    H414389   0.960   2.377  13.248  0.4726 -1.3967  0.5924
    1MPD2     C14390   0.592   4.675  14.845  0.0185  0.7012  1.0141
    1MPD2    C114391   0.548   4.554  14.890 -0.3194  0.7083  0.2312
    1MPD2    C214392   0.638   4.475  14.964 -0.4405 -0.1822 -0.8158
    1MPD2    C314393   0.764   4.521  15.001 -0.0196  0.4904 -0.2889
    1MPD2    C414394   0.807   4.643  14.954  0.9093  0.2897 -0.0825
    1MPD2    C514395   0.718   4.718  14.889  0.0125 -0.4532 -0.9211
    1MPD2     H14396   0.603   4.378  14.998 -0.6478  0.9358  2.2028
    1MPD2    H114397   0.907   4.680  14.977  1.5489 -0.0932 -2.2623
    1MPD2    H214398   0.525   0.007  14.796  1.5253  0.5366 -1.2552
    1MPD2    H314399   0.751   0.076  14.848 -0.9957 -0.2608 -1.2826
    1MPD2     N14400   0.850   4.434  15.075 -0.2641 -0.2386 -0.2251
    1MPD2    H514401   0.948   4.460  15.086 -0.0707 -0.4847 -1.3516
    1MPD2    N114402   0.411   4.520  14.861  0.0626  0.5606  0.6432
    1MPD2    H714403   0.356   4.583  14.804  0.6115 -1.2960 -1.9243
    2TMC3    C114404   0.212   4.394  14.841  0.4738 -0.2117  0.7288
    2TMC3    C214405   0.153   4.279  14.889 -0.5370  0.1880 -0.4646
    2TMC3    C314406   0.114   4.180  14.811 -0.6167  0.5291 -0.6953
    2TMC3    C414407   0.209   4.404  14.704  0.7578 -0.2210  1.0181
    2TMC3    C514408   0.144   4.317  14.625 -0.1996 -0.9779  0.5889
    2TMC3    C614409   0.099   4.198  14.675  0.1446 -0.5517  0.2073
    2TMC3     C14410   0.342   4.417  14.909  0.1646  0.4753 -0.0662
    2TMC3     O14411   0.389   4.328  14.978  0.5642 -0.3202  0.3483
    2TMC3     H14412   0.152   4.269  14.997  0.8509 -5.3919 -0.9226
    2TMC3    H114413   0.271   4.475  14.652  1.8802 -2.4238 -0.6285
    2TMC3    H214414   0.064   4.119  14.609  2.5950 -1.0586 -0.4668
    2TMC3    C714415   0.081   4.371  14.504 -0.6923  0.4724  0.2958
    2TMC3    C814416   0.166   4.054  14.856 -0.0814  0.1973  0.9562
    2TMC3    O114417   4.735   4.300  14.451 -0.0187  0.5052 -0.4552
    2TMC3    O214418   0.115   3.953  14.813  0.7373 -0.1592  0.2159
    3TCq1    O114419   0.307   0.840  14.159  0.0294 -0.5871 -0.1414
    3TCq1    C114420   0.303   0.727  14.094 -0.5365 -0.3728  0.1287
    3TCq1    O214421   0.341   0.727  13.979  0.4959  0.0751 -0.1089
    3TCq1    C214422   0.270   0.610  14.182 -0.5430 -0.1341  0.4288
    3TCq1    C314423   0.316   0.615  14.309  0.3272 -0.1852  0.1643
    3TCq1    C414424   0.301   0.509  14.392 -0.0648  0.0530 -0.2791
    3TCq1    C514425   0.247   0.389  14.352 -0.4590  0.3087 -0.0712
    3TCq1    C614426   0.227   0.381  14.212 -0.1078 -0.3781 -0.1417
    3TCq1    C714427   0.243   0.489  14.122  0.3931 -0.7227 -0.3470
    3TCq1    C814428   0.157   0.261  14.162  0.7802  0.1688 -0.7536
    3TCq1    O414429   0.115   0.258  14.045 -0.2759  0.3773 -0.1505
    3TCq1    C914430   0.325   0.525  14.530 -0.0976 -0.8545 -0.3863
    3TCq1    O514431   0.378   0.628  14.579  1.0762 -0.3953 -0.1190
    3TCq1    O614432   0.270   0.446  14.605 -0.5892  0.2034  0.1062
    3TCq1    H114433   0.266   0.831  14.248  1.9992 -1.3222  0.6724
    3TCq1    H214434   0.369   0.692  14.364 -2.1212  1.4470  0.1971
    3TCq1    H314435   0.225   0.317  14.429 -4.7222  0.4073 -1.2045
    3TCq1    H414436   0.222   0.490  14.016 -1.0925 -0.3592 -0.0529
    4MPD2     C14437   4.737   0.008  14.164 -0.2816  0.6326 -0.2314
    4MPD2    C114438   0.089   0.044  14.260  0.7532  0.4879  0.7275
    4MPD2    C214439   0.113   4.704  14.370  0.4159 -0.7324  0.5065
    4MPD2    C314440   0.051   4.583  14.382 -1.1004 -0.1737 -0.2061
    4MPD2    C414441   4.705   4.544  14.280 -0.5567 -0.5647 -0.3265
    4MPD2    C514442   4.679   4.625  14.172  0.3163 -0.0161 -0.3873
    4MPD2     H14443   0.172   0.005  14.452  0.3495 -0.6634  0.5230
    4MPD2    H114444   4.674   4.441  14.268  2.6207 -1.6971  1.0852
    4MPD2    H214445   4.705   0.074  14.083  1.6611  0.1671 -1.3892
    4MPD2    H314446   4.613   4.591  14.093 -0.4651  1.4252 -0.3667
    4MPD2     N14447   0.090   4.504  14.488 -0.1145  0.7072  0.9037
    4MPD2    H514448   0.147   4.549  14.559  2.5695 -1.0037 -0.1465
    4MPD2    N114449   0.160   0.170  14.261  0.7305 -0.2875 -1.0584
    4MPD2    H714450   0.224   0.191  14.337 -0.6771 -1.0039  0.3208
    5TMC2    C114451   0.896   4.003  15.235 -0.3517  0.2140  0.2887
    5TMC2    C214452   1.003   3.984  15.156  1.0701 -0.8252  0.0268
    5TMC2    C314453   1.056   4.089  15.097 -0.4551 -0.5928 -0.8712
    5TMC2    C414454   0.844   4.130  15.249 -0.3296 -0.1930 -0.2580
    5TMC2    C514455   0.900   4.242  15.188 -0.1709  0.4804  0.0983
    5TMC2    C614456   1.009   4.218  15.107  0.0689  0.7431 -0.1821
    5TMC2     C14457   0.787   3.909  15.213  0.4501  0.9792 -0.1485
    5TMC2     O14458   0.804   3.791  15.219  0.3696  0.3432 -0.0576
    5TMC2     H14459   1.039   3.883  15.137  2.2128 -0.3004 -0.6086
    5TMC2    H114460   0.759   4.146  15.315 -0.3725  1.9794 -0.8320
    5TMC2    H214461   1.060   4.304  15.065  0.3295 -0.1152 -1.6229
    5TMC2    C714462   0.802   4.337  15.157  0.8816 -0.3197 -0.3993
    5TMC2    C814463   1.168   4.064  15.010 -0.0844 -0.7246 -0.5111
    5TMC2    O114464   0.686   4.312  15.188  0.7802 -0.2919  0.1625
    5TMC2    O214465   1.243   3.984  15.049 -0.5350 -0.0573  0.2576
    5TMC2    O514466   1.101   4.038  14.897  0.8203 -0.1058 -0.1291
    5TMC2    H514467   1.029   4.105  14.892  0.1372 -1.0009 -2.2833
    6MPD2     C14468   0.315   3.832  14.996  0.7752 -0.4290  0.3569
    6MPD2    C114469   0.354   3.966  14.990  0.2060  0.1896  0.2259
    6MPD2    C214470   0.466   4.011  15.053  0.1749 -0.1568  0.0671
    6MPD2    C314471   0.553   3.918  15.115 -0.7587 -0.2923 -0.0140
    6MPD2    C414472   0.527   3.780  15.111 -0.1061  0.1226  0.0209
    6MPD2    C514473   0.404   3.741  15.057 -0.4796 -0.3547 -0.0445
    6MPD2     H14474   0.488   4.118  15.052  1.3964 -0.3939  0.8815
    6MPD2    H114475   0.597   3.706  15.148 -1.1953  0.1150  2.0630
    6MPD2    H214476   0.221   3.803  14.951 -0.7120  3.0582  1.2692
    6MPD2    H314477   0.377   3.637  15.043 -0.4570 -0.1026 -1.9586
    6MPD2     N14478   0.667   3.982  15.172 -0.4190 -0.2812  0.3843
    6MPD2    H514479   0.673   4.082  15.158 -1.8562 -0.6042 -2.6622
    6MPD2    N114480   0.274   4.072  14.944  0.2292 -0.1184 -0.1570
    6MPD2    H714481   0.316   4.164  14.943  0.4005 -0.1806  1.6639
  945NH4     N114482   0.831   4.227   2.223  0.2572  0.0625  0.9231
  945NH4     H214483   0.844   4.176   2.313 -0.5293  0.0189  1.0084
  945NH4     H314484   0.770   4.185   2.151  2.7233  0.5038 -1.4234
  945NH4     H414485   0.927   4.244   2.188 -1.0671  2.7882 -1.3190
  945NH4     H514486   0.785   4.316   2.249 -1.5545 -0.6599  0.1703
  946SOD     NA14487   0.439   1.469  12.844  0.0078  0.2311 -0.6963
  947SOD     NA14488   4.729   0.006  12.923  0.1036  0.2493  0.1342
  948SOD     NA14489   0.233   0.590  14.777 -0.1641 -0.1373 -0.0045
  949SOD     NA14490   3.139   2.413  15.426 -0.0359  0.1982 -0.0792
  950SOD     NA14491   4.027   2.104  14.187  0.2664  0.1954 -0.4991
  951SOD     NA14492   2.403   2.190  16.662  0.8307 -0.4043  0.0574
  952SOD     NA14493   1.764   2.732   8.139  0.1594 -0.3194  0.2518
  953SOL     OW14494   3.427   1.525   3.894 -0.3713 -0.1895  0.2960
  953SOL    HW114495   3.477   1.504   3.973 -2.5244 -1.8061  1.2221
  953SOL    HW214496   3.452   1.458   3.831 -0.8959 -1.2724  1.2528
  954SOL     OW14497   2.705   2.036  17.501 -0.8189 -0.4776 -0.0206
  954SOL    HW114498   2.682   1.952  17.460 -1.9008 -1.0788  1.8142
  954SOL    HW214499   2.754   2.085  17.435 -1.3839  1.6684  1.1603
  955SOL     OW14500   0.023   1.889  16.607  0.5918 -0.2962  0.1996
  955SOL    HW114501   4.710   1.968  16.627  0.0677 -1.0064  1.6621
  955SOL    HW214502   4.695   1.826  16.576  1.1772 -0.7934 -0.0215
  956SOL     OW14503   4.555   0.345   9.362 -0.0535  0.4378  0.0278
  956SOL    HW114504   4.595   0.300   9.437 -0.2150 -2.1249 -1.4061
  956SOL    HW214505   4.464   0.323   9.382  0.2938  0.0215  1.1594
  957SOL     OW14506   2.374   4.322   2.666  0.3185 -0.5845  0.9844
  957SOL    HW114507   2.403   4.233   2.644 -0.3044 -0.2106 -1.3180
  957SOL    HW214508   2.327   4.309   2.749 -1.3572 -1.9652 -0.1693
  958SOL     OW14509   2.855   1.784   9.508 -0.2004 -0.1851  0.4231
  958SOL    HW114510   2.927   1.777   9.570  0.5847  1.5319 -0.2803
  958SOL    HW214511   2.840   1.691   9.494  1.0499 -0.1281 -1.3453
  959SOL     OW14512   0.746   1.986   5.481 -0.2734 -0.0920  0.3177
  959SOL    HW114513   0.824   2.037   5.505  0.7574 -0.4282 -2.2690
  959SOL    HW214514   0.689   1.991   5.557  3.8630  0.5137  3.3920
  960SOL     OW14515   4.436   0.424  13.865  0.0708 -0.1219 -0.4768
  960SOL    HW114516   4.394   0.502  13.902 -1.5428 -1.4197  0.3773
  960SOL    HW214517   4.431   0.441  13.771 -3.3669 -3.6171 -0.9142
  961SOL     OW14518   3.681   1.281   9.095 -0.1585  0.0038  0.6669
  961SOL    HW114519   3.742   1.232   9.150 -1.4404 -0.8774  1.3057
  961SOL    HW214520   3.677   1.222   9.020  1.6883  1.2730 -0.4312
  962SOL     OW14521   2.262   1.485   3.475  0.1549  0.8979  0.2307
  962SOL    HW114522   2.305   1.543   3.537 -1.5062  0.6987  1.5640
  962SOL    HW214523   2.342   1.434   3.458  0.0681  0.3061  1.6024
  963SOL     OW14524   2.749   2.889   7.084 -0.2733 -0.0761 -0.1242
  963SOL    HW114525   2.688   2.817   7.075  0.2687 -0.4752 -0.6485
  963SOL    HW214526   2.835   2.845   7.083  0.9219  2.1985  1.9195
  964SOL     OW14527   3.054   1.643  13.818  0.1084  0.0390  0.5178
  964SOL    HW114528   2.976   1.696  13.800 -0.9768 -0.9715  2.1360
  964SOL    HW214529   3.096   1.634  13.733  2.8777 -1.2423  2.0023
  965SOL     OW14530   2.999   3.760   3.223  0.4994  0.6586  0.6964
  965SOL    HW114531   3.067   3.727   3.164 -0.5329 -1.5995  0.7647
  965SOL    HW214532   2.919   3.729   3.179  0.2419  1.7351  0.4117
  966SOL     OW14533   4.117   4.234   2.140 -0.9033  0.8346 -0.3218
  966SOL    HW114534   4.202   4.203   2.172  0.0061  1.7343 -1.9002
  966SOL    HW214535   4.067   4.218   2.220 -0.1728  1.0192  0.1729
  967SOL     OW14536   3.968   0.358   8.046  0.1761 -0.2911 -0.6063
  967SOL    HW114537   4.060   0.381   8.042  0.1671  0.2780  2.5359
  967SOL    HW214538   3.948   0.383   8.136 -0.4573  1.3319 -1.2061
  968SOL     OW14539   4.472   4.260  14.548  0.3870 -0.0358 -0.7134
  968SOL    HW114540   4.560   4.296  14.560 -0.6425  2.2981 -0.2024
  968SOL    HW214541   4.425   4.320  14.491  0.9855 -0.5035 -1.7010
  969SOL     OW14542   0.743   0.954   2.347 -0.4005 -1.0905  0.0543
  969SOL    HW114543   0.662   1.005   2.340  1.0198  1.0969 -0.3626
  969SOL    HW214544   0.775   0.993   2.428 -1.2689  3.4461 -1.8177
  970SOL     OW14545   4.721   3.847   3.825  0.6595  0.2396 -0.5520
  970SOL    HW114546   4.657   3.778   3.805  1.0560 -0.4350  0.5225
  970SOL    HW214547   0.043   3.839   3.751 -1.4562 -1.1848 -2.1120
  971SOL     OW14548   0.787   0.184   4.352  0.6836 -0.1273  0.0200
  971SOL    HW114549   0.826   0.261   4.394 -0.5356 -0.2316  1.3569
  971SOL    HW214550   0.742   0.231   4.282  0.0829 -3.9330 -2.1375
  972SOL     OW14551   4.200   3.049   9.195  0.1854  0.4757 -0.1652
  972SOL    HW114552   4.192   3.144   9.200  0.3669  0.5584 -1.5065
  972SOL    HW214553   4.135   3.025   9.128 -0.7589  1.2664  0.4642
  973SOL     OW14554   2.457   3.399  10.074 -0.1450 -0.1949 -0.4170
  973SOL    HW114555   2.430   3.377   9.984 -2.5588  0.6856  0.1064
  973SOL    HW214556   2.495   3.485  10.055 -1.4838  0.9284  2.1013
  974SOL     OW14557   1.993   4.348  12.949  0.0665  0.3552  0.3921
  974SOL    HW114558   1.941   4.397  12.886  0.1072 -0.2879 -0.1308
  974SOL    HW214559   1.950   4.378  13.030  1.0659  0.0018  1.0596
  975SOL     OW14560   0.769   2.885   1.177  0.0830  0.1903  0.2427
  975SOL    HW114561   0.730   2.963   1.217  0.7669  0.8426 -0.3347
  975SOL    HW214562   0.709   2.821   1.213 -0.1251 -0.1867 -0.7720
  976SOL     OW14563   0.512   0.295   5.548  0.2571 -0.6282 -0.0203
  976SOL    HW114564   0.459   0.321   5.472 -0.9165 -1.5379  0.4833
  976SOL    HW214565   0.488   0.203   5.561 -0.5682 -0.4032  0.0378
  977SOL     OW14566   2.481   0.638   4.082 -0.6841 -0.4190  0.3276
  977SOL    HW114567   2.443   0.709   4.133 -2.0069 -0.0188 -1.2198
  977SOL    HW214568   2.483   0.667   3.991  1.1689  0.9140  0.7869
  978SOL     OW14569   0.436   4.662   3.355  0.4286 -0.1528  0.1977
  978SOL    HW114570   0.500   4.670   3.285 -1.5209 -0.0165 -1.5438
  978SOL    HW214571   0.497   4.646   3.428  1.0268  0.5380 -0.1501
  979SOL     OW14572   3.286   3.269   1.501  0.0710 -0.0825 -0.5249
  979SOL    HW114573   3.361   3.277   1.560  0.3495 -0.1074 -0.8752
  979SOL    HW214574   3.220   3.233   1.561  1.1934 -0.7941  0.2763
  980SOL     OW14575   1.040   4.344   2.611  0.5630 -0.2011  0.5022
  980SOL    HW114576   1.042   4.417   2.549 -2.0820 -0.9496 -0.4525
  980SOL    HW214577   1.005   4.387   2.689  0.6362  0.2580  0.2857
  981SOL     OW14578   0.114   1.022  12.037  0.0856  0.0205 -0.0336
  981SOL    HW114579   0.189   1.062  11.992 -0.1805  2.3454  1.5893
  981SOL    HW214580   0.132   1.021  12.131 -1.0382 -1.0084  0.1636
  982SOL     OW14581   3.384   4.017   8.661 -0.1644 -0.0013 -0.1422
  982SOL    HW114582   3.363   4.073   8.736 -0.2895  0.0583 -0.2212
  982SOL    HW214583   3.365   3.933   8.702 -0.8229  0.5243  0.6092
  983SOL     OW14584   2.017   2.853   6.158  0.0484 -0.0571  0.5798
  983SOL    HW114585   1.951   2.916   6.129  0.7896 -0.9285 -3.1072
  983SOL    HW214586   1.973   2.768   6.151 -0.2897  0.0315  1.8189
  984SOL     OW14587   3.999   4.119   8.171 -0.1195 -0.0247 -0.1187
  984SOL    HW114588   3.984   4.057   8.100  2.4664 -0.9787  0.1740
  984SOL    HW214589   4.092   4.103   8.186  0.0434  1.1015  0.0708
  985SOL     OW14590   3.558   2.878   6.703 -0.3446 -0.0349  0.2769
  985SOL    HW114591   3.567   2.829   6.621  2.4284  3.1200 -1.2860
  985SOL    HW214592   3.466   2.873   6.728  0.5391 -2.0232  3.2204
  986SOL     OW14593   3.006   1.253   8.603 -0.3204  0.0901  0.3449
  986SOL    HW114594   2.945   1.249   8.529 -2.7233  2.8259  2.2323
  986SOL    HW214595   3.050   1.337   8.608 -3.0689  1.5132  0.3104
  987SOL     OW14596   1.296   3.939   4.140 -0.1070 -0.0298 -0.3525
  987SOL    HW114597   1.239   3.863   4.155 -2.2339  1.5053 -0.7347
  987SOL    HW214598   1.229   3.995   4.103  1.7542  0.8482 -2.3934
  988SOL     OW14599   3.877   3.339  15.072 -0.4196 -0.7279 -0.5476
  988SOL    HW114600   3.928   3.420  15.067 -2.2813  0.6732  3.1129
  988SOL    HW214601   3.827   3.351  15.153  3.1556  2.5793  1.1594
  989SOL     OW14602   4.734   0.176   6.221 -0.0386 -0.1180 -0.2403
  989SOL    HW114603   4.690   0.204   6.301 -0.9457  1.2036 -1.2016
  989SOL    HW214604   0.087   0.206   6.235 -0.8731  3.1385 -1.8423
  990SOL     OW14605   3.994   3.677   7.541 -0.4707  0.3713 -0.1822
  990SOL    HW114606   3.927   3.612   7.520  1.6432 -2.4250  1.7538
  990SOL    HW214607   3.962   3.744   7.480  0.8501  0.5651 -0.6770
  991SOL     OW14608   1.677   1.739  14.678  0.0981 -0.1248  0.1509
  991SOL    HW114609   1.739   1.679  14.637 -0.1602 -0.9381  0.9502
  991SOL    HW214610   1.676   1.714  14.771  0.5976 -1.9334 -0.3439
  992SOL     OW14611   1.318   1.936   2.312  0.0481  0.0221  0.1147
  992SOL    HW114612   1.379   2.005   2.289 -0.8429  0.4170 -1.0244
  992SOL    HW214613   1.366   1.859   2.280  1.0954  0.3348  0.9565
  993SOL     OW14614   4.660   1.118   2.393 -0.5271  0.0628  0.1044
  993SOL    HW114615   4.699   1.198   2.429  1.5517 -0.9055  0.0043
  993SOL    HW214616   4.583   1.110   2.450  0.0627 -1.3528  0.7093
  994SOL     OW14617   3.706   1.535   8.861  0.2594  0.1106  0.1363
  994SOL    HW114618   3.707   1.626   8.890  1.4218  0.9858 -2.6319
  994SOL    HW214619   3.750   1.499   8.938 -0.6534  0.0258  0.6108
  995SOL     OW14620   0.507   4.503   8.366 -0.3522 -0.5653  1.0943
  995SOL    HW114621   0.591   4.535   8.398 -0.3520 -0.7099  1.2396
  995SOL    HW214622   0.532   4.501   8.273 -3.0718 -0.9317  0.3856
  996SOL     OW14623   0.833   4.200   6.948 -0.2043 -0.0674 -0.0430
  996SOL    HW114624   0.846   4.207   7.043  3.7528 -0.7571 -0.5508
  996SOL    HW214625   0.741   4.185   6.929 -0.1430 -0.6512  0.1277
  997SOL     OW14626   2.246   1.008   8.976  0.0705 -0.1011 -0.3341
  997SOL    HW114627   2.296   0.942   8.928 -0.7887  0.4920 -2.0542
  997SOL    HW214628   2.260   0.985   9.068 -0.1651  2.0565  0.2277
  998SOL     OW14629   3.089   0.196  12.351  0.1257  0.0540  0.3427
  998SOL    HW114630   3.059   0.118  12.305  1.4029 -1.1833  1.6094
  998SOL    HW214631   3.113   0.259  12.283 -1.7610  1.4670  0.9877
  999SOL     OW14632   1.785   2.911   3.908  0.1662 -0.1262 -0.1991
  999SOL    HW114633   1.769   2.817   3.898  0.3792  0.1650 -3.0538
  999SOL    HW214634   1.790   2.945   3.819 -1.1157 -1.6655 -0.8572
 1000SOL     OW14635   2.932   0.616   3.862 -0.0691 -0.0132 -0.1732
 1000SOL    HW114636   2.941   0.521   3.852 -0.8573  0.1759 -2.7037
 1000SOL    HW214637   2.996   0.641   3.796  0.9801 -1.3886  0.3097
 1001SOL     OW14638   4.125   0.606   5.785  0.3249  0.0391 -0.0073
 1001SOL    HW114639   4.220   0.616   5.781  0.3131 -1.3831 -3.7452
 1001SOL    HW214640   4.111   0.563   5.700 -0.9409 -0.0804  0.2578
 1002SOL     OW14641   0.922   3.392   1.694 -0.3342 -0.7046 -0.1923
 1002SOL    HW114642   0.846   3.410   1.749  1.0213  0.3303  1.3104
 1002SOL    HW214643   0.951   3.478   1.663  0.5739 -0.3108  1.7749
 1003SOL     OW14644   0.642   1.927   5.230  0.1170 -0.2751  0.3698
 1003SOL    HW114645   0.553   1.958   5.211  0.1476 -1.8589 -2.3844
 1003SOL    HW214646   0.659   1.962   5.317  2.8830 -1.3422  0.2547
 1004SOL     OW14647   4.438   3.421   1.542 -0.0420  0.1377 -0.2054
 1004SOL    HW114648   4.435   3.404   1.448  1.1196  1.8433 -0.5447
 1004SOL    HW214649   4.514   3.475   1.561  0.3946 -0.9104  1.0694
 1005SOL     OW14650   2.391   1.240   5.124  0.1407  0.3652 -0.3312
 1005SOL    HW114651   2.437   1.267   5.044 -1.5205 -0.2647 -1.5017
 1005SOL    HW214652   2.453   1.176   5.159 -1.8932 -2.0877 -1.1915
 1006SOL     OW14653   1.459   4.108   3.228 -0.3723 -0.1506  0.2868
 1006SOL    HW114654   1.520   4.118   3.301  0.3689  1.1810 -0.5241
 1006SOL    HW214655   1.522   4.092   3.158 -0.6289 -1.9850  0.4735
 1007SOL     OW14656   2.529   2.355   4.082 -0.0335 -0.2982  0.1017
 1007SOL    HW114657   2.576   2.434   4.055  1.3680 -1.2055 -0.0992
 1007SOL    HW214658   2.577   2.287   4.034 -0.6588 -0.0864 -0.8290
 1008SOL     OW14659   1.021   0.441   5.924 -0.3147  0.1717 -0.2950
 1008SOL    HW114660   0.936   0.475   5.895 -0.0752 -0.1480 -1.3970
 1008SOL    HW214661   1.063   0.520   5.958 -2.5227 -0.1964  3.3365
 1009SOL     OW14662   4.459   4.434  10.829  0.1988 -0.3246  0.6858
 1009SOL    HW114663   4.433   4.407  10.918 -0.6502 -0.1491  0.4938
 1009SOL    HW214664   4.502   4.355  10.798 -0.0033 -0.2067  0.1150
 1010SOL     OW14665   2.993   1.395  11.732 -0.7416 -0.3712 -0.3070
 1010SOL    HW114666   2.962   1.463  11.792 -1.6742  0.5797 -1.8473
 1010SOL    HW214667   2.914   1.358  11.692 -0.5742 -1.7689  0.6591
 1011SOL     OW14668   0.032   2.411   5.829  0.2915 -0.2549  0.2941
 1011SOL    HW114669   0.008   2.335   5.883  1.5170 -1.2602 -0.5774
 1011SOL    HW214670   0.089   2.458   5.890  1.6311 -1.3080 -0.1469
 1012SOL     OW14671   0.714   2.045   4.623  0.2142  0.2387 -0.0369
 1012SOL    HW114672   0.686   2.039   4.714  1.7024 -1.9863  0.2821
 1012SOL    HW214673   0.797   1.998   4.620 -0.4929 -0.9733 -0.7784
 1013SOL     OW14674   4.319   0.378   0.416  0.1708  0.2056 -0.1357
 1013SOL    HW114675   4.356   0.382   0.328  3.1918  1.1740  1.1791
 1013SOL    HW214676   4.397   0.379   0.471 -0.6461  1.7166  0.9994
 1014SOL     OW14677   4.594   4.607   1.521  0.0555 -0.0758  0.2184
 1014SOL    HW114678   4.573   4.699   1.538 -0.4536 -0.4190  1.4417
 1014SOL    HW214679   4.573   4.604   1.427  1.7034 -2.2088 -0.0745
 1015SOL     OW14680   3.810   0.894   8.795  0.2086  0.3952 -0.4102
 1015SOL    HW114681   3.727   0.849   8.814  0.4065 -0.3315 -1.2743
 1015SOL    HW214682   3.881   0.863   8.852  0.8695 -2.1949 -2.6208
 1016SOL     OW14683   3.422   4.127   1.341 -0.2131 -0.1178  0.8066
 1016SOL    HW114684   3.458   4.215   1.335  1.6897 -0.8289  2.0009
 1016SOL    HW214685   3.431   4.099   1.433  0.5121 -1.4953  0.3127
 1017SOL     OW14686   1.474   2.620   2.768 -1.0487  0.1522 -0.2735
 1017SOL    HW114687   1.443   2.538   2.728 -0.2642 -1.3101  2.1165
 1017SOL    HW214688   1.436   2.679   2.704  0.6562  1.2412 -0.2803
 1018SOL     OW14689   1.661   2.886  13.901 -0.1729 -0.6529  0.4067
 1018SOL    HW114690   1.623   2.868  13.815 -0.0435  2.0490 -0.2211
 1018SOL    HW214691   1.597   2.948  13.936  0.6368 -0.2981  1.2560
 1019SOL     OW14692   3.691   2.827  15.445  0.2871 -0.7450  0.4417
 1019SOL    HW114693   3.717   2.893  15.380  0.4936  0.0488  1.3187
 1019SOL    HW214694   3.775   2.783  15.457 -0.6024 -2.3755  0.7146
 1020SOL     OW14695   1.532   0.357   1.650  0.6664  0.1414  0.1723
 1020SOL    HW114696   1.574   0.435   1.686 -2.7468  2.5558 -1.0676
 1020SOL    HW214697   1.570   0.346   1.562  0.4807 -1.8178  0.3255
 1021SOL     OW14698   3.523   1.991   5.365  0.3961  0.1728 -0.0064
 1021SOL    HW114699   3.515   2.056   5.296  0.8903  1.7194  1.4082
 1021SOL    HW214700   3.599   1.944   5.331  0.7139  0.1157  0.7905
 1022SOL     OW14701   3.819   4.219  16.080  0.3842 -0.4830 -0.2717
 1022SOL    HW114702   3.794   4.258  15.996 -0.4161  2.2933  1.2793
 1022SOL    HW214703   3.915   4.219  16.077  0.4074  0.8729  0.9515
 1023SOL     OW14704   3.304   0.834   8.349  0.4244  0.6653  0.2179
 1023SOL    HW114705   3.326   0.758   8.296 -1.4135 -0.3572  0.9083
 1023SOL    HW214706   3.212   0.832   8.322  0.3710 -0.6368  0.5088
 1024SOL     OW14707   4.576   1.379   1.078 -0.0719  0.1260  0.1786
 1024SOL    HW114708   4.641   1.309   1.089  1.4367  1.6284  0.8750
 1024SOL    HW214709   4.492   1.339   1.098 -1.2513  2.0772 -0.8462
 1025SOL     OW14710   0.294   3.192  14.845  0.2553 -0.0472  0.1158
 1025SOL    HW114711   0.311   3.262  14.908  1.1857  0.5661 -0.8195
 1025SOL    HW214712   0.293   3.245  14.765 -1.5714  0.4767  0.4679
 1026SOL     OW14713   3.993   2.376   3.850 -0.2358  0.4350  0.2482
 1026SOL    HW114714   3.965   2.447   3.908  2.2477  0.1562  1.7597
 1026SOL    HW214715   3.934   2.388   3.775  0.6619  2.1781 -0.1802
 1027SOL     OW14716   3.329   2.261   4.637  0.1609  0.1409  0.0268
 1027SOL    HW114717   3.415   2.302   4.634 -0.0843  0.6428 -0.1264
 1027SOL    HW214718   3.275   2.310   4.574 -2.1043 -0.8108  1.2297
 1028SOL     OW14719   1.606   0.544  17.350  0.2525  0.1013  0.3244
 1028SOL    HW114720   1.581   0.498  17.430 -0.1538 -1.1728 -0.5321
 1028SOL    HW214721   1.589   0.474  17.287  3.0427 -1.3151  1.1960
 1029SOL     OW14722   2.493   1.799   7.037 -0.3747 -0.1495  0.1607
 1029SOL    HW114723   2.416   1.853   7.018  0.3917  1.7229  2.3151
 1029SOL    HW214724   2.509   1.817   7.130 -2.1992  0.1828  0.4046
 1030SOL     OW14725   2.936   1.657  16.692  0.8287  0.0378  0.3655
 1030SOL    HW114726   2.901   1.591  16.632  0.3276  0.4246  0.2293
 1030SOL    HW214727   2.887   1.735  16.664  0.0634 -0.1973  1.0664
 1031SOL     OW14728   1.479   1.969   8.658 -0.0004  0.2723 -0.3450
 1031SOL    HW114729   1.409   1.919   8.701  1.2444 -0.2101  1.0870
 1031SOL    HW214730   1.479   2.051   8.707 -1.0920 -0.9912  1.7677
 1032SOL     OW14731   0.536   2.933  11.462  0.2781 -0.0281 -0.2129
 1032SOL    HW114732   0.541   3.019  11.420  2.4462  0.0498  0.2202
 1032SOL    HW214733   0.505   2.959  11.549  1.4183  0.3579  0.0778
 1033SOL     OW14734   4.138   4.737   6.217 -0.5686  0.5005 -0.3116
 1033SOL    HW114735   4.127   4.647   6.247  0.8480 -0.0511 -1.4634
 1033SOL    HW214736   4.166   0.029   6.304 -2.2927  1.4926 -0.0951
 1034SOL     OW14737   3.608   4.560   5.105 -0.3739 -0.0253  0.3464
 1034SOL    HW114738   3.627   4.599   5.190 -2.5926 -1.3758  1.4857
 1034SOL    HW214739   3.622   4.635   5.047 -1.5477 -0.7055 -0.8293
 1035SOL     OW14740   3.245   2.377  11.744 -0.0941 -0.0318 -0.4527
 1035SOL    HW114741   3.224   2.330  11.825 -1.2462 -0.2494 -0.8828
 1035SOL    HW214742   3.171   2.356  11.688  0.1176 -1.5988 -0.1469
 1036SOL     OW14743   3.389   1.506   9.015  0.1354 -0.0227  0.7751
 1036SOL    HW114744   3.447   1.480   8.943 -2.7338  0.9823 -1.8956
 1036SOL    HW214745   3.445   1.530   9.088  1.8584 -0.0522 -0.5199
 1037SOL     OW14746   4.042   0.386   6.249  0.3171 -0.2683 -0.6309
 1037SOL    HW114747   3.976   0.331   6.291  1.6702 -1.8138 -0.5022
 1037SOL    HW214748   4.028   0.369   6.156  2.0111 -1.2751 -0.7012
 1038SOL     OW14749   1.524   2.349   9.222  0.1818 -0.2849  0.2129
 1038SOL    HW114750   1.493   2.262   9.248 -2.2897 -0.2700 -2.7163
 1038SOL    HW214751   1.615   2.331   9.198  0.0978  2.5190 -2.1171
 1039SOL     OW14752   0.342   4.225   1.798 -0.0697  0.0923 -0.4871
 1039SOL    HW114753   0.344   4.130   1.807  0.7782  0.0239 -1.3359
 1039SOL    HW214754   0.258   4.227   1.751 -0.7259  0.4293  0.7003
 1040SOL     OW14755   3.705   1.998  10.211  0.0371 -0.5470 -0.0281
 1040SOL    HW114756   3.718   2.067  10.147 -0.5023 -1.9299 -1.6188
 1040SOL    HW214757   3.698   1.925  10.149 -0.7517 -1.2207  0.8451
 1041SOL     OW14758   1.309   2.867   1.342  0.2293  0.0938  0.3923
 1041SOL    HW114759   1.217   2.868   1.316 -0.7424 -3.7417  3.6431
 1041SOL    HW214760   1.302   2.822   1.426 -1.0231 -0.5435 -0.0507
 1042SOL     OW14761   1.706   3.284   3.903 -0.2222 -0.0152 -0.3577
 1042SOL    HW114762   1.789   3.287   3.855 -0.0211  0.2902  0.0099
 1042SOL    HW214763   1.727   3.325   3.987  0.0974 -0.0347 -0.4291
 1043SOL     OW14764   3.867   0.511   4.534 -0.1597 -0.2548  0.2045
 1043SOL    HW114765   3.926   0.564   4.588 -0.1592  0.3620 -0.4143
 1043SOL    HW214766   3.883   0.422   4.565 -3.0597 -1.0105 -0.4731
 1044SOL     OW14767   1.422   4.104  11.823 -0.5092 -0.2462 -0.1771
 1044SOL    HW114768   1.338   4.123  11.865  0.2290 -0.5471  1.4322
 1044SOL    HW214769   1.400   4.155  11.745 -1.1467 -0.5497 -0.1931
 1045SOL     OW14770   4.104   4.535  10.298 -0.0965  0.0744 -0.8665
 1045SOL    HW114771   4.161   4.610  10.318  0.5239  0.1316 -2.8300
 1045SOL    HW214772   4.096   4.539  10.202 -1.6016  1.7423 -0.6884
 1046SOL     OW14773   0.480   0.592   8.614  0.4885 -0.0220  0.2007
 1046SOL    HW114774   0.452   0.520   8.670 -1.0080 -0.4905 -1.1382
 1046SOL    HW214775   0.482   0.668   8.673 -0.5295 -0.7582  1.1778
 1047SOL     OW14776   3.018   2.316  11.652 -0.5316  0.3310 -0.6681
 1047SOL    HW114777   2.930   2.279  11.647 -0.1587 -0.6520  0.1434
 1047SOL    HW214778   3.058   2.290  11.569  0.7424  2.1176 -0.6168
 1048SOL     OW14779   4.030   4.530  14.602 -0.5289  0.0143  0.3848
 1048SOL    HW114780   4.038   4.558  14.510  2.1263 -0.8748  0.3582
 1048SOL    HW214781   4.122   4.536  14.628  0.1041 -1.0106 -1.5796
 1049SOL     OW14782   0.448   2.367   1.999 -0.4555  0.3620  0.0221
 1049SOL    HW114783   0.362   2.331   2.020 -0.5263  0.4399 -0.1268
 1049SOL    HW214784   0.459   2.435   2.066  0.0921  2.0060 -1.7092
 1050SOL     OW14785   3.899   3.559   3.320  0.5038 -0.0773 -0.2592
 1050SOL    HW114786   3.910   3.494   3.250  0.3710 -0.0365 -0.3182
 1050SOL    HW214787   3.941   3.512   3.392 -2.2402 -1.7799  0.2403
 1051SOL     OW14788   4.696   0.020   5.389  0.2411 -0.1313 -1.2136
 1051SOL    HW114789   4.669   4.665   5.389 -2.7784  0.7605  1.1308
 1051SOL    HW214790   4.644   0.051   5.463  1.0742 -3.0105  0.5646
 1052SOL     OW14791   3.610   3.555  15.939  0.6497  0.1587 -0.0909
 1052SOL    HW114792   3.568   3.591  16.017  0.1704 -2.1553  0.7431
 1052SOL    HW214793   3.666   3.486  15.975 -1.3500 -1.4609 -0.1060
 1053SOL     OW14794   3.843   4.602   4.360 -0.1167 -0.4018  0.2074
 1053SOL    HW114795   3.820   4.541   4.431  1.2093 -1.0174  0.1081
 1053SOL    HW214796   3.766   4.657   4.376  0.1488  0.5301 -1.7219
 1054SOL     OW14797   0.507   1.449   1.818  0.1236 -0.2554  0.3683
 1054SOL    HW114798   0.490   1.376   1.879  0.6512 -0.8535 -0.2034
 1054SOL    HW214799   0.555   1.405   1.748  0.0428  0.0680  0.1115
 1055SOL     OW14800   3.196   0.560   7.867 -0.1194 -0.5620  0.3304
 1055SOL    HW114801   3.163   0.588   7.782 -1.3696  2.1743  1.7126
 1055SOL    HW214802   3.135   0.490   7.888  1.1880 -1.5714  0.8243
 1056SOL     OW14803   3.585   0.265   5.280  0.0046  0.1442  0.3904
 1056SOL    HW114804   3.497   0.280   5.314 -0.5836  0.9465 -1.4973
 1056SOL    HW214805   3.641   0.239   5.354  0.4944  0.6261  0.1882
 1057SOL     OW14806   2.817   4.270  12.872 -0.5582 -0.0198  0.1282
 1057SOL    HW114807   2.823   4.183  12.832 -0.0594  1.1394 -2.3025
 1057SOL    HW214808   2.724   4.286  12.862 -0.5154 -0.8033 -1.4761
 1058SOL     OW14809   3.068   0.565  11.310 -0.4991 -0.2170  0.1493
 1058SOL    HW114810   3.001   0.629  11.285 -1.5620 -1.0551  0.8358
 1058SOL    HW214811   3.011   0.510  11.363 -0.6711  0.9662  1.2097
 1059SOL     OW14812   3.764   3.004   8.581 -0.3054 -0.0474 -0.5279
 1059SOL    HW114813   3.727   3.079   8.535 -0.1763  0.6370  0.4680
 1059SOL    HW214814   3.748   2.945   8.508 -0.1025  0.2787 -0.8326
 1060SOL     OW14815   0.221   4.354   8.026  0.0604  0.3562 -0.2384
 1060SOL    HW114816   0.148   4.372   8.084  0.8460 -0.4060  0.9876
 1060SOL    HW214817   0.275   4.300   8.085  1.2592  1.9567  0.1374
 1061SOL     OW14818   1.583   0.731   3.675  0.4115  0.1090  0.3481
 1061SOL    HW114819   1.584   0.707   3.582 -2.8694  0.5442  0.1726
 1061SOL    HW214820   1.660   0.697   3.720  0.0506  0.0305  0.9107
 1062SOL     OW14821   4.011   1.582   3.337  0.0355  0.9297  0.1940
 1062SOL    HW114822   3.983   1.492   3.320  0.2581  0.4088  2.4686
 1062SOL    HW214823   3.932   1.613   3.382 -0.8274 -0.7254 -0.1759
 1063SOL     OW14824   4.152   3.693   5.021 -0.8598  0.0277 -0.3136
 1063SOL    HW114825   4.086   3.762   5.029 -0.4668  0.1392  2.1178
 1063SOL    HW214826   4.103   3.632   4.966 -0.5084  0.4034 -1.0383
 1064SOL     OW14827   2.897   3.966   8.466 -0.4316  0.2424  0.2313
 1064SOL    HW114828   2.826   3.944   8.526 -2.1121 -0.3570 -2.0241
 1064SOL    HW214829   2.972   3.924   8.508 -1.0701 -1.5908 -0.4973
 1065SOL     OW14830   3.692   0.282  11.314 -0.1158 -0.1736 -0.2798
 1065SOL    HW114831   3.723   0.234  11.237 -1.5436 -0.8266 -0.4406
 1065SOL    HW214832   3.768   0.286  11.373 -0.3833 -1.0595  0.1214
 1066SOL     OW14833   1.872   2.781   1.712  0.3298 -0.9062  0.0298
 1066SOL    HW114834   1.814   2.708   1.734 -0.2532 -0.3839  0.2343
 1066SOL    HW214835   1.833   2.829   1.785 -3.2070 -1.4204 -1.5112
 1067SOL     OW14836   3.491   0.697   4.654 -0.1343 -0.0492 -0.1295
 1067SOL    HW114837   3.561   0.680   4.718 -0.1266  0.5025  0.0106
 1067SOL    HW214838   3.508   0.791   4.643 -1.8619  0.3390  0.5063
 1068SOL     OW14839   1.837   3.870   6.686  0.2349 -0.2987  0.0500
 1068SOL    HW114840   1.839   3.965   6.684 -2.2536 -0.2577 -0.2361
 1068SOL    HW214841   1.751   3.854   6.724 -0.2523  0.7759 -0.6276
 1069SOL     OW14842   0.118   1.232   0.837  0.2704 -0.0827 -0.4935
 1069SOL    HW114843   0.071   1.314   0.820  0.4972  0.2262  0.3385
 1069SOL    HW214844   0.204   1.251   0.800 -0.0365 -3.0241 -2.6781
 1070SOL     OW14845   3.685   4.553  12.148  0.1257  0.3337 -0.4719
 1070SOL    HW114846   3.764   4.540  12.201 -0.1417 -1.4646 -0.5112
 1070SOL    HW214847   3.707   4.521  12.060 -1.9477  1.2945 -1.3296
 1071SOL     OW14848   1.656   1.340   8.280 -0.1926 -0.0623 -0.1178
 1071SOL    HW114849   1.721   1.301   8.222 -0.1980  2.7242 -1.9792
 1071SOL    HW214850   1.579   1.314   8.229  1.5639 -1.6658 -1.9550
 1072SOL     OW14851   0.039   1.332   2.102 -0.0668  0.7368  0.2613
 1072SOL    HW114852   0.109   1.370   2.049  0.7221 -1.7249 -0.4723
 1072SOL    HW214853   0.037   1.407   2.162 -2.6126 -1.0779  2.4455
 1073SOL     OW14854   1.458   2.590   3.054 -0.4534 -0.0927  0.5495
 1073SOL    HW114855   1.448   2.605   2.960  3.2781 -0.4636  0.1007
 1073SOL    HW214856   1.451   2.495   3.065 -0.9867  0.0009  1.0225
 1074SOL     OW14857   1.023   2.840   6.730 -0.0557 -0.2287 -0.2371
 1074SOL    HW114858   0.951   2.783   6.757  2.2891 -2.8416  0.5152
 1074SOL    HW214859   1.084   2.784   6.682  1.0731  0.4826  0.3473
 1075SOL     OW14860   0.209   2.601   3.633 -0.3106  0.8612  0.0595
 1075SOL    HW114861   0.155   2.566   3.704  2.0270 -1.8759  0.4682
 1075SOL    HW214862   0.295   2.594   3.674 -0.1669 -3.8662 -1.0361
 1076SOL     OW14863   3.666   1.850   8.498 -0.3158  0.8563  1.0960
 1076SOL    HW114864   3.600   1.857   8.429  2.1241 -0.6763 -1.3697
 1076SOL    HW214865   3.615   1.886   8.571  0.2956  0.0516  1.9128
 1077SOL     OW14866   0.516   4.387   1.943 -0.0880 -0.3262  0.3623
 1077SOL    HW114867   0.553   4.423   1.862  0.0948  0.8647  0.9848
 1077SOL    HW214868   0.462   4.319   1.902  0.3522  0.0998 -0.9338
 1078SOL     OW14869   4.515   0.812   1.365 -0.5914  0.2592  0.1998
 1078SOL    HW114870   4.582   0.879   1.349 -1.3478  0.5958 -1.5622
 1078SOL    HW214871   4.449   0.850   1.307  1.5178  0.2965 -2.2244
 1079SOL     OW14872   1.153   2.693   6.544 -0.5366 -0.2424  0.1895
 1079SOL    HW114873   1.094   2.642   6.488 -0.9984  0.6003 -0.0786
 1079SOL    HW214874   1.154   2.771   6.489  0.4211  0.6424  1.4776
 1080SOL     OW14875   2.803   0.500   3.037  0.0677  0.3453  0.2307
 1080SOL    HW114876   2.886   0.545   3.054 -1.3911  2.7909  0.9214
 1080SOL    HW214877   2.783   0.528   2.948 -0.2410  0.4853  0.3459
 1081SOL     OW14878   1.279   0.208   6.632  0.1278  0.0668 -0.4790
 1081SOL    HW114879   1.209   0.155   6.595 -0.7712  0.5100  0.6027
 1081SOL    HW214880   1.350   0.183   6.573  2.3663  0.8325  1.8767
 1082SOL     OW14881   3.261   1.451   5.116 -0.0725 -0.0362 -0.1488
 1082SOL    HW114882   3.233   1.374   5.067  0.0948  1.3274 -2.3540
 1082SOL    HW214883   3.319   1.497   5.056  1.3478 -1.6111  0.0000
 1083SOL     OW14884   4.658   2.043   2.957  0.1059 -0.0573 -0.0318
 1083SOL    HW114885   4.630   2.089   3.036  1.6972  1.0477 -0.1075
 1083SOL    HW214886   4.600   1.968   2.947  1.7878 -1.3352 -0.1239
 1084SOL     OW14887   0.421   0.282   0.793  0.4730 -0.2747 -0.5591
 1084SOL    HW114888   0.458   0.369   0.775 -0.2266 -0.0732 -1.0210
 1084SOL    HW214889   0.493   0.229   0.759  0.5908 -0.5472  0.1096
 1085SOL     OW14890   3.180   2.720   2.581 -0.3108  0.0696  0.2638
 1085SOL    HW114891   3.220   2.774   2.649  1.0725  0.7611 -1.0867
 1085SOL    HW214892   3.089   2.717   2.610 -0.2930  1.8709  0.5358
 1086SOL     OW14893   1.244   0.029   0.538 -0.3618 -0.3281  0.3800
 1086SOL    HW114894   1.194   0.053   0.616  0.1336  1.2339  0.2109
 1086SOL    HW214895   1.214   4.677   0.524  1.6610 -0.8867 -0.3229
 1087SOL     OW14896   2.409   3.643   3.315  0.2205 -0.2382 -0.0395
 1087SOL    HW114897   2.336   3.580   3.310 -0.2565  0.2457  0.7580
 1087SOL    HW214898   2.487   3.595   3.288  0.6535  0.9583 -0.9055
 1088SOL     OW14899   2.933   1.428   7.781  0.5887 -0.3750  0.2221
 1088SOL    HW114900   2.943   1.462   7.870  0.5179  0.6206 -0.1541
 1088SOL    HW214901   2.949   1.336   7.803  3.7137 -0.7015 -3.5271
 1089SOL     OW14902   0.363   2.287   1.722  0.0097 -0.4038 -0.0610
 1089SOL    HW114903   0.385   2.306   1.814  2.8206  0.0417 -0.8238
 1089SOL    HW214904   0.325   2.200   1.730  2.9737 -1.7060 -0.0142
 1090SOL     OW14905   1.065   3.075   2.678 -0.3624 -0.0816 -0.1646
 1090SOL    HW114906   1.113   3.006   2.631  0.4994 -0.2727  1.0069
 1090SOL    HW214907   1.133   3.142   2.673  0.3787 -0.8933 -1.0320
 1091SOL     OW14908   2.125   3.647   2.480  0.5811  0.1654  0.7081
 1091SOL    HW114909   2.119   3.702   2.402 -0.2524 -0.6586  0.1979
 1091SOL    HW214910   2.164   3.565   2.448 -1.7404 -0.6860  0.0439
 1092SOL     OW14911   0.730   1.811   2.905 -0.0944  0.3410 -0.1739
 1092SOL    HW114912   0.725   1.717   2.922  3.3774  0.2466  0.2786
 1092SOL    HW214913   0.711   1.823   2.812 -0.8153  4.0733  0.4539
 1093SOL     OW14914   0.259   2.440   4.678 -0.1323  0.0134  0.3320
 1093SOL    HW114915   0.191   2.385   4.638  1.0463 -0.4350 -1.0544
 1093SOL    HW214916   0.344   2.405   4.651 -0.2708  0.5536 -0.7878
 1094SOL     OW14917   4.284   0.948   9.459 -0.2516  0.0602 -0.4938
 1094SOL    HW114918   4.308   0.858   9.435  0.1099  0.3107 -1.0786
 1094SOL    HW214919   4.347   0.964   9.528  0.9517 -1.4672 -1.2179
 1095SOL     OW14920   0.786   4.189   5.760  0.4683  0.2994  0.2112
 1095SOL    HW114921   0.709   4.133   5.773  2.4561 -2.4118  0.4225
 1095SOL    HW214922   0.775   4.246   5.836  1.1419 -0.7139  1.0696
 1096SOL     OW14923   0.691   2.724   6.044  0.0686 -0.0878  1.0180
 1096SOL    HW114924   0.762   2.749   5.984 -0.4063 -1.7117 -0.2439
 1096SOL    HW214925   0.695   2.792   6.111  1.4234  0.8661 -0.0143
 1097SOL     OW14926   3.090   1.767   1.730 -0.1012 -0.0694 -0.1564
 1097SOL    HW114927   3.017   1.734   1.677 -0.3794 -0.9136  0.7543
 1097SOL    HW214928   3.087   1.862   1.716  0.7309  0.1877  1.4611
 1098SOL     OW14929   1.233   0.159  12.639 -0.0681 -0.1354 -0.0029
 1098SOL    HW114930   1.168   0.191  12.702  1.3826 -2.1304  2.4549
 1098SOL    HW214931   1.313   0.180  12.687  0.5092 -0.0250 -1.0111
 1099SOL     OW14932   2.892   4.340   6.018  0.4100  0.3057 -0.5285
 1099SOL    HW114933   2.953   4.349   5.945  0.4906 -2.3048 -0.7727
 1099SOL    HW214934   2.823   4.287   5.977  1.1772 -1.4142  0.4199
 1100SOL     OW14935   3.427   4.519   7.559  0.4144  0.3829  0.3574
 1100SOL    HW114936   3.347   4.567   7.582 -0.4412 -0.8745  0.0546
 1100SOL    HW214937   3.422   4.523   7.463 -0.5700 -1.6947  0.3230
 1101SOL     OW14938   4.198   2.704  14.244  0.2960  0.5362  0.5924
 1101SOL    HW114939   4.115   2.753  14.246  0.8334  1.4799 -0.2486
 1101SOL    HW214940   4.252   2.764  14.193 -0.5699 -0.5225 -1.5438
 1102SOL     OW14941   3.094   3.440   2.413  0.4976  0.2754 -0.2904
 1102SOL    HW114942   3.029   3.373   2.437  1.7228 -0.3027  1.4295
 1102SOL    HW214943   3.092   3.444   2.318  1.8147  1.0202 -0.2960
 1103SOL     OW14944   1.614   1.187   1.899 -0.3217 -0.1137 -0.3360
 1103SOL    HW114945   1.528   1.214   1.931  0.1806 -1.4138  2.0650
 1103SOL    HW214946   1.577   1.173   1.811  0.7939  0.7079 -0.9424
 1104SOL     OW14947   2.005   3.486   3.886  0.1633 -0.4299  0.3347
 1104SOL    HW114948   2.062   3.556   3.918  0.2317 -0.4335  0.2231
 1104SOL    HW214949   1.932   3.540   3.856  2.1991  1.6640 -0.9411
 1105SOL     OW14950   3.493   3.042  16.123 -0.0866 -0.4818  0.3641
 1105SOL    HW114951   3.507   2.948  16.137 -0.1485 -0.6150 -0.4616
 1105SOL    HW214952   3.571   3.077  16.080 -1.1993  2.2691  0.6561
 1106SOL     OW14953   1.983   4.536   7.860 -0.3635  0.1723 -0.1306
 1106SOL    HW114954   1.892   4.560   7.841 -0.6674 -0.1774  0.8754
 1106SOL    HW214955   2.040   4.564   7.789 -0.2601  0.3904  0.0394
 1107SOL     OW14956   3.332   4.296   6.151 -0.0198 -0.6993  0.0651
 1107SOL    HW114957   3.347   4.364   6.218 -1.2867 -0.6657  0.3135
 1107SOL    HW214958   3.297   4.354   6.083  1.2913 -1.4634 -1.2641
 1108SOL     OW14959   1.872   1.756  11.345  0.7834 -0.1092 -0.3859
 1108SOL    HW114960   1.928   1.740  11.421  0.3630  0.9456  0.1551
 1108SOL    HW214961   1.863   1.852  11.345 -3.5975 -0.5103  0.0237
 1109SOL     OW14962   4.713   1.115  15.998 -0.1722  0.4680 -0.1319
 1109SOL    HW114963   4.692   1.191  15.942 -0.6945  0.8767  0.6270
 1109SOL    HW214964   0.060   1.130  16.039  0.6659 -4.7814  0.0176
 1110SOL     OW14965   3.555   1.398   3.501 -0.5392  0.0881 -0.1360
 1110SOL    HW114966   3.629   1.342   3.475 -0.3231  0.3575 -0.1093
 1110SOL    HW214967   3.518   1.356   3.578 -1.0370 -1.3950 -1.1763
 1111SOL     OW14968   4.433   1.960   3.834 -0.3511 -0.2900  0.7084
 1111SOL    HW114969   4.417   2.016   3.910 -1.5192  0.6041 -0.1913
 1111SOL    HW214970   4.385   1.882   3.863  2.1987 -2.6947 -1.4911
 1112SOL     OW14971   4.670   0.792   4.106 -0.4514  0.3360  0.7489
 1112SOL    HW114972   4.604   0.839   4.055  0.5882  0.7458 -0.2043
 1112SOL    HW214973   4.716   0.859   4.156 -1.0910 -0.1876  2.0375
 1113SOL     OW14974   2.745   2.479   5.889  0.1865  0.0637 -0.4131
 1113SOL    HW114975   2.806   2.468   5.962 -0.5211 -0.9964  0.0362
 1113SOL    HW214976   2.697   2.558   5.913 -1.1070 -0.0020 -2.7215
 1114SOL     OW14977   3.584   3.079   4.847  0.4020 -0.3895 -0.0708
 1114SOL    HW114978   3.582   3.023   4.925  1.0951 -0.1159  0.1412
 1114SOL    HW214979   3.495   3.111   4.865  0.3409  0.1853 -1.4171
 1115SOL     OW14980   2.359   1.273   8.926 -0.0008 -0.2501 -0.1299
 1115SOL    HW114981   2.339   1.181   8.946 -0.1706 -0.0916  0.4290
 1115SOL    HW214982   2.434   1.257   8.868 -1.8554 -0.1170 -2.5717
 1116SOL     OW14983   3.304   0.656  17.499 -0.0653 -0.1984  0.2036
 1116SOL    HW114984   3.217   0.625  17.474 -1.3030  2.9516  0.5356
 1116SOL    HW214985   3.323   0.723  17.433  0.6540 -2.0172 -1.4216
 1117SOL     OW14986   1.239   2.927   4.280  0.0987  0.2912 -0.4066
 1117SOL    HW114987   1.196   2.907   4.363 -0.9267  0.5546 -0.8725
 1117SOL    HW214988   1.209   2.860   4.218 -1.5345 -0.1145  0.8424
 1118SOL     OW14989   2.593   3.055   2.092 -0.3781 -0.3780  0.2096
 1118SOL    HW114990   2.549   3.008   2.163 -1.1999 -2.1531 -1.4846
 1118SOL    HW214991   2.531   3.128   2.088  1.5735  1.1769 -1.7312
 1119SOL     OW14992   3.629   2.317   5.448 -0.4331  0.5440  0.2834
 1119SOL    HW114993   3.605   2.408   5.467  2.3985  1.5179 -0.6798
 1119SOL    HW214994   3.634   2.332   5.354  0.4621  0.0513  0.2483
 1120SOL     OW14995   4.066   3.997  14.061  0.1899  0.2249  0.2659
 1120SOL    HW114996   4.106   3.940  13.995 -2.0781 -0.0191 -0.8656
 1120SOL    HW214997   4.098   4.085  14.044 -1.7625  0.8454 -0.1897
 1121SOL     OW14998   3.946   0.300   6.002  0.3712 -0.1863  0.1776
 1121SOL    HW114999   4.015   0.292   5.936  0.5209 -0.7499  0.4047
 1121SOL    HW215000   3.889   0.360   5.953  1.8538  0.4002 -0.8113
 1122SOL     OW15001   2.690   2.039   9.194  0.0003 -0.3299 -0.4339
 1122SOL    HW115002   2.606   1.995   9.200  0.2792 -0.8185 -0.1217
 1122SOL    HW215003   2.719   2.046   9.285 -0.3314  1.2520 -0.4369
 1123SOL     OW15004   2.379   1.130  17.627 -0.5048 -0.1594  0.0969
 1123SOL    HW115005   2.474   1.114  17.621 -1.3500 -4.6037 -1.2824
 1123SOL    HW215006   2.371   1.172  17.712  1.3378 -0.0954  0.2572
 1124SOL     OW15007   0.753   4.269  10.406  0.1227 -0.1084  0.1621
 1124SOL    HW115008   0.743   4.303  10.495  0.9965 -0.2345  0.3022
 1124SOL    HW215009   0.777   4.178  10.423 -0.8969  0.1767  3.0890
 1125SOL     OW15010   0.189   1.484   7.303  0.0621 -0.3698  0.4026
 1125SOL    HW115011   0.193   1.465   7.397 -1.5423 -1.2874  0.2757
 1125SOL    HW215012   0.115   1.424   7.293  0.2509 -0.7142  1.0554
 1126SOL     OW15013   2.832   1.075   8.722 -0.1597  0.1952 -0.6545
 1126SOL    HW115014   2.914   1.120   8.702 -1.2270  0.6560 -4.0518
 1126SOL    HW215015   2.868   0.990   8.747  0.5820  0.5544 -0.4906
 1127SOL     OW15016   1.060   1.151  11.002 -1.6572 -0.1410  0.0891
 1127SOL    HW115017   1.049   1.125  11.093 -1.0636  2.5279  0.9162
 1127SOL    HW215018   1.064   1.247  11.009  2.5072 -0.4571  2.1669
 1128SOL     OW15019   3.263   3.790   2.248 -0.6385 -0.0922 -0.1832
 1128SOL    HW115020   3.246   3.840   2.328  1.7244  1.4102 -0.6164
 1128SOL    HW215021   3.213   3.714   2.276 -1.3291  0.2867 -0.3898
 1129SOL     OW15022   3.448   0.769   0.312 -0.5805 -0.1425 -0.3589
 1129SOL    HW115023   3.395   0.849   0.310 -0.5783 -0.1314  0.0057
 1129SOL    HW215024   3.527   0.796   0.359 -1.6638  0.2559  1.2391
 1130SOL     OW15025   3.912   1.504   4.032  0.0417 -0.3647 -0.6827
 1130SOL    HW115026   3.884   1.472   4.118 -1.6330  0.6068 -0.8705
 1130SOL    HW215027   4.007   1.506   4.040  0.0424  0.9779 -0.9146
 1131SOL     OW15028   2.979   1.441   7.014  0.1261 -0.1217 -0.1154
 1131SOL    HW115029   2.977   1.405   6.926 -1.5717  1.5828 -0.7835
 1131SOL    HW215030   2.916   1.512   6.996  0.6923 -0.2342 -2.4500
 1132SOL     OW15031   1.222   2.541   3.422  0.0422 -0.5873  0.0289
 1132SOL    HW115032   1.249   2.525   3.513  2.3281  1.3250 -0.3178
 1132SOL    HW215033   1.291   2.501   3.369  0.1483 -0.1416 -0.1715
 1133SOL     OW15034   1.498   4.353   3.870  0.2852  0.1335  0.3064
 1133SOL    HW115035   1.423   4.296   3.853 -0.5627  1.1878  0.4945
 1133SOL    HW215036   1.558   4.296   3.918  0.8779  0.5495  0.0524
 1134SOL     OW15037   1.362   0.188   3.575 -0.1220  0.0055 -0.0310
 1134SOL    HW115038   1.272   0.158   3.584 -0.7889  2.3196  0.9361
 1134SOL    HW215039   1.408   0.111   3.541  2.0329  1.5846 -0.7094
 1135SOL     OW15040   1.401   2.705   9.439  0.1139 -0.0209  0.4485
 1135SOL    HW115041   1.456   2.630   9.459  0.0409 -0.7461 -2.0992
 1135SOL    HW215042   1.317   2.670   9.466  0.8091  0.1651  2.8354
 1136SOL     OW15043   2.071   0.416   1.714 -0.1317  0.1061  0.2004
 1136SOL    HW115044   2.151   0.428   1.765  0.2151  2.4626 -0.8937
 1136SOL    HW215045   2.008   0.389   1.780  0.2254  0.5566  0.7235
 1137SOL     OW15046   4.023   3.117   5.808  0.6179  0.0287  0.2616
 1137SOL    HW115047   4.015   3.212   5.797 -0.2851 -0.4053 -2.8617
 1137SOL    HW215048   4.112   3.107   5.843  0.6835 -1.2368 -0.2746
 1138SOL     OW15049   3.140   4.562   2.649  0.2656 -0.1366 -0.2685
 1138SOL    HW115050   3.197   4.529   2.580 -1.5491  0.7528 -2.2003
 1138SOL    HW215051   3.188   4.524   2.722  0.3248  0.2274 -0.1191
 1139SOL     OW15052   2.394   1.857   5.741 -0.4752 -0.3953 -0.0049
 1139SOL    HW115053   2.427   1.848   5.651 -0.0315  0.4546  0.0691
 1139SOL    HW215054   2.478   1.867   5.786  0.9342 -2.7318 -2.0936
 1140SOL     OW15055   2.876   4.152   6.481  0.6993  0.1500 -0.3872
 1140SOL    HW115056   2.800   4.113   6.525  0.7028  2.3876  1.5904
 1140SOL    HW215057   2.859   4.130   6.389  0.2553 -1.8557  0.1623
 1141SOL     OW15058   1.243   0.878  16.429  0.3485  0.2203 -0.1145
 1141SOL    HW115059   1.190   0.838  16.497 -1.1928 -0.2540 -1.6081
 1141SOL    HW215060   1.311   0.811  16.428  1.8896  1.7591  3.2166
 1142SOL     OW15061   3.976   3.662  12.581 -0.2166  0.0053  0.2295
 1142SOL    HW115062   3.977   3.566  12.575  0.6604 -0.2090  3.6606
 1142SOL    HW215063   4.036   3.675  12.508 -0.5020  0.0473  0.0013
 1143SOL     OW15064   1.935   1.705   0.932  0.1253  0.7022 -0.6758
 1143SOL    HW115065   1.966   1.615   0.946 -0.3329  0.6467 -0.0589
 1143SOL    HW215066   1.979   1.729   0.850  0.4926 -2.2999 -1.3779
 1144SOL     OW15067   1.647   2.664  14.851  0.2737  0.0568  0.3008
 1144SOL    HW115068   1.665   2.584  14.901 -1.9723  0.1327  1.2325
 1144SOL    HW215069   1.696   2.640  14.772 -2.1557 -0.5160 -1.0531
 1145SOL     OW15070   2.386   1.824  10.296 -0.3499  0.1955 -0.1443
 1145SOL    HW115071   2.410   1.761  10.363 -1.4804  0.4897  0.5251
 1145SOL    HW215072   2.291   1.831  10.305 -0.5195  0.7381 -2.3648
 1146SOL     OW15073   1.771   0.970  13.553 -0.2876 -0.5060  0.4870
 1146SOL    HW115074   1.701   0.947  13.614 -0.9727 -0.1544 -0.1655
 1146SOL    HW215075   1.770   0.888  13.503  0.0349 -0.4229  0.3427
 1147SOL     OW15076   0.829   1.010  13.868 -0.0380  0.2242  0.5471
 1147SOL    HW115077   0.805   1.100  13.844  1.5138 -0.0988 -2.2350
 1147SOL    HW215078   0.746   0.970  13.893  0.3953 -1.3948 -0.5546
 1148SOL     OW15079   3.855   4.425   8.980  0.0437  0.1798 -0.3159
 1148SOL    HW115080   3.774   4.391   8.940 -1.1378  1.7655  0.7794
 1148SOL    HW215081   3.904   4.447   8.900 -0.4946 -0.9062 -0.9542
 1149SOL     OW15082   2.041   1.223   2.727  0.0578 -0.1065  0.3546
 1149SOL    HW115083   2.059   1.317   2.737  0.1677 -0.4809  3.6045
 1149SOL    HW215084   1.946   1.225   2.729  0.0862  1.6585 -0.0656
 1150SOL     OW15085   3.210   1.654   3.403  0.1725  0.5992  0.1924
 1150SOL    HW115086   3.168   1.731   3.363 -2.8512 -0.9756  0.3216
 1150SOL    HW215087   3.133   1.610   3.439  0.7340  0.1695  0.8780
 1151SOL     OW15088   1.448   3.702  14.472 -0.2495 -0.2765  0.1310
 1151SOL    HW115089   1.398   3.697  14.553 -0.2148 -0.4107  0.1450
 1151SOL    HW215090   1.380   3.727  14.410 -0.4430  0.8287  0.8025
 1152SOL     OW15091   0.511   3.321   5.032  0.4334  0.2652  0.9150
 1152SOL    HW115092   0.505   3.381   4.958 -1.7209 -1.8270 -0.6174
 1152SOL    HW215093   0.423   3.285   5.043  1.0355 -1.8430 -1.1687
 1153SOL     OW15094   4.232   2.402   6.972  1.0636  0.5067  0.4633
 1153SOL    HW115095   4.308   2.411   7.029  0.5594 -1.2426  1.3980
 1153SOL    HW215096   4.250   2.325   6.918  0.5813 -0.5855  1.8799
 1154SOL     OW15097   4.560   0.616   3.683  0.2619 -0.1917 -0.2904
 1154SOL    HW115098   4.493   0.644   3.745  1.0967  0.6760  0.2069
 1154SOL    HW215099   4.527   0.667   3.609  1.4758 -0.3827 -0.9728
 1155SOL     OW15100   2.086   4.173  16.889  0.0775  0.5357  0.6073
 1155SOL    HW115101   2.031   4.115  16.837  0.2544  0.3697  0.6036
 1155SOL    HW215102   2.174   4.150  16.858  0.4034 -0.3237  2.1676
 1156SOL     OW15103   0.691   1.061   5.278  0.0760  0.4264  0.7099
 1156SOL    HW115104   0.598   1.053   5.257  0.3750  0.0017 -0.4506
 1156SOL    HW215105   0.690   0.992   5.344 -2.9310 -0.0566  0.1826
 1157SOL     OW15106   2.127   4.257   7.404 -0.4331 -0.0275 -0.3358
 1157SOL    HW115107   2.110   4.212   7.321 -1.2403  0.4349 -0.4204
 1157SOL    HW215108   2.054   4.230   7.460 -0.4896  0.4594 -0.1678
 1158SOL     OW15109   4.296   1.784   3.458  0.4974 -0.4106  0.7349
 1158SOL    HW115110   4.325   1.743   3.540  1.5411 -0.2735  0.4322
 1158SOL    HW215111   4.258   1.712   3.408  0.7580 -0.5265  0.7050
 1159SOL     OW15112   4.695   2.654   1.730  0.2476 -0.1466  1.1345
 1159SOL    HW115113   0.021   2.586   1.707 -0.6539  0.5879 -3.4423
 1159SOL    HW215114   4.678   2.689   1.643  2.2176 -1.3693  0.2641
 1160SOL     OW15115   3.204   2.648   9.487  0.1083 -0.3306  0.5450
 1160SOL    HW115116   3.273   2.615   9.429 -0.0582 -2.0112  1.2882
 1160SOL    HW215117   3.128   2.591   9.474  2.1183 -3.5836  2.7326
 1161SOL     OW15118   2.319   1.699   6.167 -0.4986  0.0240  0.1896
 1161SOL    HW115119   2.261   1.747   6.226  1.1085  2.3690 -0.1090
 1161SOL    HW215120   2.274   1.695   6.083  0.2921 -0.6597 -0.1951
 1162SOL     OW15121   2.149   1.146  17.041 -0.0605 -0.5184 -0.1150
 1162SOL    HW115122   2.237   1.118  17.015  0.4217 -0.5345  1.4946
 1162SOL    HW215123   2.104   1.065  17.017  3.4052 -2.8524  1.2499
 1163SOL     OW15124   4.427   0.545  17.627 -0.2201  0.6165 -0.2937
 1163SOL    HW115125   4.428   0.560  17.532  0.3883 -0.8402 -0.5019
 1163SOL    HW215126   4.390   0.457  17.626  0.4342  0.3393  0.1867
 1164SOL     OW15127   1.078   1.337  15.599 -0.1972 -0.1791 -0.5775
 1164SOL    HW115128   1.009   1.386  15.644  0.8587 -0.9893  1.8978
 1164SOL    HW215129   1.105   1.273  15.665  0.7853  0.3654 -0.4521
 1165SOL     OW15130   4.095   0.395   8.605  0.1719  0.7511  0.5218
 1165SOL    HW115131   4.156   0.353   8.667 -0.5985 -0.0134  0.7589
 1165SOL    HW215132   4.062   0.323   8.552 -1.5597  2.9985 -1.4491
 1166SOL     OW15133   4.073   4.191   4.929 -0.4051 -0.7985  0.7680
 1166SOL    HW115134   4.131   4.230   4.864  0.1752 -1.4769  0.8892
 1166SOL    HW215135   4.126   4.183   5.009  1.0408 -1.7223 -0.2908
 1167SOL     OW15136   1.774   4.223   6.008  0.3684 -0.1904 -0.2316
 1167SOL    HW115137   1.718   4.190   6.078  0.9925 -0.9316 -0.0795
 1167SOL    HW215138   1.819   4.146   5.973  0.0198  0.4821 -2.1917
 1168SOL     OW15139   0.989   0.522  12.897 -0.0569  0.3537 -0.9581
 1168SOL    HW115140   0.937   0.583  12.949  1.2624 -0.1343  0.9441
 1168SOL    HW215141   1.021   0.576  12.825  0.3146  0.8840 -0.3971
 1169SOL     OW15142   4.133   1.288   5.341 -0.2493  0.2097 -0.0684
 1169SOL    HW115143   4.113   1.235   5.419 -2.2767  2.1292  0.7278
 1169SOL    HW215144   4.072   1.362   5.345 -0.8981 -0.2698 -0.9875
 1170SOL     OW15145   2.150   0.010   1.559  0.0324 -0.1354  0.3879
 1170SOL    HW115146   2.164   0.003   1.654 -2.3936  1.7513  0.8669
 1170SOL    HW215147   2.095   4.670   1.544  0.4518 -0.6986  1.7148
 1171SOL     OW15148   4.018   2.933   1.899  0.5021  0.0903  0.2798
 1171SOL    HW115149   4.011   3.015   1.948  1.1546  0.0379  0.4606
 1171SOL    HW215150   4.106   2.904   1.924  0.7846  0.3050 -0.4655
 1172SOL     OW15151   2.097   0.172   3.587  0.4444 -0.1955  0.2136
 1172SOL    HW115152   2.022   0.133   3.542 -2.1788  1.1876  3.3432
 1172SOL    HW215153   2.168   0.110   3.572  0.3611 -0.3602  0.4874
 1173SOL     OW15154   2.693   3.079   3.270  0.2236 -0.1285  0.0775
 1173SOL    HW115155   2.693   3.016   3.342  2.8160  1.3015  1.3628
 1173SOL    HW215156   2.655   3.157   3.310 -1.5894 -0.7787 -0.3723
 1174SOL     OW15157   2.359   2.061  11.608  0.6682 -0.1564  0.8503
 1174SOL    HW115158   2.355   2.140  11.663  0.7080 -0.8031  1.7788
 1174SOL    HW215159   2.348   2.103  11.523 -1.3799  0.5807  1.4815
 1175SOL     OW15160   3.088   2.474   7.191 -0.0624 -0.2113 -0.6071
 1175SOL    HW115161   3.154   2.472   7.260 -1.8320  0.0020  1.1166
 1175SOL    HW215162   3.003   2.476   7.236 -0.3061 -2.3433 -0.9578
 1176SOL     OW15163   2.384   3.758   2.339 -0.6150  0.2685  0.2569
 1176SOL    HW115164   2.296   3.779   2.308 -0.9368 -1.9426 -0.3358
 1176SOL    HW215165   2.436   3.761   2.259  0.4763 -0.3124  0.9280
 1177SOL     OW15166   2.359   2.230   4.679  0.0685 -0.1113  0.3295
 1177SOL    HW115167   2.283   2.176   4.700  1.7854 -2.0981  1.5199
 1177SOL    HW215168   2.370   2.201   4.589 -3.3824 -0.6381  0.0915
 1178SOL     OW15169   0.581   3.262   2.779 -0.4576  0.4769  0.0734
 1178SOL    HW115170   0.562   3.174   2.745 -1.2054  1.4306 -1.9392
 1178SOL    HW215171   0.676   3.251   2.770 -0.6187 -0.9071 -0.0627
 1179SOL     OW15172   3.424   3.409   4.614  0.4264  0.3457  0.4043
 1179SOL    HW115173   3.362   3.394   4.686 -1.1820  1.3628 -0.7738
 1179SOL    HW215174   3.420   3.325   4.570 -0.3652  1.3921 -1.4993
 1180SOL     OW15175   2.919   1.440   0.209  0.4636  0.0913  0.3020
 1180SOL    HW115176   2.878   1.441   0.296 -1.6885  1.0215 -0.7069
 1180SOL    HW215177   2.990   1.502   0.222  3.6467 -3.6075  0.3874
 1181SOL     OW15178   1.210   1.043   2.255 -0.1851  0.3296  0.1138
 1181SOL    HW115179   1.189   1.110   2.189  0.5024  0.0424 -0.4046
 1181SOL    HW215180   1.204   0.963   2.203 -1.9354  1.7443 -1.8795
 1182SOL     OW15181   2.645   0.646   2.862 -0.0759 -0.7969 -0.0223
 1182SOL    HW115182   2.627   0.596   2.783  2.1149  0.1962 -1.1649
 1182SOL    HW215183   2.556   0.645   2.895 -0.5104 -0.0802 -1.1594
 1183SOL     OW15184   0.635   0.785   9.155  0.0221 -0.2545  0.3098
 1183SOL    HW115185   0.718   0.782   9.203  1.3885  0.1199 -2.0302
 1183SOL    HW215186   0.662   0.763   9.066  0.1101 -4.2015  1.3026
 1184SOL     OW15187   0.006   4.439  16.125  0.2040 -0.1291  0.4961
 1184SOL    HW115188   4.706   4.479  16.047  2.0890  4.0578  1.7303
 1184SOL    HW215189   0.024   4.522  16.170 -2.0868  1.8284 -2.2391
 1185SOL     OW15190   1.932   2.849   8.048 -0.2008  0.0626 -0.0200
 1185SOL    HW115191   2.013   2.818   8.087 -0.3925  0.7401  0.9069
 1185SOL    HW215192   1.956   2.915   7.982 -0.4763  0.2187  0.0338
 1186SOL     OW15193   4.242   1.955  13.452 -0.3318  0.6721  0.1777
 1186SOL    HW115194   4.254   1.871  13.407  0.9954  1.3956 -0.8263
 1186SOL    HW215195   4.221   2.018  13.384 -0.0854  0.1970 -0.3368
 1187SOL     OW15196   0.374   1.279   3.471 -0.0069 -0.3915 -0.1696
 1187SOL    HW115197   0.406   1.210   3.528 -2.7650 -1.4111  0.1244
 1187SOL    HW215198   0.402   1.361   3.512  3.3879 -1.4257 -0.4019
 1188SOL     OW15199   0.951   2.572  11.392 -0.3815  0.4143  0.0346
 1188SOL    HW115200   1.036   2.600  11.358 -0.4813  0.1138 -0.4701
 1188SOL    HW215201   0.907   2.654  11.411 -0.0242  1.0688 -1.9418
 1189SOL     OW15202   4.619   2.448  12.299 -0.0508  0.1939  0.5259
 1189SOL    HW115203   4.584   2.359  12.296  2.1670 -0.5885 -1.8704
 1189SOL    HW215204   4.660   2.458  12.213 -0.6805  0.7082  0.2847
 1190SOL     OW15205   2.618   2.698   2.764  0.0277  0.3302  0.0974
 1190SOL    HW115206   2.623   2.747   2.683  1.7128 -0.9791 -0.6000
 1190SOL    HW215207   2.536   2.737   2.796 -0.1866  0.1128 -0.1842
 1191SOL     OW15208   0.601   3.617   5.674 -0.1021 -0.0071  0.5157
 1191SOL    HW115209   0.606   3.570   5.591  0.8103 -1.4648  1.4007
 1191SOL    HW215210   0.690   3.646   5.692  0.5251 -1.4104 -0.3723
 1192SOL     OW15211   3.352   4.328  12.598 -0.0808 -0.0621  0.2406
 1192SOL    HW115212   3.393   4.241  12.596 -0.2053 -0.0499 -3.1009
 1192SOL    HW215213   3.340   4.338  12.503 -0.0612  0.0890  0.2542
 1193SOL     OW15214   1.907   4.469   5.965  0.2981 -0.1251 -0.2077
 1193SOL    HW115215   1.866   4.526   5.899  1.0653  0.3931 -0.2370
 1193SOL    HW215216   1.843   4.398   5.972  1.3582 -1.0760 -0.2085
 1194SOL     OW15217   2.580   2.796   5.216  0.4985 -0.4703 -0.5437
 1194SOL    HW115218   2.600   2.834   5.130 -0.9604  2.8644  0.5749
 1194SOL    HW215219   2.624   2.712   5.202 -0.8764 -1.1580 -0.7415
 1195SOL     OW15220   2.427   0.914  12.750  0.0901  0.5599 -0.5403
 1195SOL    HW115221   2.426   1.000  12.791 -0.3262  1.0367 -1.5492
 1195SOL    HW215222   2.453   0.924  12.658  1.8209  4.5041  0.3877
 1196SOL     OW15223   1.689   1.347   4.530  0.3546  0.1924 -0.4044
 1196SOL    HW115224   1.621   1.399   4.574 -0.0110  0.0610 -0.8139
 1196SOL    HW215225   1.762   1.378   4.584  0.3623 -1.0976  0.3286
 1197SOL     OW15226   1.720   0.794   2.222 -0.0434 -0.4301  0.5624
 1197SOL    HW115227   1.643   0.851   2.215  1.5249  1.6721  0.7457
 1197SOL    HW215228   1.764   0.844   2.153 -3.2994 -0.1039 -1.2942
 1198SOL     OW15229   3.627   1.510   0.201 -0.4767  0.3464  0.3105
 1198SOL    HW115230   3.636   1.428   0.152 -0.0439  0.6863 -0.1795
 1198SOL    HW215231   3.625   1.480   0.292 -1.0988  1.3104  0.6086
 1199SOL     OW15232   3.613   1.238  11.926  0.4099  0.1183  0.5383
 1199SOL    HW115233   3.574   1.325  11.927  0.8342  0.3362 -1.1424
 1199SOL    HW215234   3.707   1.249  11.939  0.2374 -1.8488  3.4078
 1200SOL     OW15235   1.925   4.491  16.209 -0.5663  0.2640  0.1350
 1200SOL    HW115236   1.830   4.481  16.199 -0.2003 -1.3715 -1.7070
 1200SOL    HW215237   1.928   4.587  16.203  0.6364  0.2720  0.8481
 1201SOL     OW15238   2.868   1.588   4.228  1.2975 -0.1473 -0.1247
 1201SOL    HW115239   2.813   1.582   4.150  1.1060 -0.0288  0.0013
 1201SOL    HW215240   2.802   1.602   4.295  1.1729  0.3896 -0.3568
 1202SOL     OW15241   1.482   4.591   1.442  0.3711 -0.0699  0.1153
 1202SOL    HW115242   1.424   4.651   1.489 -0.3625  1.4400 -2.7129
 1202SOL    HW215243   1.476   4.635   1.356 -0.8032 -0.0908  0.1788
 1203SOL     OW15244   4.499   0.324   8.087 -0.0766 -0.0293 -0.0892
 1203SOL    HW115245   4.568   0.277   8.039 -0.0571 -1.6627  1.5473
 1203SOL    HW215246   4.500   0.275   8.169 -1.8043 -0.0448 -0.0856
 1204SOL     OW15247   3.927   1.888   5.548 -0.0640  0.1922 -0.3520
 1204SOL    HW115248   3.960   1.926   5.630 -0.3216  2.0202 -1.0797
 1204SOL    HW215249   3.970   1.939   5.479 -0.4013 -1.3781 -1.7011
 1205SOL     OW15250   3.664   4.466   6.379 -0.0796 -0.3953 -0.0871
 1205SOL    HW115251   3.732   4.478   6.313  1.6253 -1.0790  1.5381
 1205SOL    HW215252   3.640   4.376   6.357  1.3652 -0.8175  0.0691
 1206SOL     OW15253   0.240   2.807   1.704 -0.2102 -0.1505 -0.3463
 1206SOL    HW115254   0.233   2.783   1.796  0.6598 -1.4423 -0.6229
 1206SOL    HW215255   0.246   2.720   1.665  2.2911 -1.0775  2.1040
 1207SOL     OW15256   0.138   1.498   5.380  1.0456 -0.2455  0.7241
 1207SOL    HW115257   0.080   1.551   5.435  3.3469  1.8114  1.2265
 1207SOL    HW215258   0.168   1.560   5.313 -2.8756  0.2716 -0.5284
 1208SOL     OW15259   1.386   0.332  10.086  0.2062  0.3044  0.2381
 1208SOL    HW115260   1.428   0.397  10.030  1.6120 -0.5725  0.2903
 1208SOL    HW215261   1.463   0.295  10.129 -0.2595 -1.3639 -0.3377
 1209SOL     OW15262   1.460   4.393   9.848  0.8185 -0.3860  0.1278
 1209SOL    HW115263   1.549   4.394   9.815  1.0573 -2.6871  0.7202
 1209SOL    HW215264   1.479   4.430   9.934  0.1170 -0.6117  0.3779
 1210SOL     OW15265   3.831   3.068   1.419 -0.3726 -0.2242  0.1938
 1210SOL    HW115266   3.745   3.030   1.400 -1.4580  2.0662  0.4554
 1210SOL    HW215267   3.856   3.108   1.335 -0.7623 -2.2222 -0.8822
 1211SOL     OW15268   2.448   2.291   7.474  0.2069  0.0579 -0.3970
 1211SOL    HW115269   2.352   2.287   7.477  0.2215 -0.1095 -0.0613
 1211SOL    HW215270   2.467   2.249   7.390  1.2879  0.8592 -0.5510
 1212SOL     OW15271   1.244   3.167   6.005 -0.0234 -0.5971 -0.7006
 1212SOL    HW115272   1.177   3.115   6.050  0.9703 -1.5392 -0.3268
 1212SOL    HW215273   1.287   3.203   6.082 -1.5840 -0.0062 -0.1056
 1213SOL     OW15274   2.033   4.080   6.871  0.7943  0.4938 -0.0005
 1213SOL    HW115275   1.984   4.119   6.799 -1.0241 -1.5720  0.1186
 1213SOL    HW215276   2.097   4.027   6.825  1.9558  1.7994  0.0912
 1214SOL     OW15277   2.813   4.059   7.736  0.4029  0.2331 -0.3016
 1214SOL    HW115278   2.748   4.066   7.806  0.1153  0.6711 -0.6153
 1214SOL    HW215279   2.772   4.023   7.658  1.7663  1.0833 -1.4137
 1215SOL     OW15280   4.676   1.140  16.807  0.7487 -0.1390 -0.3772
 1215SOL    HW115281   4.698   1.052  16.775  0.2429 -0.0720 -0.9145
 1215SOL    HW215282   4.706   1.190  16.731  0.4755  0.7527  0.1101
 1216SOL     OW15283   0.324   2.961   5.476 -0.4109  0.3898 -0.1495
 1216SOL    HW115284   0.303   2.989   5.386 -2.2829 -0.5360 -0.0135
 1216SOL    HW215285   0.252   2.898   5.488 -0.9523  1.3634  1.7078
 1217SOL     OW15286   0.407   2.710   3.350 -0.5439  0.0176 -0.0422
 1217SOL    HW115287   0.436   2.729   3.439  1.4414  2.2574 -1.1663
 1217SOL    HW215288   0.319   2.747   3.355 -1.2479 -1.5442 -0.8388
 1218SOL     OW15289   1.001   4.315  12.973 -0.2023  0.1078 -0.0782
 1218SOL    HW115290   1.041   4.347  12.892  1.4598 -0.0853  0.6719
 1218SOL    HW215291   1.033   4.225  12.980  0.8302  0.3214 -1.8948
 1219SOL     OW15292   1.438   1.677   3.526 -1.0292 -0.2852 -0.6341
 1219SOL    HW115293   1.383   1.602   3.549 -0.8906  0.2676  1.5312
 1219SOL    HW215294   1.413   1.729   3.602 -1.8711  0.7958 -1.6615
 1220SOL     OW15295   3.860   4.563  16.657  0.0666  0.4552 -0.1043
 1220SOL    HW115296   3.909   4.638  16.626  0.4344  0.4138  0.3833
 1220SOL    HW215297   3.776   4.598  16.688 -0.3858  0.8424 -1.7639
 1221SOL     OW15298   3.512   2.976   4.586 -0.2553  0.1416  0.5997
 1221SOL    HW115299   3.540   3.023   4.665 -1.4439  1.5733  0.1783
 1221SOL    HW215300   3.443   2.922   4.625  0.7624 -0.8237  1.0661
 1222SOL     OW15301   3.508   0.413  17.558 -0.0989  0.2375  0.1208
 1222SOL    HW115302   3.594   0.454  17.552  0.1861 -0.3348  0.3939
 1222SOL    HW215303   3.450   0.485  17.531 -0.6921 -0.0680  0.5865
 1223SOL     OW15304   0.290   3.297   0.479  0.1482  0.4426  0.1749
 1223SOL    HW115305   0.310   3.249   0.559 -1.7967  1.2538  1.1475
 1223SOL    HW215306   0.337   3.378   0.498 -2.0344  2.1646 -1.7671
 1224SOL     OW15307   2.828   2.762   8.547  0.2484 -0.1700 -0.1352
 1224SOL    HW115308   2.904   2.816   8.566  1.2105 -0.6309 -2.5631
 1224SOL    HW215309   2.830   2.706   8.625  0.0118 -0.9963 -0.7138
 1225SOL     OW15310   0.621   2.226   8.815 -0.4340 -0.3488 -0.1765
 1225SOL    HW115311   0.649   2.202   8.726 -1.1822  0.9853 -0.7849
 1225SOL    HW215312   0.578   2.147   8.848 -1.0021  0.3410  0.7067
 1226SOL     OW15313   3.210   1.095  10.140  0.2959 -0.1019  0.7827
 1226SOL    HW115314   3.242   1.099  10.050 -0.3838 -0.2702  0.5334
 1226SOL    HW215315   3.136   1.155  10.127  1.9158  1.3917 -1.4685
 1227SOL     OW15316   0.331   3.828   2.602 -0.1311  0.3477  0.3276
 1227SOL    HW115317   0.412   3.814   2.652 -1.6299  0.1477  2.7012
 1227SOL    HW215318   0.272   3.773   2.652 -2.4587  0.9573 -1.7839
 1228SOL     OW15319   1.179   2.205  11.654  0.3426  0.0337  0.0241
 1228SOL    HW115320   1.185   2.142  11.582 -0.9231 -0.2363  0.1494
 1228SOL    HW215321   1.197   2.287  11.608 -2.9573  0.9106  0.2939
 1229SOL     OW15322   3.775   0.905   4.631  0.1373 -0.3513  0.1308
 1229SOL    HW115323   3.753   0.851   4.555 -1.2573  1.1604 -0.5417
 1229SOL    HW215324   3.852   0.858   4.664  0.7499 -0.8317 -1.9712
 1230SOL     OW15325   0.510   0.543   6.338  0.5195  0.5014 -0.3322
 1230SOL    HW115326   0.589   0.596   6.331 -0.2176  1.3900 -1.9785
 1230SOL    HW215327   0.439   0.604   6.319  1.2367  1.6051  0.5755
 1231SOL     OW15328   4.332   2.503   4.288 -0.0627  0.2792  0.4122
 1231SOL    HW115329   4.342   2.489   4.382  0.3213  2.4907  0.6896
 1231SOL    HW215330   4.421   2.505   4.254 -0.1041  0.8587  0.3449
 1232SOL     OW15331   4.635   4.166   8.830  0.2784 -0.4020 -0.0041
 1232SOL    HW115332   4.688   4.166   8.910 -1.2435  0.7857  0.9951
 1232SOL    HW215333   4.589   4.249   8.841 -0.9741 -0.7620 -2.6845
 1233SOL     OW15334   3.407   4.481   3.094  0.2584  0.8021  0.2170
 1233SOL    HW115335   3.341   4.422   3.057  1.3739 -0.7815  0.7632
 1233SOL    HW215336   3.442   4.436   3.171 -1.7703  1.1889  1.3610
 1234SOL     OW15337   3.483   4.587   2.608  0.1219  0.0695 -0.4845
 1234SOL    HW115338   3.468   4.611   2.699 -0.1629  0.0503 -0.5263
 1234SOL    HW215339   3.448   4.656   2.552 -0.9570 -0.3168 -0.2806
 1235SOL     OW15340   0.741   3.677   2.895 -0.4255 -0.4611  0.4079
 1235SOL    HW115341   0.785   3.644   2.973 -1.4296 -1.6437  0.4737
 1235SOL    HW215342   0.684   3.603   2.877 -2.9198  1.1851  1.5960
 1236SOL     OW15343   1.191   1.132   2.913  0.2937  0.3300 -0.6981
 1236SOL    HW115344   1.147   1.114   2.996  0.0334  0.7996 -0.7339
 1236SOL    HW215345   1.203   1.048   2.868 -0.7516 -0.7030  0.9420
 1237SOL     OW15346   3.405   0.832  17.332 -0.3457 -0.0186 -0.0130
 1237SOL    HW115347   3.392   0.868  17.244  0.1732  1.0318  0.3402
 1237SOL    HW215348   3.369   0.897  17.393  0.6844  1.2277 -0.7171
 1238SOL     OW15349   1.570   1.842   6.031  0.8397  0.3668 -0.0966
 1238SOL    HW115350   1.641   1.817   6.089 -0.6473  0.7082  1.8531
 1238SOL    HW215351   1.620   1.879   5.958  0.6238  1.1335  0.1513
 1239SOL     OW15352   0.371   1.906  14.420  0.6513 -0.5033 -0.5033
 1239SOL    HW115353   0.300   1.935  14.363  0.3061  0.0862  0.2246
 1239SOL    HW215354   0.425   1.984  14.417  0.1444 -0.1936 -1.7115
 1240SOL     OW15355   4.689   2.912  10.932  0.2602  0.0386  0.1656
 1240SOL    HW115356   4.694   2.865  10.849  0.4052  0.6526 -0.1786
 1240SOL    HW215357   0.033   2.962  10.928 -0.0296  0.6452  1.6798
 1241SOL     OW15358   0.866   3.895   9.714 -0.2749 -0.1645 -0.2348
 1241SOL    HW115359   0.849   3.977   9.668  0.3378  0.5893  0.8778
 1241SOL    HW215360   0.821   3.823   9.669 -2.0067  0.2792  0.7652
 1242SOL     OW15361   0.083   1.111   4.414  0.1515 -0.0837 -0.5059
 1242SOL    HW115362   0.023   1.106   4.339  1.1502 -0.5972 -1.2676
 1242SOL    HW215363   0.163   1.084   4.369 -0.2077  0.1886 -1.3091
 1243SOL     OW15364   4.030   1.140   1.444 -0.3136 -0.0761  0.1036
 1243SOL    HW115365   4.115   1.183   1.439  0.4884 -1.5065  1.2159
 1243SOL    HW215366   4.059   1.053   1.472  2.5193  1.6491  2.5654
 1244SOL     OW15367   2.658   1.506  12.785  0.3339  0.2968  0.3163
 1244SOL    HW115368   2.600   1.507  12.861 -1.6469  1.3999 -1.2173
 1244SOL    HW215369   2.615   1.575  12.735 -1.8616 -1.2594  0.0708
 1245SOL     OW15370   3.170   1.286   7.883 -0.3520  0.4278  0.3780
 1245SOL    HW115371   3.239   1.260   7.944  1.2304 -0.1926 -1.6537
 1245SOL    HW215372   3.155   1.374   7.916 -0.5568  0.2082  0.8622
 1246SOL     OW15373   4.341   0.688   5.443 -0.3838  0.0631  0.4304
 1246SOL    HW115374   4.289   0.768   5.433 -1.1086 -0.5744 -0.8550
 1246SOL    HW215375   4.432   0.716   5.433 -0.4328 -0.1949 -0.7175
 1247SOL     OW15376   0.585   0.948  16.164 -0.6982  0.3526  0.0274
 1247SOL    HW115377   0.601   0.916  16.075  0.1559  2.8658 -0.7032
 1247SOL    HW215378   0.531   1.024  16.142  2.1434  1.6742 -2.3904
 1248SOL     OW15379   1.794   0.647   4.739  0.4220 -0.5042 -0.0376
 1248SOL    HW115380   1.861   0.699   4.784  0.2417  0.3190 -0.7434
 1248SOL    HW215381   1.757   0.718   4.687  1.6090  0.0422 -0.1314
 1249SOL     OW15382   3.321   2.184   0.982  0.0858  0.1307  0.4187
 1249SOL    HW115383   3.240   2.139   0.960 -0.9863  1.3119  2.0013
 1249SOL    HW215384   3.322   2.201   1.076 -1.9702 -1.3999  0.7049
 1250SOL     OW15385   0.093   0.270   3.339  0.3990 -0.2056 -0.7975
 1250SOL    HW115386   0.079   0.249   3.247  0.6856 -0.4398 -0.7872
 1250SOL    HW215387   0.187   0.256   3.349  0.3029  0.2132  0.7032
 1251SOL     OW15388   2.257   3.969   6.732 -0.4191 -0.2986 -0.2090
 1251SOL    HW115389   2.273   3.930   6.646  1.3635  0.4672 -0.2314
 1251SOL    HW215390   2.344   3.998   6.761 -1.2391  1.8956  0.0218
 1252SOL     OW15391   3.056   3.437  12.454 -0.7943  0.1034  0.3511
 1252SOL    HW115392   3.021   3.515  12.411  0.1611 -0.2873 -1.1156
 1252SOL    HW215393   2.987   3.424  12.519 -1.8840  0.7603 -0.6893
 1253SOL     OW15394   4.310   0.339   6.372 -0.2150 -0.5619  0.1611
 1253SOL    HW115395   4.331   0.429   6.399  1.6097 -0.7860 -0.5664
 1253SOL    HW215396   4.226   0.353   6.327  2.3321  0.4402 -4.2625
 1254SOL     OW15397   4.208   3.163   3.073  0.2083 -0.4650  0.1080
 1254SOL    HW115398   4.292   3.145   3.031 -0.2145 -0.1810 -0.8712
 1254SOL    HW215399   4.171   3.075   3.074  1.0311 -0.7961  1.1292
 1255SOL     OW15400   1.010   1.653   3.382  0.0170 -0.1465 -0.2531
 1255SOL    HW115401   1.002   1.558   3.393  0.4934 -0.0051  1.3369
 1255SOL    HW215402   1.017   1.661   3.287  0.1994 -0.3538 -0.2586
 1256SOL     OW15403   0.955   2.798   1.872 -0.8950  0.2019 -0.3613
 1256SOL    HW115404   1.010   2.720   1.879 -1.0808  0.1650  0.7163
 1256SOL    HW215405   0.901   2.764   1.943 -0.1713 -2.7631 -1.2491
 1257SOL     OW15406   2.895   1.822  14.130 -0.5046  0.3968 -0.1544
 1257SOL    HW115407   2.847   1.755  14.180  0.3552 -1.1912 -1.4780
 1257SOL    HW215408   2.927   1.873  14.205 -0.6604  0.5722 -0.2059
 1258SOL     OW15409   1.984   0.924   5.315 -0.0688 -0.3346  0.6066
 1258SOL    HW115410   1.900   0.932   5.360  0.6511  0.0709  1.8566
 1258SOL    HW215411   2.036   0.888   5.387 -0.9537 -1.1926  0.8275
 1259SOL     OW15412   0.193   4.290   7.443  0.4985  0.3100  0.7976
 1259SOL    HW115413   0.190   4.241   7.525  2.3122  0.1868  0.7874
 1259SOL    HW215414   0.257   4.361   7.456 -0.9601  1.8863 -0.6000
 1260SOL     OW15415   2.069   0.776   8.140  0.1178 -0.1494 -0.0981
 1260SOL    HW115416   2.146   0.770   8.197  1.4873 -2.0555 -2.1201
 1260SOL    HW215417   2.035   0.687   8.137 -3.6047  1.2633  0.3847
 1261SOL     OW15418   0.759   0.644   6.655 -0.3670 -0.2633 -0.4398
 1261SOL    HW115419   0.822   0.620   6.588 -0.6360  0.2402 -0.8755
 1261SOL    HW215420   0.777   0.738   6.655 -1.5880 -0.0311  0.6736
 1262SOL     OW15421   0.684   4.711   7.459 -0.1506 -0.3810 -0.0501
 1262SOL    HW115422   0.616   4.677   7.517  1.3928 -1.7924  0.9277
 1262SOL    HW215423   0.630   0.032   7.406 -0.2582 -0.2612  0.1899
 1263SOL     OW15424   2.411   4.472   6.381  0.4138  0.0982 -0.7991
 1263SOL    HW115425   2.406   4.393   6.435  2.0960  1.6141  1.5519
 1263SOL    HW215426   2.477   4.520   6.430  0.3410  1.4531 -2.0117
 1264SOL     OW15427   0.345   1.351   1.395  0.3060 -0.1963  1.1310
 1264SOL    HW115428   0.260   1.368   1.436  0.0280  0.9513  0.0688
 1264SOL    HW215429   0.375   1.293   1.465  0.0340 -0.8081  0.7441
 1265SOL     OW15430   0.162   2.273   2.091 -0.3355  0.1407 -0.2554
 1265SOL    HW115431   0.126   2.215   2.024  0.3370  0.1402 -0.6128
 1265SOL    HW215432   0.127   2.359   2.068 -1.2221  0.0252  0.6707
 1266SOL     OW15433   4.318   0.992   3.992 -0.6630 -0.5946  0.3342
 1266SOL    HW115434   4.333   1.086   4.005 -1.3973 -0.0980 -2.2233
 1266SOL    HW215435   4.334   0.961   4.081 -0.6964  0.1900  0.6207
 1267SOL     OW15436   2.094   3.511   6.280  0.4278 -0.0786 -0.1779
 1267SOL    HW115437   2.032   3.449   6.318 -1.0146  1.6556  0.3049
 1267SOL    HW215438   2.165   3.519   6.344  0.4845 -2.9106  0.0896
 1268SOL     OW15439   3.919   3.816  16.278 -0.3932  0.1979 -0.0246
 1268SOL    HW115440   3.993   3.872  16.303 -0.7219  0.5403  0.1764
 1268SOL    HW215441   3.864   3.828  16.356  0.6022  0.7447  0.5989
 1269SOL     OW15442   2.769   1.099  13.159  0.1602  0.0181 -0.2086
 1269SOL    HW115443   2.850   1.150  13.165 -1.0006  1.3585  3.8448
 1269SOL    HW215444   2.722   1.157  13.099 -0.3764 -0.0040  0.1934
 1270SOL     OW15445   3.047   4.448   9.466  0.4083 -0.1500  0.1477
 1270SOL    HW115446   3.018   4.479   9.380 -0.5300  1.5357  1.0690
 1270SOL    HW215447   3.128   4.499   9.472 -0.6305  1.6479 -1.2252
 1271SOL     OW15448   4.266   3.066  14.281  0.4799 -0.2837  0.2924
 1271SOL    HW115449   4.317   3.108  14.350  1.7522 -1.9836  0.3965
 1271SOL    HW215450   4.177   3.094  14.303  1.3847  1.5401  1.6351
 1272SOL     OW15451   2.533   0.209   8.638 -0.5930 -0.2706 -0.0380
 1272SOL    HW115452   2.622   0.238   8.619 -0.8431 -0.9651 -2.3519
 1272SOL    HW215453   2.525   0.246   8.725 -0.1704  0.5667 -0.3531
 1273SOL     OW15454   3.834   1.925  13.089 -0.6908  0.0827 -0.3520
 1273SOL    HW115455   3.810   2.018  13.090  1.8557  0.7636 -1.1171
 1273SOL    HW215456   3.807   1.911  13.180  0.5334  1.5734  0.2482
 1274SOL     OW15457   3.330   4.296  13.536  0.0903  0.0576 -0.6808
 1274SOL    HW115458   3.399   4.272  13.475  0.6423 -2.0212  0.7588
 1274SOL    HW215459   3.263   4.306  13.469  0.8256  0.4172 -1.3704
 1275SOL     OW15460   0.265   0.562  13.617 -0.3136 -0.0593  0.4085
 1275SOL    HW115461   0.224   0.529  13.537 -1.4113  0.2177  0.8627
 1275SOL    HW215462   0.201   0.610  13.670 -0.9690 -0.0194 -0.4214
 1276SOL     OW15463   2.178   4.680   1.813  0.1327  0.0916  0.0264
 1276SOL    HW115464   2.112   4.717   1.872  1.1186  0.4984  0.8907
 1276SOL    HW215465   2.227   4.628   1.876 -0.9765  1.3085  1.8962
 1277SOL     OW15466   2.907   1.856   4.211 -0.0924  0.0426  0.4064
 1277SOL    HW115467   2.934   1.766   4.193  2.0516  0.5677  0.9793
 1277SOL    HW215468   2.911   1.857   4.306  2.9497 -3.0557  0.3020
 1278SOL     OW15469   2.640   1.708  10.568  0.1008  0.0655  0.8421
 1278SOL    HW115470   2.647   1.764  10.645  1.9309  0.5788  0.3240
 1278SOL    HW215471   2.549   1.682  10.582  1.0770 -2.9401  1.5517
 1279SOL     OW15472   1.873   2.733   0.083 -0.0938  0.2935 -0.0820
 1279SOL    HW115473   1.856   2.643   0.056 -1.3648  0.2771  0.7477
 1279SOL    HW215474   1.932   2.715   0.156  1.6996  3.1196 -0.8353
 1280SOL     OW15475   2.114   0.557   4.153  0.0898 -0.3261 -0.4051
 1280SOL    HW115476   2.032   0.520   4.184 -0.2725  1.1516  0.3897
 1280SOL    HW215477   2.169   0.521   4.223 -2.1098  0.7666  1.8918
 1281SOL     OW15478   4.227   0.571   7.377 -0.3689 -0.1942 -0.1967
 1281SOL    HW115479   4.228   0.476   7.382 -0.0773 -0.2134 -0.6621
 1281SOL    HW215480   4.171   0.595   7.451 -1.1534 -0.9988 -0.5364
 1282SOL     OW15481   0.898   0.735   5.953  0.4549  0.1020 -0.0417
 1282SOL    HW115482   0.870   0.797   5.886 -0.2823 -2.0026 -1.6745
 1282SOL    HW215483   0.972   0.782   5.991  0.5456  1.9205 -2.4536
 1283SOL     OW15484   4.394   2.638  11.059  0.5576  0.2530  0.2010
 1283SOL    HW115485   4.408   2.630  10.965  1.6027 -0.3268  0.4103
 1283SOL    HW215486   4.398   2.734  11.058 -1.4397  0.3392  0.7826
 1284SOL     OW15487   4.104   4.418   9.372  0.3541  0.2160 -0.2556
 1284SOL    HW115488   4.153   4.337   9.383 -3.6981 -2.0977  0.9045
 1284SOL    HW215489   4.013   4.388   9.369  0.4766 -0.2496  0.5888
 1285SOL     OW15490   3.947   3.289   5.060  0.0101  0.0799  0.6738
 1285SOL    HW115491   3.870   3.281   5.003  0.9360 -0.2439 -0.5305
 1285SOL    HW215492   3.973   3.375   5.027 -1.6415  0.1123 -0.5777
 1286SOL     OW15493   1.486   1.032   9.180  0.0634 -0.5398 -0.2998
 1286SOL    HW115494   1.560   1.084   9.211  0.5654 -1.0317 -0.6688
 1286SOL    HW215495   1.455   0.992   9.261 -3.1249  2.5372 -0.0212
 1287SOL     OW15496   2.542   0.071  14.176 -0.0712 -0.1798  0.1826
 1287SOL    HW115497   2.508   4.728  14.215 -0.9544 -0.1198 -0.4681
 1287SOL    HW215498   2.490   0.075  14.096 -2.1417  0.7135  1.5575
 1288SOL     OW15499   3.681   1.211  17.296 -0.8347 -0.0052  0.5420
 1288SOL    HW115500   3.612   1.231  17.360  0.5704 -0.5345  2.2311
 1288SOL    HW215501   3.661   1.119  17.277  0.3911 -0.6812  2.4542
 1289SOL     OW15502   0.931   2.004   4.242 -0.5351  0.0523  0.3209
 1289SOL    HW115503   0.859   2.062   4.265  0.5719  1.3309  0.5925
 1289SOL    HW215504   1.014   2.041   4.272 -0.1012  0.2430 -1.1026
 1290SOL     OW15505   3.235   1.751   4.375  0.2250  0.6437 -0.1940
 1290SOL    HW115506   3.210   1.671   4.328 -2.6993  1.3693  0.1150
 1290SOL    HW215507   3.261   1.817   4.310  0.0277  0.2232 -0.7019
 1291SOL     OW15508   3.823   3.236   7.051 -0.7306 -0.4493  0.1896
 1291SOL    HW115509   3.746   3.189   7.084  0.6848 -2.5011  0.5114
 1291SOL    HW215510   3.800   3.227   6.958  0.4886 -0.4753 -0.1048
 1292SOL     OW15511   0.009   1.720   8.333  0.0032 -0.3491 -0.2380
 1292SOL    HW115512   4.686   1.794   8.328 -2.6768 -2.5112  0.5155
 1292SOL    HW215513   0.013   1.699   8.427 -0.9552  0.3014 -0.0472
 1293SOL     OW15514   4.412   1.229   9.212 -0.0968 -0.2370 -0.3698
 1293SOL    HW115515   4.387   1.283   9.136  0.6464 -1.4416 -1.4583
 1293SOL    HW215516   4.401   1.289   9.286 -2.0776  1.4455 -2.0138
 1294SOL     OW15517   0.657   2.389   9.190 -0.1367 -0.4373 -0.9176
 1294SOL    HW115518   0.685   2.298   9.188  0.1099 -0.3509 -1.3658
 1294SOL    HW215519   0.592   2.361   9.254 -0.7226 -1.8508 -2.1379
 1295SOL     OW15520   0.128   1.884   6.374  0.7367  0.0726 -0.1834
 1295SOL    HW115521   0.167   1.870   6.288  0.6382 -3.7416  0.3657
 1295SOL    HW215522   0.191   1.832   6.425  1.3767  0.3244 -0.7277
 1296SOL     OW15523   2.570   0.570   2.289  0.5655  0.1838  0.0287
 1296SOL    HW115524   2.614   0.567   2.375 -0.3940  0.7911  0.5383
 1296SOL    HW215525   2.632   0.616   2.232  2.1384  0.8541  2.2707
 1297SOL     OW15526   4.086   0.172   3.977 -0.2681  0.2633 -0.4262
 1297SOL    HW115527   4.071   0.227   4.054  0.6590 -0.1509  0.0570
 1297SOL    HW215528   4.179   0.157   3.995 -1.1887 -2.8084  1.7071
 1298SOL     OW15529   4.567   3.762   4.108  0.4014  0.4338  0.2430
 1298SOL    HW115530   4.477   3.744   4.136  0.6707 -1.3200 -0.0093
 1298SOL    HW215531   4.556   3.842   4.057 -1.8008  1.0992  1.7710
 1299SOL     OW15532   3.373   0.948  17.094 -0.3697 -0.3936 -0.1663
 1299SOL    HW115533   3.351   1.041  17.091  0.8409 -0.0740  1.0053
 1299SOL    HW215534   3.339   0.918  17.009 -1.0833 -0.6701  0.2162
 1300SOL     OW15535   3.502   0.251   6.806 -0.2985  0.7585 -0.4284
 1300SOL    HW115536   3.589   0.287   6.821  0.7372 -1.5402 -1.0334
 1300SOL    HW215537   3.453   0.317   6.757 -0.4551  1.3340  0.5085
 1301SOL     OW15538   3.849   4.115   8.735  0.2654  0.0695 -0.2334
 1301SOL    HW115539   3.809   4.147   8.816  1.8155  1.0204  0.1503
 1301SOL    HW215540   3.774   4.120   8.675 -0.4057 -2.2365  0.4230
 1302SOL     OW15541   0.232   0.147   8.173 -0.7516  0.2053 -0.1148
 1302SOL    HW115542   0.235   0.073   8.234 -1.0494  2.2334  2.3403
 1302SOL    HW215543   0.163   0.205   8.204  1.0004  1.6956  0.9906
 1303SOL     OW15544   0.780   2.637   4.323  0.1043 -0.2330 -0.4457
 1303SOL    HW115545   0.720   2.577   4.278 -0.6041 -1.4303  2.1176
 1303SOL    HW215546   0.841   2.570   4.354 -0.0098  0.5378  1.4233
 1304SOL     OW15547   3.769   2.576  16.881  0.0624 -0.2062  0.1057
 1304SOL    HW115548   3.827   2.585  16.956 -0.1970  0.9093  0.1722
 1304SOL    HW215549   3.723   2.661  16.885 -0.3296 -0.4355  0.5073
 1305SOL     OW15550   2.304   0.323   6.063 -0.6182  0.2212 -0.1927
 1305SOL    HW115551   2.302   0.246   6.119  0.0724  1.0131  0.9188
 1305SOL    HW215552   2.385   0.306   6.015 -1.5523  0.8382 -2.0103
 1306SOL     OW15553   3.558   0.588   9.717 -0.6420  0.7331  0.1334
 1306SOL    HW115554   3.643   0.596   9.674  0.3242 -0.1103  1.8951
 1306SOL    HW215555   3.520   0.676   9.709  0.3422  0.8614 -2.9407
 1307SOL     OW15556   1.233   0.090   1.830 -0.5089 -0.2536  0.9329
 1307SOL    HW115557   1.246   0.105   1.924  0.0423 -2.8565  1.2731
 1307SOL    HW215558   1.142   0.060   1.827 -0.3481 -0.4602 -1.5311
 1308SOL     OW15559   1.586   0.000   4.284 -0.5755  0.3466  0.1994
 1308SOL    HW115560   1.558   4.656   4.243  0.4409  0.4052 -0.6085
 1308SOL    HW215561   1.533   0.004   4.363 -0.8550  0.3178  0.0145
 1309SOL     OW15562   4.736   0.894   9.480  1.1498 -0.1345  0.1858
 1309SOL    HW115563   4.735   0.799   9.466  1.7301 -0.5139  2.6479
 1309SOL    HW215564   0.011   0.930   9.392 -0.0756  1.2828  0.5819
 1310SOL     OW15565   0.318   2.119   2.443  0.4410  0.0974  0.2992
 1310SOL    HW115566   0.409   2.131   2.467  0.1825 -0.5891  1.6151
 1310SOL    HW215567   0.279   2.112   2.530 -0.8625  0.0286 -0.2815
 1311SOL     OW15568   4.118   0.575   9.550  0.0801 -0.0366  0.0736
 1311SOL    HW115569   4.099   0.524   9.628 -0.2308  1.5834  1.0679
 1311SOL    HW215570   4.210   0.601   9.561  0.7421 -2.4794  0.2147
 1312SOL     OW15571   1.954   0.600   6.072  0.1749  0.0634  0.4443
 1312SOL    HW115572   1.908   0.597   6.155  2.7506  0.0397  1.8650
 1312SOL    HW215573   1.959   0.506   6.055  1.8321  0.0698  0.8896
 1313SOL     OW15574   3.143   1.672  12.573  0.1056 -0.0357 -0.0437
 1313SOL    HW115575   3.223   1.688  12.522 -1.4805  0.1514 -2.4632
 1313SOL    HW215576   3.106   1.597  12.526 -0.3635  1.8530 -2.6671
 1314SOL     OW15577   0.176   0.617   3.459  0.4906  0.1838 -0.7135
 1314SOL    HW115578   0.229   0.562   3.402  2.3839  2.2367 -0.9268
 1314SOL    HW215579   0.216   0.700   3.434 -0.0032  0.1839 -1.4815
 1315SOL     OW15580   2.828   3.729   5.113 -0.3455  0.6768  0.2271
 1315SOL    HW115581   2.746   3.705   5.070  1.4597 -1.8303 -1.8438
 1315SOL    HW215582   2.794   3.813   5.144  0.0350  0.7510  0.4390
 1316SOL     OW15583   1.977   3.934  17.103  0.2921 -0.1787 -0.1800
 1316SOL    HW115584   2.023   3.928  17.019 -0.2324 -1.4640 -0.3799
 1316SOL    HW215585   2.023   3.860  17.143  1.2601  0.1186 -0.7499
 1317SOL     OW15586   1.813   3.669   5.464  0.5261 -0.7527 -0.8679
 1317SOL    HW115587   1.788   3.748   5.416  2.8058 -1.4277 -3.1670
 1317SOL    HW215588   1.889   3.646   5.410  1.6061  3.1781 -1.0677
 1318SOL     OW15589   1.153   2.592   1.916 -0.4566  0.5207  0.0450
 1318SOL    HW115590   1.163   2.504   1.881  1.8662 -0.0635  2.2212
 1318SOL    HW215591   1.183   2.583   2.006 -1.0459 -0.1157  0.1713
 1319SOL     OW15592   3.616   2.910   1.800 -0.6305 -0.5372 -0.5499
 1319SOL    HW115593   3.666   2.856   1.861 -0.2073  0.0292 -0.3952
 1319SOL    HW215594   3.684   2.969   1.768 -0.6323 -0.1153  0.2244
 1320SOL     OW15595   1.373   3.372   6.210 -0.4967  0.5247 -0.0775
 1320SOL    HW115596   1.376   3.436   6.139 -0.2510  1.1780  0.5237
 1320SOL    HW215597   1.469   3.374   6.219 -0.4554 -1.3413 -0.0181
 1321SOL     OW15598   3.817   0.153   8.536 -0.3461  0.3927  0.4920
 1321SOL    HW115599   3.765   0.144   8.617 -1.2329  1.0537 -0.0050
 1321SOL    HW215600   3.904   0.131   8.568 -1.1111 -1.9472  0.9810
 1322SOL     OW15601   2.301   1.863   6.610  0.1394 -0.4200 -0.2661
 1322SOL    HW115602   2.256   1.779   6.611  2.7310 -1.7746  1.5839
 1322SOL    HW215603   2.233   1.920   6.573 -0.3041 -0.7047  0.1105
 1323SOL     OW15604   1.532   3.419  14.326 -0.0163 -0.2186  0.0503
 1323SOL    HW115605   1.533   3.355  14.396 -0.3772 -0.2710  0.0083
 1323SOL    HW215606   1.600   3.481  14.354 -2.0452  1.0434  2.1728
 1324SOL     OW15607   2.325   3.786   6.497 -0.1965  0.0011 -0.5378
 1324SOL    HW115608   2.284   3.700   6.494 -1.2329  0.4901 -0.4651
 1324SOL    HW215609   2.416   3.776   6.468  1.2701  1.1374  3.7652
 1325SOL     OW15610   2.367   0.280   1.542 -1.1586 -0.2491  0.0680
 1325SOL    HW115611   2.284   0.264   1.497 -0.8339 -1.1327 -0.2081
 1325SOL    HW215612   2.404   0.329   1.469 -1.9855 -0.6033 -0.5938
 1326SOL     OW15613   1.787   4.404  10.940 -0.7205 -1.0529 -0.4272
 1326SOL    HW115614   1.766   4.495  10.962  2.6710 -0.8454  1.9847
 1326SOL    HW215615   1.843   4.417  10.864 -0.8421 -0.2842 -0.3858
 1327SOL     OW15616   3.735   1.609   5.227  0.0880  0.3313 -0.2263
 1327SOL    HW115617   3.645   1.585   5.249  0.8955 -2.5423 -0.0301
 1327SOL    HW215618   3.742   1.573   5.138 -0.6192 -0.6561  0.1152
 1328SOL     OW15619   3.674   2.943   4.331 -0.2222  0.4958 -0.0643
 1328SOL    HW115620   3.643   3.010   4.269 -1.9552 -1.5863 -1.4404
 1328SOL    HW215621   3.624   2.965   4.409  0.5643  3.2637 -0.3309
 1329SOL     OW15622   2.788   0.671   3.352  0.2270  0.1211 -0.2757
 1329SOL    HW115623   2.775   0.752   3.303 -0.7080  0.7883  1.0681
 1329SOL    HW215624   2.812   0.707   3.438 -0.6256 -0.7557  0.3324
 1330SOL     OW15625   0.989   1.131  15.228 -0.0266  0.4335 -0.3758
 1330SOL    HW115626   0.943   1.136  15.144 -0.6920  2.6219  0.0926
 1330SOL    HW215627   0.960   1.218  15.258  0.1269 -0.1663  1.4859
 1331SOL     OW15628   2.836   3.173  10.364 -0.3999  0.2328  0.4970
 1331SOL    HW115629   2.756   3.176  10.312  1.1539  2.7026 -1.7330
 1331SOL    HW215630   2.848   3.078  10.356  0.2669  0.3415  0.2695
 1332SOL     OW15631   2.758   0.374   8.582  0.3047 -0.5562 -0.2076
 1332SOL    HW115632   2.734   0.414   8.499 -2.9693 -1.3597  0.3649
 1332SOL    HW215633   2.853   0.384   8.574 -0.0733  2.2544 -1.3522
 1333SOL     OW15634   4.077   1.462  10.469  0.1924  0.0901 -0.2766
 1333SOL    HW115635   4.071   1.553  10.441 -0.5325  0.3304  0.6546
 1333SOL    HW215636   4.171   1.441  10.470  0.7344  2.5493 -0.0252
 1334SOL     OW15637   0.166   1.527   0.960  0.1183 -0.6936 -0.3838
 1334SOL    HW115638   0.141   1.575   0.880 -0.2826 -0.7718 -0.3027
 1334SOL    HW215639   0.129   1.584   1.028 -2.6054 -2.0935 -0.7205
 1335SOL     OW15640   2.109   1.853  15.419 -0.2145 -0.1427  0.0095
 1335SOL    HW115641   2.076   1.937  15.386  2.0829  0.4589 -0.7498
 1335SOL    HW215642   2.030   1.823  15.464 -0.1666  1.5992  1.2643
 1336SOL     OW15643   2.490   1.986   6.792  0.3602  0.2793 -0.3919
 1336SOL    HW115644   2.438   1.958   6.717  1.5077 -1.2916 -0.5852
 1336SOL    HW215645   2.540   1.905   6.800  0.5646  0.4960  0.5884
 1337SOL     OW15646   0.288   3.421   9.357 -0.2262  0.2352  0.5003
 1337SOL    HW115647   0.372   3.464   9.372  0.1331  0.0335 -0.8697
 1337SOL    HW215648   0.314   3.329   9.345 -1.1355 -0.0110  0.4061
 1338SOL     OW15649   1.858   1.531   6.074  0.2234  0.2173 -0.1052
 1338SOL    HW115650   1.942   1.487   6.090  1.5427  2.5311 -0.6722
 1338SOL    HW215651   1.799   1.465   6.109  0.1396  0.6559  0.5940
 1339SOL     OW15652   4.695   0.164   7.978 -0.6598 -0.0786  0.7412
 1339SOL    HW115653   4.729   0.132   8.061 -0.5997  1.7288  1.4151
 1339SOL    HW215654   0.023   0.137   7.914  0.2070  1.5805  0.9449
 1340SOL     OW15655   2.049   2.415   8.394 -0.0340 -0.1968  0.1575
 1340SOL    HW115656   2.102   2.356   8.340 -0.6869 -1.5108  0.9569
 1340SOL    HW215657   2.092   2.400   8.478 -1.0833 -0.5632  0.6299
 1341SOL     OW15658   1.016   3.411   2.902 -0.5891  0.2027 -0.4841
 1341SOL    HW115659   0.968   3.453   2.973 -0.3435 -0.2510 -0.0502
 1341SOL    HW215660   1.059   3.489   2.865 -0.8118  1.2970  1.5933
 1342SOL     OW15661   0.092   4.055   4.822 -0.1965 -0.0920 -0.2802
 1342SOL    HW115662   0.098   3.963   4.797 -4.1377 -0.7301  1.0929
 1342SOL    HW215663   0.026   4.095   4.766  0.5284  1.4240 -0.0545
 1343SOL     OW15664   2.319   0.131   6.867 -0.2847  0.4526 -0.0460
 1343SOL    HW115665   2.373   0.154   6.942 -0.0884 -2.8148  0.8207
 1343SOL    HW215666   2.312   0.036   6.880 -0.0444  0.5513  0.7762
 1344SOL     OW15667   2.395   2.670   2.425  0.4714 -0.3222  0.1447
 1344SOL    HW115668   2.360   2.674   2.514 -0.0383  2.1437 -0.1484
 1344SOL    HW215669   2.455   2.597   2.438  0.1244 -0.7198 -0.5247
 1345SOL     OW15670   2.733   1.811   6.640  0.4454  0.7438 -0.6601
 1345SOL    HW115671   2.761   1.856   6.720 -0.3143 -0.1346  0.0922
 1345SOL    HW215672   2.799   1.849   6.582  1.3125 -1.6111 -1.2075
 1346SOL     OW15673   1.013   1.236   8.266  0.4607 -0.1937  0.1731
 1346SOL    HW115674   0.932   1.262   8.222  1.2846  1.3997 -0.4381
 1346SOL    HW215675   0.976   1.215   8.352  0.9639  0.4721  0.5582
 1347SOL     OW15676   2.390   1.668   3.143 -0.4039  0.2650  0.1633
 1347SOL    HW115677   2.386   1.759   3.111  1.4288  0.1978 -0.2641
 1347SOL    HW215678   2.462   1.685   3.203  1.2516 -0.7834 -1.5482
 1348SOL     OW15679   4.090   4.686   1.648 -0.0614  0.3813 -0.1765
 1348SOL    HW115680   4.139   0.028   1.668  0.5973 -0.8012  2.9278
 1348SOL    HW215681   4.159   4.624   1.671  1.3842  2.1972  0.4291
 1349SOL     OW15682   0.282   0.674   6.294 -0.1628  0.3331  0.4183
 1349SOL    HW115683   0.243   0.670   6.207 -0.9726  2.2500  0.6822
 1349SOL    HW215684   0.289   0.770   6.295  1.9273  0.1918 -0.0560
 1350SOL     OW15685   0.580   2.573   2.751 -0.5638 -0.6689 -0.0859
 1350SOL    HW115686   0.588   2.666   2.770  1.3377 -0.8478 -0.0235
 1350SOL    HW215687   0.650   2.547   2.811 -0.5547  0.9216  0.5792
 1351SOL     OW15688   4.192   1.522   4.030 -0.2534  0.0492 -0.1066
 1351SOL    HW115689   4.208   1.508   4.123 -1.8516 -0.3402  0.1082
 1351SOL    HW215690   4.242   1.445   4.002  1.3918  1.4923 -1.1728
 1352SOL     OW15691   4.276   1.194  14.315  0.1329  0.2642 -0.0929
 1352SOL    HW115692   4.314   1.166  14.398 -0.0428 -1.0060 -0.4448
 1352SOL    HW215693   4.244   1.111  14.281 -0.7577 -0.1585  1.8281
 1353SOL     OW15694   2.095   3.615   4.874 -0.1327  0.3777  0.0151
 1353SOL    HW115695   2.139   3.627   4.789  0.5062  4.1101  0.8675
 1353SOL    HW215696   2.003   3.628   4.853 -0.5859  0.3238  1.9743
 1354SOL     OW15697   1.549   4.723   6.573 -0.5834  0.1490 -0.1849
 1354SOL    HW115698   1.466   4.678   6.559 -1.8122  1.5423  2.5717
 1354SOL    HW215699   1.602   4.665   6.519  1.4818  1.1280  0.7663
 1355SOL     OW15700   4.022   1.061  15.365  0.6001  0.0960  0.4641
 1355SOL    HW115701   4.009   1.155  15.357 -1.0671 -0.2353 -0.9026
 1355SOL    HW215702   3.939   1.036  15.406 -0.4950 -0.3216 -1.9808
 1356SOL     OW15703   1.755   0.724   5.077  0.2751 -0.3139 -0.9832
 1356SOL    HW115704   1.689   0.757   5.015 -2.2897 -1.3566  1.1699
 1356SOL    HW215705   1.839   0.754   5.044  1.2669  0.7031  2.5241
 1357SOL     OW15706   2.399   1.347   2.420  0.3022 -0.3070 -0.0387
 1357SOL    HW115707   2.332   1.327   2.355  1.8514  0.2308 -1.7865
 1357SOL    HW215708   2.410   1.440   2.401 -0.2341 -0.3274 -0.4425
 1358SOL     OW15709   2.071   0.127   6.480  0.6287 -0.2741 -0.3562
 1358SOL    HW115710   2.015   0.094   6.550 -1.2514 -0.3658 -1.9278
 1358SOL    HW215711   2.155   0.083   6.494 -0.6480 -2.4268  0.3737
 1359SOL     OW15712   1.003   1.931  14.410 -0.2139  0.6343 -0.1697
 1359SOL    HW115713   1.060   1.908  14.483  1.5485  1.2735 -1.3457
 1359SOL    HW215714   1.047   1.870  14.350 -0.1366 -0.7397  1.2928
 1360SOL     OW15715   3.828   3.764  16.033  0.5989 -0.3345  0.2729
 1360SOL    HW115716   3.884   3.782  16.108 -0.4176  0.3702  0.8651
 1360SOL    HW215717   3.858   3.675  16.015  0.8686 -0.1178 -0.3517
 1361SOL     OW15718   0.519   3.064   2.585 -0.0325  0.4278  0.0075
 1361SOL    HW115719   0.503   2.970   2.592 -2.8020  0.7145 -2.4232
 1361SOL    HW215720   0.579   3.080   2.511  1.9912  0.5822  1.6781
 1362SOL     OW15721   0.614   1.527  10.014 -0.2733 -0.6694  0.0225
 1362SOL    HW115722   0.707   1.503  10.019  0.2889  0.9605 -2.6606
 1362SOL    HW215723   0.595   1.592  10.082  0.2219 -0.1416 -0.3476
 1363SOL     OW15724   4.632   1.140   9.896 -0.2596 -0.5847 -0.8948
 1363SOL    HW115725   4.635   1.047   9.872 -1.7553 -0.3839 -1.8392
 1363SOL    HW215726   4.705   1.172   9.843  0.7613  0.0471  0.8703
 1364SOL     OW15727   1.296   3.069   9.044 -0.5684  0.0751  0.1198
 1364SOL    HW115728   1.211   3.096   9.009 -0.3663  1.6541  0.8490
 1364SOL    HW215729   1.279   3.004   9.112 -0.5981 -0.8065 -0.7244
 1365SOL     OW15730   0.320   1.452   0.211  0.0591  0.0226 -0.0945
 1365SOL    HW115731   0.322   1.358   0.228  0.9203 -0.1106 -0.9506
 1365SOL    HW215732   0.250   1.476   0.272 -1.8206 -2.2315 -1.3615
 1366SOL     OW15733   3.207   3.220   3.826 -0.1491  0.2534 -0.2637
 1366SOL    HW115734   3.256   3.252   3.751 -1.3713  0.5291 -0.9437
 1366SOL    HW215735   3.268   3.173   3.883 -2.0164  1.7539  3.0275
 1367SOL     OW15736   0.209   1.816  10.596  0.3489  0.0047 -0.2413
 1367SOL    HW115737   0.289   1.812  10.543  0.6558 -0.8520  0.2816
 1367SOL    HW215738   0.179   1.901  10.565  3.0394  0.9477 -0.2805
 1368SOL     OW15739   1.051   1.489   1.980 -0.3314 -0.6736  0.2448
 1368SOL    HW115740   0.956   1.491   1.971 -0.1720 -0.8808 -1.6458
 1368SOL    HW215741   1.054   1.455   2.069  1.8162 -0.7346  0.1535
 1369SOL     OW15742   1.582   2.029   3.483 -0.1351 -0.1010 -0.2117
 1369SOL    HW115743   1.607   2.116   3.453  1.0045 -0.3482 -0.0057
 1369SOL    HW215744   1.655   1.973   3.457  0.0090  0.6765 -1.4697
 1370SOL     OW15745   1.435   2.784   3.272  0.2326 -0.1270 -0.3081
 1370SOL    HW115746   1.524   2.817   3.269  1.5746 -3.8041 -1.1897
 1370SOL    HW215747   1.438   2.698   3.228  0.5587  0.2463 -1.0188
 1371SOL     OW15748   4.478   1.880   5.967 -0.1414  0.0896  0.1026
 1371SOL    HW115749   4.400   1.914   5.924  1.2531 -0.3951 -2.8690
 1371SOL    HW215750   4.540   1.913   5.901  0.1241 -1.2574 -0.3201
 1372SOL     OW15751   0.532   3.254  10.583  0.1683  0.7771  0.5072
 1372SOL    HW115752   0.615   3.301  10.574  0.2568  0.2639 -1.3846
 1372SOL    HW215753   0.539   3.219  10.672  0.1570  0.1727  0.2741
 1373SOL     OW15754   4.109   1.424   8.612 -0.1556 -0.5181 -0.3909
 1373SOL    HW115755   4.091   1.383   8.696 -0.1762  1.5821  0.6410
 1373SOL    HW215756   4.111   1.510   8.653  0.0299  0.7372 -3.0016
 1374SOL     OW15757   2.907   1.010   7.465 -0.3812  0.1450 -0.2270
 1374SOL    HW115758   2.904   0.922   7.429  0.3423 -0.0857  0.2950
 1374SOL    HW215759   2.877   1.070   7.396 -0.3497  2.5150  1.7975
 1375SOL     OW15760   1.399   2.359   8.008 -0.9069  0.1055  0.1602
 1375SOL    HW115761   1.351   2.282   8.038 -0.4654 -0.0487  0.4784
 1375SOL    HW215762   1.329   2.424   8.002  0.9161  2.2126  1.5854
 1376SOL     OW15763   2.235   2.578  11.574  0.1399  0.4207 -0.3864
 1376SOL    HW115764   2.245   2.664  11.532 -2.7391  0.6950 -0.5169
 1376SOL    HW215765   2.299   2.586  11.645 -0.4384  0.4751  0.1299
 1377SOL     OW15766   0.561   0.617  16.987  0.2495 -0.6611 -0.3044
 1377SOL    HW115767   0.467   0.629  16.971  0.5382 -1.7215 -2.8729
 1377SOL    HW215768   0.562   0.530  17.028  2.1005  0.2214  1.5053
 1378SOL     OW15769   1.859   1.302  10.159  0.4111 -0.0335 -0.4485
 1378SOL    HW115770   1.818   1.256  10.232  0.1109  1.9172  0.6116
 1378SOL    HW215771   1.790   1.310  10.093 -1.7480 -0.2357  1.8037
 1379SOL     OW15772   1.157   3.482   3.528  0.2003 -0.5570  0.0141
 1379SOL    HW115773   1.131   3.463   3.438  0.0489 -0.7664  0.1013
 1379SOL    HW215774   1.205   3.408   3.567  1.5769  0.8219  0.9374
 1380SOL     OW15775   4.737   2.476  17.315  0.4401 -0.0217 -0.1211
 1380SOL    HW115776   0.067   2.460  17.381  1.0803  0.5272 -0.6406
 1380SOL    HW215777   4.669   2.476  17.382 -0.7403 -0.4634 -1.3129
 1381SOL     OW15778   3.932   3.212  13.612  0.5300  0.2856 -0.4824
 1381SOL    HW115779   3.871   3.154  13.658 -1.1222  3.8547  1.8284
 1381SOL    HW215780   3.967   3.252  13.691  2.7955 -2.1158 -0.2779
 1382SOL     OW15781   2.453   2.924   2.794 -0.2999  0.8194 -0.1383
 1382SOL    HW115782   2.498   2.941   2.877 -2.0674  1.0185  0.7657
 1382SOL    HW215783   2.390   2.996   2.795 -1.1862  0.0523 -1.0369
 1383SOL     OW15784   2.661   1.903   5.242  0.2513  0.3050  0.2448
 1383SOL    HW115785   2.622   1.854   5.170  2.1826  1.5431 -1.6806
 1383SOL    HW215786   2.740   1.852   5.259  0.1507  0.7463  2.0095
 1384SOL     OW15787   0.552   2.135   9.136 -0.1436  0.1838  0.1867
 1384SOL    HW115788   0.552   2.062   9.198 -0.8747  0.3346  0.3624
 1384SOL    HW215789   0.587   2.104   9.053  0.1034  0.9593 -0.0000
 1385SOL     OW15790   3.760   1.036   6.442  0.2602 -0.4844  0.2608
 1385SOL    HW115791   3.764   1.102   6.372  0.3224  0.1189  0.8398
 1385SOL    HW215792   3.782   0.966   6.380 -1.0152  1.4948 -2.4355
 1386SOL     OW15793   1.329   0.083   2.727 -0.2849  0.5241 -0.2045
 1386SOL    HW115794   1.388   0.157   2.711  2.6473 -2.0564 -1.4325
 1386SOL    HW215795   1.393   0.027   2.771  1.5763  1.1743 -2.0639
 1387SOL     OW15796   4.624   2.949  11.703 -0.4444 -0.0042  0.1006
 1387SOL    HW115797   4.606   2.878  11.765  2.3916 -2.3062 -1.7315
 1387SOL    HW215798   4.672   3.018  11.748 -1.6694 -1.1027  3.1014
 1388SOL     OW15799   3.905   4.561   4.074 -0.2654 -0.4230  0.8075
 1388SOL    HW115800   4.000   4.573   4.082 -0.3546  0.9476 -0.1619
 1388SOL    HW215801   3.873   4.571   4.164 -0.4749 -2.6196  0.9882
 1389SOL     OW15802   1.297   0.039   3.905 -0.0507 -0.1983 -0.2947
 1389SOL    HW115803   1.357   0.008   3.837  1.6641 -0.1619  1.1959
 1389SOL    HW215804   1.220   4.736   3.866 -1.1528  1.5224  0.1068
 1390SOL     OW15805   2.344   2.382   3.018 -0.0085 -0.3386 -1.0114
 1390SOL    HW115806   2.270   2.322   3.026  0.9913 -1.0649  2.6913
 1390SOL    HW215807   2.377   2.366   2.930  2.1515  0.0142 -0.2737
 1391SOL     OW15808   3.055   1.551   8.786 -0.2189 -0.0076  0.5942
 1391SOL    HW115809   3.129   1.511   8.741  0.1543  1.9236 -0.5405
 1391SOL    HW215810   3.106   1.589   8.857  0.7903 -0.2892  0.0136
 1392SOL     OW15811   2.701   0.724   9.876  0.3936  0.1260  0.3401
 1392SOL    HW115812   2.778   0.684   9.917  0.7255 -0.4245 -0.8184
 1392SOL    HW215813   2.721   0.817   9.884  0.4689  0.2265 -1.0227
 1393SOL     OW15814   1.204   3.001  11.040  0.3358 -0.3052  0.0045
 1393SOL    HW115815   1.130   2.942  11.026 -0.7224  0.3820  2.4993
 1393SOL    HW215816   1.158   3.085  11.044  1.0857  0.0614  1.1254
 1394SOL     OW15817   1.632   4.283   7.645 -0.5910  0.3036  0.1605
 1394SOL    HW115818   1.661   4.270   7.735 -0.7979 -1.7819 -0.0591
 1394SOL    HW215819   1.641   4.191   7.619  1.3282  0.6140 -0.2777
 1395SOL     OW15820   2.971   1.498  12.431 -0.6346 -0.1378  0.1085
 1395SOL    HW115821   2.938   1.417  12.471 -0.0653 -0.0487  0.7663
 1395SOL    HW215822   2.976   1.481  12.337  1.5475 -0.8440  0.3505
 1396SOL     OW15823   3.152   3.231  15.131 -0.5498  0.3206 -0.1085
 1396SOL    HW115824   3.137   3.306  15.075 -2.1535  0.1485  0.1114
 1396SOL    HW215825   3.107   3.253  15.212  0.2837  0.2048  0.3865
 1397SOL     OW15826   2.094   2.107   6.960 -0.0470  0.2638 -0.4215
 1397SOL    HW115827   2.074   2.162   7.037 -1.4753  2.0127 -2.0356
 1397SOL    HW215828   2.013   2.063   6.936  0.5105  0.3398 -2.3773
 1398SOL     OW15829   3.525   1.904   4.920 -0.1219  0.2350  0.4922
 1398SOL    HW115830   3.478   1.933   4.841  0.6174 -0.1304 -0.0759
 1398SOL    HW215831   3.468   1.936   4.990 -0.5297 -0.9357  0.6965
 1399SOL     OW15832   2.447   2.461   3.506 -0.0114  0.7194  0.2463
 1399SOL    HW115833   2.485   2.442   3.421 -1.2414  2.0770 -0.6007
 1399SOL    HW215834   2.465   2.379   3.554  3.2025  0.7698 -0.9252
 1400SOL     OW15835   3.984   3.813  11.962 -0.1955  0.2696 -0.4841
 1400SOL    HW115836   3.946   3.826  12.049 -0.4048  0.7719 -0.6512
 1400SOL    HW215837   3.915   3.767  11.914 -1.9471  1.8191  0.5346
 1401SOL     OW15838   4.428   0.347   5.725  0.1191 -0.3572 -0.4611
 1401SOL    HW115839   4.452   0.397   5.803  0.4805 -0.0978 -0.7333
 1401SOL    HW215840   4.487   0.400   5.670  1.5404  0.1467  1.5606
 1402SOL     OW15841   4.054   3.129   6.378  0.0423 -0.1667  0.0446
 1402SOL    HW115842   3.970   3.173   6.387 -1.2564 -2.9359  1.4218
 1402SOL    HW215843   4.048   3.083   6.294 -1.2979 -0.1061  0.1200
 1403SOL     OW15844   3.746   4.280   1.045 -0.8817 -0.1705 -0.5446
 1403SOL    HW115845   3.744   4.249   0.954  2.3051  0.1639 -0.7213
 1403SOL    HW215846   3.803   4.209   1.074 -1.1034  0.1289  0.6302
 1404SOL     OW15847   1.771   0.183   9.223  0.1697  0.1887  0.4201
 1404SOL    HW115848   1.813   0.257   9.268  0.3702  1.1189 -1.3178
 1404SOL    HW215849   1.691   0.161   9.270 -0.6950  0.0191 -1.1298
 1405SOL     OW15850   0.859   2.709   8.307 -0.3977  0.1672 -0.1819
 1405SOL    HW115851   0.899   2.705   8.220  1.3245 -1.0855  0.6671
 1405SOL    HW215852   0.918   2.646   8.349  0.4812  0.5233 -0.8740
 1406SOL     OW15853   1.789   2.445   7.246 -0.0307  0.1592  0.3309
 1406SOL    HW115854   1.733   2.386   7.297  0.9754  1.0414  2.4475
 1406SOL    HW215855   1.747   2.531   7.252 -2.7110 -1.0682 -0.7932
 1407SOL     OW15856   3.643   0.502   1.932  0.7843 -0.7693  0.8870
 1407SOL    HW115857   3.639   0.577   1.991 -0.4045 -0.7250  0.7418
 1407SOL    HW215858   3.661   0.547   1.850  0.2571  0.9046  1.7058
 1408SOL     OW15859   1.881   3.974   4.479 -0.1047  0.1318 -0.4080
 1408SOL    HW115860   1.883   4.054   4.426  1.1707 -0.3119 -1.0347
 1408SOL    HW215861   1.828   4.000   4.554  0.7195 -0.1018  0.2518
 1409SOL     OW15862   0.972   2.236   8.928  0.1919  0.4141 -0.0676
 1409SOL    HW115863   0.906   2.193   8.983 -1.0564  0.9232 -1.1678
 1409SOL    HW215864   1.044   2.183   8.961  0.2988  0.4458 -0.2485
 1410SOL     OW15865   0.958   1.397   8.669  0.2815  0.1150 -0.3134
 1410SOL    HW115866   1.005   1.378   8.750 -0.4529 -1.8608 -0.3578
 1410SOL    HW215867   0.978   1.317   8.620 -2.7640 -0.3481 -0.7614
 1411SOL     OW15868   4.213   3.275   3.579  0.3999  0.4462  0.2787
 1411SOL    HW115869   4.211   3.183   3.605  0.2133  1.0695  2.5188
 1411SOL    HW215870   4.307   3.289   3.567  0.4802 -1.6844 -1.4443
 1412SOL     OW15871   1.874   1.501   4.039  0.2630 -0.1626 -0.7021
 1412SOL    HW115872   1.944   1.547   4.086 -0.1945 -1.7390  1.5008
 1412SOL    HW215873   1.919   1.485   3.956  2.3838  1.4212  0.1362
 1413SOL     OW15874   1.912   3.364   6.943 -0.2429  0.1055 -0.5912
 1413SOL    HW115875   1.925   3.271   6.927 -2.6776 -0.5419  1.2548
 1413SOL    HW215876   1.912   3.374   7.038 -3.8527 -2.2349 -0.3832
 1414SOL     OW15877   1.385   3.003  17.283 -0.6482  0.1186  0.0284
 1414SOL    HW115878   1.341   3.076  17.238  0.8513  1.3413  0.5284
 1414SOL    HW215879   1.323   2.934  17.260 -1.0643  0.6095 -0.3501
 1415SOL     OW15880   3.827   0.208  15.542  0.5792  0.7076  0.3870
 1415SOL    HW115881   3.917   0.234  15.566  0.1968  2.6040 -0.2065
 1415SOL    HW215882   3.802   0.272  15.475  1.2103 -0.2290 -0.7586
 1416SOL     OW15883   3.406   4.332  12.878 -0.0210  0.1329 -0.0779
 1416SOL    HW115884   3.492   4.314  12.840 -0.2914  2.2393 -1.7172
 1416SOL    HW215885   3.366   4.340  12.791  0.7672  1.6592 -0.3078
 1417SOL     OW15886   0.883   1.861   5.090  0.6177 -0.4643  0.0170
 1417SOL    HW115887   0.812   1.891   5.147 -1.1048 -0.5939 -2.0750
 1417SOL    HW215888   0.840   1.838   5.008 -0.9181 -1.3553  1.0726
 1418SOL     OW15889   0.508   1.086   2.346  0.3544  0.1185  0.3570
 1418SOL    HW115890   0.463   1.022   2.401  0.2728  1.1600  1.4807
 1418SOL    HW215891   0.429   1.134   2.321  0.0459 -0.8452 -0.5569
 1419SOL     OW15892   0.139   0.645   1.068  0.0927 -0.1391  0.0392
 1419SOL    HW115893   0.137   0.549   1.061  0.2779 -0.1406  0.0046
 1419SOL    HW215894   0.208   0.666   1.005  0.0249 -0.1840 -0.0497
 1420SOL     OW15895   0.828   2.846   8.547 -0.0477 -0.1626  0.1088
 1420SOL    HW115896   0.744   2.809   8.574  0.5095 -1.3219  0.2399
 1420SOL    HW215897   0.833   2.810   8.458  1.8328 -1.4750  0.7511
 1421SOL     OW15898   2.131   2.185   2.483 -0.4034  0.1079  0.0266
 1421SOL    HW115899   2.062   2.124   2.458 -0.2031 -0.4607  0.8859
 1421SOL    HW215900   2.211   2.137   2.463 -1.2041 -1.2960  0.2058
 1422SOL     OW15901   0.425   1.513   3.655 -0.5236 -0.5825 -0.8412
 1422SOL    HW115902   0.502   1.488   3.706 -0.7012 -0.0446 -0.2999
 1422SOL    HW215903   0.364   1.517   3.729 -1.0102  0.7665 -1.3167
 1423SOL     OW15904   2.053   4.282   7.980  0.1455  0.3564 -0.1303
 1423SOL    HW115905   2.144   4.265   7.954 -0.4149 -1.2321 -1.0307
 1423SOL    HW215906   2.051   4.376   7.960 -0.5883  0.1613 -0.9736
 1424SOL     OW15907   1.294   2.789   7.203  0.3482 -0.5073 -0.5156
 1424SOL    HW115908   1.309   2.696   7.220  2.9905  0.2172  1.0542
 1424SOL    HW215909   1.352   2.804   7.128 -0.3561 -1.2654 -1.2193
 1425SOL     OW15910   1.697   1.088   7.854 -0.0223  0.4251 -0.0723
 1425SOL    HW115911   1.616   1.136   7.871 -2.1062 -2.7845 -0.9214
 1425SOL    HW215912   1.681   1.047   7.769 -1.0760  1.4287 -0.3578
 1426SOL     OW15913   4.679   0.306   2.459  0.4556  0.4994  0.4320
 1426SOL    HW115914   4.599   0.326   2.411  1.1219 -1.8094 -1.6172
 1426SOL    HW215915   0.006   0.358   2.411  0.2733 -0.3539 -0.7445
 1427SOL     OW15916   3.408   0.689  13.255 -0.4271 -0.0689 -0.0363
 1427SOL    HW115917   3.335   0.637  13.221 -1.2474 -0.3155  2.0466
 1427SOL    HW215918   3.398   0.681  13.350 -1.2593  0.1582 -0.0991
 1428SOL     OW15919   2.984   0.368   3.815 -0.1126 -0.1363  0.1237
 1428SOL    HW115920   2.978   0.279   3.781  1.6933 -1.2674  2.7555
 1428SOL    HW215921   3.078   0.378   3.832  0.1882  0.1456 -1.6454
 1429SOL     OW15922   1.165   2.837   4.663 -0.2651  0.0709 -0.4018
 1429SOL    HW115923   1.246   2.856   4.710 -0.7217 -1.5613  1.0347
 1429SOL    HW215924   1.106   2.816   4.735 -1.3371  1.2772 -0.9387
 1430SOL     OW15925   1.314   4.015   8.065 -0.2230  0.3164  0.2624
 1430SOL    HW115926   1.337   4.108   8.064  0.7862  0.0433 -1.0675
 1430SOL    HW215927   1.317   3.982   8.155 -0.5145  1.5823  0.7349
 1431SOL     OW15928   1.696   3.477   8.598  0.2595 -0.0624  0.1741
 1431SOL    HW115929   1.615   3.467   8.647  0.5690  2.2030  1.1799
 1431SOL    HW215930   1.687   3.407   8.533  0.1667 -0.7541  0.9449
 1432SOL     OW15931   1.659   1.406  10.440  0.5043  0.9531  0.0786
 1432SOL    HW115932   1.683   1.411  10.533  2.6122 -0.4518 -0.3802
 1432SOL    HW215933   1.654   1.312  10.422  0.6397  0.7581  1.0349
 1433SOL     OW15934   1.469   1.852   3.310 -0.8319 -0.6693  0.0282
 1433SOL    HW115935   1.449   1.926   3.367  2.3448  0.0728  0.1884
 1433SOL    HW215936   1.474   1.782   3.375  0.2314  0.4211  1.1258
 1434SOL     OW15937   2.256   4.271   5.642  0.3779  0.2728 -0.0336
 1434SOL    HW115938   2.298   4.348   5.604 -0.3416 -0.6728 -2.7293
 1434SOL    HW215939   2.240   4.289   5.735 -0.1738  1.5733 -0.3905
 1435SOL     OW15940   1.570   3.545  12.933 -0.2414  0.2838 -0.0679
 1435SOL    HW115941   1.659   3.581  12.930  0.3855 -1.3849 -1.5503
 1435SOL    HW215942   1.575   3.495  12.852  0.3711 -0.0804  0.1924
 1436SOL     OW15943   1.382   3.977   7.797  0.9182 -0.9251  0.0189
 1436SOL    HW115944   1.379   3.980   7.893 -0.9861  0.3950 -0.0935
 1436SOL    HW215945   1.338   4.058   7.774  0.7699 -1.0950 -0.2875
 1437SOL     OW15946   2.527   0.719   7.589 -0.1392 -0.2950  0.1441
 1437SOL    HW115947   2.528   0.660   7.665 -0.8084  0.6626  0.8976
 1437SOL    HW215948   2.538   0.803   7.633 -4.3034 -0.6368  1.8273
 1438SOL     OW15949   1.690   1.383   8.782 -0.4699 -0.2126 -0.0205
 1438SOL    HW115950   1.620   1.445   8.799 -0.6016 -0.1833 -0.6534
 1438SOL    HW215951   1.652   1.325   8.715  0.8204  1.2228 -2.0023
 1439SOL     OW15952   0.377   0.926  15.809  0.3610  0.1402 -0.4696
 1439SOL    HW115953   0.307   0.875  15.768  0.3819 -0.3343  0.0789
 1439SOL    HW215954   0.329   1.009  15.812 -0.1585 -0.3013  3.3257
 1440SOL     OW15955   3.196   0.767   6.892  0.1833  0.4724 -0.1209
 1440SOL    HW115956   3.165   0.761   6.983  1.8777 -3.2236  0.2347
 1440SOL    HW215957   3.288   0.791   6.890  0.6002 -1.2998 -2.3550
 1441SOL     OW15958   1.795   1.549   8.370 -0.0031 -0.1041 -0.0785
 1441SOL    HW115959   1.724   1.490   8.345 -0.6076  0.2552  0.7533
 1441SOL    HW215960   1.866   1.496   8.406  2.9559  3.1404 -1.1684
 1442SOL     OW15961   3.618   2.431   9.873  0.5529 -0.5481  0.2803
 1442SOL    HW115962   3.558   2.499   9.840  3.4698  1.8673 -0.0482
 1442SOL    HW215963   3.652   2.392   9.792  0.3191 -3.8599  1.7905
 1443SOL     OW15964   3.719   3.893   5.655  0.0995 -0.1697 -0.4003
 1443SOL    HW115965   3.758   3.889   5.742 -1.1159 -1.1426  0.0995
 1443SOL    HW215966   3.702   3.800   5.643  2.1392 -0.2502 -2.6434
 1444SOL     OW15967   4.581   3.326   8.835  0.0014  0.0283  0.3547
 1444SOL    HW115968   4.625   3.302   8.753 -0.3631 -2.0637  0.7557
 1444SOL    HW215969   4.634   3.290   8.906 -1.2351 -0.5423  0.9955
 1445SOL     OW15970   2.380   0.746   4.874  0.1282 -0.1551  0.2433
 1445SOL    HW115971   2.319   0.811   4.840  2.3774  1.1504 -1.2305
 1445SOL    HW215972   2.456   0.800   4.894  0.0279  0.6566 -1.5963
 1446SOL     OW15973   0.357   4.024   4.889  0.2207 -0.2902 -0.0127
 1446SOL    HW115974   0.322   4.050   4.974 -0.1942  1.6014 -0.7455
 1446SOL    HW215975   0.282   4.042   4.832  1.8498  3.6940 -0.9372
 1447SOL     OW15976   2.015   4.143   9.033  0.6643 -0.1201 -0.0710
 1447SOL    HW115977   2.047   4.144   8.943  1.1998 -2.6488  0.0899
 1447SOL    HW215978   1.990   4.052   9.050  0.7781  0.3028  2.3706
 1448SOL     OW15979   2.887   1.787  13.246 -0.1728 -0.2674 -0.8579
 1448SOL    HW115980   2.874   1.789  13.341  1.4028  4.3043 -0.7247
 1448SOL    HW215981   2.796   1.791  13.216 -0.4493  1.7006  0.2204
 1449SOL     OW15982   1.917   3.287   6.412 -0.1533  0.4901 -0.3282
 1449SOL    HW115983   1.838   3.313   6.460  0.8401  1.6462  0.6853
 1449SOL    HW215984   1.885   3.236   6.338 -0.0537  1.0167 -0.7362
 1450SOL     OW15985   2.484   2.620   4.328 -0.2820  0.1783 -0.2415
 1450SOL    HW115986   2.407   2.576   4.363  0.3810 -2.1295 -1.7156
 1450SOL    HW215987   2.493   2.695   4.388 -0.3107  0.3239 -0.4197
 1451SOL     OW15988   1.804   2.400   8.608 -0.5068 -0.5134 -0.1647
 1451SOL    HW115989   1.879   2.346   8.634  0.9419  1.2625 -0.6938
 1451SOL    HW215990   1.848   2.464   8.553  0.9177  0.0795  1.6806
 1452SOL     OW15991   4.043   2.928   8.613 -0.0493 -0.1508 -0.5520
 1452SOL    HW115992   3.959   2.962   8.584 -0.9109 -1.6699  0.2060
 1452SOL    HW215993   4.080   3.011   8.644  0.8550 -0.3425 -1.1265
 1453SOL     OW15994   1.408   2.741   6.097 -0.3514 -0.1798  0.1638
 1453SOL    HW115995   1.451   2.817   6.058  2.5615 -1.8712 -0.0092
 1453SOL    HW215996   1.318   2.749   6.066 -0.2690  0.2959  0.0438
 1454SOL     OW15997   0.506   3.330  12.101  0.1133  0.1376  0.2602
 1454SOL    HW115998   0.546   3.317  12.187  2.1878 -1.9636 -1.0432
 1454SOL    HW215999   0.463   3.245  12.098  0.1770  0.2399 -2.9448
 1455SOL     OW16000   1.426   2.258  11.787  0.2451 -0.5985  0.5514
 1455SOL    HW116001   1.334   2.272  11.764  0.4646  1.4095  0.9363
 1455SOL    HW216002   1.418   2.188  11.851  2.2789 -1.5918 -0.2671
 1456SOL     OW16003   3.839   4.427   6.165  0.7071  0.3001 -0.0150
 1456SOL    HW116004   3.816   4.493   6.099 -0.5146 -1.2285 -1.1482
 1456SOL    HW216005   3.868   4.358   6.105  0.6533  0.0424  0.2595
 1457SOL     OW16006   2.551   1.634  16.795  0.0085 -0.2922  0.5352
 1457SOL    HW116007   2.581   1.702  16.857 -1.0896  0.4079  0.3041
 1457SOL    HW216008   2.487   1.592  16.851 -0.9390 -2.2505 -2.0288
 1458SOL     OW16009   2.329   4.713   5.212  0.1040 -0.1613 -0.6405
 1458SOL    HW116010   2.254   0.035   5.211  0.7189  0.6836  1.8877
 1458SOL    HW216011   2.354   4.710   5.305  2.7455 -1.1903 -1.3664
 1459SOL     OW16012   3.126   1.595   0.310 -0.4664  0.5838 -0.2922
 1459SOL    HW116013   3.164   1.681   0.291 -0.0807  0.9127  1.9155
 1459SOL    HW216014   3.170   1.572   0.392 -2.2759  0.4340  0.6498
 1460SOL     OW16015   2.799   3.380   6.195 -0.2155 -0.0708  0.0547
 1460SOL    HW116016   2.812   3.308   6.134 -1.0772 -0.3702  0.2228
 1460SOL    HW216017   2.754   3.445   6.140  0.7346  0.1148 -0.5034
 1461SOL     OW16018   0.338   3.807   3.203 -0.2211 -0.6557  0.4286
 1461SOL    HW116019   0.420   3.772   3.169 -0.5268  1.0580 -2.0103
 1461SOL    HW216020   0.276   3.735   3.186  0.4918 -1.4801  1.2779
 1462SOL     OW16021   1.442   2.992   1.923 -0.3458 -0.2478 -0.1072
 1462SOL    HW116022   1.380   3.051   1.879  0.1137 -0.5463 -1.1702
 1462SOL    HW216023   1.410   3.012   2.011 -0.6057 -2.0813  0.2187
 1463SOL     OW16024   0.619   3.749   4.708  0.1250 -0.2864 -0.1976
 1463SOL    HW116025   0.566   3.789   4.639  0.0112  0.0558  0.0890
 1463SOL    HW216026   0.701   3.741   4.659  0.0828  1.7377 -0.6123
 1464SOL     OW16027   1.391   4.426   7.052 -0.2879 -0.5690  0.0058
 1464SOL    HW116028   1.455   4.494   7.031 -1.0759 -0.0356 -0.6267
 1464SOL    HW216029   1.343   4.474   7.119  0.0110  0.7917 -0.7721
 1465SOL     OW16030   1.719   0.176   9.941 -0.4408  0.2442 -0.3252
 1465SOL    HW116031   1.689   0.120  10.012 -2.1889 -2.1367 -2.9176
 1465SOL    HW216032   1.804   0.136   9.923 -1.3510 -1.1899 -1.4227
 1466SOL     OW16033   2.805   3.480   7.675 -0.4055 -0.6167  0.0067
 1466SOL    HW116034   2.801   3.426   7.754 -1.8495 -1.6538 -0.7829
 1466SOL    HW216035   2.734   3.442   7.624 -1.6151  0.0637  1.1640
 1467SOL     OW16036   4.095   3.439   9.746  0.0619  0.3701  0.8100
 1467SOL    HW116037   4.095   3.533   9.763 -1.3888  0.7021 -1.0071
 1467SOL    HW216038   4.099   3.445   9.650 -0.9294  0.9265  0.8043
 1468SOL     OW16039   4.006   2.542  15.216 -0.0430  0.4250  0.5066
 1468SOL    HW116040   3.944   2.507  15.152 -1.2890  0.1970  1.8349
 1468SOL    HW216041   4.059   2.605  15.167  0.0251  1.0297  1.3704
 1469SOL     OW16042   3.423   1.778   7.517  0.5489 -0.0670 -0.1521
 1469SOL    HW116043   3.488   1.806   7.582  0.1875  0.6349 -0.0976
 1469SOL    HW216044   3.482   1.751   7.447 -0.2649 -1.2054 -0.3983
 1470SOL     OW16045   0.762   0.361  10.155 -0.0003  0.5110 -0.0804
 1470SOL    HW116046   0.769   0.285  10.213 -2.4114  0.5416  0.2465
 1470SOL    HW216047   0.682   0.395  10.194  0.7903  2.5622 -0.2468
 1471SOL     OW16048   3.092   3.472   9.262  0.0231 -0.0739  0.5289
 1471SOL    HW116049   3.111   3.566   9.266 -1.5623  0.1951  1.9981
 1471SOL    HW216050   3.105   3.449   9.354 -0.5966  2.9704  1.3957
 1472SOL     OW16051   3.092   4.425   3.825 -0.5009  0.0954 -0.2913
 1472SOL    HW116052   3.127   4.513   3.810 -1.1589  0.6254  1.3177
 1472SOL    HW216053   3.003   4.451   3.847 -0.8604 -1.0187 -0.4299
 1473SOL     OW16054   2.347   0.839   6.993 -0.2377  0.0484  0.6080
 1473SOL    HW116055   2.395   0.911   6.952 -0.6101 -0.4531 -0.7026
 1473SOL    HW216056   2.274   0.845   6.932  1.5921 -0.8368 -1.6653
 1474SOL     OW16057   2.715   2.091  13.967 -0.3702 -0.3938  0.1367
 1474SOL    HW116058   2.810   2.087  13.972 -0.3939 -0.1255  0.7142
 1474SOL    HW216059   2.704   2.092  13.872  2.3760 -0.1945 -0.1696
 1475SOL     OW16060   3.285   4.380  12.348  0.0636 -0.8784  0.3687
 1475SOL    HW116061   3.288   4.475  12.334  0.8866 -0.9093  0.3269
 1475SOL    HW216062   3.237   4.353  12.269 -1.1968  0.2192  0.7586
 1476SOL     OW16063   3.591   0.210   5.802 -0.2428 -0.2267  0.0244
 1476SOL    HW116064   3.585   0.287   5.859  1.0591  1.4545 -2.1288
 1476SOL    HW216065   3.681   0.190   5.826 -0.2374 -0.1330  0.0834
 1477SOL     OW16066   1.574   4.135   4.060  0.1407  0.7781 -0.0039
 1477SOL    HW116067   1.543   4.188   4.133 -3.1633 -2.7901  1.2174
 1477SOL    HW216068   1.555   4.045   4.087 -0.4864  1.3104  1.2997
 1478SOL     OW16069   4.232   2.584   8.309  0.5298 -0.5515  0.2858
 1478SOL    HW116070   4.291   2.659   8.309 -1.5307  1.0973  2.1114
 1478SOL    HW216071   4.165   2.609   8.373 -0.6210  2.6122 -2.1184
 1479SOL     OW16072   3.673   4.020  17.370 -0.3180  0.1671  0.1658
 1479SOL    HW116073   3.666   4.094  17.309 -0.0815 -1.5320 -1.9319
 1479SOL    HW216074   3.587   3.979  17.371 -0.0878 -0.1943  3.1061
 1480SOL     OW16075   1.527   2.795   7.061 -0.2262 -0.5822 -0.1288
 1480SOL    HW116076   1.551   2.764   7.148  0.4449 -0.5685 -0.3098
 1480SOL    HW216077   1.614   2.774   7.027 -0.9019  0.1090 -2.3339
 1481SOL     OW16078   0.184   2.953   6.040  0.2229 -0.2745  0.2806
 1481SOL    HW116079   0.159   2.924   5.952 -1.3155 -0.2637  0.7232
 1481SOL    HW216080   0.242   2.880   6.061 -0.1454 -0.7137 -0.2487
 1482SOL     OW16081   1.728   4.016   2.730  0.2453 -0.4189  0.0940
 1482SOL    HW116082   1.792   4.024   2.659  2.1640 -0.2559  1.8383
 1482SOL    HW216083   1.736   3.923   2.752 -0.6836 -0.5063  0.0511
 1483SOL     OW16084   4.098   4.736  10.841  0.5442  0.5972  0.4479
 1483SOL    HW116085   4.105   4.693  10.926 -1.9675 -0.2714  0.1991
 1483SOL    HW216086   4.078   4.663  10.782  1.2371  1.1106 -0.4287
 1484SOL     OW16087   2.485   4.004   5.531  0.5559  0.4875  0.4066
 1484SOL    HW116088   2.444   4.019   5.446  0.8687  2.9826  0.6774
 1484SOL    HW216089   2.463   4.081   5.585 -1.5690 -0.2216  0.5658
 1485SOL     OW16090   2.244   3.393  14.243  0.2056  0.7248  0.5214
 1485SOL    HW116091   2.156   3.422  14.220 -0.1521 -0.2051  0.6930
 1485SOL    HW216092   2.278   3.462  14.299  0.1957 -0.4733  2.0276
 1486SOL     OW16093   1.739   1.890   5.842  0.4901 -0.0113  0.2749
 1486SOL    HW116094   1.704   1.863   5.757 -3.3606  3.1595  0.8425
 1486SOL    HW216095   1.738   1.984   5.827  0.3077 -0.0317  0.1625
 1487SOL     OW16096   0.667   0.263   8.728 -0.2373  0.2952 -0.0580
 1487SOL    HW116097   0.752   0.221   8.713 -0.4035  0.2737 -0.9409
 1487SOL    HW216098   0.629   0.210   8.798 -1.8272 -0.7632 -1.7377
 1488SOL     OW16099   1.418   4.470   3.097  0.4435  0.1471  0.5600
 1488SOL    HW116100   1.373   4.396   3.138 -1.4930  1.6457  1.1429
 1488SOL    HW216101   1.398   4.451   3.006 -2.3843 -2.3251  1.6936
 1489SOL     OW16102   1.189   0.743  14.843 -0.2110 -0.0976 -0.8250
 1489SOL    HW116103   1.255   0.739  14.774 -0.3532  0.2164 -0.9782
 1489SOL    HW216104   1.208   0.650  14.860  0.8169  0.7634  2.7117
 1490SOL     OW16105   1.125   1.718   3.653 -0.4650  0.5297 -0.3608
 1490SOL    HW116106   1.039   1.718   3.696 -0.8387 -0.6043 -1.1020
 1490SOL    HW216107   1.087   1.691   3.570 -1.4798  1.8768 -0.3314
 1491SOL     OW16108   1.151   1.869   8.065  0.2184  0.0919 -0.6591
 1491SOL    HW116109   1.177   1.784   8.102 -0.3805  0.9669  1.7732
 1491SOL    HW216110   1.063   1.879   8.102  0.0785 -2.5206 -0.2906
 1492SOL     OW16111   1.164   4.365  15.716  0.2657  0.1264 -0.0202
 1492SOL    HW116112   1.121   4.292  15.672  2.6200 -0.8954 -0.6131
 1492SOL    HW216113   1.095   4.404  15.769  0.1468 -0.8467  0.5408
 1493SOL     OW16114   1.533   2.292   2.470 -0.4362  0.1036 -0.1869
 1493SOL    HW116115   1.530   2.212   2.523  0.9107  0.9681  1.1906
 1493SOL    HW216116   1.527   2.357   2.541  0.2476 -3.8099  3.4786
 1494SOL     OW16117   3.322   2.260   6.396 -0.0064 -0.3826 -0.0714
 1494SOL    HW116118   3.355   2.293   6.312 -0.6091  1.5036  0.4345
 1494SOL    HW216119   3.380   2.187   6.416 -0.9249 -1.5180 -1.4981
 1495SOL     OW16120   1.530   1.323   7.411 -0.0404  0.6623  0.2814
 1495SOL    HW116121   1.582   1.249   7.381 -3.8214 -1.0857 -1.8661
 1495SOL    HW216122   1.460   1.272   7.451 -0.9777  2.3924  0.8784
 1496SOL     OW16123   1.403   1.489   4.817 -0.2849  0.4072 -0.6746
 1496SOL    HW116124   1.383   1.559   4.879 -0.2366  0.2565 -0.4884
 1496SOL    HW216125   1.319   1.447   4.804 -0.1781 -0.0504  0.0671
 1497SOL     OW16126   0.507   3.173   3.534  0.5719  0.0515 -0.4276
 1497SOL    HW116127   0.532   3.086   3.502  2.1006 -0.2593  1.6043
 1497SOL    HW216128   0.594   3.212   3.531 -0.2665  1.8470 -1.0395
 1498SOL     OW16129   0.025   4.248   0.401  0.3311  0.4135 -0.5660
 1498SOL    HW116130   4.683   4.284   0.441  0.0801 -0.1909 -0.5223
 1498SOL    HW216131   0.089   4.300   0.449  0.1583 -0.9145  1.1020
 1499SOL     OW16132   2.693   3.415   5.659  0.3665  0.1056 -0.1799
 1499SOL    HW116133   2.739   3.393   5.578 -0.1768  2.1065 -1.0416
 1499SOL    HW216134   2.629   3.476   5.620 -0.3897 -1.3149 -1.1797
 1500SOL     OW16135   4.326   0.092   3.689 -0.1591 -0.4831  0.0825
 1500SOL    HW116136   4.368   0.177   3.707 -0.5816 -0.3632  0.4872
 1500SOL    HW216137   4.398   0.048   3.643  2.1555  1.4953  1.7786
 1501SOL     OW16138   3.255   3.557   1.778  0.4960 -0.1573 -0.2749
 1501SOL    HW116139   3.330   3.585   1.724 -0.1246 -0.3804 -1.2495
 1501SOL    HW216140   3.299   3.524   1.856  0.2991 -0.4335 -0.2811
 1502SOL     OW16141   2.149   2.830   1.981 -0.1902  0.0567 -0.0690
 1502SOL    HW116142   2.178   2.744   2.012  1.0663 -0.0599 -1.5875
 1502SOL    HW216143   2.077   2.795   1.929 -1.3376  3.1147 -0.5514
 1503SOL     OW16144   3.218   3.533   6.174  0.2673 -0.2018  0.0621
 1503SOL    HW116145   3.204   3.535   6.268  0.5008 -1.8184  0.1306
 1503SOL    HW216146   3.130   3.543   6.138  1.6311  0.2484 -3.2348
 1504SOL     OW16147   4.126   0.638  10.696 -0.3108 -0.2244 -0.5063
 1504SOL    HW116148   4.111   0.732  10.696 -1.2121 -0.3707  0.2406
 1504SOL    HW216149   4.100   0.619  10.786  2.1902 -0.1402  0.2605
 1505SOL     OW16150   3.813   3.412   2.208  0.4007  0.4169  0.3668
 1505SOL    HW116151   3.739   3.403   2.267 -0.0663  0.7622 -0.1705
 1505SOL    HW216152   3.788   3.490   2.158  2.4980  0.7925 -0.1266
 1506SOL     OW16153   3.422   4.554  14.398 -0.1741  0.0533 -0.1378
 1506SOL    HW116154   3.438   4.466  14.364  0.9774 -0.9941  3.1091
 1506SOL    HW216155   3.413   4.532  14.491 -0.6581  0.6726 -0.0375
 1507SOL     OW16156   0.400   1.745   8.934  0.4989 -0.4819  0.0314
 1507SOL    HW116157   0.403   1.653   8.960  3.1471 -1.2497 -2.9690
 1507SOL    HW216158   0.359   1.743   8.848 -0.9667 -0.8576  0.7403
 1508SOL     OW16159   2.131   2.782   0.511  0.3318 -0.0959  0.5027
 1508SOL    HW116160   2.068   2.780   0.584 -0.2802  3.0866  0.0638
 1508SOL    HW216161   2.213   2.794   0.558  0.2731 -0.1732  0.6261
 1509SOL     OW16162   3.952   2.040   2.679 -0.3541 -0.3338 -0.2174
 1509SOL    HW116163   3.996   2.006   2.601 -0.3651  1.5847 -1.0532
 1509SOL    HW216164   3.921   1.960   2.721 -0.1891  0.7183  1.8732
 1510SOL     OW16165   3.718   4.551   4.755 -0.2748  0.5055 -0.2493
 1510SOL    HW116166   3.785   4.525   4.818  0.5873 -0.5830 -1.6040
 1510SOL    HW216167   3.738   4.489   4.684 -2.9489  0.3728 -0.8862
 1511SOL     OW16168   3.747   3.917  16.757 -0.5239 -0.5638 -0.2432
 1511SOL    HW116169   3.699   3.862  16.819 -0.4424 -0.2076  0.1454
 1511SOL    HW216170   3.752   4.006  16.795 -2.7398 -0.1824 -0.8653
 1512SOL     OW16171   0.481   0.938   6.288  0.1619  0.7396 -0.3326
 1512SOL    HW116172   0.521   0.910   6.370 -0.4182  0.2622 -0.2119
 1512SOL    HW216173   0.519   1.025   6.296 -0.9241  1.3350 -1.6918
 1513SOL     OW16174   0.564   1.821   9.660  0.6460 -0.0664  0.2788
 1513SOL    HW116175   0.654   1.802   9.688  1.0533  0.6870 -0.5210
 1513SOL    HW216176   0.537   1.859   9.743 -0.8418  0.7509 -0.5801
 1514SOL     OW16177   1.578   0.704   3.362 -0.0282  0.4424  0.5913
 1514SOL    HW116178   1.537   0.755   3.292 -1.6129 -0.8718  0.5640
 1514SOL    HW216179   1.519   0.630   3.379  1.1642 -0.6053  0.2324
 1515SOL     OW16180   0.081   0.031   5.122  0.0271  0.0291  0.4735
 1515SOL    HW116181   0.052   0.051   5.211  2.7969  1.6807  0.9975
 1515SOL    HW216182   0.071   4.673   5.113 -0.8216  0.0831  0.9057
 1516SOL     OW16183   0.491   4.379   6.631  0.1400  0.3071  0.2280
 1516SOL    HW116184   0.520   4.468   6.610 -0.8953  0.6782  0.3990
 1516SOL    HW216185   0.504   4.334   6.547 -0.5205  0.3696  0.0965
 1517SOL     OW16186   1.795   4.267  12.331 -0.0569  0.2478 -0.1223
 1517SOL    HW116187   1.711   4.309  12.349  0.9615  1.3131  2.1076
 1517SOL    HW216188   1.768   4.194  12.275 -0.0108 -0.0985  0.3045
 1518SOL     OW16189   3.736   2.158  13.580 -0.0737  0.6662  0.4541
 1518SOL    HW116190   3.794   2.234  13.585  1.3895 -0.2051 -3.4868
 1518SOL    HW216191   3.802   2.088  13.578 -1.5281 -0.7112  0.9034
 1519SOL     OW16192   1.444   0.608  15.255 -0.1005 -0.0315  0.1268
 1519SOL    HW116193   1.381   0.677  15.235  1.1751  1.1427  0.0941
 1519SOL    HW216194   1.470   0.580  15.167 -0.1860 -2.1629  0.7703
 1520SOL     OW16195   0.354   4.225   8.236 -0.2351 -0.4234  0.0153
 1520SOL    HW116196   0.448   4.221   8.219 -0.4348 -1.6678 -0.8092
 1520SOL    HW216197   0.343   4.268   8.321 -1.4584  1.4213 -1.0771
 1521SOL     OW16198   3.112   2.267  11.400 -0.3570 -0.5925 -0.1706
 1521SOL    HW116199   3.148   2.313  11.324 -1.1855  0.5395  0.1298
 1521SOL    HW216200   3.136   2.176  11.381 -0.3115 -0.5315 -0.3972
 1522SOL     OW16201   2.262   3.048   3.045 -0.4532 -0.3021 -0.0122
 1522SOL    HW116202   2.356   3.047   3.032 -0.3395  0.4060  0.7104
 1522SOL    HW216203   2.252   3.011   3.133  0.5561  1.8874  1.0266
 1523SOL     OW16204   4.658   4.524   3.686  0.1452  0.3576 -0.2412
 1523SOL    HW116205   0.008   4.485   3.687 -1.1198 -2.4383  1.1586
 1523SOL    HW216206   4.617   4.472   3.754  1.7443  0.9220  1.1410
 1524SOL     OW16207   1.417   2.559  12.789  0.1857  0.3063 -0.2106
 1524SOL    HW116208   1.459   2.533  12.871 -0.8385 -1.7194 -0.3270
 1524SOL    HW216209   1.496   2.550  12.736  0.9585  3.2958  0.4166
 1525SOL     OW16210   2.728   2.528   9.581 -0.2214 -0.1065  0.6347
 1525SOL    HW116211   2.692   2.450   9.540  0.5735  0.3909 -0.9981
 1525SOL    HW216212   2.701   2.592   9.514  0.0611  0.1326  0.7483
 1526SOL     OW16213   1.740   0.487  12.994  0.5110 -0.4854  0.2063
 1526SOL    HW116214   1.809   0.505  12.930 -0.7098  0.0976 -0.9590
 1526SOL    HW216215   1.724   0.395  12.973  0.9164 -0.3338 -0.7727
 1527SOL     OW16216   0.291   0.496   7.512 -0.1335 -0.2306  0.0768
 1527SOL    HW116217   0.277   0.414   7.559 -1.2034 -0.4184 -0.5786
 1527SOL    HW216218   0.341   0.469   7.435 -0.3492  0.7871 -0.4258
 1528SOL     OW16219   3.258   3.866   8.332 -0.7380 -0.1199 -0.1518
 1528SOL    HW116220   3.307   3.827   8.404  2.1169  1.5269 -1.1936
 1528SOL    HW216221   3.184   3.805   8.337 -1.1733  0.6688  2.6498
 1529SOL     OW16222   1.902   2.915   1.428 -0.1194 -0.6850  0.0807
 1529SOL    HW116223   1.838   2.861   1.474 -0.1812 -0.2244  0.5266
 1529SOL    HW216224   1.842   2.968   1.376  0.4729  0.6903  0.8200
 1530SOL     OW16225   3.091   3.516  16.164 -0.4482 -0.0808  0.0218
 1530SOL    HW116226   3.087   3.544  16.072 -0.9472  0.2781  0.1513
 1530SOL    HW216227   3.117   3.599  16.204  1.1844 -1.9638  2.8404
 1531SOL     OW16228   3.406   1.469   4.337 -0.5826 -0.3025  0.3713
 1531SOL    HW116229   3.420   1.555   4.378 -0.9000  0.5636 -1.3106
 1531SOL    HW216230   3.320   1.482   4.296 -0.4957 -0.5973  0.0978
 1532SOL     OW16231   2.693   0.370   3.815 -0.1826  0.3233  0.3569
 1532SOL    HW116232   2.681   0.410   3.901 -0.9250 -1.3861  1.0497
 1532SOL    HW216233   2.782   0.340   3.833  1.0269  2.5063 -1.9879
 1533SOL     OW16234   4.737   4.334   3.183  0.4249 -0.3741 -0.4930
 1533SOL    HW116235   0.020   4.241   3.190  1.6215 -0.1398 -0.9443
 1533SOL    HW216236   0.086   4.376   3.186  0.7897 -1.1698  0.0923
 1534SOL     OW16237   1.298   4.476   5.523  0.3194  0.6495  0.0985
 1534SOL    HW116238   1.324   4.458   5.614 -0.5147 -0.4242  0.1278
 1534SOL    HW216239   1.211   4.437   5.518  1.4510 -1.7798 -0.4598
 1535SOL     OW16240   0.923   1.910   8.179  0.1080  0.2222  0.3292
 1535SOL    HW116241   0.902   1.857   8.256  1.7059  0.5101  0.9649
 1535SOL    HW216242   0.893   1.997   8.208  0.0227  0.0242  0.8405
 1536SOL     OW16243   0.949   3.633  13.845  0.1777  0.0924 -0.2078
 1536SOL    HW116244   0.998   3.700  13.891 -0.9210  0.8905 -0.1879
 1536SOL    HW216245   0.983   3.558  13.895  1.1527  0.4180 -0.3879
 1537SOL     OW16246   2.529   4.123   4.631  0.1940 -0.2850  0.3889
 1537SOL    HW116247   2.442   4.161   4.621 -0.1659 -0.4224  3.2197
 1537SOL    HW216248   2.515   4.028   4.621 -1.1757 -0.0417  0.0421
 1538SOL     OW16249   3.460   1.854  12.712  0.1467  0.2415 -0.5932
 1538SOL    HW116250   3.464   1.950  12.717  0.4731  0.2539 -1.1718
 1538SOL    HW216251   3.364   1.847  12.720  0.0683  0.3176 -1.4013
 1539SOL     OW16252   1.355   3.908   5.408  0.4089  0.1285 -0.1868
 1539SOL    HW116253   1.379   3.999   5.425  1.8202 -0.3647  0.4485
 1539SOL    HW216254   1.264   3.902   5.434  1.0663 -2.3619  1.5322
 1540SOL     OW16255   4.119   4.627   9.527 -0.1841 -0.1607 -0.0341
 1540SOL    HW116256   4.109   4.541   9.486 -4.2513  0.7272 -0.9713
 1540SOL    HW216257   4.179   4.664   9.463 -1.7752  2.3858 -0.0641
 1541SOL     OW16258   2.362   4.014  12.116 -0.0051  0.3017 -0.2551
 1541SOL    HW116259   2.344   4.099  12.156 -1.9484  0.4175 -1.3851
 1541SOL    HW216260   2.410   4.052  12.042  0.7572  1.8782  1.0555
 1542SOL     OW16261   3.075   4.193  12.671 -0.3304  0.0761  0.3981
 1542SOL    HW116262   3.089   4.210  12.764  0.8884 -1.3578  0.4794
 1542SOL    HW216263   3.151   4.235  12.631 -1.2178  1.2954  0.0041
 1543SOL     OW16264   4.446   0.620   3.982  0.3394 -0.0422 -0.0535
 1543SOL    HW116265   4.528   0.654   4.018  0.9029  0.1820 -1.5525
 1543SOL    HW216266   4.377   0.645   4.043  0.9420 -0.0832  0.6459
 1544SOL     OW16267   1.870   3.796   5.071 -0.1765  0.1378  0.1477
 1544SOL    HW116268   1.927   3.831   5.140  1.0298 -2.0066  0.2300
 1544SOL    HW216269   1.868   3.865   5.005 -0.3216 -0.1276 -0.1264
 1545SOL     OW16270   2.868   2.217   5.426 -0.6069  0.6530 -0.3518
 1545SOL    HW116271   2.963   2.220   5.430 -0.4736 -0.5118 -2.4186
 1545SOL    HW216272   2.843   2.205   5.517 -3.6288 -0.7749 -1.3665
 1546SOL     OW16273   2.432   3.272   4.344 -0.0847  0.0393  0.7795
 1546SOL    HW116274   2.452   3.294   4.435  0.9046 -2.6536  1.1986
 1546SOL    HW216275   2.404   3.354   4.303  1.2462  1.2117  2.2268
 1547SOL     OW16276   4.316   0.261   9.776 -0.2764 -1.0611  0.1986
 1547SOL    HW116277   4.405   0.295   9.786 -0.2064 -1.4541  0.8788
 1547SOL    HW216278   4.335   0.168   9.766 -1.3803 -1.2445 -0.2135
 1548SOL     OW16279   0.391   2.341   7.121 -0.0293  0.0793 -0.5379
 1548SOL    HW116280   0.415   2.411   7.061  0.7513 -0.2307 -0.5915
 1548SOL    HW216281   0.380   2.277   7.051 -0.8873  1.5207 -1.7175
 1549SOL     OW16282   3.067   2.322  15.616  0.3472 -0.0087 -0.3000
 1549SOL    HW116283   3.141   2.281  15.659  0.3635  0.1890 -0.1403
 1549SOL    HW216284   2.999   2.323  15.683 -0.0899  1.7334 -0.7598
 1550SOL     OW16285   4.272   0.916   6.906 -0.3894 -0.7272  0.4348
 1550SOL    HW116286   4.232   0.838   6.869  0.2334 -0.5654 -0.5806
 1550SOL    HW216287   4.338   0.868   6.958 -0.7946 -3.3838 -1.5079
 1551SOL     OW16288   2.286   0.988   3.613  0.2331 -0.0466  1.0396
 1551SOL    HW116289   2.251   1.071   3.645  1.9857  1.1700 -0.2092
 1551SOL    HW216290   2.377   1.018   3.607  0.7461 -1.4111  2.0077
 1552SOL     OW16291   0.508   3.881   8.541 -0.5348 -0.2382 -0.4107
 1552SOL    HW116292   0.512   3.817   8.612  1.7596 -0.0332 -0.3676
 1552SOL    HW216293   0.435   3.837   8.496 -1.5084  1.5234 -0.5545
 1553SOL     OW16294   0.591   0.906   6.549 -0.0331  0.1250  0.1654
 1553SOL    HW116295   0.563   0.839   6.611  3.4109  0.1468  1.7646
 1553SOL    HW216296   0.676   0.932   6.585 -0.2598 -1.1821  1.6516
 1554SOL     OW16297   3.591   2.276   0.943 -0.8769  0.2803  0.0246
 1554SOL    HW116298   3.583   2.369   0.964 -0.5000 -0.4133  3.1523
 1554SOL    HW216299   3.497   2.258   0.949 -0.7830 -1.2821 -3.1936
 1555SOL     OW16300   1.361   3.008   2.188 -0.6051  0.1746 -0.3665
 1555SOL    HW116301   1.314   3.083   2.223  0.7962  0.8904 -0.0282
 1555SOL    HW216302   1.285   2.954   2.164 -1.4549  0.1530  2.3729
 1556SOL     OW16303   1.421   0.005   7.922  0.1392  0.7080 -0.0483
 1556SOL    HW116304   1.499   4.687   7.932 -1.0791 -0.9518  0.2153
 1556SOL    HW216305   1.400   0.046   8.005 -0.2482  0.6604 -0.1213
 1557SOL     OW16306   0.111   0.652   0.417  0.4806 -0.6962 -0.5757
 1557SOL    HW116307   0.199   0.676   0.390  0.7365 -0.4965  0.4573
 1557SOL    HW216308   0.132   0.572   0.466  2.8681 -0.7910 -1.7432
 1558SOL     OW16309   2.658   0.930   4.158 -0.2596  0.2068  0.4947
 1558SOL    HW116310   2.568   0.900   4.163 -0.2006 -0.1821 -0.7075
 1558SOL    HW216311   2.688   0.857   4.103  1.6120  1.3094  0.0322
 1559SOL     OW16312   3.747   2.334   5.201  0.2606  0.3098 -1.1555
 1559SOL    HW116313   3.836   2.313   5.173 -0.3742 -1.9726 -1.5005
 1559SOL    HW216314   3.760   2.426   5.224  0.3486  0.0523 -0.1392
 1560SOL     OW16315   0.028   2.182   3.895  0.2215 -0.0516  0.3898
 1560SOL    HW116316   4.698   2.248   3.880 -1.5580 -1.9030  0.1779
 1560SOL    HW216317   0.020   2.174   3.991 -0.6696 -2.7821  0.0809
 1561SOL     OW16318   0.545   0.116   8.003  0.6598  0.5735 -0.2210
 1561SOL    HW116319   0.532   0.206   7.973  0.4104  1.0920  1.4704
 1561SOL    HW216320   0.544   0.123   8.098 -0.1956  1.2424 -0.2776
 1562SOL     OW16321   4.673   1.190   7.725  0.3303  0.5511  0.1058
 1562SOL    HW116322   4.714   1.115   7.682 -0.7576  0.5087 -0.8451
 1562SOL    HW216323   4.730   1.201   7.802  0.5933 -0.2223  0.0177
 1563SOL     OW16324   0.293   4.579   4.012 -0.2968 -0.0213  0.1386
 1563SOL    HW116325   0.301   4.624   3.928 -0.5030  3.1639  1.8534
 1563SOL    HW216326   0.243   4.646   4.059 -2.2960  0.2035 -2.3266
 1564SOL     OW16327   0.245   0.420  12.417 -0.4866 -0.1342  0.3372
 1564SOL    HW116328   0.267   0.512  12.405  1.5660 -1.0225 -2.5702
 1564SOL    HW216329   0.311   0.373  12.366  0.9944 -0.6592  2.7027
 1565SOL     OW16330   2.998   1.569   3.535 -0.3828 -0.0714 -0.1611
 1565SOL    HW116331   3.034   1.647   3.578  0.3447 -0.3843 -0.2044
 1565SOL    HW216332   2.910   1.576   3.571 -0.5991  1.0799 -0.9059
 1566SOL     OW16333   3.220   3.038  16.019  0.5960 -0.1930  0.2994
 1566SOL    HW116334   3.313   3.027  16.003  0.4765  0.0031 -0.5020
 1566SOL    HW216335   3.223   3.125  16.060  0.3567 -0.4829  0.9462
 1567SOL     OW16336   0.283   0.413  13.318 -0.0838  0.2668 -0.2131
 1567SOL    HW116337   0.203   0.383  13.361 -0.5837 -1.0224 -2.0470
 1567SOL    HW216338   0.246   0.465  13.247  0.2428  0.9318  0.1043
 1568SOL     OW16339   1.117   1.957   5.829  0.0498  0.1764  0.2578
 1568SOL    HW116340   1.112   2.052   5.820 -0.9032  0.4351  3.3212
 1568SOL    HW216341   1.199   1.934   5.785  0.4776 -1.1784  1.7682
 1569SOL     OW16342   0.922   3.443   1.143 -0.3926  0.1482  0.6106
 1569SOL    HW116343   0.946   3.353   1.167  0.3756  0.8061  2.3676
 1569SOL    HW216344   0.873   3.466   1.222 -0.0328 -2.1689  1.5048
 1570SOL     OW16345   4.496   1.655   9.599 -0.8170 -0.1517 -0.0772
 1570SOL    HW116346   4.589   1.675   9.610 -0.4494  0.4064 -4.1904
 1570SOL    HW216347   4.459   1.688   9.681  2.6932  1.0742  1.0212
 1571SOL     OW16348   0.442   2.694   2.010 -0.6992  0.4687  0.4234
 1571SOL    HW116349   0.349   2.714   2.006 -0.6426  1.0326  1.7435
 1571SOL    HW216350   0.456   2.667   2.101  1.4732  3.3118  0.9115
 1572SOL     OW16351   3.537   0.114   8.434  0.5100  0.0608 -0.5385
 1572SOL    HW116352   3.597   0.139   8.504 -2.0057 -0.2499  1.7484
 1572SOL    HW216353   3.469   0.076   8.490 -2.0282  0.3240 -3.4832
 1573SOL     OW16354   1.344   3.314   3.045  0.0242  0.4360 -0.1467
 1573SOL    HW116355   1.393   3.362   2.978  1.2819 -0.6889 -0.0227
 1573SOL    HW216356   1.267   3.287   2.996  2.2273 -1.2732 -2.6324
 1574SOL     OW16357   1.553   1.203   3.926  0.2705 -0.2782  0.2630
 1574SOL    HW116358   1.574   1.131   3.866  2.3085  1.3520 -0.9941
 1574SOL    HW216359   1.553   1.276   3.864 -0.7264  0.1680  0.7910
 1575SOL     OW16360   0.714   1.341   0.865 -0.7484  0.5870 -0.4795
 1575SOL    HW116361   0.719   1.274   0.933  0.8069 -0.3657 -1.5348
 1575SOL    HW216362   0.684   1.414   0.919  1.7650  1.6076 -0.4289
 1576SOL     OW16363   4.137   0.507   8.987 -0.1711 -0.3244  0.0387
 1576SOL    HW116364   4.148   0.568   9.060  0.6847 -0.7355  0.2490
 1576SOL    HW216365   4.224   0.502   8.947  1.2350  0.5193  3.0584
 1577SOL     OW16366   0.918   0.697   5.583 -0.0164  0.1825  0.4850
 1577SOL    HW116367   0.841   0.644   5.564 -0.2493  0.3923  0.8396
 1577SOL    HW216368   0.894   0.744   5.662 -0.0013 -2.5788  2.1488
 1578SOL     OW16369   0.945   2.148  14.265 -0.1508  0.3188 -0.3758
 1578SOL    HW116370   0.966   2.071  14.317 -1.0112  0.2974 -0.0674
 1578SOL    HW216371   0.990   2.216  14.316 -1.2258  1.0995 -0.4724
 1579SOL     OW16372   2.802   2.508   4.025 -0.4951  0.4789 -0.1434
 1579SOL    HW116373   2.890   2.534   3.996 -0.0366  0.5897  1.3583
 1579SOL    HW216374   2.807   2.420   3.988  2.9638 -0.0614  1.6535
 1580SOL     OW16375   4.239   3.051   6.771 -0.1733 -0.0279  0.0981
 1580SOL    HW116376   4.144   3.041   6.759 -0.1116 -1.5656  0.9158
 1580SOL    HW216377   4.257   3.036   6.678 -1.6193 -0.8937 -0.0551
 1581SOL     OW16378   2.139   2.522  10.261  0.8770  0.1472 -0.4418
 1581SOL    HW116379   2.048   2.496  10.276  1.7165 -0.0943  4.2156
 1581SOL    HW216380   2.166   2.570  10.340  2.3872  2.6854 -2.5330
 1582SOL     OW16381   3.795   3.059  12.424  0.2962  0.1806  0.0126
 1582SOL    HW116382   3.781   2.982  12.480  2.0192 -0.1372  0.0128
 1582SOL    HW216383   3.736   3.126  12.459  0.2598  0.3136 -0.3026
 1583SOL     OW16384   3.470   1.898  11.616 -0.0249 -0.1801  0.4886
 1583SOL    HW116385   3.488   1.840  11.690 -0.4048  0.1220  0.8259
 1583SOL    HW216386   3.558   1.933  11.605  0.5986 -1.5272  1.3102
 1584SOL     OW16387   4.433   3.466   6.253  0.1948  0.1462 -0.2792
 1584SOL    HW116388   4.454   3.473   6.160  1.7140 -0.2676  0.0411
 1584SOL    HW216389   4.352   3.415   6.258 -0.0160  0.5512  0.3975
 1585SOL     OW16390   3.168   0.488   5.953 -0.2984  0.1297 -0.8292
 1585SOL    HW116391   3.179   0.583   5.954  0.0229  0.0808 -0.1615
 1585SOL    HW216392   3.155   0.478   5.858  0.4649  1.9939 -1.1216
 1586SOL     OW16393   1.929   4.362   3.654 -0.3103 -0.2710 -0.1045
 1586SOL    HW116394   2.009   4.309   3.651  0.3187  0.6693 -0.0889
 1586SOL    HW216395   1.867   4.299   3.618  1.4041 -2.5454  0.9098
 1587SOL     OW16396   1.966   3.069   7.881 -0.0390  0.3891 -0.0818
 1587SOL    HW116397   1.899   3.127   7.842  0.2150  0.9785  0.3637
 1587SOL    HW216398   2.029   3.141   7.889 -0.7791  1.1652 -1.1317
 1588SOL     OW16399   4.387   0.616   8.290  0.0203 -0.3839  0.5801
 1588SOL    HW116400   4.327   0.621   8.216  2.0496  1.1764 -0.9678
 1588SOL    HW216401   4.470   0.647   8.252  0.2427 -0.1656  1.2425
 1589SOL     OW16402   1.114   0.473   5.477  0.1047 -0.5251  0.1017
 1589SOL    HW116403   1.069   0.555   5.499  1.4072 -0.1667  1.4061
 1589SOL    HW216404   1.199   0.490   5.517 -0.5640  2.1534  0.4096
 1590SOL     OW16405   3.400   0.284   7.516  0.0744 -0.8300  0.1027
 1590SOL    HW116406   3.479   0.235   7.539  0.7717  0.9016  1.3984
 1590SOL    HW216407   3.332   0.259   7.578  2.1354 -1.2470  2.1854
 1591SOL     OW16408   1.560   3.752   3.350 -0.2264  0.1921 -0.0979
 1591SOL    HW116409   1.543   3.685   3.416  0.4162 -1.5451 -1.7246
 1591SOL    HW216410   1.488   3.812   3.370 -0.4185 -0.4940  1.2612
 1592SOL     OW16411   3.515   2.323   0.213  0.1849  0.2775 -0.7561
 1592SOL    HW116412   3.518   2.229   0.230  1.0655  0.3523 -0.5384
 1592SOL    HW216413   3.421   2.329   0.193  0.2002 -0.9706 -1.2052
 1593SOL     OW16414   2.091   3.813   4.116 -0.3424 -0.3859  0.0129
 1593SOL    HW116415   2.141   3.813   4.198  1.7633 -1.8307 -1.2530
 1593SOL    HW216416   2.006   3.799   4.157 -0.2698 -1.9623 -0.3617
 1594SOL     OW16417   1.696   2.439   8.849 -1.1321  0.4706  0.1569
 1594SOL    HW116418   1.750   2.428   8.771  1.2582 -1.3281  2.0785
 1594SOL    HW216419   1.707   2.525   8.891 -3.1333  0.4881  0.6524
 1595SOL     OW16420   2.833   0.772   8.414  0.5611 -0.1742 -0.7512
 1595SOL    HW116421   2.860   0.680   8.411 -0.7438 -0.5858  0.0917
 1595SOL    HW216422   2.918   0.806   8.388  0.6877  0.8856  1.0186
 1596SOL     OW16423   2.968   3.687  12.380 -0.2605 -0.1253  0.4125
 1596SOL    HW116424   3.029   3.733  12.437 -1.0273 -0.8323  1.7954
 1596SOL    HW216425   2.971   3.736  12.297  0.1463  1.0552  1.1322
 1597SOL     OW16426   0.382   1.626   1.241 -0.5948  0.0645  0.4590
 1597SOL    HW116427   0.303   1.649   1.192  1.2755 -0.4828 -2.8354
 1597SOL    HW216428   0.352   1.543   1.278 -1.9997  0.5496  0.3943
 1598SOL     OW16429   2.044   3.123  14.180  0.3048 -0.1835 -0.3154
 1598SOL    HW116430   1.993   3.195  14.217 -1.2574 -1.7847  0.6286
 1598SOL    HW216431   2.113   3.106  14.244  0.1594 -2.2624 -0.7145
 1599SOL     OW16432   0.648   3.774   6.980 -0.4998  0.5839 -0.0241
 1599SOL    HW116433   0.595   3.848   7.008 -1.2786  0.3907 -1.0124
 1599SOL    HW216434   0.612   3.701   7.030 -0.0181  0.4781  0.1681
 1600SOL     OW16435   0.477   0.022   9.786 -0.3156 -0.1997 -0.1947
 1600SOL    HW116436   0.502   0.071   9.864 -0.7714 -0.5086  0.1452
 1600SOL    HW216437   0.567   4.737   9.764  0.2060 -1.3212  3.2189
 1601SOL     OW16438   0.783   0.454   1.421  0.5523  0.3814  0.5701
 1601SOL    HW116439   0.762   0.517   1.352  0.3618  1.4506  1.6053
 1601SOL    HW216440   0.859   0.418   1.376  0.1164  1.1016 -0.7489
 1602SOL     OW16441   1.378   2.281   3.335  0.4077  0.8123  0.0697
 1602SOL    HW116442   1.324   2.216   3.380  0.2434  0.7440 -0.2252
 1602SOL    HW216443   1.458   2.290   3.387 -0.4511 -0.2397  1.5965
 1603SOL     OW16444   1.705   2.529   2.039  0.5245 -0.1195  0.3568
 1603SOL    HW116445   1.651   2.606   2.024 -0.8868 -0.9439  1.2426
 1603SOL    HW216446   1.778   2.567   2.088  0.2624  0.0959  0.5783
 1604SOL     OW16447   0.757   3.036   5.576  0.0486  1.1878 -0.1650
 1604SOL    HW116448   0.763   3.102   5.507 -0.9563  2.1111  0.6185
 1604SOL    HW216449   0.850   3.032   5.600 -0.5958 -1.2448  1.9532
 1605SOL     OW16450   0.433   2.807  17.044 -0.0791 -0.3196 -0.6867
 1605SOL    HW116451   0.461   2.723  17.080 -1.8819  0.3980  2.4648
 1605SOL    HW216452   0.353   2.771  17.005 -0.9504  1.4627 -0.5701
 1606SOL     OW16453   4.033   4.226   5.662  0.0443  0.2921 -0.0343
 1606SOL    HW116454   4.065   4.163   5.727 -1.1310 -1.6191 -1.3124
 1606SOL    HW216455   4.082   4.205   5.583 -1.0339 -1.2368 -0.3193
 1607SOL     OW16456   1.558   0.494   7.323  0.5647 -0.0162 -0.1934
 1607SOL    HW116457   1.555   0.426   7.390  0.4570  0.3045  0.1300
 1607SOL    HW216458   1.612   0.556   7.372  0.9146 -0.0566 -0.5260
 1608SOL     OW16459   3.902   4.691   5.213  0.5927 -0.1946 -0.1910
 1608SOL    HW116460   3.986   4.718   5.248 -1.2615  1.6371  2.8133
 1608SOL    HW216461   3.871   0.035   5.172 -1.9298 -1.8701 -1.6576
 1609SOL     OW16462   2.290   2.461  10.041  0.2919 -0.1598  0.4115
 1609SOL    HW116463   2.254   2.501  10.120  1.9335 -0.5532  1.3531
 1609SOL    HW216464   2.338   2.385  10.076 -0.2662 -0.3275  0.8025
 1610SOL     OW16465   2.778   2.922  11.588 -0.5328 -0.4755 -0.5111
 1610SOL    HW116466   2.689   2.915  11.623 -0.0827 -1.4042  0.4389
 1610SOL    HW216467   2.762   2.926  11.493  0.5317 -2.3131 -0.7642
 1611SOL     OW16468   1.633   4.477   4.766  0.2606  0.4011 -0.0859
 1611SOL    HW116469   1.575   4.511   4.834 -1.2967 -0.7520 -0.8611
 1611SOL    HW216470   1.700   4.546   4.758  0.6831 -0.1068 -0.9894
 1612SOL     OW16471   3.631   2.081   3.812  0.0412  0.4836 -0.4028
 1612SOL    HW116472   3.629   2.160   3.866  1.6642  0.0263  0.3202
 1612SOL    HW216473   3.726   2.073   3.806 -0.0656 -1.9033  0.9452
 1613SOL     OW16474   1.920   0.079   9.446 -0.8529  0.1537  0.2655
 1613SOL    HW116475   1.862   0.004   9.436 -0.8716  0.4799 -2.2422
 1613SOL    HW216476   1.911   0.117   9.358 -1.6811 -2.2455 -0.6744
 1614SOL     OW16477   3.249   2.219   9.058  0.7395 -0.1012 -0.2157
 1614SOL    HW116478   3.180   2.188   9.118 -0.2351  0.5751 -0.9968
 1614SOL    HW216479   3.219   2.310   9.061 -1.1728 -0.7292 -0.6686
 1615SOL     OW16480   3.448   3.692   3.193  0.3547  0.1247 -0.0612
 1615SOL    HW116481   3.497   3.735   3.122 -0.5620 -0.1834 -0.8913
 1615SOL    HW216482   3.513   3.707   3.261  1.2252 -3.6495 -0.0850
 1616SOL     OW16483   0.410   4.625   1.183 -0.3771 -0.4662  0.1034
 1616SOL    HW116484   0.426   4.606   1.090  1.7335 -1.3802  0.6689
 1616SOL    HW216485   0.501   4.621   1.210 -0.6348  1.8813  1.3289
 1617SOL     OW16486   2.525   1.363  11.456  0.4834 -0.2906 -0.1849
 1617SOL    HW116487   2.442   1.371  11.502 -0.1234 -1.6962 -1.0551
 1617SOL    HW216488   2.497   1.324  11.374  1.0743 -1.3315  0.1122
 1618SOL     OW16489   1.715   1.432  12.885 -0.0116  0.3433  0.2141
 1618SOL    HW116490   1.749   1.481  12.960 -3.5980  1.4350  1.1276
 1618SOL    HW216491   1.626   1.411  12.915 -0.4333  2.9135  0.7979
 1619SOL     OW16492   2.687   1.898   3.991  0.2176 -0.4440 -0.2581
 1619SOL    HW116493   2.741   1.869   4.065 -0.1881 -1.1583 -0.2461
 1619SOL    HW216494   2.730   1.858   3.916 -0.7024 -0.5930 -0.6979
 1620SOL     OW16495   2.540   0.640  15.512 -0.3008  0.1058  0.1674
 1620SOL    HW116496   2.617   0.599  15.472 -0.8442 -2.8334  2.1413
 1620SOL    HW216497   2.585   0.704  15.568 -1.5086 -1.6071  3.0649
 1621SOL     OW16498   3.857   3.417  15.407 -0.1002  0.0120  0.4631
 1621SOL    HW116499   3.767   3.443  15.392  0.0959  0.8320  0.7029
 1621SOL    HW216500   3.883   3.497  15.452 -0.0398  1.3091 -1.8987
 1622SOL     OW16501   0.956   0.387   1.736  0.0223  0.3119 -0.5892
 1622SOL    HW116502   1.029   0.411   1.793 -1.2407 -0.3199  1.2875
 1622SOL    HW216503   0.891   0.356   1.799  1.3839  0.0614  0.6918
 1623SOL     OW16504   2.648   4.485   7.344 -0.0126 -0.5093  0.6005
 1623SOL    HW116505   2.721   4.447   7.296  1.5851  4.1766 -0.6867
 1623SOL    HW216506   2.646   4.420   7.414  0.7745 -0.6258  0.5135
 1624SOL     OW16507   2.127   3.360   2.081  0.3530 -0.0544 -0.1547
 1624SOL    HW116508   2.129   3.270   2.111  1.4927  0.5669  1.5753
 1624SOL    HW216509   2.033   3.381   2.081  0.1494 -0.9850  1.0515
 1625SOL     OW16510   1.385   0.695   1.494 -0.4666 -0.0665 -0.0310
 1625SOL    HW116511   1.376   0.669   1.586  1.4948  2.0573  0.7824
 1625SOL    HW216512   1.479   0.684   1.477 -0.5085 -0.0459 -0.2793
 1626SOL     OW16513   1.182   4.296   6.380 -0.3263  0.0465 -0.0331
 1626SOL    HW116514   1.188   4.234   6.452 -2.5236 -0.0602  0.0697
 1626SOL    HW216515   1.089   4.286   6.362  0.0113  0.2668 -1.9210
 1627SOL     OW16516   2.841   0.426   5.742 -0.5040  0.0046 -0.4276
 1627SOL    HW116517   2.834   0.519   5.765 -1.1501 -0.6762  2.1965
 1627SOL    HW216518   2.814   0.388   5.826 -2.1826 -0.1392 -1.0457
 1628SOL     OW16519   4.126   2.919   2.309 -0.7053 -0.0707  0.0689
 1628SOL    HW116520   4.139   2.870   2.390  1.1740  0.2136 -0.0519
 1628SOL    HW216521   4.031   2.917   2.301 -0.5609 -0.3792 -1.7112
 1629SOL     OW16522   3.197   1.448  14.694  0.5042  0.1083 -0.7837
 1629SOL    HW116523   3.223   1.457  14.602 -0.7320  2.3061 -0.9204
 1629SOL    HW216524   3.102   1.451  14.686  0.3453  2.1659  1.8948
 1630SOL     OW16525   1.778   1.811  17.094  0.3318  0.2381  0.0027
 1630SOL    HW116526   1.725   1.887  17.118  0.6604  0.9689 -1.6108
 1630SOL    HW216527   1.867   1.846  17.100 -0.3578  1.8939  0.5628
 1631SOL     OW16528   2.934   4.143  12.435 -0.4382 -0.4077 -0.2093
 1631SOL    HW116529   2.955   4.094  12.515  0.6467  3.2291  1.7236
 1631SOL    HW216530   3.013   4.140  12.381 -1.8744 -0.3970 -2.2998
 1632SOL     OW16531   0.023   2.734   1.261 -0.2835 -0.9389  0.1955
 1632SOL    HW116532   0.030   2.662   1.323 -0.4434 -0.4011  0.8305
 1632SOL    HW216533   0.080   2.802   1.297 -1.1419 -0.2185  0.1797
 1633SOL     OW16534   3.206   3.518   2.644 -0.3887 -0.0163 -0.4137
 1633SOL    HW116535   3.178   3.481   2.560  0.4869 -0.8100 -0.3561
 1633SOL    HW216536   3.116   3.543   2.665  0.2939  0.1191  2.2899
 1634SOL     OW16537   3.271   1.397   8.659  0.1714  0.1712 -0.5482
 1634SOL    HW116538   3.276   1.320   8.602 -1.1397 -0.7999  0.6612
 1634SOL    HW216539   3.349   1.391   8.714  0.4375  2.7012 -0.6312
 1635SOL     OW16540   3.954   1.107   2.793 -0.0044  0.3100 -0.4482
 1635SOL    HW116541   3.937   1.189   2.839  1.3109  0.2766  0.0891
 1635SOL    HW216542   4.050   1.113   2.791 -0.0887  1.7586  0.2341
 1636SOL     OW16543   0.068   1.566   2.239 -0.3652  0.8924 -0.1403
 1636SOL    HW116544   0.005   1.625   2.198 -1.7456 -1.5277 -1.5195
 1636SOL    HW216545   0.149   1.598   2.200  0.4584  0.8975  1.5468
 1637SOL     OW16546   0.325   0.459   1.952 -0.1214 -0.2126  0.2275
 1637SOL    HW116547   0.292   0.528   2.009  1.0032  2.0679 -1.8448
 1637SOL    HW216548   0.420   0.469   1.961  0.0141 -1.9814  0.7053
 1638SOL     OW16549   1.179   3.341   6.744  0.2181  0.1339  1.1209
 1638SOL    HW116550   1.150   3.257   6.711  0.4127  0.4435  0.1600
 1638SOL    HW216551   1.247   3.363   6.680 -2.4178 -0.8122 -2.0085
 1639SOL     OW16552   2.303   4.220   7.874  0.0533 -0.2320 -0.1346
 1639SOL    HW116553   2.360   4.243   7.801 -0.2277  2.0861  0.3487
 1639SOL    HW216554   2.356   4.187   7.946 -1.9009 -0.5975  1.1472
 1640SOL     OW16555   1.248   0.274   2.334 -0.1318 -0.5472 -0.2029
 1640SOL    HW116556   1.263   0.218   2.258 -0.5878 -3.8283  2.1190
 1640SOL    HW216557   1.336   0.308   2.349  0.0290 -0.7125 -0.7574
 1641SOL     OW16558   3.384   0.119  12.977 -0.2739 -0.3109 -0.0861
 1641SOL    HW116559   3.470   0.135  13.016 -0.6798  1.4199  0.1207
 1641SOL    HW216560   3.389   0.029  12.945 -0.8089 -0.2873 -0.2232
 1642SOL     OW16561   2.940   2.114   3.422  0.5789 -0.2738  0.4311
 1642SOL    HW116562   2.934   2.129   3.327 -0.1054 -2.0939  0.1840
 1642SOL    HW216563   3.030   2.131   3.450  1.2174  0.3838 -1.9938
 1643SOL     OW16564   2.365   2.095   1.829  0.0341  0.1658 -0.2263
 1643SOL    HW116565   2.398   2.113   1.741  0.1718 -0.5478 -0.3275
 1643SOL    HW216566   2.393   2.165   1.888  0.2754 -0.9691  1.0215
 1644SOL     OW16567   2.474   1.886  16.271 -0.7071 -0.1007 -0.6690
 1644SOL    HW116568   2.459   1.854  16.360 -2.3575  1.7979 -0.2714
 1644SOL    HW216569   2.542   1.951  16.286  1.4344 -2.2203 -1.1067
 1645SOL     OW16570   4.598   0.114   1.901  0.9263  0.1697  0.5066
 1645SOL    HW116571   4.516   0.162   1.893  0.7683 -0.0825  0.6348
 1645SOL    HW216572   4.659   0.176   1.858 -0.0157  2.3181  2.2566
 1646SOL     OW16573   4.540   1.698  17.744 -0.0308  0.2048 -0.2468
 1646SOL    HW116574   4.465   1.684  17.685  0.2560 -0.3350 -0.4823
 1646SOL    HW216575   4.543   1.794  17.741 -0.1857  0.2544  1.4390
 1647SOL     OW16576   0.035   3.769  11.046  0.3003 -0.2167 -0.0197
 1647SOL    HW116577   0.066   3.729  11.127  0.4771  1.2712  0.6611
 1647SOL    HW216578   0.106   3.833  11.033 -1.4728  1.8435  0.3567
 1648SOL     OW16579   0.368   3.624  10.205  0.2169 -0.1764  0.2752
 1648SOL    HW116580   0.274   3.629  10.220  0.0115 -1.3984 -0.6074
 1648SOL    HW216581   0.394   3.715  10.195  0.3601 -0.3523 -1.0163
 1649SOL     OW16582   2.770   4.604   8.697  0.0963 -0.1442  0.0990
 1649SOL    HW116583   2.701   4.584   8.761  1.4761 -3.1473  0.6699
 1649SOL    HW216584   2.750   4.534   8.635  0.6449  0.2195 -0.4775
 1650SOL     OW16585   4.254   3.046   5.015  0.2266  0.2288  0.2479
 1650SOL    HW116586   4.184   3.050   5.081  0.6524 -0.4228  0.7435
 1650SOL    HW216587   4.261   3.138   4.991  0.7610  0.3477  0.8425
 1651SOL     OW16588   2.154   3.959   5.099 -0.2435 -0.4701 -0.2101
 1651SOL    HW116589   2.137   4.053   5.089  0.0583 -0.3295  0.5839
 1651SOL    HW216590   2.209   3.937   5.024 -0.4712 -0.3770 -0.4046
 1652SOL     OW16591   0.464   3.957   7.130 -0.3250 -0.0863  0.4272
 1652SOL    HW116592   0.421   4.014   7.067 -1.5747  0.7335  2.0198
 1652SOL    HW216593   0.382   3.931   7.171 -1.9483  0.5774 -2.4306
 1653SOL     OW16594   0.237   3.726   2.068  0.1421  0.4073 -0.1118
 1653SOL    HW116595   0.198   3.703   2.152 -1.0174  2.7283 -0.0195
 1653SOL    HW216596   0.323   3.688   2.082  0.0369  0.1622 -0.1296
 1654SOL     OW16597   3.545   2.614   7.069  0.4825 -1.0414  0.2278
 1654SOL    HW116598   3.601   2.616   6.991 -2.1957 -2.9029 -1.7944
 1654SOL    HW216599   3.491   2.536   7.054  2.8218 -2.4123 -1.0698
 1655SOL     OW16600   4.626   0.530   6.121  0.2628  0.8498 -0.1932
 1655SOL    HW116601   4.638   0.500   6.031 -1.2520 -0.3871  0.0240
 1655SOL    HW216602   4.537   0.501   6.139 -0.2491  2.4180 -0.1379
 1656SOL     OW16603   2.919   1.101  12.900 -0.0512 -1.0402 -0.2429
 1656SOL    HW116604   2.858   1.051  12.955 -0.8306 -0.4305 -0.5546
 1656SOL    HW216605   3.002   1.082  12.942  1.9199  0.5765 -3.4372
 1657SOL     OW16606   3.373   1.788   3.956  0.1244  0.9294 -0.5848
 1657SOL    HW116607   3.398   1.710   3.907  2.3838  1.1392  0.2021
 1657SOL    HW216608   3.458   1.824   3.981 -0.0874 -0.5428  2.3368
 1658SOL     OW16609   3.684   2.789   3.042 -0.3858 -0.1844  0.6427
 1658SOL    HW116610   3.674   2.798   2.947  2.1372  0.7620  0.4690
 1658SOL    HW216611   3.777   2.811   3.048 -0.2763 -0.3310 -0.4747
 1659SOL     OW16612   4.104   1.391   8.347  0.7176  0.2551  0.1855
 1659SOL    HW116613   4.023   1.442   8.354  1.7976  1.9102  0.6508
 1659SOL    HW216614   4.118   1.375   8.440 -1.5107  2.2752  0.8620
 1660SOL     OW16615   1.747   3.733   8.303 -1.0606 -0.2348 -0.0663
 1660SOL    HW116616   1.732   3.674   8.376 -0.5283 -0.9609 -0.5412
 1660SOL    HW216617   1.688   3.806   8.320  0.5076  0.8106  0.9127
 1661SOL     OW16618   1.620   2.763   6.323 -0.0967 -0.7169 -0.0354
 1661SOL    HW116619   1.681   2.732   6.256  1.0260  0.2963  0.5346
 1661SOL    HW216620   1.550   2.802   6.271 -2.1757 -1.6913  2.0057
 1662SOL     OW16621   0.008   1.102   6.515  0.0270 -0.3157  0.7880
 1662SOL    HW116622   0.041   1.120   6.603  1.7956 -1.9504  0.4610
 1662SOL    HW216623   4.654   1.128   6.522 -0.0993 -1.2962  2.8951
 1663SOL     OW16624   3.461   1.262   3.767  0.3592  0.3584 -0.8603
 1663SOL    HW116625   3.468   1.214   3.849 -0.4317 -0.5429 -1.3240
 1663SOL    HW216626   3.367   1.261   3.747  0.0357 -0.8893  0.7385
 1664SOL     OW16627   0.866   1.072   8.865 -0.1836  0.9093 -0.5386
 1664SOL    HW116628   0.887   1.026   8.946 -1.7825  0.8592 -0.1503
 1664SOL    HW216629   0.954   1.083   8.829  0.5210  0.5115  1.0567
 1665SOL     OW16630   4.035   3.761  14.233 -0.5031  0.1183  0.0366
 1665SOL    HW116631   4.094   3.765  14.308 -0.6756 -1.1141  0.2369
 1665SOL    HW216632   4.038   3.852  14.203 -0.1367  0.0111 -0.2518
 1666SOL     OW16633   0.657   3.219   4.393  0.0210 -0.0663  0.2417
 1666SOL    HW116634   0.597   3.146   4.377  2.5192 -1.7626 -1.3168
 1666SOL    HW216635   0.700   3.218   4.308 -1.8745 -2.0104 -0.6806
 1667SOL     OW16636   4.555   3.394  11.454 -0.3350 -0.1387 -0.0348
 1667SOL    HW116637   4.603   3.346  11.386 -0.7251  1.8625 -1.7172
 1667SOL    HW216638   4.584   3.485  11.445  0.3136 -0.1082  2.5737
 1668SOL     OW16639   3.951   4.466   6.559 -0.4179  0.0589  0.5547
 1668SOL    HW116640   3.867   4.496   6.594 -0.7667  0.0401 -0.2656
 1668SOL    HW216641   3.916   4.382   6.530  0.8638 -0.8108  1.5417
 1669SOL     OW16642   4.116   4.075   6.131 -0.2259  0.2130  0.5915
 1669SOL    HW116643   4.164   4.099   6.210  1.5585  0.6830 -0.6399
 1669SOL    HW216644   4.074   3.993   6.157 -0.3224  0.0903  0.0442
 1670SOL     OW16645   4.153   1.838   5.841  0.2519  0.1711 -0.0416
 1670SOL    HW116646   4.143   1.859   5.934  1.8063 -0.4507  0.2592
 1670SOL    HW216647   4.103   1.913   5.808  0.7750  0.1663 -0.8190
 1671SOL     OW16648   4.072   2.898  15.128  0.0362  0.7239  0.5909
 1671SOL    HW116649   3.987   2.924  15.094 -1.5519 -2.7037  1.9485
 1671SOL    HW216650   4.097   2.817  15.082  1.3514  1.3352  0.2347
 1672SOL     OW16651   2.819   3.201   7.527 -0.2957  0.1332 -0.1503
 1672SOL    HW116652   2.895   3.234   7.480 -0.0480  0.9681  0.8315
 1672SOL    HW216653   2.755   3.270   7.507 -0.9035 -0.4570 -0.2447
 1673SOL     OW16654   2.419   1.587  10.468  0.1831  0.3758  0.0984
 1673SOL    HW116655   2.468   1.520  10.420 -1.2198 -0.4968 -0.1134
 1673SOL    HW216656   2.339   1.535  10.473  2.5180 -3.0782  2.1469
 1674SOL     OW16657   1.957   4.471   4.272 -0.0392 -0.0226  0.1564
 1674SOL    HW116658   1.927   4.479   4.181  0.7502  1.9754  0.0734
 1674SOL    HW216659   1.900   4.532   4.321 -0.6993  0.5415 -1.3111
 1675SOL     OW16660   0.703   0.681   4.518 -0.3095 -0.0712  0.5775
 1675SOL    HW116661   0.724   0.745   4.451 -1.9288 -3.6141 -3.2687
 1675SOL    HW216662   0.682   0.732   4.597  0.4360  1.8651 -0.4795
 1676SOL     OW16663   1.081   3.093   6.659 -0.0376 -0.0830 -0.3849
 1676SOL    HW116664   1.174   3.085   6.679 -0.2028  3.2067  1.7973
 1676SOL    HW216665   1.062   3.001   6.674 -1.2981 -0.0787 -2.0286
 1677SOL     OW16666   0.937   1.643  12.740  0.1344  0.4472  0.2175
 1677SOL    HW116667   0.975   1.637  12.828  0.0864  0.8666  0.2688
 1677SOL    HW216668   0.970   1.728  12.712 -0.6099  0.5871 -0.2327
 1678SOL     OW16669   2.666   2.939   2.401 -0.4738  0.7230  0.6146
 1678SOL    HW116670   2.594   2.908   2.346  1.6476  1.4624 -2.5980
 1678SOL    HW216671   2.732   2.873   2.380 -1.2221  0.3512 -0.5976
 1679SOL     OW16672   0.375   1.951   4.276 -0.3108 -0.1495 -0.8389
 1679SOL    HW116673   0.353   2.037   4.311 -0.2053 -0.0115 -1.1132
 1679SOL    HW216674   0.447   1.921   4.331  0.3214  3.3007  0.2115
 1680SOL     OW16675   0.143   2.969   3.792 -0.0278 -0.0979  0.3032
 1680SOL    HW116676   0.133   2.892   3.848  1.4662 -0.7408 -0.2971
 1680SOL    HW216677   0.237   2.971   3.775 -0.0667  0.6191  0.1717
 1681SOL     OW16678   4.674   0.629   6.362 -0.5618 -0.0948  0.1579
 1681SOL    HW116679   4.615   0.704   6.354 -1.0188 -0.5530 -0.7012
 1681SOL    HW216680   4.663   0.594   6.274 -0.3178 -0.5857  0.3186
 1682SOL     OW16681   1.139   1.638   5.780  0.3335  0.3336  0.7287
 1682SOL    HW116682   1.085   1.712   5.750  0.0492 -0.3894 -0.5114
 1682SOL    HW216683   1.097   1.607   5.860  0.0697  0.6432  0.7099
 1683SOL     OW16684   4.655   2.298   4.330  0.3063 -0.2996 -0.3523
 1683SOL    HW116685   4.679   2.237   4.261  0.6847 -1.5032  0.8384
 1683SOL    HW216686   4.584   2.248   4.370  2.1844 -0.6853  2.4933
 1684SOL     OW16687   3.778   4.624   8.529  0.3733  0.2208  0.4916
 1684SOL    HW116688   3.765   4.717   8.510  1.2440 -0.6123 -4.1868
 1684SOL    HW216689   3.722   4.594   8.457  0.3282 -0.1678  0.6883
 1685SOL     OW16690   1.501   3.869   2.593  0.2247 -0.4906  0.2997
 1685SOL    HW116691   1.526   3.839   2.680 -0.0421  1.3810  1.0256
 1685SOL    HW216692   1.449   3.792   2.568  0.6816 -0.5532 -0.4300
 1686SOL     OW16693   0.859   4.659   3.804  0.5166  0.1456 -0.9288
 1686SOL    HW116694   0.899   4.599   3.867  2.4110  3.1885  0.7599
 1686SOL    HW216695   0.786   4.686   3.861  2.6228 -2.2048  2.8807
 1687SOL     OW16696   0.891   2.782   5.857 -0.1919 -0.6102  0.0393
 1687SOL    HW116697   0.906   2.859   5.802 -1.0984  0.4850  1.3496
 1687SOL    HW216698   0.962   2.725   5.827  0.7325  1.1587 -1.1769
 1688SOL     OW16699   3.479   3.335   6.350 -0.0073  0.2345 -1.1744
 1688SOL    HW116700   3.504   3.268   6.286 -2.0395 -0.7281 -0.9745
 1688SOL    HW216701   3.443   3.282   6.422 -1.0830  2.5368 -0.0247
 1689SOL     OW16702   4.724   2.827   2.620  0.8652 -0.3910  0.2445
 1689SOL    HW116703   4.690   2.744   2.651  3.7758 -1.7512 -0.1891
 1689SOL    HW216704   4.698   2.810   2.529  1.1022  0.6776 -0.0281
 1690SOL     OW16705   3.333   2.405   7.559  0.3771 -0.2865 -0.1960
 1690SOL    HW116706   3.276   2.477   7.533 -0.5596 -1.6438 -1.8808
 1690SOL    HW216707   3.378   2.390   7.476  4.3273  1.9472  1.5446
 1691SOL     OW16708   4.265   2.486  13.068 -0.0875  0.0782  0.1140
 1691SOL    HW116709   4.212   2.472  13.146 -0.6577 -0.4891 -0.3751
 1691SOL    HW216710   4.238   2.410  13.016  0.0828 -0.3044  0.5889
 1692SOL     OW16711   4.415   4.403  13.133 -0.3656 -0.2022  0.5397
 1692SOL    HW116712   4.400   4.398  13.228 -0.8796  1.0367  0.5389
 1692SOL    HW216713   4.454   4.318  13.115  1.6362  1.0141 -0.8475
 1693SOL     OW16714   0.261   0.863   3.028 -0.5946  0.6419  0.8694
 1693SOL    HW116715   0.346   0.905   3.033  0.6677 -1.7872  0.0069
 1693SOL    HW216716   0.203   0.934   3.001 -0.0868  0.1550 -1.4765
 1694SOL     OW16717   0.124   1.724  15.094 -0.3821  0.1419  0.9138
 1694SOL    HW116718   0.212   1.761  15.099 -0.6356  0.9276 -0.4908
 1694SOL    HW216719   0.076   1.806  15.083 -0.3616  0.3093  2.0277
 1695SOL     OW16720   0.435   1.671   0.827 -0.2304  0.5510  0.1244
 1695SOL    HW116721   0.343   1.672   0.851 -0.2802  0.9981 -0.0636
 1695SOL    HW216722   0.427   1.670   0.731 -2.8452 -1.7548  0.3887
 1696SOL     OW16723   2.584   1.800  17.410 -0.2811  0.3241 -0.3180
 1696SOL    HW116724   2.522   1.767  17.475 -1.3570  1.5533 -0.6973
 1696SOL    HW216725   2.594   1.726  17.351  0.8266 -0.3858  0.7679
 1697SOL     OW16726   3.164   4.279   2.175 -0.5914  0.5745  0.0751
 1697SOL    HW116727   3.099   4.258   2.242  0.1282  0.6159  0.7973
 1697SOL    HW216728   3.123   4.259   2.091  1.5262  3.1589 -1.5869
 1698SOL     OW16729   4.483   4.029   9.439 -0.0621  0.0936 -0.3747
 1698SOL    HW116730   4.396   4.053   9.407 -0.5229 -0.7831  0.2182
 1698SOL    HW216731   4.529   4.087   9.379 -0.7477 -1.2745 -2.2129
 1699SOL     OW16732   1.581   1.940  12.149  0.0118 -0.1093 -0.0708
 1699SOL    HW116733   1.632   1.980  12.219  1.7198 -0.1848 -1.2496
 1699SOL    HW216734   1.578   1.846  12.169  0.2268 -0.0233  0.3680
 1700SOL     OW16735   4.125   1.809   1.111  0.5564  0.3376  0.2780
 1700SOL    HW116736   4.120   1.778   1.020 -0.5598  1.8946 -0.2010
 1700SOL    HW216737   4.111   1.732   1.166  0.7649 -0.4283 -0.7439
 1701SOL     OW16738   2.627   1.369  16.685  0.1388 -0.2984  0.5153
 1701SOL    HW116739   2.592   1.446  16.730 -0.0166 -0.5098  0.7569
 1701SOL    HW216740   2.692   1.336  16.747 -0.8715  0.3852  1.9438
 1702SOL     OW16741   4.311   0.291   9.485  0.6067  0.2697  0.6890
 1702SOL    HW116742   4.215   0.296   9.487  0.4470 -3.1103  0.0182
 1702SOL    HW216743   4.329   0.291   9.579  2.0928 -0.9252  0.4065
 1703SOL     OW16744   3.080   4.658   3.064  0.4301 -0.5987  0.3661
 1703SOL    HW116745   3.140   4.720   3.023  0.5468 -0.6577  0.4499
 1703SOL    HW216746   3.091   4.695   3.151  0.3135 -3.0953  1.4157
 1704SOL     OW16747   1.161   4.369   6.715 -0.0234  0.5934 -0.1064
 1704SOL    HW116748   1.077   4.324   6.723 -1.7746  3.4409 -2.4673
 1704SOL    HW216749   1.225   4.299   6.716 -0.3320  0.2954 -1.2872
 1705SOL     OW16750   1.824   1.060   1.996  0.4813  0.5442  0.4974
 1705SOL    HW116751   1.869   1.138   2.027  1.1882 -0.4527  1.9758
 1705SOL    HW216752   1.742   1.096   1.962 -0.4911 -2.1600 -0.0899
 1706SOL     OW16753   2.608   2.693   5.993 -0.2002 -0.0530 -0.5762
 1706SOL    HW116754   2.666   2.764   6.020 -0.2274 -1.0623  2.1510
 1706SOL    HW216755   2.529   2.743   5.974 -1.0201 -0.9907  0.4197
 1707SOL     OW16756   4.386   1.626   3.689  0.3508  0.3066  1.0753
 1707SOL    HW116757   4.358   1.676   3.766 -0.9408 -0.2748  0.9761
 1707SOL    HW216758   4.474   1.663   3.677  0.9219 -2.1538 -2.4286
 1708SOL     OW16759   0.418   0.386   1.158 -0.0505  0.3190 -0.3441
 1708SOL    HW116760   0.386   0.324   1.223  1.1860 -0.3854 -0.4171
 1708SOL    HW216761   0.364   0.364   1.082  0.8629 -0.6016 -0.7258
 1709SOL     OW16762   1.551   0.494  10.449 -0.5457 -0.0541  0.6561
 1709SOL    HW116763   1.523   0.580  10.481 -0.5131  0.0566  0.3862
 1709SOL    HW216764   1.484   0.443  10.495 -0.3923 -1.3580 -0.5728
 1710SOL     OW16765   0.384   2.860   3.736  0.4141  0.6434  0.0448
 1710SOL    HW116766   0.467   2.885   3.695  0.1850  3.1918  1.1893
 1710SOL    HW216767   0.403   2.766   3.748 -2.5510  0.0813  0.3285
 1711SOL     OW16768   2.419   3.343   7.357  0.1252  0.0161 -0.2158
 1711SOL    HW116769   2.386   3.255   7.379 -0.3875  0.2119 -0.2212
 1711SOL    HW216770   2.361   3.399   7.407  1.0274 -0.9156  1.9014
 1712SOL     OW16771   4.397   0.600  10.589  0.2007 -0.1202  0.1214
 1712SOL    HW116772   4.304   0.622  10.587  0.6964  1.8962 -0.7620
 1712SOL    HW216773   4.428   0.639  10.506  0.3121 -0.2425  0.1055
 1713SOL     OW16774   2.273   1.054   2.657 -0.2388 -0.4354  0.0890
 1713SOL    HW116775   2.326   1.055   2.737  0.4001 -1.7357 -0.3149
 1713SOL    HW216776   2.199   1.112   2.676 -1.6548 -2.4792  0.9384
 1714SOL     OW16777   1.874   2.030  14.588  0.4021 -0.3204  0.2198
 1714SOL    HW116778   1.928   1.972  14.641  0.4236  0.3164  0.9019
 1714SOL    HW216779   1.874   1.992  14.501  1.2818  0.1596  0.0067
 1715SOL     OW16780   0.294   3.619   1.472  0.1922 -0.6096  0.6622
 1715SOL    HW116781   0.305   3.593   1.563 -3.6627 -0.7724  1.1190
 1715SOL    HW216782   0.262   3.709   1.479 -1.1039 -0.9487 -0.8035
 1716SOL     OW16783   1.898   0.563   5.277 -0.0542 -0.0448 -0.1569
 1716SOL    HW116784   1.840   0.618   5.224 -0.3921 -0.6673 -0.4402
 1716SOL    HW216785   1.941   0.507   5.212 -1.6145 -0.3814 -0.8993
 1717SOL     OW16786   1.014   2.814   9.600 -0.2054 -0.1244  0.6941
 1717SOL    HW116787   1.082   2.879   9.621 -1.3490  1.0035  0.8897
 1717SOL    HW216788   0.993   2.836   9.510 -1.0418 -0.1244  0.8926
 1718SOL     OW16789   2.253   1.853   1.916  0.1698 -0.1735 -0.1443
 1718SOL    HW116790   2.230   1.900   1.996 -2.2591  1.1348 -1.6234
 1718SOL    HW216791   2.281   1.928   1.864 -0.9784  0.6328  0.4012
 1719SOL     OW16792   1.120   3.348   6.450  0.1164  0.0923 -0.5550
 1719SOL    HW116793   1.115   3.254   6.467  1.3109  0.1313  0.0588
 1719SOL    HW216794   1.181   3.349   6.376  0.9252  0.9044  0.1161
 1720SOL     OW16795   2.060   2.051   8.353 -0.5950 -0.1968 -0.3452
 1720SOL    HW116796   2.061   2.034   8.447  0.9650  0.1383 -0.3035
 1720SOL    HW216797   1.995   1.983   8.337 -2.6372  1.7881 -0.4839
 1721SOL     OW16798   1.849   1.936   1.609  0.2189  0.2916  0.3318
 1721SOL    HW116799   1.929   1.989   1.608 -1.4981  2.8596  0.8615
 1721SOL    HW216800   1.842   1.902   1.519  0.9995 -0.1189  0.4263
 1722SOL     OW16801   3.402   3.964  17.375  0.5796 -0.2195  0.0112
 1722SOL    HW116802   3.333   4.030  17.380  0.9587  0.3648 -2.7433
 1722SOL    HW216803   3.382   3.930  17.288 -0.9207  0.9877 -0.1153
 1723SOL     OW16804   0.442   3.712  12.181 -0.3146  0.2491  0.0154
 1723SOL    HW116805   0.369   3.766  12.151  0.0147  1.7062  1.8834
 1723SOL    HW216806   0.508   3.779  12.163  0.0223 -0.4104 -1.2677
 1724SOL     OW16807   1.717   3.731   4.483 -0.3319 -0.2126 -0.3731
 1724SOL    HW116808   1.765   3.801   4.438 -0.2748 -0.3714 -0.5547
 1724SOL    HW216809   1.762   3.650   4.461  0.2769 -0.4614  1.8025
 1725SOL     OW16810   0.144   0.780   5.784  0.6510 -0.3378  0.5381
 1725SOL    HW116811   0.051   0.790   5.804  0.9839  1.6123  1.1342
 1725SOL    HW216812   0.156   0.859   5.730  0.7110 -0.8355 -0.1753
 1726SOL     OW16813   3.193   3.536   7.524 -0.0670 -0.3723  0.2540
 1726SOL    HW116814   3.218   3.562   7.612 -1.7131  0.2080  0.5473
 1726SOL    HW216815   3.230   3.607   7.472 -0.3224  0.3226  1.0233
 1727SOL     OW16816   2.033   0.372   4.882 -0.1021  0.4620 -0.3521
 1727SOL    HW116817   2.054   0.464   4.899 -0.1919  0.3624  0.2673
 1727SOL    HW216818   2.022   0.336   4.970 -1.9170 -0.2405 -0.8719
 1728SOL     OW16819   1.497   4.200  10.082 -0.3575  0.0566 -0.2472
 1728SOL    HW116820   1.515   4.288  10.112  1.6424 -0.8470  1.1987
 1728SOL    HW216821   1.419   4.174  10.131 -1.3763  2.1601 -0.7663
 1729SOL     OW16822   3.773   2.849   5.341  0.0491  0.4095  0.8288
 1729SOL    HW116823   3.810   2.927   5.299 -0.4127 -0.0949 -0.5136
 1729SOL    HW216824   3.721   2.891   5.410  0.5657  2.9121 -0.2937
 1730SOL     OW16825   0.601   1.588   7.527  0.2933 -0.3249  0.0522
 1730SOL    HW116826   0.606   1.609   7.620  2.8857  1.1586 -0.4199
 1730SOL    HW216827   0.694   1.591   7.503 -0.0752 -1.3593 -1.5306
 1731SOL     OW16828   2.193   0.587  11.384 -0.7202  0.2515  0.1891
 1731SOL    HW116829   2.162   0.532  11.312 -1.6787 -2.1979  2.4629
 1731SOL    HW216830   2.199   0.672  11.341  1.2300 -0.6648 -1.3127
 1732SOL     OW16831   2.733   3.814  15.458  0.2571  0.7042  0.0840
 1732SOL    HW116832   2.669   3.780  15.521  0.1444  0.7254 -0.0190
 1732SOL    HW216833   2.771   3.885  15.510 -0.1501  0.5780  0.5555
 1733SOL     OW16834   4.057   2.077   0.397  0.0108  0.7578 -0.0641
 1733SOL    HW116835   4.033   2.128   0.475 -0.7072 -1.3173  1.0736
 1733SOL    HW216836   4.122   2.136   0.357  1.1725 -0.1604  0.4615
 1734SOL     OW16837   1.764   3.705   2.359  0.1107  0.0365  0.5999
 1734SOL    HW116838   1.819   3.681   2.284  0.5423  2.2965  0.1810
 1734SOL    HW216839   1.678   3.693   2.319  0.5063  3.7037 -1.3125
 1735SOL     OW16840   3.865   3.368   9.438  0.4799  0.7460  0.4600
 1735SOL    HW116841   3.953   3.403   9.453  1.5812 -1.2791 -1.3662
 1735SOL    HW216842   3.817   3.446   9.408  0.9220  1.3218  1.2450
 1736SOL     OW16843   2.258   2.774  11.378  0.1275  0.1926  0.6715
 1736SOL    HW116844   2.307   2.828  11.315  0.5063 -1.4157 -0.3948
 1736SOL    HW216845   2.200   2.729  11.317 -1.1661 -1.7102  3.3402
 1737SOL     OW16846   4.560   4.230  17.677 -0.0086  0.0618 -0.0201
 1737SOL    HW116847   4.495   4.170  17.640  0.3557  0.7996 -1.8092
 1737SOL    HW216848   4.630   4.179  17.718  0.3223 -0.2042 -0.9334
 1738SOL     OW16849   2.822   2.113   8.967  0.3387  0.2903  0.0896
 1738SOL    HW116850   2.782   2.097   9.053  1.9489 -2.1413  0.3815
 1738SOL    HW216851   2.841   2.030   8.925 -1.2386  1.6577 -3.3118
 1739SOL     OW16852   4.506   1.581   4.547  0.4296  0.1039 -0.4097
 1739SOL    HW116853   4.463   1.636   4.612  0.0648 -0.8530  0.1677
 1739SOL    HW216854   4.597   1.600   4.569 -0.4036 -0.3089  3.3594
 1740SOL     OW16855   4.383   3.211  14.997  0.2541  0.4018  0.1656
 1740SOL    HW116856   4.345   3.134  15.040  0.4094 -0.4607 -1.2532
 1740SOL    HW216857   4.389   3.273  15.070  0.7621  0.4720  0.0664
 1741SOL     OW16858   3.224   4.429   5.628 -0.0212 -0.2525  0.0975
 1741SOL    HW116859   3.205   4.519   5.602 -1.9153 -0.9751 -0.9850
 1741SOL    HW216860   3.252   4.377   5.553  0.3767  1.0995 -0.6838
 1742SOL     OW16861   4.680   2.402   2.681  0.1777 -0.1532  0.6428
 1742SOL    HW116862   4.610   2.371   2.623  0.2245  2.0385 -0.5817
 1742SOL    HW216863   4.718   2.318   2.707  0.4182 -1.1066 -2.6965
 1743SOL     OW16864   3.342   4.519   6.314  0.3017 -0.2680  0.1062
 1743SOL    HW116865   3.286   4.597   6.322 -1.5633 -1.7620  1.4846
 1743SOL    HW216866   3.413   4.562   6.265 -0.3768  0.5837 -0.1507
 1744SOL     OW16867   4.389   3.747  15.104 -0.3631 -0.3164  0.1656
 1744SOL    HW116868   4.397   3.683  15.175  0.2373  0.3594  0.6976
 1744SOL    HW216869   4.459   3.706  15.052 -2.1646 -3.1770 -0.0156
 1745SOL     OW16870   0.332   1.078   6.620 -0.0094  0.0127 -0.1905
 1745SOL    HW116871   0.305   1.056   6.709  2.3250 -0.4298  0.4180
 1745SOL    HW216872   0.405   1.019   6.603  0.3424  0.1185  0.9633
 1746SOL     OW16873   2.117   3.374  17.625  0.6735  0.1747 -0.1401
 1746SOL    HW116874   2.204   3.376  17.665 -0.6207  0.7722  2.6522
 1746SOL    HW216875   2.114   3.284  17.592  1.6072 -0.0216  0.2958
 1747SOL     OW16876   1.492   2.200  10.135 -0.0108  0.5159 -0.0930
 1747SOL    HW116877   1.533   2.204  10.049  0.0430 -1.0181 -0.1368
 1747SOL    HW216878   1.521   2.285  10.167  0.2085  0.3963  0.0246
 1748SOL     OW16879   3.214   4.490   5.998  0.2933  0.0620 -0.0670
 1748SOL    HW116880   3.245   4.569   6.043 -3.9395  0.9832  1.3171
 1748SOL    HW216881   3.165   4.532   5.927 -1.6174 -2.9908 -0.5389
 1749SOL     OW16882   2.754   0.672  14.857 -0.5918  0.3859 -0.1470
 1749SOL    HW116883   2.744   0.604  14.790  2.2571 -0.4303  0.2543
 1749SOL    HW216884   2.800   0.746  14.818 -0.2772  0.9118  1.2040
 1750SOL     OW16885   0.211   2.516   1.628 -0.1209 -0.4129 -0.2486
 1750SOL    HW116886   0.179   2.481   1.544 -1.0104 -2.4079  0.9199
 1750SOL    HW216887   0.280   2.455   1.653  1.3404  1.5820  0.5122
 1751SOL     OW16888   3.348   3.363   0.285  0.5706 -0.5214 -0.6181
 1751SOL    HW116889   3.407   3.320   0.224  2.3463  0.3860  0.4705
 1751SOL    HW216890   3.360   3.456   0.267 -0.5802 -0.3432 -0.4559
 1752SOL     OW16891   2.092   0.524   2.617 -0.4252 -0.6087 -0.0964
 1752SOL    HW116892   2.156   0.594   2.602 -0.5169 -0.8309 -1.5312
 1752SOL    HW216893   2.146   0.447   2.634  0.2652 -0.7332 -2.8153
 1753SOL     OW16894   0.739   1.253  10.236  0.4072 -0.4145 -0.1633
 1753SOL    HW116895   0.695   1.205  10.306  1.3194  0.9942  1.3504
 1753SOL    HW216896   0.665   1.258  10.174  1.6570 -0.2808 -1.6359
 1754SOL     OW16897   3.323   1.511  13.874 -0.6485  0.0405  0.7139
 1754SOL    HW116898   3.262   1.442  13.850  0.9892 -1.2950  0.3547
 1754SOL    HW216899   3.338   1.561  13.794 -0.8679 -1.2602 -0.1520
 1755SOL     OW16900   0.629   2.613  13.263  0.4847  0.0841  0.1273
 1755SOL    HW116901   0.725   2.615  13.262  0.4806 -0.0843 -0.7380
 1755SOL    HW216902   0.619   2.553  13.189 -0.4130  0.8960 -0.4067
 1756SOL     OW16903   2.281   3.605  15.053  0.1561  0.0267 -0.5491
 1756SOL    HW116904   2.278   3.693  15.092 -0.7487 -0.1144 -0.2978
 1756SOL    HW216905   2.230   3.631  14.976 -1.0200 -0.7808 -0.0444
 1757SOL     OW16906   3.027   4.498   7.865  0.2183 -0.0109  0.9904
 1757SOL    HW116907   2.983   4.570   7.911 -0.1407 -0.9696  2.1212
 1757SOL    HW216908   3.117   4.526   7.884  0.5840  0.3262 -1.2478
 1758SOL     OW16909   1.672   2.097   9.023 -0.5587 -0.1457 -0.1510
 1758SOL    HW116910   1.666   2.001   9.024  1.6922 -0.3047 -1.7261
 1758SOL    HW216911   1.707   2.120   8.937  1.9660  1.0228  1.1780
 1759SOL     OW16912   1.858   3.601   2.573 -0.0498  0.1472  0.0994
 1759SOL    HW116913   1.812   3.630   2.495  0.4660  2.3862  0.6304
 1759SOL    HW216914   1.950   3.603   2.547  0.6494 -1.1542  2.4212
 1760SOL     OW16915   3.256   1.223  10.889 -0.3531  0.5862 -0.6830
 1760SOL    HW116916   3.275   1.171  10.968 -1.3159  0.6974 -0.3785
 1760SOL    HW216917   3.336   1.276  10.884 -0.3203  0.5979 -0.0273
 1761SOL     OW16918   0.449   3.792   6.053  0.3318  0.3921  0.2169
 1761SOL    HW116919   0.515   3.765   6.118 -1.4945  2.3002  2.8613
 1761SOL    HW216920   0.503   3.808   5.975 -1.2761 -2.4303 -1.4770
 1762SOL     OW16921   1.962   3.131   2.550  0.2384 -0.0013  0.1149
 1762SOL    HW116922   2.049   3.151   2.515  1.0367 -1.4366  1.2904
 1762SOL    HW216923   1.990   3.082   2.627 -0.9544  0.7836  1.0446
 1763SOL     OW16924   3.265   1.620  15.409  0.5499 -0.1634 -0.5198
 1763SOL    HW116925   3.351   1.661  15.423  0.4506 -0.0012 -0.3849
 1763SOL    HW216926   3.241   1.593  15.498  1.1163 -1.9753 -0.9113
 1764SOL     OW16927   0.986   1.336   6.873 -0.3998 -0.3041 -0.0574
 1764SOL    HW116928   0.909   1.290   6.905  0.0320 -2.2080 -1.7693
 1764SOL    HW216929   1.041   1.266   6.839  0.3477  0.3163 -0.1505
 1765SOL     OW16930   4.489   3.221   8.430 -0.1495 -0.2985 -0.6512
 1765SOL    HW116931   4.578   3.221   8.464 -1.3930  1.0274  2.6359
 1765SOL    HW216932   4.440   3.185   8.505  3.5108  0.7909  2.2763
 1766SOL     OW16933   3.801   4.274   5.404 -0.7619  0.2247 -0.3234
 1766SOL    HW116934   3.706   4.286   5.410 -0.8139  0.2322 -1.1342
 1766SOL    HW216935   3.819   4.309   5.316  1.1330 -0.6566 -0.2825
 1767SOL     OW16936   4.188   4.312   8.011  0.5021  0.4077 -0.1106
 1767SOL    HW116937   4.104   4.280   8.044  2.1909 -0.4641  3.4008
 1767SOL    HW216938   4.244   4.235   8.021  0.2458  0.2519  0.1000
 1768SOL     OW16939   0.083   0.360   8.220 -0.2239  0.2456  0.0653
 1768SOL    HW116940   4.728   0.338   8.210 -0.1612 -0.5340  1.1941
 1768SOL    HW216941   0.089   0.429   8.155  0.5284 -0.5734 -0.7366
 1769SOL     OW16942   0.442   1.222  10.342  0.1376  0.0862 -0.3684
 1769SOL    HW116943   0.402   1.306  10.364  3.0550  1.2745  0.3828
 1769SOL    HW216944   0.460   1.236  10.248 -0.4968 -1.4112 -0.7112
 1770SOL     OW16945   1.472   2.404   1.714 -0.5039 -0.2670  0.3268
 1770SOL    HW116946   1.473   2.325   1.769  1.9209 -0.2289  0.3164
 1770SOL    HW216947   1.394   2.397   1.659 -0.1203  1.6661 -0.4687
 1771SOL     OW16948   1.602   2.118  10.896  0.0680  0.1853  0.6605
 1771SOL    HW116949   1.681   2.066  10.913 -0.2877 -0.7449 -0.5181
 1771SOL    HW216950   1.622   2.201  10.939  0.2219  1.7223 -2.3552
 1772SOL     OW16951   1.308   3.748   2.219 -0.0379 -0.6330  0.4271
 1772SOL    HW116952   1.265   3.826   2.185 -1.2200 -1.0764  0.8842
 1772SOL    HW216953   1.238   3.684   2.205 -0.1094 -0.9309  2.1180
 1773SOL     OW16954   1.308   1.154   3.686  0.0046  0.1568 -0.2695
 1773SOL    HW116955   1.293   1.149   3.781  0.0612  1.0408 -0.2106
 1773SOL    HW216956   1.392   1.109   3.679  0.5158  0.8975  1.0475
 1774SOL     OW16957   2.283   1.443   6.310 -0.1918  0.4116 -0.2101
 1774SOL    HW116958   2.269   1.498   6.387 -1.8010 -2.7600  1.7522
 1774SOL    HW216959   2.272   1.505   6.238  2.5711  2.7314  1.3734
 1775SOL     OW16960   4.118   1.467   9.038  0.2445  0.3589  0.0385
 1775SOL    HW116961   4.057   1.430   8.973 -0.4976 -0.6895  1.3310
 1775SOL    HW216962   4.074   1.540   9.081 -1.8631 -1.2350  0.6089
 1776SOL     OW16963   0.178   1.194  17.223  0.0471 -0.2762 -0.8944
 1776SOL    HW116964   0.188   1.257  17.294 -1.0632 -0.3172 -0.7047
 1776SOL    HW216965   0.167   1.253  17.148 -0.0632  1.1417  0.2266
 1777SOL     OW16966   0.190   0.221   8.632 -0.1644 -0.2455 -0.5290
 1777SOL    HW116967   0.190   0.152   8.565  3.8319  0.0390 -0.8645
 1777SOL    HW216968   0.131   0.190   8.700 -1.3699  0.2056 -1.3786
 1778SOL     OW16969   2.346   3.365   3.525 -0.0077  0.4181 -0.0879
 1778SOL    HW116970   2.268   3.407   3.490  0.8432  0.8189 -1.5015
 1778SOL    HW216971   2.324   3.337   3.614  0.6952 -1.4370 -0.4867
 1779SOL     OW16972   4.256   3.298   7.983 -0.3953  0.3736 -0.1450
 1779SOL    HW116973   4.253   3.204   7.965  2.0641  0.4151 -0.6906
 1779SOL    HW216974   4.327   3.303   8.047  0.0367  2.9581 -0.8177
 1780SOL     OW16975   2.056   0.711   3.539 -0.6186  0.6266 -0.1529
 1780SOL    HW116976   2.149   0.715   3.561 -0.9979 -0.1028  1.5676
 1780SOL    HW216977   2.046   0.622   3.504 -0.8662 -0.7214  3.3472
 1781SOL     OW16978   2.334   3.091  12.926 -0.7160  0.0085 -0.4407
 1781SOL    HW116979   2.253   3.052  12.894 -0.1060 -1.1465 -0.6076
 1781SOL    HW216980   2.338   3.163  12.864  0.2394 -0.9414 -1.4774
 1782SOL     OW16981   3.160   4.178   1.383 -0.0998 -0.0974  0.2729
 1782SOL    HW116982   3.251   4.163   1.355  0.3389 -1.1099  2.1872
 1782SOL    HW216983   3.114   4.213   1.307 -0.9182  1.2860  1.4070
 1783SOL     OW16984   4.145   1.421   4.285 -0.5080 -0.1072 -0.5003
 1783SOL    HW116985   4.110   1.433   4.373 -0.9327  1.2963 -0.8664
 1783SOL    HW216986   4.130   1.330   4.261  1.2206 -0.8161  1.0370
 1784SOL     OW16987   1.489   2.032  11.615 -0.4311 -0.2362 -0.0451
 1784SOL    HW116988   1.429   1.997  11.681 -1.5027 -0.2024 -1.0018
 1784SOL    HW216989   1.497   2.122  11.646  1.1525  0.0375 -1.3255
 1785SOL     OW16990   1.225   1.721   5.391  0.1208 -0.0950  0.6424
 1785SOL    HW116991   1.189   1.637   5.420  1.6972 -1.0541 -0.1664
 1785SOL    HW216992   1.204   1.706   5.299 -0.7689 -0.2214  0.8698
 1786SOL     OW16993   4.479   4.665  15.983  0.6096 -0.1862  0.4544
 1786SOL    HW116994   4.546   4.644  15.918 -0.7349 -2.7189 -0.1066
 1786SOL    HW216995   4.469   0.022  15.967 -3.6893 -0.1071  3.4850
 1787SOL     OW16996   4.106   0.017   7.928 -0.4672 -0.3969  0.3226
 1787SOL    HW116997   4.106   4.675   7.875  0.6934 -0.1753 -0.0202
 1787SOL    HW216998   4.012   0.021   7.945 -1.2072 -1.7694 -3.3780
 1788SOL     OW16999   1.483   2.213   5.284  0.3179  0.3263  0.0677
 1788SOL    HW117000   1.393   2.185   5.301 -0.2136  0.6814 -2.2073
 1788SOL    HW217001   1.519   2.142   5.231 -0.0512  0.3119 -0.1579
 1789SOL     OW17002   4.555   3.457   4.171 -0.0164 -0.2011 -0.6266
 1789SOL    HW117003   4.603   3.388   4.217 -1.1958 -1.3808 -1.1441
 1789SOL    HW217004   4.492   3.492   4.234  0.5750  1.0180 -0.7299
 1790SOL     OW17005   1.099   0.302   5.265 -0.1993  0.0106 -0.2986
 1790SOL    HW117006   1.091   0.346   5.350  2.9404  1.0640 -0.5611
 1790SOL    HW217007   1.151   0.363   5.213 -0.3804  0.0424 -0.4422
 1791SOL     OW17008   4.597   0.306  12.547 -0.1135  0.4985 -0.2373
 1791SOL    HW117009   4.507   0.340  12.547  0.1697  1.2414 -0.5951
 1791SOL    HW217010   4.612   0.316  12.453  1.3666  0.5647  0.0143
 1792SOL     OW17011   4.337   2.734   7.544 -0.3243 -0.0931  0.4300
 1792SOL    HW117012   4.349   2.829   7.548 -0.7006 -0.0321  0.1658
 1792SOL    HW217013   4.243   2.743   7.561 -0.2460 -0.1107  0.8685
 1793SOL     OW17014   3.277   4.511  13.968 -0.2809 -0.6351 -0.4267
 1793SOL    HW117015   3.336   4.485  13.897  0.2729  1.5829 -0.7547
 1793SOL    HW217016   3.228   4.585  13.934 -2.1248 -1.7192 -0.1039
 1794SOL     OW17017   3.421   2.273  11.338 -0.3234 -0.1760  0.3230
 1794SOL    HW117018   3.403   2.306  11.249  0.1607 -3.7100 -1.0727
 1794SOL    HW217019   3.389   2.183  11.334 -0.1392 -0.2816  1.2529
 1795SOL     OW17020   1.740   3.582   5.164  0.2540 -0.5532 -0.6915
 1795SOL    HW117021   1.682   3.634   5.221 -0.2224 -1.4039 -0.3879
 1795SOL    HW217022   1.797   3.654   5.139  1.8719 -2.3291 -2.0674
 1796SOL     OW17023   0.448   2.297   2.946 -0.1596  0.5926 -0.0086
 1796SOL    HW117024   0.493   2.216   2.969 -1.8147 -0.3481 -0.0498
 1796SOL    HW217025   0.514   2.365   2.961  1.9460 -1.1581 -1.4279
 1797SOL     OW17026   0.035   0.503  10.382  0.4750  0.1452 -0.2376
 1797SOL    HW117027   0.057   0.580  10.435  1.8963 -1.1890  1.0845
 1797SOL    HW217028   0.091   0.439  10.425  0.9041  1.3095  0.9332
 1798SOL     OW17029   1.432   4.426   2.488 -0.2932  0.2619  0.0567
 1798SOL    HW117030   1.356   4.482   2.475 -0.2518 -0.2191 -2.3296
 1798SOL    HW217031   1.393   4.340   2.468 -1.1253  0.5845  0.2672
 1799SOL     OW17032   0.839   0.958  11.194  0.5448 -0.0420 -0.0947
 1799SOL    HW117033   0.896   1.028  11.225 -0.4591  0.4411  0.6613
 1799SOL    HW217034   0.906   0.890  11.195  0.8895  0.2858 -2.1371
 1800SOL     OW17035   3.166   4.131   1.667  0.1302  0.4007 -0.4627
 1800SOL    HW117036   3.153   4.162   1.578 -0.8410  2.4859  0.3904
 1800SOL    HW217037   3.254   4.095   1.659 -0.1080 -0.4659  0.6800
 1801SOL     OW17038   4.536   3.796  13.977 -0.5780  0.4736 -0.2446
 1801SOL    HW117039   4.632   3.800  13.977 -0.6601  2.5013 -1.3346
 1801SOL    HW217040   4.525   3.702  13.963  0.6020  0.3177 -0.1641
 1802SOL     OW17041   2.302   3.724   7.629 -0.1794  0.2704 -0.4726
 1802SOL    HW117042   2.374   3.758   7.681  2.3547 -0.5383 -3.4244
 1802SOL    HW217043   2.247   3.802   7.633 -1.3386 -0.5123 -0.9727
 1803SOL     OW17044   3.838   0.280   8.303  0.6773 -0.6011 -0.2645
 1803SOL    HW117045   3.831   0.191   8.337 -0.6521 -0.4755 -0.2274
 1803SOL    HW217046   3.766   0.328   8.343  1.6967 -0.4729  1.4007
 1804SOL     OW17047   0.511   0.351   2.541 -0.1537  0.5719 -0.2571
 1804SOL    HW117048   0.547   0.437   2.517 -1.1457  0.4275 -2.2559
 1804SOL    HW217049   0.428   0.369   2.496  0.1600 -2.5024 -2.0313
 1805SOL     OW17050   2.000   0.858   2.853  0.7271  0.4044 -0.5281
 1805SOL    HW117051   1.925   0.911   2.826  1.0032  1.7950  1.4416
 1805SOL    HW217052   2.013   0.879   2.946  1.9760 -1.9048 -0.1877
 1806SOL     OW17053   1.335   2.435   6.098 -0.3631  0.1867  0.1991
 1806SOL    HW117054   1.248   2.405   6.071 -0.4554  0.5365  0.1143
 1806SOL    HW217055   1.325   2.502   6.165  0.3984 -0.3225  0.8235
 1807SOL     OW17056   2.339   3.091   7.568 -0.0543  0.5494 -0.1266
 1807SOL    HW117057   2.264   3.149   7.580  0.2825  1.4784 -2.4556
 1807SOL    HW217058   2.305   3.003   7.578  1.1162  0.0443 -0.6134
 1808SOL     OW17059   3.746   1.555   7.982  0.4064  0.7684 -0.3028
 1808SOL    HW117060   3.675   1.619   7.991  0.1017  0.6120 -1.5665
 1808SOL    HW217061   3.824   1.609   7.989  0.7189  0.1701  0.7034
 1809SOL     OW17062   1.717   4.597   1.582  0.2803  0.0066  0.3895
 1809SOL    HW117063   1.636   4.585   1.532  0.0646  1.6675  0.3639
 1809SOL    HW217064   1.689   4.661   1.647 -1.7809 -0.7355  0.2583
 1810SOL     OW17065   0.171   1.793   2.955  0.8353 -0.6241 -0.0588
 1810SOL    HW117066   0.109   1.787   3.028 -1.4548  0.4482 -1.9240
 1810SOL    HW217067   0.231   1.861   2.986 -0.5285  0.4505  0.2862
 1811SOL     OW17068   0.867   3.493   4.732  0.2076 -0.5139 -0.1028
 1811SOL    HW117069   0.955   3.463   4.708  0.7218 -0.5571  1.8368
 1811SOL    HW217070   0.815   3.472   4.655 -1.4276  1.3806  0.4875
 1812SOL     OW17071   4.314   2.588   1.326  0.5611  0.1285 -0.9144
 1812SOL    HW117072   4.336   2.630   1.243  1.5169 -0.1933 -0.8267
 1812SOL    HW217073   4.219   2.597   1.328  0.4335 -1.3185 -0.6311
 1813SOL     OW17074   3.818   0.863   9.586  0.5566  0.4496 -0.7616
 1813SOL    HW117075   3.845   0.774   9.563  1.0986  0.7873 -1.4248
 1813SOL    HW217076   3.869   0.922   9.531  1.0476  1.6952  1.0187
 1814SOL     OW17077   1.214   3.121   1.872  0.2980  0.0298  0.3719
 1814SOL    HW117078   1.126   3.099   1.901  0.5351  0.6200  1.5063
 1814SOL    HW217079   1.188   3.188   1.809  0.6750 -0.0674  0.1122
 1815SOL     OW17080   1.634   2.670   2.343  0.2632  0.1513 -0.3409
 1815SOL    HW117081   1.694   2.675   2.269  1.1960 -0.5039  0.3772
 1815SOL    HW217082   1.697   2.641   2.409 -0.6497  0.3674  0.6236
 1816SOL     OW17083   3.843   4.406   5.744  0.0334 -0.4558  0.0205
 1816SOL    HW117084   3.890   4.326   5.722  0.6591  0.6682 -2.7587
 1816SOL    HW217085   3.832   4.435   5.653 -1.8052  0.1214  0.4077
 1817SOL     OW17086   4.137   2.925  13.487 -0.2084 -0.0726  0.0129
 1817SOL    HW117087   4.095   2.973  13.558  0.0000 -1.1381  0.8611
 1817SOL    HW217088   4.230   2.947  13.492  0.1468 -1.8315  1.0145
 1818SOL     OW17089   4.106   2.060  13.246  0.0623 -0.2180  0.0930
 1818SOL    HW117090   4.078   1.998  13.178  0.5193 -0.3273  0.0006
 1818SOL    HW217091   4.068   2.141  13.212  1.8807  0.7016  0.2595
 1819SOL     OW17092   0.128   4.394   7.798  0.5265  0.3289 -0.5171
 1819SOL    HW117093   0.187   4.370   7.870  0.0970  0.2383 -0.1929
 1819SOL    HW217094   0.128   4.309   7.755  0.9486 -0.6579  1.4530
 1820SOL     OW17095   3.385   2.343   2.994 -0.3064 -0.1372 -0.8282
 1820SOL    HW117096   3.457   2.312   2.938  0.1236 -2.0217  0.7573
 1820SOL    HW217097   3.356   2.420   2.944 -0.5412  0.8023  0.7645
 1821SOL     OW17098   3.426   4.730   5.897 -0.1146 -0.6525 -0.2851
 1821SOL    HW117099   3.347   0.047   5.887  0.3754 -0.0696 -1.0353
 1821SOL    HW217100   3.492   0.061   5.890  0.9064 -1.1875  4.2885
 1822SOL     OW17101   2.467   1.990   7.564 -0.0938  0.2930  0.7950
 1822SOL    HW117102   2.466   1.952   7.652  0.4391  1.2494  1.2115
 1822SOL    HW217103   2.543   2.046   7.574  1.1935 -1.4718  0.8309
 1823SOL     OW17104   0.167   4.515   8.849  0.2768 -0.6369 -0.4144
 1823SOL    HW117105   0.234   4.497   8.915 -0.8014  0.0030  0.8560
 1823SOL    HW217106   0.175   4.439   8.791  1.6503 -0.4388 -0.4883
 1824SOL     OW17107   0.838   4.416   8.151 -0.0088 -0.0066 -0.2698
 1824SOL    HW117108   0.865   4.354   8.083  0.0239  1.5564 -1.6695
 1824SOL    HW217109   0.892   4.494   8.140 -1.2823  0.6735 -1.6445
 1825SOL     OW17110   3.406   1.928   1.230  0.3422 -0.5569  0.6071
 1825SOL    HW117111   3.472   1.906   1.164 -0.0394  0.2665 -0.0479
 1825SOL    HW217112   3.459   1.939   1.309  0.0564 -1.3569  0.9121
 1826SOL     OW17113   4.398   0.736   9.179  0.6082 -0.2234  0.0809
 1826SOL    HW117114   4.457   0.741   9.104 -1.2221 -0.2251 -1.3338
 1826SOL    HW217115   4.358   0.823   9.182  1.0628 -0.0177  0.3356
 1827SOL     OW17116   1.337   4.150   8.621  0.1446  0.2851  0.1040
 1827SOL    HW117117   1.429   4.138   8.596  0.2338  0.1310  0.5048
 1827SOL    HW217118   1.304   4.199   8.546  0.7406  1.1811  0.4381
 1828SOL     OW17119   0.549   4.023   7.998 -0.2231  0.0619 -0.1586
 1828SOL    HW117120   0.595   4.077   8.062  0.5657  1.8779 -2.2509
 1828SOL    HW217121   0.625   3.971   7.975 -0.0596  0.2995 -0.1575
 1829SOL     OW17122   1.780   4.563   7.205  0.7233  0.7325 -0.1340
 1829SOL    HW117123   1.738   4.641   7.169 -0.9311  0.8026  1.9766
 1829SOL    HW217124   1.702   4.520   7.240  2.2817 -2.8017 -0.9790
 1830SOL     OW17125   2.480   2.029  16.826  0.2916  0.2231  0.7607
 1830SOL    HW117126   2.519   1.944  16.843  0.1134  0.2502  1.2934
 1830SOL    HW217127   2.497   2.077  16.908 -2.6991  1.2041  0.8065
 1831SOL     OW17128   0.825   0.363   1.993 -0.1043  0.0447 -0.2607
 1831SOL    HW117129   0.891   0.305   2.031 -0.3895 -1.9804 -2.8606
 1831SOL    HW217130   0.848   0.451   2.023  1.1266  0.5495 -2.6672
 1832SOL     OW17131   2.103   3.101   9.074  0.3096  0.0170 -0.9095
 1832SOL    HW117132   2.082   3.157   9.148  0.1732 -1.6572  0.3075
 1832SOL    HW217133   2.158   3.159   9.021  1.1019  1.8660  1.9829
 1833SOL     OW17134   2.831   2.705   2.436 -0.3095 -0.1732 -0.2303
 1833SOL    HW117135   2.750   2.663   2.463 -0.2966  0.7885  1.3239
 1833SOL    HW217136   2.879   2.718   2.518 -0.1229 -0.5507 -0.2785
 1834SOL     OW17137   3.618   3.111   8.844  0.0382  0.3264  0.3253
 1834SOL    HW117138   3.669   3.094   8.764 -0.4306  1.6425 -0.2695
 1834SOL    HW217139   3.533   3.089   8.804  0.5257 -1.2914  0.2186
 1835SOL     OW17140   1.795   4.398  16.883  0.2048 -0.3592 -0.1294
 1835SOL    HW117141   1.767   4.310  16.857 -1.3555 -0.2067  0.9959
 1835SOL    HW217142   1.877   4.377  16.927  0.8621  0.5154 -0.9362
 1836SOL     OW17143   1.113   2.935  14.661 -0.0333 -0.0162 -0.0744
 1836SOL    HW117144   1.092   2.977  14.578  0.5136  0.8466  0.2209
 1836SOL    HW217145   1.206   2.954  14.670 -0.3375  1.0886  0.7547
 1837SOL     OW17146   1.923   2.202   6.491  0.2489  0.2367 -0.1544
 1837SOL    HW117147   1.994   2.264   6.475  0.6785 -0.3496 -0.5307
 1837SOL    HW217148   1.845   2.257   6.497 -0.1682 -0.6076  2.2668
 1838SOL     OW17149   0.384   2.127   8.097  0.1552 -0.2498 -0.0930
 1838SOL    HW117150   0.358   2.037   8.076 -2.1267  0.1751  0.8852
 1838SOL    HW217151   0.424   2.151   8.014 -0.7853 -0.9369 -0.7447
 1839SOL     OW17152   1.514   0.411   3.457  0.2164  0.4189  0.9467
 1839SOL    HW117153   1.451   0.482   3.462 -0.2664  0.1552 -1.2248
 1839SOL    HW217154   1.468   0.346   3.510 -0.2124 -1.4977 -1.7269
 1840SOL     OW17155   3.524   1.170   1.422  0.2905 -0.1122 -0.0885
 1840SOL    HW117156   3.531   1.086   1.466 -0.9154 -0.7389 -1.1028
 1840SOL    HW217157   3.612   1.206   1.434  0.3751 -0.3568  0.0286
 1841SOL     OW17158   3.437   2.655   5.175  0.0935  0.2420 -0.4059
 1841SOL    HW117159   3.386   2.706   5.111  1.9935  1.6796 -0.7648
 1841SOL    HW217160   3.373   2.653   5.246 -1.8131  0.1218 -2.0961
 1842SOL     OW17161   1.135   0.494   6.925 -0.3531  0.0233 -0.1362
 1842SOL    HW117162   1.208   0.435   6.907  0.6721  1.2521  0.0295
 1842SOL    HW217163   1.172   0.579   6.950 -2.2094  0.8207 -0.0381
 1843SOL     OW17164   4.485   0.703   3.419 -0.1391  0.4100 -0.0599
 1843SOL    HW117165   4.565   0.708   3.366  0.6096 -0.6032  0.9832
 1843SOL    HW217166   4.476   0.609   3.402  0.3795  0.1076  1.3882
 1844SOL     OW17167   4.512   4.081   7.741 -0.1921  0.2296 -0.2021
 1844SOL    HW117168   4.530   4.100   7.649  0.2028  5.3658  0.9178
 1844SOL    HW217169   4.436   4.135   7.760  0.3418  1.3341 -1.2588
 1845SOL     OW17170   4.371   3.613   1.980 -0.8353  0.5262 -0.2870
 1845SOL    HW117171   4.326   3.598   2.063  2.4239 -0.6061  1.2702
 1845SOL    HW217172   4.459   3.644   2.002 -0.4687 -1.2044  0.6627
 1846SOL     OW17173   2.923   2.696   2.676 -0.3969 -0.0269  0.1973
 1846SOL    HW117174   2.900   2.718   2.767 -1.0591 -0.3464  0.1065
 1846SOL    HW217175   2.887   2.607   2.670  0.0213 -0.0784 -1.3536
 1847SOL     OW17176   3.994   0.893   2.446  0.8799 -0.3246  0.0647
 1847SOL    HW117177   3.988   0.988   2.439 -0.3847 -0.3999  0.1884
 1847SOL    HW217178   3.987   0.880   2.541 -2.0348 -0.9741 -0.2500
 1848SOL     OW17179   1.166   4.707   6.308 -0.0780  0.5646 -0.0523
 1848SOL    HW117180   1.137   0.059   6.327 -1.3436 -0.2643  1.9539
 1848SOL    HW217181   1.088   4.652   6.300  1.2581 -1.1692 -1.1238
 1849SOL     OW17182   4.041   0.136  14.829  0.0298  0.0055 -0.2135
 1849SOL    HW117183   4.039   0.073  14.901 -0.1525 -0.3839 -0.5531
 1849SOL    HW217184   3.958   0.179  14.848  0.4320 -0.2814  2.1045
 1850SOL     OW17185   4.424   0.637   7.745 -0.0637 -0.4075  0.8002
 1850SOL    HW117186   4.359   0.692   7.788  1.4546  0.9862  1.2845
 1850SOL    HW217187   4.424   0.681   7.660  1.6606  1.1425  1.6141
 1851SOL     OW17188   0.500   2.747   6.342  0.0809 -0.1081  0.6650
 1851SOL    HW117189   0.524   2.829   6.385  0.6568 -0.5854  1.2610
 1851SOL    HW217190   0.512   2.677   6.406 -0.4602 -0.9652 -0.1787
 1852SOL     OW17191   4.273   3.440  11.418  0.3617 -0.0263  0.1049
 1852SOL    HW117192   4.356   3.393  11.424  1.0945  1.0863 -1.2759
 1852SOL    HW217193   4.285   3.473  11.329 -1.4026 -1.7288 -0.7665
 1853SOL     OW17194   2.921   4.190   2.326  0.2301  0.2094 -0.0052
 1853SOL    HW117195   2.951   4.200   2.417 -0.1574  1.5990 -0.0272
 1853SOL    HW217196   2.833   4.228   2.337  0.1711  0.2968 -0.7724
 1854SOL     OW17197   3.470   4.418   4.304 -0.2392  0.8794  0.7606
 1854SOL    HW117198   3.523   4.352   4.348  0.7728  0.6002 -0.8868
 1854SOL    HW217199   3.483   4.384   4.216  0.2758  0.9209  0.8247
 1855SOL     OW17200   1.565   1.018   3.708  0.1160 -0.0883  0.3162
 1855SOL    HW117201   1.624   1.038   3.635 -0.5499  0.3455 -0.0994
 1855SOL    HW217202   1.551   0.924   3.697  1.8886 -0.0478 -2.4072
 1856SOL     OW17203   4.487   2.102   6.291  0.4059 -0.1850  0.5699
 1856SOL    HW117204   4.466   2.011   6.271  0.6441  0.0995 -0.9589
 1856SOL    HW217205   4.404   2.150   6.282  0.2763 -0.7871 -1.4591
 1857SOL     OW17206   1.664   0.637   0.391 -0.3251 -0.0495  0.2709
 1857SOL    HW117207   1.742   0.601   0.348 -1.0668 -1.2341 -0.0803
 1857SOL    HW217208   1.662   0.575   0.463 -1.3421  0.4290  0.6639
 1858SOL     OW17209   1.995   4.567   5.094 -0.1249 -0.3371 -1.0624
 1858SOL    HW117210   2.085   4.546   5.070 -0.6926 -1.4431 -2.2516
 1858SOL    HW217211   2.006   4.647   5.144 -1.9891 -2.6949  3.1241
 1859SOL     OW17212   0.107   0.675   2.562 -0.3338  0.0236 -0.0074
 1859SOL    HW117213   0.063   0.605   2.610 -0.5999  2.2838  3.1134
 1859SOL    HW217214   0.094   0.744   2.628 -0.7684 -0.7944  0.7669
 1860SOL     OW17215   4.552   4.687   3.120 -0.6686  0.4552 -0.4286
 1860SOL    HW117216   4.498   4.619   3.081  0.7157 -0.9665  0.1440
 1860SOL    HW217217   4.590   4.632   3.189 -0.8169  1.8410  0.7555
 1861SOL     OW17218   0.828   0.945   6.669  0.5908  0.2192 -0.2234
 1861SOL    HW117219   0.879   1.004   6.614  2.3756  1.3847  2.6779
 1861SOL    HW217220   0.845   0.988   6.753  1.4376 -0.2643 -0.1625
 1862SOL     OW17221   1.544   2.803  13.664 -0.3997 -0.5894 -0.5879
 1862SOL    HW117222   1.457   2.770  13.687 -0.8817  1.2477  0.2504
 1862SOL    HW217223   1.525   2.802  13.571 -0.0678  0.1491 -0.6637
 1863SOL     OW17224   0.114   3.656   9.361 -0.1463  0.2311 -0.9291
 1863SOL    HW117225   0.027   3.658   9.322  0.1429 -4.3357 -1.8013
 1863SOL    HW217226   0.134   3.563   9.364  2.9101  0.8396 -2.7845
 1864SOL     OW17227   2.969   4.396   7.609 -0.4224  0.0019 -0.0971
 1864SOL    HW117228   2.977   4.487   7.581  0.1216 -0.3350 -1.0276
 1864SOL    HW217229   3.011   4.416   7.693  0.8363 -1.7782 -0.3019
 1865SOL     OW17230   2.716   1.713  12.391  0.5982 -0.1856 -0.0478
 1865SOL    HW117231   2.657   1.702  12.465  1.8765  1.1355  1.1842
 1865SOL    HW217232   2.798   1.703  12.440  1.3193  0.0602 -1.2214
 1866SOL     OW17233   2.359   4.085   5.915  0.7092 -0.5621 -0.3808
 1866SOL    HW117234   2.376   4.020   5.847  0.3925  0.1938 -1.1679
 1866SOL    HW217235   2.325   4.156   5.861  0.9016 -2.4336 -2.9887
 1867SOL     OW17236   2.962   1.374   6.730 -0.5889  0.0103 -0.0159
 1867SOL    HW117237   2.878   1.372   6.685 -1.6034 -1.8597  1.9417
 1867SOL    HW217238   3.016   1.321   6.671 -1.0911  1.5923 -1.8984
 1868SOL     OW17239   1.190   3.592   8.182 -0.4573 -0.0590 -0.0680
 1868SOL    HW117240   1.248   3.656   8.223  1.7121 -0.3643 -2.6935
 1868SOL    HW217241   1.160   3.551   8.263  1.0604  1.4370  1.2509
 1869SOL     OW17242   0.022   0.203   0.972 -0.1594 -0.1984 -0.0660
 1869SOL    HW117243   0.033   0.171   1.062 -0.3029 -0.3182 -0.0901
 1869SOL    HW217244   4.679   0.253   0.977 -0.6366 -0.9335 -0.4048
 1870SOL     OW17245   4.068   3.868  11.122 -0.6093  0.1275 -0.3491
 1870SOL    HW117246   4.058   3.797  11.059  0.0909  0.2858 -0.6429
 1870SOL    HW217247   4.156   3.850  11.156 -0.8109 -1.5307 -0.6898
 1871SOL     OW17248   2.088   3.610   8.631 -0.4970  0.1866 -0.3675
 1871SOL    HW117249   2.014   3.620   8.572 -0.5284 -2.7595 -0.8262
 1871SOL    HW217250   2.054   3.541   8.689 -0.4858  0.6165  0.1471
 1872SOL     OW17251   3.322   1.211   8.464 -0.6364  0.2981 -0.2767
 1872SOL    HW117252   3.269   1.216   8.385  0.4785 -0.2229 -1.0628
 1872SOL    HW217253   3.409   1.222   8.426 -0.8255 -0.9705 -1.0576
 1873SOL     OW17254   1.559   1.977  17.124  0.5118 -0.0619  0.3360
 1873SOL    HW117255   1.529   2.054  17.076 -0.8817 -0.9819 -0.2634
 1873SOL    HW217256   1.493   1.908  17.125 -0.5216  0.9070 -1.0383
 1874SOL     OW17257   2.161   0.547   6.657  0.3758  0.0364 -0.0854
 1874SOL    HW117258   2.084   0.492   6.669  0.7972 -0.2653  1.3191
 1874SOL    HW217259   2.226   0.479   6.636 -0.6873 -1.3996  1.2464
 1875SOL     OW17260   4.473   1.670   9.171 -0.3243  0.1216 -0.4360
 1875SOL    HW117261   4.467   1.585   9.128 -2.0157  0.0018  0.0250
 1875SOL    HW217262   4.410   1.657   9.241  0.6460  1.6171  0.7102
 1876SOL     OW17263   2.308   4.420   6.134  0.3106  0.4125 -0.3184
 1876SOL    HW117264   2.378   4.476   6.099 -0.7725  1.5333 -0.6895
 1876SOL    HW217265   2.323   4.431   6.228  0.8832 -1.5832 -0.1728
 1877SOL     OW17266   0.615   0.641  15.012  0.1569  0.0361  0.0641
 1877SOL    HW117267   0.592   0.584  15.085  2.2306 -0.7900  0.0647
 1877SOL    HW217268   0.574   0.726  15.031  0.7635  0.5792 -1.0836
 1878SOL     OW17269   4.311   3.465   7.786  0.2486  0.3186 -0.2387
 1878SOL    HW117270   4.294   3.401   7.856  0.6602 -0.5940 -0.9757
 1878SOL    HW217271   4.262   3.538   7.825  1.8301  1.1857  0.1491
 1879SOL     OW17272   3.770   4.090   2.772  0.1853  0.8231 -0.3156
 1879SOL    HW117273   3.779   3.996   2.781 -0.7384  0.8542  0.8829
 1879SOL    HW217274   3.858   4.115   2.801  0.5178  0.3721 -0.9399
 1880SOL     OW17275   2.318   2.507   4.545 -0.1596  0.0453 -0.7169
 1880SOL    HW117276   2.378   2.439   4.574  0.5414  1.2093  0.5119
 1880SOL    HW217277   2.231   2.472   4.566 -1.0966  3.1387  0.4444
 1881SOL     OW17278   2.567   3.003   5.472 -0.6452 -0.2388  0.3833
 1881SOL    HW117279   2.493   3.045   5.428 -0.6632 -1.4070 -0.6953
 1881SOL    HW217280   2.533   2.919   5.500  0.1295  0.2174  2.7186
 1882SOL     OW17281   2.859   1.668   2.534 -0.0407 -0.1008  0.5696
 1882SOL    HW117282   2.827   1.730   2.467 -0.5714  0.5269  1.4069
 1882SOL    HW217283   2.778   1.659   2.584 -0.5630 -1.2229 -0.4729
 1883SOL     OW17284   2.234   3.162  12.371  0.0513  0.1150  0.1046
 1883SOL    HW117285   2.229   3.139  12.278 -0.2849 -0.8888  0.3677
 1883SOL    HW217286   2.304   3.225  12.356 -1.6540  2.1895  0.8990
 1884SOL     OW17287   1.548   0.782   5.968  0.5139 -0.0413 -0.0206
 1884SOL    HW117288   1.516   0.709   5.916  1.3643 -1.9165  2.0681
 1884SOL    HW217289   1.620   0.806   5.910  1.2258 -0.7402  0.5679
 1885SOL     OW17290   0.961   4.152  10.197 -0.2865 -0.1019  0.1566
 1885SOL    HW117291   0.883   4.208  10.194  0.0599  0.3286 -0.8774
 1885SOL    HW217292   0.922   4.065  10.203 -2.3815  0.7048 -1.9091
 1886SOL     OW17293   1.834   1.747   8.877  0.2581  0.2289 -0.7347
 1886SOL    HW117294   1.893   1.801   8.930  1.4542 -1.7641 -0.0617
 1886SOL    HW217295   1.749   1.778   8.911  1.1072  1.7359  0.0061
 1887SOL     OW17296   0.731   2.307   6.933  0.7532  0.1462 -0.3601
 1887SOL    HW117297   0.816   2.336   6.901  0.8468 -2.0861 -2.1785
 1887SOL    HW217298   0.713   2.359   7.011 -0.7086 -0.7412 -0.1099
 1888SOL     OW17299   2.237   1.825   5.147 -0.1378  0.4570 -0.2621
 1888SOL    HW117300   2.143   1.838   5.154  0.0485  1.7246 -0.0592
 1888SOL    HW217301   2.260   1.738   5.178 -0.7151  0.7337  0.9336
 1889SOL     OW17302   1.071   1.979   6.519 -0.0503  0.5594 -0.5537
 1889SOL    HW117303   1.119   2.051   6.478 -0.6856  2.4230  2.0481
 1889SOL    HW217304   1.127   1.905   6.495  1.6140  0.8294  2.6169
 1890SOL     OW17305   4.698   3.366   6.621 -0.5424  0.1970 -0.3284
 1890SOL    HW117306   0.000   3.418   6.552  0.3284  0.6406  0.5139
 1890SOL    HW217307   0.013   3.287   6.607  1.1034  0.7717  2.8075
 1891SOL     OW17308   0.399   0.061   4.752  1.0197 -0.0415  0.0763
 1891SOL    HW117309   0.492   0.042   4.768  1.0411  0.5322  0.6279
 1891SOL    HW217310   0.395   0.052   4.657  0.4708  2.8096 -0.1667
 1892SOL     OW17311   4.342   2.165   3.111  0.1537 -0.8988  0.2583
 1892SOL    HW117312   4.304   2.080   3.133 -1.6480 -0.4423 -1.0648
 1892SOL    HW217313   4.429   2.138   3.141  0.8709  0.2221 -0.8125
 1893SOL     OW17314   1.327   0.594   3.469 -0.1407 -0.3123 -0.5137
 1893SOL    HW117315   1.302   0.569   3.558 -0.6346 -1.1230 -0.8823
 1893SOL    HW217316   1.263   0.658   3.438  0.3032  0.8139  0.8611
 1894SOL     OW17317   2.132   4.072   9.675  0.4856  0.1648  0.0778
 1894SOL    HW117318   2.197   4.013   9.637 -0.6205 -1.1830  0.2801
 1894SOL    HW217319   2.086   4.009   9.731  0.2450  1.0115  0.8286
 1895SOL     OW17320   0.347   1.120  15.444 -0.1273 -0.1171  0.1695
 1895SOL    HW117321   0.316   1.040  15.401 -0.5838  0.8703 -1.3393
 1895SOL    HW217322   0.279   1.175  15.405  2.1949  0.1590 -3.5114
 1896SOL     OW17323   2.052   2.575   9.758  0.8364 -0.1293 -0.0923
 1896SOL    HW117324   1.975   2.545   9.709  1.1195  0.0963 -0.6798
 1896SOL    HW217325   2.016   2.627   9.830  2.5802 -1.0887  1.4665
 1897SOL     OW17326   3.337   1.241   2.242  0.1008 -0.2358 -0.3230
 1897SOL    HW117327   3.386   1.170   2.201  0.3237  0.0193 -0.4972
 1897SOL    HW217328   3.344   1.313   2.180 -0.3671  1.3667  1.4660
 1898SOL     OW17329   2.778   3.741   0.199 -0.1480 -0.2687 -0.5188
 1898SOL    HW117330   2.701   3.770   0.150 -0.7965 -0.8874  0.1444
 1898SOL    HW217331   2.847   3.798   0.164  0.1103  0.6309  1.4356
 1899SOL     OW17332   1.251   1.758   6.431 -0.6660  0.2467  0.0309
 1899SOL    HW117333   1.250   1.683   6.372  0.4860 -0.3048  0.7176
 1899SOL    HW217334   1.338   1.786   6.403  0.5988 -0.6144  3.2264
 1900SOL     OW17335   1.488   0.408  16.091  0.1019 -0.6567  0.1741
 1900SOL    HW117336   1.461   0.363  16.171  0.4166  0.8499  1.1237
 1900SOL    HW217337   1.499   0.500  16.114  1.3180 -0.6604 -0.3907
 1901SOL     OW17338   4.244   0.655   6.137  0.3483  0.3488  0.0251
 1901SOL    HW117339   4.288   0.734   6.169  0.3401  0.6954 -0.8168
 1901SOL    HW217340   4.206   0.677   6.052  0.9997  1.2840 -0.0174
 1902SOL     OW17341   1.796   2.971   7.153  0.0064  0.3557 -0.1673
 1902SOL    HW117342   1.885   3.004   7.150 -0.1370  0.8990  1.7213
 1902SOL    HW217343   1.780   2.991   7.245  0.4585 -2.1536  0.4759
 1903SOL     OW17344   3.895   0.036   6.851 -0.1123  0.2041  1.0416
 1903SOL    HW117345   3.844   4.704   6.809  0.7713  1.0027 -1.3137
 1903SOL    HW217346   3.955   4.728   6.910 -0.2366 -0.0461  0.9779
 1904SOL     OW17347   0.782   3.957   6.338 -0.1553  0.2284  0.1127
 1904SOL    HW117348   0.763   3.961   6.431 -2.3609  3.1470 -0.4649
 1904SOL    HW217349   0.853   3.893   6.343 -0.8165 -0.7555 -2.9977
 1905SOL     OW17350   2.518   4.092   3.807 -0.0492  0.6425 -0.3136
 1905SOL    HW117351   2.448   4.156   3.805 -2.7074 -2.2396  0.4992
 1905SOL    HW217352   2.535   4.088   3.901  0.9268 -0.7661 -0.5380
 1906SOL     OW17353   4.454   2.496  12.508  0.3604 -0.0931 -0.4321
 1906SOL    HW117354   4.506   2.469  12.432 -0.4241 -1.0853 -0.6198
 1906SOL    HW217355   4.529   2.538  12.551  0.0656  0.5970 -0.5936
 1907SOL     OW17356   2.970   3.098   3.741  0.3548  0.7457 -0.3619
 1907SOL    HW117357   2.950   3.172   3.683  0.4796 -0.6845 -2.2188
 1907SOL    HW217358   3.057   3.127   3.769 -0.3487  0.4635  2.0898
 1908SOL     OW17359   1.617   1.112   6.626 -0.0101  0.2293 -0.0310
 1908SOL    HW117360   1.708   1.138   6.610  0.3777 -1.2629 -0.2045
 1908SOL    HW217361   1.575   1.198   6.637 -0.0168  0.0499  1.2742
 1909SOL     OW17362   2.045   1.205   7.013 -0.0278  0.4772  0.4066
 1909SOL    HW117363   1.985   1.154   6.958 -0.4985  1.0186  0.4168
 1909SOL    HW217364   2.050   1.281   6.956 -1.4725 -0.0719 -0.4519
 1910SOL     OW17365   2.527   4.377   3.476 -0.0903  0.2135  0.0518
 1910SOL    HW117366   2.439   4.342   3.458 -0.0632  1.8329 -3.2375
 1910SOL    HW217367   2.544   4.424   3.394  1.5779  3.3197  2.1710
 1911SOL     OW17368   0.675   4.104   7.218 -0.0074 -0.7044  0.2293
 1911SOL    HW117369   0.604   4.040   7.204  1.3597 -2.2864  0.5349
 1911SOL    HW217370   0.610   4.171   7.238 -0.0672 -0.3770 -1.0782
 1912SOL     OW17371   1.797   3.454   4.132  0.1394 -0.3839 -0.1402
 1912SOL    HW117372   1.820   3.527   4.189  0.0703 -0.4140 -0.0739
 1912SOL    HW217373   1.786   3.496   4.047  0.4827  0.6638  0.3304
 1913SOL     OW17374   3.255   3.144   8.415  0.0660  0.4536  0.6721
 1913SOL    HW117375   3.267   3.232   8.450 -0.5583  0.2119  1.4779
 1913SOL    HW217376   3.182   3.164   8.357  1.5452 -4.7622 -2.9798
 1914SOL     OW17377   2.446   2.043   6.353 -0.2346 -0.4253  0.0223
 1914SOL    HW117378   2.476   1.965   6.307 -0.8266 -1.3156  1.1497
 1914SOL    HW217379   2.380   1.998   6.406 -1.4950  0.4166 -0.8396
 1915SOL     OW17380   1.710   2.622   6.756 -0.4881 -0.0155  0.0017
 1915SOL    HW117381   1.694   2.669   6.838  1.0031  2.4905 -1.1410
 1915SOL    HW217382   1.762   2.551   6.792  1.6902  0.9819 -1.1581
 1916SOL     OW17383   2.770   0.417   2.082 -0.9186 -0.1477  0.7720
 1916SOL    HW117384   2.811   0.502   2.101  0.8311 -0.7103 -0.5529
 1916SOL    HW217385   2.711   0.443   2.011 -0.7949  0.7842  1.0110
 1917SOL     OW17386   3.738   0.583   1.696  0.2238 -0.1193  0.0029
 1917SOL    HW117387   3.725   0.589   1.601  3.7939  0.1485 -0.4411
 1917SOL    HW217388   3.825   0.544   1.701  0.8461  1.3318  0.3785
 1918SOL     OW17389   4.480   1.803   6.236 -0.2246 -0.0557  0.3285
 1918SOL    HW117390   4.479   1.817   6.142 -1.4705 -1.6803  0.1024
 1918SOL    HW217391   4.403   1.752   6.260  0.0255 -0.1061  1.0204
 1919SOL     OW17392   0.583   0.023  12.865  0.2338 -0.0229 -0.0820
 1919SOL    HW117393   0.628   0.078  12.801 -0.9164 -0.3952 -1.2008
 1919SOL    HW217394   0.624   4.677  12.842 -1.1893 -0.2298 -1.8502
 1920SOL     OW17395   4.414   0.470   3.293  0.2919 -0.5425  0.0107
 1920SOL    HW117396   4.409   0.423   3.210  2.5779 -2.8314  1.1669
 1920SOL    HW217397   4.474   0.415   3.344  0.6114 -1.5754 -1.4908
 1921SOL     OW17398   2.719   3.911   8.966  0.1834  0.3836 -0.3606
 1921SOL    HW117399   2.661   3.980   8.999  0.1899  0.7641 -1.1258
 1921SOL    HW217400   2.669   3.832   8.985  0.6468  0.1206 -0.2382
 1922SOL     OW17401   0.640   2.143   8.539  0.2869  0.6815 -0.4011
 1922SOL    HW117402   0.574   2.212   8.546  1.2975  1.7301 -1.2500
 1922SOL    HW217403   0.614   2.104   8.455  1.3201 -0.9946  0.0578
 1923SOL     OW17404   2.687   0.114   1.356  0.6919 -0.1750  0.0316
 1923SOL    HW117405   2.629   0.117   1.280  0.2983 -0.0646  0.3389
 1923SOL    HW217406   2.763   0.167   1.334  1.0308  0.4727  2.7026
 1924SOL     OW17407   0.378   4.027   6.594  0.0571 -0.2252  0.0037
 1924SOL    HW117408   0.355   4.115   6.624  3.5864  1.4187 -2.1160
 1924SOL    HW217409   0.344   3.970   6.663  1.0273  0.4072  1.0251
 1925SOL     OW17410   4.521   4.005   2.949  0.2767  0.6761 -0.4134
 1925SOL    HW117411   4.555   4.022   2.861 -1.6323 -0.5102 -1.3776
 1925SOL    HW217412   4.489   4.092   2.975  1.2263  0.9452 -0.1531
 1926SOL     OW17413   2.909   3.472   3.979 -0.1660  0.5065  0.3970
 1926SOL    HW117414   2.991   3.503   4.019 -0.7789  0.9733  1.2834
 1926SOL    HW217415   2.910   3.511   3.892 -1.1792  0.2001  0.2583
 1927SOL     OW17416   3.872   2.604   7.480  0.1550  0.1157 -0.1239
 1927SOL    HW117417   3.818   2.660   7.535 -3.0070 -2.0795 -1.0398
 1927SOL    HW217418   3.820   2.524   7.481  0.8712 -0.3368  0.8043
 1928SOL     OW17419   2.237   0.366   3.749  0.6820 -0.2817 -0.1277
 1928SOL    HW117420   2.324   0.327   3.759 -0.2474 -2.2392  0.2512
 1928SOL    HW217421   2.199   0.290   3.703 -0.8925 -0.2466  1.1283
 1929SOL     OW17422   4.277   4.104   4.553  0.0492 -0.4288  0.0577
 1929SOL    HW117423   4.301   4.019   4.516  0.4566  0.1063 -0.9233
 1929SOL    HW217424   4.234   4.138   4.474 -1.1007 -0.0336  0.8548
 1930SOL     OW17425   2.063   0.446   5.481 -0.1814  0.4255 -0.1487
 1930SOL    HW117426   2.002   0.484   5.418 -0.4591  0.8881  0.3970
 1930SOL    HW217427   2.148   0.474   5.446 -0.0788 -0.8494 -0.9362
 1931SOL     OW17428   2.851   4.125   3.398 -0.4653  0.3194  0.4595
 1931SOL    HW117429   2.857   4.219   3.381 -3.0084  0.5207  0.7798
 1931SOL    HW217430   2.792   4.123   3.473 -1.8320 -1.8116 -0.6810
 1932SOL     OW17431   0.916   4.329   7.199  0.3458 -0.3321 -0.4183
 1932SOL    HW117432   0.901   4.287   7.284 -0.0025 -1.6154 -1.1098
 1932SOL    HW217433   0.872   4.414   7.205  1.7966  0.4219 -0.5038
 1933SOL     OW17434   2.494   3.192  12.577  0.2489  0.4728 -0.3235
 1933SOL    HW117435   2.413   3.230  12.612  0.5933  1.9036 -1.0749
 1933SOL    HW217436   2.498   3.241  12.495 -3.7927  0.9126 -0.2713
 1934SOL     OW17437   3.518   1.623   8.244 -0.3619  0.4953  0.1520
 1934SOL    HW117438   3.528   1.718   8.247 -3.3966  0.8592 -0.8648
 1934SOL    HW217439   3.523   1.591   8.334  1.4592 -0.8600 -0.4365
 1935SOL     OW17440   1.865   4.010  12.214  0.0581 -0.5295  0.0813
 1935SOL    HW117441   1.926   4.066  12.167 -0.3864 -0.1645 -0.0616
 1935SOL    HW217442   1.813   3.968  12.146  0.5957 -0.5626 -0.3040
 1936SOL     OW17443   1.805   3.725  15.870  0.1102 -0.5424  0.8547
 1936SOL    HW117444   1.851   3.767  15.943 -0.7572 -0.8660  1.5913
 1936SOL    HW217445   1.792   3.803  15.815  0.4018 -2.8527 -2.4734
 1937SOL     OW17446   0.795   2.612   5.232  0.2746  0.3210  0.1684
 1937SOL    HW117447   0.828   2.597   5.320  1.8941 -1.1970 -0.7122
 1937SOL    HW217448   0.710   2.568   5.240  0.6743 -0.1226  1.9405
 1938SOL     OW17449   4.639   1.055   5.773  0.1409 -0.2060 -0.0983
 1938SOL    HW117450   4.677   1.094   5.852  0.7911 -0.0525 -0.4865
 1938SOL    HW217451   4.636   0.963   5.800 -0.5855  0.5058  2.2652
 1939SOL     OW17452   2.324   0.322   6.674 -0.0029 -0.3287  0.1749
 1939SOL    HW117453   2.283   0.259   6.734  0.0004 -0.0175  0.5031
 1939SOL    HW217454   2.416   0.314   6.699  0.3139 -0.6245 -1.1037
 1940SOL     OW17455   4.214   1.267   8.105  0.4900  0.1516  0.3077
 1940SOL    HW117456   4.165   1.291   8.184  0.4216  1.5543 -0.1734
 1940SOL    HW217457   4.278   1.206   8.144  1.7166  1.6613  0.6377
 1941SOL     OW17458   3.396   3.416   3.421 -0.0860  0.1538 -0.3573
 1941SOL    HW117459   3.301   3.407   3.413 -0.0926 -0.8907  0.9134
 1941SOL    HW217460   3.419   3.424   3.328 -1.3906 -1.3961 -0.8191
 1942SOL     OW17461   0.296   3.202   7.917 -0.3534  0.4770 -0.2987
 1942SOL    HW117462   0.273   3.179   7.827  1.6175  1.1628 -0.9792
 1942SOL    HW217463   0.219   3.167   7.962 -0.2582  3.5534  2.2407
 1943SOL     OW17464   0.958   2.407  15.987  0.4949 -0.0242 -0.3534
 1943SOL    HW117465   0.880   2.364  15.953  0.8998  1.3663 -3.0497
 1943SOL    HW217466   0.921   2.476  16.043  0.0521  0.7684 -1.6238
 1944SOL     OW17467   1.852   3.443  15.858  0.5353  0.0770  0.3910
 1944SOL    HW117468   1.829   3.534  15.876  0.1084 -0.2416  1.4806
 1944SOL    HW217469   1.773   3.402  15.822  1.4795 -1.4396  0.0536
 1945SOL     OW17470   0.302   2.954   5.203  0.3369  0.2823 -0.0797
 1945SOL    HW117471   0.215   2.952   5.242 -0.9686  3.4454 -2.8500
 1945SOL    HW217472   0.300   2.864   5.171  1.9057 -0.1782  1.1035
 1946SOL     OW17473   0.101   4.545   6.171  0.0551 -0.0518 -0.4635
 1946SOL    HW117474   0.054   4.584   6.245  3.6376 -0.5902  2.0920
 1946SOL    HW217475   0.032   4.487   6.137  0.3453 -1.1799  0.8575
 1947SOL     OW17476   1.805   2.990   7.417 -0.1611  0.2977 -0.0475
 1947SOL    HW117477   1.879   3.050   7.424  0.4700 -0.5538  0.5809
 1947SOL    HW217478   1.851   2.906   7.422 -1.7354 -0.6754 -1.9623
 1948SOL     OW17479   0.230   0.387   0.961 -0.1546 -0.3592 -0.2686
 1948SOL    HW117480   0.161   0.321   0.958 -0.1357 -0.4346  0.7917
 1948SOL    HW217481   0.281   0.366   0.884  0.5161  3.6575 -0.9152
 1949SOL     OW17482   2.202   3.646  14.799  0.2107 -0.2950 -0.2253
 1949SOL    HW117483   2.184   3.724  14.746 -1.5561 -1.7082 -1.7189
 1949SOL    HW217484   2.174   3.575  14.741  0.8981 -0.1252 -0.7612
 1950SOL     OW17485   3.390   0.844   2.388  0.0458 -0.3643 -0.2259
 1950SOL    HW117486   3.358   0.754   2.381  0.8551 -0.5447 -1.5639
 1950SOL    HW217487   3.479   0.823   2.417 -0.4852 -0.2534  1.5120
 1951SOL     OW17488   4.235   2.294   1.660 -0.0714 -0.2767  0.2465
 1951SOL    HW117489   4.258   2.386   1.648  0.7078 -0.4772  0.2312
 1951SOL    HW217490   4.148   2.297   1.701 -0.0174  0.3910  0.3080
 1952SOL     OW17491   2.124   0.464   1.432 -0.2335 -0.0071  0.3968
 1952SOL    HW117492   2.111   0.375   1.399  0.4609  0.6211 -1.5703
 1952SOL    HW217493   2.115   0.454   1.527  2.6530  1.6734  0.8397
 1953SOL     OW17494   3.681   0.241  12.031  0.1328  0.3607  0.3423
 1953SOL    HW117495   3.673   0.168  12.092  0.3456  0.2775  0.2704
 1953SOL    HW217496   3.735   0.199  11.963  0.8583 -0.2630  1.3042
 1954SOL     OW17497   0.365   1.835   5.727  0.3796  0.4341  0.0331
 1954SOL    HW117498   0.319   1.867   5.805  0.5463  1.1850 -0.1744
 1954SOL    HW217499   0.332   1.745   5.721 -2.5739  1.5627 -0.7581
 1955SOL     OW17500   0.724   3.698   8.353  0.3352 -0.1353 -0.2022
 1955SOL    HW117501   0.638   3.708   8.312  0.7538  1.6503 -0.6669
 1955SOL    HW217502   0.706   3.617   8.400  0.2382 -0.0888 -0.1602
 1956SOL     OW17503   4.202   1.982   6.512 -0.0157  0.1118  0.1764
 1956SOL    HW117504   4.256   2.043   6.561 -1.6543  0.8741  1.0408
 1956SOL    HW217505   4.187   2.042   6.439  3.4947 -0.7684 -1.2607
 1957SOL     OW17506   2.491   3.761   5.271 -0.7079  0.4525  0.3579
 1957SOL    HW117507   2.406   3.727   5.243 -0.3860  0.9749 -1.2861
 1957SOL    HW217508   2.536   3.776   5.188  2.4353  1.2963  2.2251
 1958SOL     OW17509   1.138   4.570   4.131 -0.4322 -0.6610  0.1089
 1958SOL    HW117510   1.084   4.649   4.133 -0.1005 -0.4741  1.6063
 1958SOL    HW217511   1.109   4.529   4.212 -0.2224 -1.5199 -0.2498
 1959SOL     OW17512   3.216   0.845   8.804 -0.8669  0.5770 -0.0367
 1959SOL    HW117513   3.141   0.785   8.800  0.5596 -0.9586 -3.3916
 1959SOL    HW217514   3.221   0.882   8.716  2.3853  0.7004  0.2292
 1960SOL     OW17515   4.317   1.055   8.279 -0.0373  0.3817 -0.3721
 1960SOL    HW117516   4.282   0.973   8.314  1.7393 -0.3375 -0.2770
 1960SOL    HW217517   4.371   1.082   8.353  1.3844  0.9740 -1.6082
 1961SOL     OW17518   2.279   1.240   7.457 -0.1461 -0.4098 -0.5342
 1961SOL    HW117519   2.252   1.201   7.374  0.2696 -2.6541  0.3957
 1961SOL    HW217520   2.253   1.173   7.520  3.1279 -2.0613 -0.9156
 1962SOL     OW17521   1.683   0.218   2.910 -0.3118  0.2535 -0.1253
 1962SOL    HW117522   1.717   0.190   2.995  2.8658  2.2178 -0.7431
 1962SOL    HW217523   1.598   0.246   2.942 -0.1528  1.0336 -0.3954
 1963SOL     OW17524   1.929   4.504   9.903  0.0253 -0.0115  0.3374
 1963SOL    HW117525   1.951   4.595   9.881 -0.9785  0.1916  0.1511
 1963SOL    HW217526   1.892   4.511   9.990 -0.8103 -1.4829  0.0919
 1964SOL     OW17527   4.280   0.482   2.274 -0.1154  0.3940 -0.4535
 1964SOL    HW117528   4.210   0.542   2.249 -1.0117 -0.7626 -0.6842
 1964SOL    HW217529   4.232   0.402   2.292  0.7508  0.2078  1.0379
 1965SOL     OW17530   2.079   3.041  12.842 -0.3937 -0.4720 -0.1785
 1965SOL    HW117531   2.017   3.051  12.771  0.5305 -1.2562 -1.1056
 1965SOL    HW217532   2.033   3.089  12.911 -0.0036  1.0498 -0.9758
 1966SOL     OW17533   1.242   1.239   6.685 -0.4098  0.4333  0.1450
 1966SOL    HW117534   1.241   1.269   6.594  0.6594 -0.7803 -0.2625
 1966SOL    HW217535   1.333   1.260   6.706 -0.3182  0.0032  0.1833
 1967SOL     OW17536   2.872   1.082   3.515  0.5443  0.1187 -0.2027
 1967SOL    HW117537   2.827   1.035   3.444 -0.5994  1.1836 -0.1900
 1967SOL    HW217538   2.819   1.161   3.525 -0.9359 -0.4067 -3.6539
 1968SOL     OW17539   4.179   0.672   6.823 -0.3562 -0.1768 -0.7075
 1968SOL    HW117540   4.121   0.626   6.883  0.9934 -2.1051 -0.8807
 1968SOL    HW217541   4.243   0.603   6.806 -1.8371 -1.9950  1.0996
 1969SOL     OW17542   2.469   0.067   3.255 -0.4517  0.3021  0.2171
 1969SOL    HW117543   2.447   0.160   3.263 -0.8301  0.2536 -0.2419
 1969SOL    HW217544   2.383   0.027   3.241 -0.2541 -0.6913  1.7629
 1970SOL     OW17545   2.274   0.075   4.643 -0.0746 -0.0629  0.9824
 1970SOL    HW117546   2.346   0.087   4.582  0.7898 -0.9389  1.8381
 1970SOL    HW217547   2.304   0.139   4.707 -0.4917  1.9328 -0.8179
 1971SOL     OW17548   2.523   2.242   3.669  0.5154 -0.0869  0.0619
 1971SOL    HW117549   2.579   2.232   3.746 -0.6227  1.0350  1.0611
 1971SOL    HW217550   2.555   2.170   3.616 -1.1158 -1.5332  1.0445
 1972SOL     OW17551   4.352   2.506   5.583 -0.1267 -0.6971 -0.1197
 1972SOL    HW117552   4.429   2.533   5.632 -0.7179 -2.8398  2.0034
 1972SOL    HW217553   4.371   2.554   5.502  1.0187 -1.8518 -0.5285
 1973SOL     OW17554   3.280   0.983  12.400 -0.3573 -0.3135 -0.3819
 1973SOL    HW117555   3.362   1.024  12.427  0.4424 -3.1487  1.5124
 1973SOL    HW217556   3.219   1.024  12.461  0.4632  0.2892  0.0288
 1974SOL     OW17557   3.403   3.062   5.461  0.1328  0.4250 -0.7602
 1974SOL    HW117558   3.416   3.156   5.451  0.7353  0.3409 -0.7231
 1974SOL    HW217559   3.327   3.041   5.406 -1.8192 -1.5964  2.7270
 1975SOL     OW17560   1.286   3.797  14.864 -0.6514 -0.0852  0.3428
 1975SOL    HW117561   1.267   3.859  14.934 -0.2878 -0.1638  0.5091
 1975SOL    HW217562   1.242   3.716  14.892  0.1145 -0.6466 -0.0619
 1976SOL     OW17563   2.363   2.793  15.452 -0.1366 -0.3218 -0.0906
 1976SOL    HW117564   2.321   2.867  15.408  1.2682 -0.1993 -1.2383
 1976SOL    HW217565   2.369   2.723  15.387  2.6581 -0.3580  0.2297
 1977SOL     OW17566   1.857   1.254   8.974  0.6277  0.3621 -0.2484
 1977SOL    HW117567   1.794   1.295   8.915  2.0945  1.0581 -1.3203
 1977SOL    HW217568   1.837   1.160   8.983  2.2890 -0.1023 -1.2967
 1978SOL     OW17569   3.000   0.828   4.708 -0.0616  0.1955 -0.1088
 1978SOL    HW117570   2.985   0.900   4.770  2.3319 -0.2087  0.9636
 1978SOL    HW217571   3.006   0.756   4.771 -0.4247 -0.3819 -0.7326
 1979SOL     OW17572   1.629   4.532  11.824  0.3974 -0.4611  0.4916
 1979SOL    HW117573   1.546   4.492  11.798  0.7889  0.3946 -2.0991
 1979SOL    HW217574   1.649   4.478  11.901  1.3015 -1.5032 -0.4699
 1980SOL     OW17575   2.512   2.333   4.384 -0.1437 -0.3552  0.0436
 1980SOL    HW117576   2.519   2.427   4.364  1.5022 -0.7522 -1.2603
 1980SOL    HW217577   2.495   2.289   4.301 -0.5964 -0.3930  0.1523
 1981SOL     OW17578   1.419   3.439   2.795 -0.2111  0.2196 -0.1901
 1981SOL    HW117579   1.424   3.534   2.798 -0.6447  0.1538  2.6054
 1981SOL    HW217580   1.507   3.422   2.762 -0.2360  0.4013 -0.3489
 1982SOL     OW17581   3.130   4.675   3.775 -0.0616 -0.0588 -0.1953
 1982SOL    HW117582   3.155   4.666   3.683 -0.7913 -2.9843 -0.1177
 1982SOL    HW217583   3.042   4.710   3.773  0.2536  0.8609  1.6144
 1983SOL     OW17584   4.153   3.383   7.555 -0.0617 -0.1133 -0.2834
 1983SOL    HW117585   4.063   3.392   7.586  0.8908 -1.0523  2.7475
 1983SOL    HW217586   4.208   3.430   7.617 -0.8429  0.7356 -0.2332
 1984SOL     OW17587   4.048   4.146   7.343  0.6208  0.6563 -0.1403
 1984SOL    HW117588   4.075   4.086   7.412  0.0542  0.6436  0.0731
 1984SOL    HW217589   3.955   4.122   7.335  0.6225  1.3185 -2.2691
 1985SOL     OW17590   1.908   0.059   6.679 -0.0656 -0.5937  0.0661
 1985SOL    HW117591   1.958   0.095   6.752  1.0884  1.8331 -1.9014
 1985SOL    HW217592   1.858   4.729   6.726  2.6577 -1.7624  1.2729
 1986SOL     OW17593   3.120   3.772  14.718  0.1997  0.3473  0.4688
 1986SOL    HW117594   3.166   3.694  14.749  0.0015  0.0579  0.0316
 1986SOL    HW217595   3.062   3.725  14.658  0.7516  0.8536 -0.4636
 1987SOL     OW17596   0.987   0.446   7.895 -0.4957  0.7854 -0.1820
 1987SOL    HW117597   1.017   0.527   7.937 -0.1902  0.6944 -0.2260
 1987SOL    HW217598   1.039   0.383   7.946  0.3614 -0.2634 -2.3576
 1988SOL     OW17599   3.415   3.089   8.621 -0.1379  0.5100  0.2782
 1988SOL    HW117600   3.347   3.098   8.554 -0.7481 -1.5401  0.6186
 1988SOL    HW217601   3.442   2.998   8.611  2.4881  1.4493 -0.9553
 1989SOL     OW17602   1.362   0.307  11.828  0.1166  0.3289 -0.3393
 1989SOL    HW117603   1.405   0.389  11.802 -1.1803  0.6140 -1.6229
 1989SOL    HW217604   1.424   0.236  11.816 -0.6730 -0.3342 -0.5295
 1990SOL     OW17605   1.657   1.242   9.972  0.7309  0.2444  0.4618
 1990SOL    HW117606   1.566   1.273   9.978  0.8127  0.5077  0.3343
 1990SOL    HW217607   1.679   1.230   9.879 -0.6685 -0.8027  0.2554
 1991SOL     OW17608   1.661   2.308   7.979  0.5463  0.4796  0.2017
 1991SOL    HW117609   1.710   2.342   8.054 -0.7760  1.7701  0.4944
 1991SOL    HW217610   1.571   2.333   8.002 -0.2392 -1.9158 -0.2964
 1992SOL     OW17611   1.582   3.677   7.784  0.0540  0.6241 -0.4249
 1992SOL    HW117612   1.527   3.730   7.727 -0.7714  1.9050  1.5656
 1992SOL    HW217613   1.525   3.673   7.861  2.4571  2.7205  1.4481
 1993SOL     OW17614   2.250   3.173  12.117 -0.0044  0.0503  0.0554
 1993SOL    HW117615   2.276   3.243  12.058 -2.0408 -0.7630 -1.8267
 1993SOL    HW217616   2.163   3.211  12.126 -0.2596 -0.5392  0.0688
 1994SOL     OW17617   2.784   1.248  14.400  0.5451  0.8463  0.0783
 1994SOL    HW117618   2.841   1.287  14.333 -1.3602  1.6625 -1.0624
 1994SOL    HW217619   2.719   1.199  14.349  0.3765  1.4664 -0.3149
 1995SOL     OW17620   0.932   1.460   8.018  0.1272 -0.3297  0.7680
 1995SOL    HW117621   0.879   1.415   8.084 -1.4328  0.6388  0.1588
 1995SOL    HW217622   0.970   1.393   7.960  0.4914  2.2399 -1.9726
 1996SOL     OW17623   0.841   4.536   2.276 -0.9291 -0.4528  0.7733
 1996SOL    HW117624   0.891   4.606   2.234 -2.2115 -0.3989 -0.6466
 1996SOL    HW217625   0.753   4.554   2.244  0.6276 -0.2412 -3.3546
 1997SOL     OW17626   4.371   1.803  11.363  0.4072 -0.0408  0.0375
 1997SOL    HW117627   4.398   1.740  11.296  0.8922 -1.1994  1.3215
 1997SOL    HW217628   4.443   1.802  11.426  1.0695  1.3095 -0.7026
 1998SOL     OW17629   4.131   1.995  12.955  0.4198 -0.1349  0.1254
 1998SOL    HW117630   4.178   1.914  12.974 -1.1284 -0.5355  2.2181
 1998SOL    HW217631   4.073   1.963  12.886 -2.8172  1.7681  2.0038
 1999SOL     OW17632   2.368   2.217  15.150  0.1430 -0.2624 -0.0081
 1999SOL    HW117633   2.459   2.199  15.171  0.0632 -1.9025 -1.1108
 1999SOL    HW217634   2.352   2.142  15.093  1.0522 -0.9151  0.6073
 2000SOL     OW17635   0.075   2.009  14.587 -0.3343  0.5404  0.4786
 2000SOL    HW117636   4.734   2.055  14.618  0.2636  1.9661 -0.0827
 2000SOL    HW217637   0.051   1.995  14.496  1.0901  2.4642 -0.1874
 2001SOL     OW17638   1.445   2.426  17.202 -0.1140  0.0546  0.0563
 2001SOL    HW117639   1.433   2.349  17.147  0.9126  0.4647 -0.7514
 2001SOL    HW217640   1.384   2.393  17.267 -3.3226  1.4948 -2.2585
 2002SOL     OW17641   3.982   1.512   5.307  0.1773 -0.5850 -0.1895
 2002SOL    HW117642   4.004   1.554   5.390 -1.1368  1.6920 -1.0082
 2002SOL    HW217643   3.891   1.540   5.295  0.1981  0.9168  3.3191
 2003SOL     OW17644   2.524   2.964   8.201 -0.3680  0.7128  0.0873
 2003SOL    HW117645   2.563   2.879   8.181  0.5944  1.1780  0.0009
 2003SOL    HW217646   2.551   2.976   8.292 -3.1972 -0.6556  1.1282
 2004SOL     OW17647   0.157   4.126   5.887  0.0777  0.1121  0.3623
 2004SOL    HW117648   0.140   4.040   5.924 -2.7058 -0.2388 -1.6852
 2004SOL    HW217649   0.072   4.169   5.902  1.6102  2.7366  1.4246
 2005SOL     OW17650   0.597   1.648  10.647  0.3021  0.2117 -0.4095
 2005SOL    HW117651   0.589   1.554  10.657  2.8836  0.1561  1.3006
 2005SOL    HW217652   0.616   1.648  10.553 -1.0379  1.7455 -0.6882
 2006SOL     OW17653   4.663   2.300   6.370 -0.5771  0.4005 -0.1496
 2006SOL    HW117654   4.717   2.248   6.430 -0.6374 -0.5202 -0.8965
 2006SOL    HW217655   4.607   2.230   6.338 -0.3844  0.7557 -1.2526
 2007SOL     OW17656   3.016   2.898   6.708  0.1649 -0.1810 -0.3931
 2007SOL    HW117657   2.988   2.810   6.732 -0.5987 -0.2238 -1.4475
 2007SOL    HW217658   2.948   2.951   6.749  2.1274  1.4136  0.8540
 2008SOL     OW17659   3.753   1.547  14.309 -0.2952  0.1961 -0.0002
 2008SOL    HW117660   3.804   1.602  14.369  0.6534 -1.7386  0.9917
 2008SOL    HW217661   3.807   1.467  14.308  1.0010  1.0807 -0.2885
 2009SOL     OW17662   3.945   3.226   7.865 -0.0431  0.0712  0.3212
 2009SOL    HW117663   3.909   3.191   7.947 -0.4411  0.3708  0.2702
 2009SOL    HW217664   3.979   3.151   7.816 -1.3823 -0.3293  0.0182
 2010SOL     OW17665   3.745   3.094   3.719  0.5305 -0.2164  0.5547
 2010SOL    HW117666   3.800   3.101   3.641 -0.7158 -0.3241 -0.3404
 2010SOL    HW217667   3.723   3.001   3.724 -2.2465  0.3324 -1.3413
 2011SOL     OW17668   0.910   3.208   3.243 -0.4071  0.1541 -0.5190
 2011SOL    HW117669   0.843   3.148   3.274  2.5224 -3.4059 -1.0470
 2011SOL    HW217670   0.926   3.164   3.159 -0.7323  0.9771 -1.0087
 2012SOL     OW17671   2.312   3.879   4.281 -0.5814 -0.4806 -0.1011
 2012SOL    HW117672   2.389   3.883   4.225 -2.1854 -1.1602 -2.3612
 2012SOL    HW217673   2.325   3.961   4.329 -1.3875  0.3719 -1.3360
 2013SOL     OW17674   4.428   0.642   8.579  0.2707  0.3904 -0.5138
 2013SOL    HW117675   4.422   0.641   8.483  1.7307  0.4019 -0.6056
 2013SOL    HW217676   4.521   0.643   8.599  0.0739 -0.9147  0.4550
 2014SOL     OW17677   4.464   0.732   2.233  0.3731  0.1731 -0.4063
 2014SOL    HW117678   4.418   0.657   2.272 -1.7485  1.6593 -0.0495
 2014SOL    HW217679   4.408   0.805   2.258 -1.3650 -0.6939 -1.7956
 2015SOL     OW17680   0.021   0.891  15.341 -0.2691  0.1849 -0.1964
 2015SOL    HW117681   4.734   0.924  15.428 -1.4629 -2.5842  0.5340
 2015SOL    HW217682   0.112   0.872  15.362 -0.1575  0.2561 -0.6349
 2016SOL     OW17683   4.387   4.277   5.843 -0.0545 -0.1380  0.5255
 2016SOL    HW117684   4.412   4.187   5.827 -0.4465  0.0096 -0.9101
 2016SOL    HW217685   4.301   4.268   5.884 -0.0077 -1.1103  0.3941
 2017SOL     OW17686   4.242   1.259   6.347  0.2559 -0.1622  0.2133
 2017SOL    HW117687   4.307   1.264   6.417  0.7895 -1.5499 -0.1908
 2017SOL    HW217688   4.190   1.339   6.361  1.6288  0.5097  1.5150
 2018SOL     OW17689   3.611   3.530  15.530  0.5750  0.0617 -0.5619
 2018SOL    HW117690   3.646   3.593  15.593  1.4226  0.5553 -1.5320
 2018SOL    HW217691   3.615   3.447  15.578  2.6539 -0.0274 -0.9287
 2019SOL     OW17692   1.070   2.184  13.882 -0.6221 -0.6106 -0.3649
 2019SOL    HW117693   1.049   2.275  13.901  1.0993  0.2171 -2.4172
 2019SOL    HW217694   1.018   2.151  13.809  1.3285  0.3553 -2.2075
 2020SOL     OW17695   0.820   2.526   0.734  0.0898  0.2028 -0.3837
 2020SOL    HW117696   0.760   2.525   0.809  0.1213 -1.9784 -0.3755
 2020SOL    HW217697   0.766   2.503   0.659 -1.4513  1.1720  0.4216
 2021SOL     OW17698   3.422   2.545   9.664 -0.1713 -0.3779 -0.6804
 2021SOL    HW117699   3.456   2.463   9.629  0.1466 -0.7475  0.4982
 2021SOL    HW217700   3.357   2.572   9.600 -1.3681 -1.7999 -0.0473
 2022SOL     OW17701   1.656   4.558   8.590  0.2659 -0.1409 -0.0657
 2022SOL    HW117702   1.685   4.649   8.595  2.3420 -0.9631  2.8885
 2022SOL    HW217703   1.664   4.529   8.499  1.5139  1.7647 -0.5673
 2023SOL     OW17704   4.163   2.117   5.115 -0.4966 -0.2971  0.1889
 2023SOL    HW117705   4.208   2.172   5.179  0.9949 -0.4958 -0.7120
 2023SOL    HW217706   4.228   2.077   5.058  1.5148  2.2768  0.6655
 2024SOL     OW17707   3.604   2.151  13.355  0.4567  0.2012 -0.1185
 2024SOL    HW117708   3.656   2.171  13.434  0.3280 -1.3746  0.3637
 2024SOL    HW217709   3.632   2.060  13.340 -0.6280 -0.4571  1.8361
 2025SOL     OW17710   3.583   3.389  11.119 -0.7407 -0.1582 -0.0537
 2025SOL    HW117711   3.605   3.431  11.203  0.0086  0.5212 -0.5909
 2025SOL    HW217712   3.609   3.300  11.142 -2.0806 -1.0170 -1.8797
 2026SOL     OW17713   3.403   0.455   4.838 -0.1700 -0.5069  0.3751
 2026SOL    HW117714   3.390   0.428   4.747 -1.0216  2.1899 -0.3046
 2026SOL    HW217715   3.332   0.403   4.875 -0.8331  0.4194  0.3876
 2027SOL     OW17716   2.994   2.136  13.869 -0.1385  0.4412 -0.2229
 2027SOL    HW117717   3.047   2.062  13.897 -1.2250  0.1224  0.9744
 2027SOL    HW217718   2.977   2.119  13.776  0.8359  0.0695 -0.3339
 2028SOL     OW17719   3.565   4.353   9.448  0.1291 -0.4256  0.4837
 2028SOL    HW117720   3.490   4.299   9.425  1.0166  0.4206 -4.3332
 2028SOL    HW217721   3.540   4.405   9.525 -0.6253 -0.3151  0.1646
 2029SOL     OW17722   1.177   0.875   2.786  0.4005  0.4102 -0.0325
 2029SOL    HW117723   1.251   0.895   2.728  0.7273 -0.3649  0.1089
 2029SOL    HW217724   1.097   0.890   2.735  0.9918 -0.5156 -1.2520
 2030SOL     OW17725   0.261   3.904   7.278 -0.3793  0.7666 -0.1555
 2030SOL    HW117726   0.293   3.845   7.347 -2.2386  1.1286  1.0303
 2030SOL    HW217727   0.179   3.945   7.306 -1.4831 -0.5034 -1.5589
 2031SOL     OW17728   0.410   1.736   7.389 -0.0850 -0.4625 -0.2473
 2031SOL    HW117729   0.483   1.790   7.358 -1.6336  0.7652 -1.7521
 2031SOL    HW217730   0.453   1.664   7.434 -0.6846  0.0053  1.0777
 2032SOL     OW17731   0.388   1.477   9.874  0.0257  0.0096 -0.3732
 2032SOL    HW117732   0.453   1.527   9.924 -1.1994 -0.3038  1.5244
 2032SOL    HW217733   0.315   1.484   9.935  0.6816 -1.1018  0.5294
 2033SOL     OW17734   1.812   3.999   5.730 -0.0360  0.4064 -0.1856
 2033SOL    HW117735   1.761   4.080   5.735 -0.6498 -0.1568  2.6281
 2033SOL    HW217736   1.744   3.934   5.713  1.0326 -0.7750  0.0542
 2034SOL     OW17737   4.543   0.701  11.252  0.6481  0.1361  0.1946
 2034SOL    HW117738   4.627   0.675  11.215 -0.3782  0.2100 -2.1541
 2034SOL    HW217739   4.540   0.661  11.339  4.9844  1.8579  1.1426
 2035SOL     OW17740   0.792   3.516   2.076  0.6543  0.4454 -0.1627
 2035SOL    HW117741   0.743   3.446   2.118  0.2562 -0.4212 -2.0392
 2035SOL    HW217742   0.874   3.468   2.067  0.5670  0.0843  1.0878
 2036SOL     OW17743   0.706   3.079   3.788 -0.0923  0.1152 -0.4227
 2036SOL    HW117744   0.754   3.057   3.868 -0.6715  0.0874 -0.0860
 2036SOL    HW217745   0.634   3.132   3.823  0.0953 -1.6677  2.7037
 2037SOL     OW17746   3.948   3.907   8.549  0.1270 -0.0537  0.0241
 2037SOL    HW117747   3.894   3.964   8.603  0.1923  0.3721 -0.3620
 2037SOL    HW217748   4.012   3.975   8.527 -0.2568 -0.1400 -1.3578
 2038SOL     OW17749   1.939   2.919   5.686  0.6248 -0.6805  0.2535
 2038SOL    HW117750   2.024   2.909   5.729  0.1888  0.4262  1.3857
 2038SOL    HW217751   1.901   2.997   5.726  0.6038 -1.1782  1.2036
 2039SOL     OW17752   2.653   0.441   2.654  0.0710 -0.0814 -0.3365
 2039SOL    HW117753   2.684   0.503   2.588  0.6894 -0.2483 -0.2003
 2039SOL    HW217754   2.589   0.389   2.606 -0.0568 -0.0938 -0.1559
 2040SOL     OW17755   0.008   1.157   0.560 -0.0583 -0.3228  0.4483
 2040SOL    HW117756   4.694   1.126   0.485  0.5693 -0.7753  0.2012
 2040SOL    HW217757   0.087   1.188   0.516 -0.5924 -0.2505 -0.4746
 2041SOL     OW17758   2.920   3.225   2.540  0.4308  0.4284  0.0944
 2041SOL    HW117759   2.901   3.258   2.628  0.5975  0.9493 -0.0673
 2041SOL    HW217760   2.924   3.133   2.566  0.3276  0.1328 -0.9159
 2042SOL     OW17761   0.429   3.504   7.602  0.3910  0.0993 -0.2049
 2042SOL    HW117762   0.461   3.441   7.667 -2.8108 -0.7720  0.5742
 2042SOL    HW217763   0.338   3.517   7.630 -0.0705 -2.8604 -0.3003
 2043SOL     OW17764   4.123   0.787   7.236 -0.1244 -0.0386 -0.2184
 2043SOL    HW117765   4.172   0.714   7.274 -1.8775 -1.6562 -1.0510
 2043SOL    HW217766   4.030   0.770   7.249 -0.5201  1.8642 -0.5659
 2044SOL     OW17767   4.501   2.172   8.183  0.5471  0.0888 -0.3577
 2044SOL    HW117768   4.492   2.254   8.232  0.1825  1.1767 -2.2660
 2044SOL    HW217769   4.449   2.200   8.108 -1.1354  0.7065  1.0329
 2045SOL     OW17770   1.049   0.256  12.819  0.2305 -0.0397  0.0527
 2045SOL    HW117771   1.045   0.351  12.812  1.9337 -0.0927 -1.6133
 2045SOL    HW217772   1.072   0.250  12.912  1.2915 -2.0483 -0.3291
 2046SOL     OW17773   0.140   2.379   5.062 -0.1433 -0.3694  0.3217
 2046SOL    HW117774   0.158   2.463   5.020  0.0692 -0.3829  0.3888
 2046SOL    HW217775   0.107   2.333   4.985  0.2331  1.7857 -1.1252
 2047SOL     OW17776   3.626   2.057   8.848 -0.0821  0.7972 -0.2227
 2047SOL    HW117777   3.636   2.060   8.943 -3.0268 -0.7765  0.1415
 2047SOL    HW217778   3.570   1.981   8.832 -0.1407  0.1280  3.0761
 2048SOL     OW17779   0.331   1.753  11.028  0.0781 -0.6408  0.1324
 2048SOL    HW117780   0.263   1.818  11.043 -0.0246 -0.6382 -0.3525
 2048SOL    HW217781   0.368   1.797  10.951  0.9933 -0.4422  0.6797
 2049SOL     OW17782   3.496   0.350   2.456 -0.3474 -0.3476 -0.2196
 2049SOL    HW117783   3.481   0.256   2.465 -1.4565 -0.1663 -0.1014
 2049SOL    HW217784   3.506   0.366   2.362 -0.2441  1.1175  0.0261
 2050SOL     OW17785   0.549   3.998   2.376  0.3614 -0.2226  0.1942
 2050SOL    HW117786   0.536   4.019   2.283 -0.6387 -1.2106  0.1080
 2050SOL    HW217787   0.510   4.078   2.412 -0.0103  0.3974 -1.5635
 2051SOL     OW17788   1.238   4.240   3.126 -0.1177  0.3825 -0.2711
 2051SOL    HW117789   1.293   4.170   3.162  0.5675  0.5298 -1.0321
 2051SOL    HW217790   1.240   4.214   3.034 -0.5738  2.5033 -0.8763
 2052SOL     OW17791   3.359   0.855   3.410  0.1053 -0.3013  0.3094
 2052SOL    HW117792   3.336   0.900   3.491 -0.3126 -0.1119  0.0889
 2052SOL    HW217793   3.308   0.775   3.422  2.0504 -1.7323 -0.9285
 2053SOL     OW17794   4.480   4.398   5.001 -0.3930 -0.1478 -0.2177
 2053SOL    HW117795   4.438   4.346   4.932  0.4378  0.1466 -0.9490
 2053SOL    HW217796   4.457   4.351   5.081  1.2015 -0.5997 -0.0168
 2054SOL     OW17797   1.129   1.079   8.781 -0.3603 -0.2321 -0.4381
 2054SOL    HW117798   1.184   1.127   8.842 -0.1129  0.9961 -1.6384
 2054SOL    HW217799   1.195   1.037   8.726 -1.6453 -1.5047 -1.0214
 2055SOL     OW17800   3.842   0.369  15.313  0.0117  0.0615  0.2596
 2055SOL    HW117801   3.920   0.425  15.308  0.8301 -0.9850  1.0639
 2055SOL    HW217802   3.835   0.337  15.223 -0.8967 -2.2900  1.1491
 2056SOL     OW17803   4.464   0.205  13.387  0.2209  0.3513 -0.3274
 2056SOL    HW117804   4.445   0.283  13.439 -3.2362  0.4023 -1.6244
 2056SOL    HW217805   4.376   0.178  13.361  0.8378  0.4951 -2.6176
 2057SOL     OW17806   2.973   1.945  14.397 -0.2107 -0.4938  0.4698
 2057SOL    HW117807   2.919   2.011  14.352  1.7504  1.0196  0.3346
 2057SOL    HW217808   2.987   1.998  14.476 -3.6878 -1.0615  1.4774
 2058SOL     OW17809   3.576   0.232   1.736 -0.0642  0.2755  0.3327
 2058SOL    HW117810   3.559   0.318   1.773  0.0117 -0.4751  2.1052
 2058SOL    HW217811   3.553   0.242   1.643  1.9534  1.9595  0.0284
 2059SOL     OW17812   4.250   0.877   2.718 -0.4267  0.4532  0.2961
 2059SOL    HW117813   4.194   0.817   2.767  0.8514 -1.0872 -0.1137
 2059SOL    HW217814   4.271   0.818   2.646 -0.5057  1.5162 -0.5947
 2060SOL     OW17815   0.794   2.559   1.519 -0.3287  0.0486  0.7588
 2060SOL    HW117816   0.784   2.644   1.562 -1.6977 -0.3581  1.2547
 2060SOL    HW217817   0.717   2.513   1.552  0.5276 -1.4450  0.6685
 2061SOL     OW17818   4.071   1.305   7.196 -0.2792  0.1345  0.6999
 2061SOL    HW117819   4.001   1.304   7.261 -0.0357  0.1691  0.9616
 2061SOL    HW217820   4.145   1.268   7.244 -1.8024 -0.5655  2.4712
 2062SOL     OW17821   3.632   0.102  13.103  0.0549 -0.1909  0.1429
 2062SOL    HW117822   3.707   0.049  13.076  0.5163  0.5069  0.0494
 2062SOL    HW217823   3.677   0.186  13.114 -0.8241  0.0724  1.6982
 2063SOL     OW17824   1.111   0.422  11.741 -0.0554  0.1281 -0.6976
 2063SOL    HW117825   1.089   0.363  11.669 -1.1137  1.3303 -1.3660
 2063SOL    HW217826   1.198   0.395  11.770 -0.7260 -3.7349 -2.3302
 2064SOL     OW17827   0.867   0.852  16.804 -0.1963  0.6624 -0.0278
 2064SOL    HW117828   0.805   0.792  16.762  2.6204 -0.8106 -2.1288
 2064SOL    HW217829   0.807   0.922  16.830 -0.6362  0.8761 -1.6159
 2065SOL     OW17830   4.709   4.139  11.053  0.8684 -0.3071 -0.2267
 2065SOL    HW117831   4.686   4.137  10.960  0.3589 -1.2767 -0.0788
 2065SOL    HW217832   0.026   4.217  11.044  0.9378 -0.5722 -2.1454
 2066SOL     OW17833   3.481   4.420   6.581 -0.1338 -0.4961  0.2430
 2066SOL    HW117834   3.480   4.467   6.498  0.6701 -0.7829  0.0738
 2066SOL    HW217835   3.445   4.476   6.650  0.4571  2.6072 -2.0118
 2067SOL     OW17836   4.331   1.688   0.549 -0.5846  0.5101  0.3454
 2067SOL    HW117837   4.268   1.760   0.541  0.7258  1.6767  0.5797
 2067SOL    HW217838   4.269   1.624   0.585  1.4030 -1.5290  0.1137
 2068SOL     OW17839   1.456   1.374   9.181 -0.9750 -0.1727 -0.7876
 2068SOL    HW117840   1.383   1.314   9.163  0.6777 -1.7117 -2.5140
 2068SOL    HW217841   1.516   1.304   9.208 -2.0615 -0.2462  1.4277
 2069SOL     OW17842   1.902   0.024  16.203 -0.6097 -0.0876  0.5600
 2069SOL    HW117843   1.883   0.008  16.295  0.7623 -0.5674  0.7610
 2069SOL    HW217844   1.817   0.056  16.172 -0.7936 -1.3578 -0.2642
 2070SOL     OW17845   4.007   4.302   3.195 -0.3129  0.1216  0.2268
 2070SOL    HW117846   3.966   4.372   3.144 -3.0975 -0.7568  1.2422
 2070SOL    HW217847   3.994   4.338   3.282  0.5259 -1.6977  1.1070
 2071SOL     OW17848   1.535   4.601   3.755  0.3834  0.1396 -0.2414
 2071SOL    HW117849   1.523   4.511   3.786  1.0619  0.3508  0.6207
 2071SOL    HW217850   1.630   4.605   3.746  0.3606  2.4750  0.6854
 2072SOL     OW17851   0.993   0.752  11.152  0.0241  0.1101 -0.6775
 2072SOL    HW117852   0.935   0.676  11.157  0.4107 -0.0901  0.8673
 2072SOL    HW217853   1.078   0.715  11.128 -0.7030 -0.7218 -1.9479
 2073SOL     OW17854   2.001   2.957   5.390 -0.6151 -0.0723  0.0586
 2073SOL    HW117855   1.967   2.876   5.429 -0.0611  0.4795  1.6639
 2073SOL    HW217856   2.081   2.961   5.441  0.4973 -1.5448 -1.5682
 2074SOL     OW17857   3.726   3.103   2.916 -0.5325  0.2841 -0.3123
 2074SOL    HW117858   3.763   3.188   2.893 -0.2460  0.5555  1.1655
 2074SOL    HW217859   3.801   3.045   2.925 -0.4745  0.3439 -0.4060
 2075SOL     OW17860   1.671   4.340  12.062 -0.4163 -0.5034  0.2909
 2075SOL    HW117861   1.641   4.378  12.145 -0.5912 -2.0773  0.9522
 2075SOL    HW217862   1.612   4.267  12.047  0.2455 -0.9093 -0.3124
 2076SOL     OW17863   0.212   3.412  14.678 -0.0169  0.2012  0.1379
 2076SOL    HW117864   0.222   3.403  14.583 -0.0370 -1.1941  0.2740
 2076SOL    HW217865   0.122   3.383  14.691  0.3892 -1.5564 -1.0922
 2077SOL     OW17866   1.261   2.018   1.089  0.9674  0.3879  0.5080
 2077SOL    HW117867   1.336   2.076   1.105  1.0061 -0.7670  4.4667
 2077SOL    HW217868   1.243   1.982   1.176 -0.6179  0.6934  0.2953
 2078SOL     OW17869   2.472   1.483   1.710 -0.1096  0.0247  0.0798
 2078SOL    HW117870   2.563   1.479   1.680 -0.8905 -0.4107 -2.2425
 2078SOL    HW217871   2.432   1.491   1.623  1.3883  1.5233 -0.4680
 2079SOL     OW17872   4.589   3.249   5.264 -0.5307  0.5575  0.7200
 2079SOL    HW117873   4.520   3.307   5.295 -1.4894 -0.3165  0.2166
 2079SOL    HW217874   4.558   3.165   5.297 -0.6298  0.4837  0.4365
 2080SOL     OW17875   4.274   1.249   3.706  0.1814 -0.0763  0.2096
 2080SOL    HW117876   4.297   1.171   3.655  0.6549 -0.6201  1.2595
 2080SOL    HW217877   4.268   1.319   3.641  2.7690 -0.8984 -0.9388
 2081SOL     OW17878   2.893   0.802   3.560 -0.0216  0.4180  0.1108
 2081SOL    HW117879   2.856   0.890   3.569  1.1780  0.7634  1.5770
 2081SOL    HW217880   2.964   0.793   3.623  1.2749 -0.6209 -1.4946
 2082SOL     OW17881   3.408   3.685  16.827  0.2306  0.0242 -0.0248
 2082SOL    HW117882   3.423   3.778  16.842  1.6767  0.0426 -1.5611
 2082SOL    HW217883   3.402   3.683  16.732  1.6254  1.7103 -0.1452
 2083SOL     OW17884   0.885   3.569  13.599 -0.0594  0.0270 -0.1858
 2083SOL    HW117885   0.894   3.477  13.622 -1.9819 -0.0355  0.2850
 2083SOL    HW217886   0.906   3.602  13.687  0.0339  1.5507 -0.7702
 2084SOL     OW17887   1.948   0.009   2.597 -0.8621 -0.3463  0.5155
 2084SOL    HW117888   1.974   0.072   2.664 -0.7223 -2.7398  2.7000
 2084SOL    HW217889   2.016   4.679   2.597  1.9122  2.4611 -0.0768
 2085SOL     OW17890   2.167   2.188   2.753 -0.1218  0.1206 -0.4195
 2085SOL    HW117891   2.155   2.246   2.678  0.2356  0.8088  0.0486
 2085SOL    HW217892   2.116   2.236   2.819  0.9023  0.8651 -0.1687
 2086SOL     OW17893   1.485   1.738   2.230  0.1749 -0.2100 -0.2456
 2086SOL    HW117894   1.481   1.643   2.216  1.8761 -0.3400  0.0489
 2086SOL    HW217895   1.529   1.762   2.149 -2.9734 -1.0636 -2.1908
 2087SOL     OW17896   4.388   0.468   5.222  0.0405 -0.2702 -0.1641
 2087SOL    HW117897   4.471   0.434   5.255  0.7608  1.4070 -0.2380
 2087SOL    HW217898   4.380   0.558   5.253  2.2365  0.6767 -2.3125
 2088SOL     OW17899   3.452   1.469   4.638 -0.5904  0.2334 -0.4580
 2088SOL    HW117900   3.360   1.461   4.612 -1.4759 -1.0624  3.1113
 2088SOL    HW217901   3.475   1.537   4.574 -0.9220  0.8507  0.0815
 2089SOL     OW17902   3.020   0.614   3.133  0.1404 -0.0220 -0.4620
 2089SOL    HW117903   3.110   0.582   3.141 -0.4209 -0.8442  2.4003
 2089SOL    HW217904   3.018   0.689   3.193  1.0674 -1.9570  1.9880
 2090SOL     OW17905   3.429   2.542   0.942 -0.3418  0.1454  0.4966
 2090SOL    HW117906   3.339   2.555   0.972 -0.3678  2.1661 -0.4618
 2090SOL    HW217907   3.471   2.559   1.026  0.5543 -1.0997  0.2991
 2091SOL     OW17908   1.576   2.131  14.656 -0.1986  0.2351  0.2182
 2091SOL    HW117909   1.646   2.144  14.592 -0.8695 -2.6694 -1.1101
 2091SOL    HW217910   1.511   2.105  14.591  0.0001 -0.7433  0.4070
 2092SOL     OW17911   0.595   1.379  10.591 -0.2285 -0.3761 -0.3920
 2092SOL    HW117912   0.539   1.344  10.661  1.2445 -1.2668  0.3414
 2092SOL    HW217913   0.634   1.293  10.575 -0.1045 -0.3926  0.0152
 2093SOL     OW17914   4.101   4.698   3.803  0.2122  0.2718 -0.1366
 2093SOL    HW117915   4.071   0.031   3.861  2.8537  0.0582  1.4893
 2093SOL    HW217916   4.195   4.714   3.791  0.0440  0.6266 -0.9642
 2094SOL     OW17917   1.701   3.477   6.798 -0.1947  0.3390  0.3417
 2094SOL    HW117918   1.627   3.465   6.857  2.5727 -0.8375  3.5429
 2094SOL    HW217919   1.771   3.439   6.851  0.4563  0.3498 -0.5073
 2095SOL     OW17920   1.820   4.699   2.982  0.3125  0.2309  0.0739
 2095SOL    HW117921   1.803   4.619   2.932 -0.5239 -0.5156  1.5623
 2095SOL    HW217922   1.897   4.726   2.932 -0.0829  0.5593 -0.3621
 2096SOL     OW17923   0.375   2.271   5.035  0.2568 -0.2408 -0.3933
 2096SOL    HW117924   0.384   2.177   5.050 -0.6261 -0.2670 -0.0601
 2096SOL    HW217925   0.287   2.296   5.061 -0.6559 -1.2078 -2.6522
 2097SOL     OW17926   2.483   1.094   8.265  0.3391  0.3772  0.4550
 2097SOL    HW117927   2.550   1.027   8.279 -0.9639 -0.6351  1.8913
 2097SOL    HW217928   2.437   1.102   8.349 -0.2847  0.4772  0.1100
 2098SOL     OW17929   3.955   0.098  16.232  0.4239 -0.1860  0.2066
 2098SOL    HW117930   3.894   0.068  16.165 -0.7510 -0.7908  1.5577
 2098SOL    HW217931   4.036   0.070  16.188  0.4687  1.3590 -0.6756
 2099SOL     OW17932   4.171   0.614   8.104 -0.6752 -0.0993  0.2600
 2099SOL    HW117933   4.140   0.649   8.020 -1.1300 -2.7585 -0.6676
 2099SOL    HW217934   4.116   0.670   8.159  1.4539  1.2048  1.0432
 2100SOL     OW17935   1.269   2.410   9.988  0.4412  0.2090  0.0446
 2100SOL    HW117936   1.351   2.454   9.968  0.7243  0.2497  1.2930
 2100SOL    HW217937   1.228   2.430   9.904  1.8700  0.8859 -0.4956
 2101SOL     OW17938   3.213   2.609   4.954 -0.4635  0.4335 -0.0637
 2101SOL    HW117939   3.191   2.517   4.968 -2.3401  0.8689 -0.1566
 2101SOL    HW217940   3.257   2.599   4.870 -0.5088  1.2179 -0.1848
 2102SOL     OW17941   0.700   3.200   8.542  0.4622  0.1568  0.2296
 2102SOL    HW117942   0.752   3.224   8.619 -0.0551  1.1086  0.2715
 2102SOL    HW217943   0.663   3.117   8.572 -1.1216  1.5811  2.1831
 2103SOL     OW17944   0.385   1.601   5.197 -0.4186  0.0513  0.0720
 2103SOL    HW117945   0.454   1.623   5.261  0.8211 -0.8738 -0.9643
 2103SOL    HW217946   0.319   1.666   5.222  1.7029  1.4079  2.2013
 2104SOL     OW17947   1.304   3.411   3.997  0.3948  0.2417  0.3912
 2104SOL    HW117948   1.346   3.334   4.035  3.2461  1.0943 -1.0150
 2104SOL    HW217949   1.299   3.469   4.073 -0.4837  1.2706 -0.4515
 2105SOL     OW17950   0.429   2.585   2.258  0.2370  0.0707  0.4040
 2105SOL    HW117951   0.356   2.644   2.278  0.1221 -0.1357  0.5950
 2105SOL    HW217952   0.447   2.554   2.347 -0.6424 -1.8634 -0.0795
 2106SOL     OW17953   3.444   3.629   3.820 -0.0966  0.0614 -0.4596
 2106SOL    HW117954   3.419   3.601   3.909  0.2097  0.7634 -0.1574
 2106SOL    HW217955   3.440   3.544   3.777  2.2832  0.1812 -0.8855
 2107SOL     OW17956   2.641   0.640   7.325  0.0825 -0.2050  0.1283
 2107SOL    HW117957   2.582   0.650   7.399  0.7207  0.2598  0.5741
 2107SOL    HW217958   2.607   0.709   7.267  0.1685 -0.7174 -0.5314
 2108SOL     OW17959   4.593   1.541   8.787  0.1764  0.1208  0.2837
 2108SOL    HW117960   4.595   1.482   8.712 -1.1917  0.2714  0.1271
 2108SOL    HW217961   4.512   1.507   8.827 -0.4766  0.5430 -0.6757
 2109SOL     OW17962   0.826   3.262   2.711 -0.1636  0.3701  0.8559
 2109SOL    HW117963   0.895   3.282   2.774  1.1155 -0.6517 -0.2104
 2109SOL    HW217964   0.878   3.193   2.670 -1.6341  0.3250 -0.8732
 2110SOL     OW17965   3.673   2.614  14.922 -0.0347  0.3646 -0.0878
 2110SOL    HW117966   3.592   2.612  14.872 -0.3737  0.1209  0.4792
 2110SOL    HW217967   3.739   2.618  14.853  1.0045 -0.4305  0.8554
 2111SOL     OW17968   1.631   3.471   2.173 -0.5284 -0.0763  0.1892
 2111SOL    HW117969   1.560   3.497   2.115  1.2503 -1.7959 -2.8093
 2111SOL    HW217970   1.660   3.391   2.128 -0.9469  0.1571 -0.4934
 2112SOL     OW17971   1.466   1.205   7.859  0.3572  0.7169 -0.0141
 2112SOL    HW117972   1.438   1.278   7.805 -0.8366 -0.2468 -0.7028
 2112SOL    HW217973   1.401   1.146   7.821  1.3873  0.3121 -1.1612
 2113SOL     OW17974   3.162   2.775   3.726  0.3265 -0.2214 -0.8146
 2113SOL    HW117975   3.193   2.859   3.692  1.9427 -0.4225  0.1655
 2113SOL    HW217976   3.201   2.711   3.666  2.1380 -1.6254  1.8721
 2114SOL     OW17977   4.286   1.922   8.426 -1.0371 -0.2161 -0.5951
 2114SOL    HW117978   4.270   1.894   8.517  1.5823 -0.5736 -0.2555
 2114SOL    HW217979   4.234   1.854   8.384 -0.9899  1.0537 -2.6719
 2115SOL     OW17980   0.356   3.533   3.594 -0.2203  0.2947  0.4727
 2115SOL    HW117981   0.366   3.460   3.655  1.0734 -0.7127 -0.9186
 2115SOL    HW217982   0.390   3.499   3.511 -0.7282  0.2846  0.2692
 2116SOL     OW17983   1.757   2.200   9.981 -0.3497 -0.2822 -0.2444
 2116SOL    HW117984   1.703   2.144   9.926 -1.9918  1.4974 -0.4276
 2116SOL    HW217985   1.831   2.164   9.932  0.6986  1.0573  0.3369
 2117SOL     OW17986   1.417   0.583   5.763 -0.3680 -0.2759 -0.5091
 2117SOL    HW117987   1.394   0.597   5.671 -1.3268  2.4424  0.1463
 2117SOL    HW217988   1.504   0.542   5.760  0.5801  1.6903 -0.3737
 2118SOL     OW17989   0.284   4.065   4.557  0.0781  0.3477 -0.0108
 2118SOL    HW117990   0.264   4.138   4.616  0.3169  1.0657 -0.8228
 2118SOL    HW217991   0.218   4.084   4.490 -2.1323 -0.9581  1.7968
 2119SOL     OW17992   2.563   3.179   5.724 -0.4093  0.2516  0.2042
 2119SOL    HW117993   2.494   3.171   5.659 -0.3623 -0.3281  0.2307
 2119SOL    HW217994   2.603   3.264   5.706 -0.7147  0.3551  0.0132
 2120SOL     OW17995   4.514   2.232   7.380  0.2395 -0.3070  1.0874
 2120SOL    HW117996   4.449   2.299   7.358  1.3262  1.2446  2.6814
 2120SOL    HW217997   4.527   2.245   7.474 -1.2824  0.4134  1.2020
 2121SOL     OW17998   0.497   3.357   7.801 -0.2178  0.6753 -0.2289
 2121SOL    HW117999   0.423   3.327   7.854 -2.0699  1.1858 -2.5322
 2121SOL    HW218000   0.561   3.345   7.871 -3.0835 -1.0321  2.0529
 2122SOL     OW18001   1.376   4.360  15.886  0.0236  0.1050  0.3426
 2122SOL    HW118002   1.410   4.449  15.873  0.7636 -0.1450  0.5847
 2122SOL    HW218003   1.295   4.358  15.835 -0.1878  2.3499  0.5793
 2123SOL     OW18004   1.549   3.277  17.222 -0.1608  0.6725  0.0424
 2123SOL    HW118005   1.543   3.257  17.315 -1.2467  1.0383  0.0574
 2123SOL    HW218006   1.461   3.242  17.208  0.0047  0.4859 -0.5490
 2124SOL     OW18007   1.457   3.876   4.340  0.0884 -0.4043  0.0202
 2124SOL    HW118008   1.500   3.841   4.262  0.2088  0.1490 -0.1672
 2124SOL    HW218009   1.387   3.925   4.295 -0.1770 -0.2315  0.6254
 2125SOL     OW18010   1.215   0.007   8.492  0.0040  0.2897  0.5599
 2125SOL    HW118011   1.295   4.725   8.442 -0.1985  0.5113  0.1556
 2125SOL    HW218012   1.233   0.098   8.515 -3.1308  1.4907 -1.8436
 2126SOL     OW18013   3.556   3.172   6.593 -0.7520  0.2075 -0.0344
 2126SOL    HW118014   3.558   3.083   6.628  1.3371 -0.1450 -1.0290
 2126SOL    HW218015   3.573   3.230   6.668  1.0910  1.3944 -1.3520
 2127SOL     OW18016   3.847   4.305   9.375 -0.2711 -0.1481  0.4669
 2127SOL    HW118017   3.795   4.381   9.402 -0.1708  0.5631 -1.3186
 2127SOL    HW218018   3.784   4.252   9.327 -0.6660  1.2094 -0.5160
 2128SOL     OW18019   3.264   3.255  10.929  0.0420  0.0740  0.1015
 2128SOL    HW118020   3.253   3.266  11.023 -0.7626 -1.9945  0.2464
 2128SOL    HW218021   3.190   3.206  10.894  0.7163 -0.7000 -0.2529
 2129SOL     OW18022   1.648   0.507   6.117 -0.3816 -0.0327 -0.0646
 2129SOL    HW118023   1.694   0.562   6.180  0.6209 -2.0826  1.0211
 2129SOL    HW218024   1.568   0.484   6.165 -0.4442  0.5032  0.0816
 2130SOL     OW18025   0.847   1.102  15.000 -0.3403 -0.2145 -0.1956
 2130SOL    HW118026   0.879   1.025  14.953 -1.8450  0.0545 -1.6421
 2130SOL    HW218027   0.766   1.125  14.955 -0.6278 -1.2906 -0.2173
 2131SOL     OW18028   0.598   2.004  12.064  0.0002 -0.0574  0.4137
 2131SOL    HW118029   0.578   2.097  12.079 -2.1003 -0.3696 -0.4476
 2131SOL    HW218030   0.666   2.023  12.000 -0.5606  3.0788  0.7501
 2132SOL     OW18031   3.136   0.061   1.554  0.3988  0.8842  0.4958
 2132SOL    HW118032   3.041   0.072   1.549  0.0017 -2.4674  0.7640
 2132SOL    HW218033   3.173   0.101   1.475  1.0816  2.0686  1.4048
 2133SOL     OW18034   2.688   0.327   3.434  0.1181  0.3891  0.3388
 2133SOL    HW118035   2.652   0.247   3.396 -0.8445  0.9153  0.1433
 2133SOL    HW218036   2.763   0.341   3.376 -0.1913  1.5713  0.2135
 2134SOL     OW18037   2.054   0.566   3.906  0.1462 -0.6719  0.2874
 2134SOL    HW118038   2.112   0.490   3.900 -0.4138 -1.1703  1.3294
 2134SOL    HW218039   2.074   0.596   3.995 -2.0033 -0.3350  0.6495
 2135SOL     OW18040   2.594   0.243   6.724  0.1318  0.4235  0.3449
 2135SOL    HW118041   2.657   0.307   6.691 -0.9383  0.8170 -0.9573
 2135SOL    HW218042   2.635   0.157   6.727 -0.0059  0.3345 -0.1999
 2136SOL     OW18043   3.734   0.547  11.119 -0.3789 -0.1591 -1.1063
 2136SOL    HW118044   3.666   0.496  11.164  0.8863  1.4190  2.6320
 2136SOL    HW218045   3.689   0.630  11.107 -1.5030 -0.7672 -1.0943
 2137SOL     OW18046   0.007   3.761   6.849 -0.1721  0.0852 -0.0989
 2137SOL    HW118047   4.660   3.790   6.814 -0.2749 -0.4241 -0.2734
 2137SOL    HW218048   0.038   3.705   6.778  2.4811  0.4001  0.8215
 2138SOL     OW18049   0.882   0.091   1.206 -0.3003  0.1125  0.0326
 2138SOL    HW118050   0.907   0.161   1.268 -0.1957 -0.9770  1.2209
 2138SOL    HW218051   0.967   0.062   1.174 -1.4292 -3.5265  0.3050
 2139SOL     OW18052   0.879   1.230   6.324 -0.2253  0.1891  0.9524
 2139SOL    HW118053   0.906   1.183   6.245  3.2809  2.2827  0.9205
 2139SOL    HW218054   0.929   1.309   6.306  1.0501 -0.8645 -0.0773
 2140SOL     OW18055   2.705   3.856   3.801 -0.2503  0.6063 -0.0327
 2140SOL    HW118056   2.680   3.877   3.711 -1.3352 -0.6542 -0.0328
 2140SOL    HW218057   2.687   3.936   3.849 -0.9697  0.9533 -0.8902
 2141SOL     OW18058   3.041   0.714   0.776  0.5880  0.4201 -0.4575
 2141SOL    HW118059   3.086   0.797   0.795  1.9711 -0.0528 -1.6334
 2141SOL    HW218060   2.989   0.707   0.856  0.0036  1.7260 -0.7291
 2142SOL     OW18061   4.724   2.345   7.785 -0.3253 -0.5417  0.4233
 2142SOL    HW118062   4.705   2.255   7.813 -0.5647  0.2031  2.6500
 2142SOL    HW218063   0.064   2.342   7.729 -1.2115 -2.7579 -0.7065
 2143SOL     OW18064   2.579   2.660   9.359 -0.0978  0.1597  0.0212
 2143SOL    HW118065   2.586   2.614   9.276 -0.8317 -0.3572  0.2468
 2143SOL    HW218066   2.499   2.711   9.349  0.7395  1.1356 -1.7165
 2144SOL     OW18067   0.708   0.707   0.930 -0.0115  0.2265 -0.3033
 2144SOL    HW118068   0.750   0.689   0.846  0.2568 -1.2772  0.1464
 2144SOL    HW218069   0.677   0.797   0.924  1.3479  0.7293  0.2525
 2145SOL     OW18070   1.640   2.746   1.453 -0.0469 -0.4256  0.7540
 2145SOL    HW118071   1.569   2.748   1.518 -0.3561  2.3414  0.3106
 2145SOL    HW218072   1.630   2.824   1.399 -0.2858  0.3954  1.9813
 2146SOL     OW18073   2.534   1.349   5.745  0.1008  0.4035  0.3364
 2146SOL    HW118074   2.585   1.338   5.825 -0.2657  0.6978  0.6077
 2146SOL    HW218075   2.465   1.409   5.772 -1.5334 -1.1483 -0.4074
 2147SOL     OW18076   3.718   2.143   7.392 -0.6391 -0.3152 -0.2331
 2147SOL    HW118077   3.786   2.174   7.331  2.3095 -2.3142  2.0120
 2147SOL    HW218078   3.752   2.060   7.424  1.2312  0.7814  0.6430
 2148SOL     OW18079   2.174   3.940   7.265 -0.2409 -0.1884  0.0563
 2148SOL    HW118080   2.146   4.006   7.202  1.0621 -0.5951 -0.9486
 2148SOL    HW218081   2.092   3.917   7.308  0.4530 -2.2966  0.2467
 2149SOL     OW18082   0.577   0.141   7.267  0.1979 -0.2416 -0.2814
 2149SOL    HW118083   0.664   0.178   7.250 -0.0700  1.7098  2.5451
 2149SOL    HW218084   0.539   0.130   7.180  0.9104 -0.8726 -0.5125
 2150SOL     OW18085   3.380   1.136   3.020 -0.3103 -0.3398  0.9256
 2150SOL    HW118086   3.322   1.208   2.993 -0.7165 -0.3393  1.7959
 2150SOL    HW218087   3.365   1.140   3.114 -2.6093 -4.4602  0.7216
 2151SOL     OW18088   3.991   4.356  11.396  0.1808 -0.1590 -0.1247
 2151SOL    HW118089   4.062   4.308  11.353 -0.9504 -2.0713  0.1499
 2151SOL    HW218090   4.044   4.388  11.469  1.6815  0.1229 -1.3250
 2152SOL     OW18091   2.914   3.977   2.130 -0.3214  0.0390 -0.0118
 2152SOL    HW118092   2.949   4.032   2.200  1.2966 -0.3105 -0.5468
 2152SOL    HW218093   2.994   3.977   2.077 -1.2959  1.2418 -1.4673
 2153SOL     OW18094   0.805   0.194  13.860 -0.0012  0.2473  0.2260
 2153SOL    HW118095   0.738   0.263  13.862  1.9410  2.0991  1.5751
 2153SOL    HW218096   0.785   0.173  13.769  2.9580 -0.8580 -0.1747
 2154SOL     OW18097   3.189   2.184   2.020  0.0027  0.0825  0.0991
 2154SOL    HW118098   3.183   2.089   2.011 -1.0344  0.0485  1.1085
 2154SOL    HW218099   3.128   2.212   1.951  0.7253 -1.0057 -0.9767
 2155SOL     OW18100   2.933   2.987   4.812 -0.2224  0.1177  0.5863
 2155SOL    HW118101   2.942   2.898   4.847 -1.7887 -0.8286 -1.4746
 2155SOL    HW218102   3.022   3.006   4.784 -0.3089 -0.7358 -0.2714
 2156SOL     OW18103   4.378   1.353   8.778  0.2778 -0.1395  0.1393
 2156SOL    HW118104   4.347   1.262   8.769 -2.7132  1.0553 -1.9053
 2156SOL    HW218105   4.374   1.384   8.688 -1.4560 -1.4529 -0.2495
 2157SOL     OW18106   4.352   1.886  12.173 -0.0920 -0.2290  0.2528
 2157SOL    HW118107   4.365   1.943  12.097 -0.3991 -1.3983 -0.6731
 2157SOL    HW218108   4.442   1.868  12.197 -0.3709  1.6057  2.6691
 2158SOL     OW18109   3.418   0.756  12.350  0.1100 -0.8106 -0.4710
 2158SOL    HW118110   3.363   0.834  12.355 -0.2237 -1.0425 -0.4610
 2158SOL    HW218111   3.354   0.690  12.323 -1.2130 -0.5077  1.8956
 2159SOL     OW18112   3.571   4.281   2.398 -0.0090  0.0366  0.4704
 2159SOL    HW118113   3.550   4.266   2.306 -2.3242  0.9416  0.8781
 2159SOL    HW218114   3.504   4.230   2.443 -0.0406 -0.2971  0.0533
 2160SOL     OW18115   2.962   1.155   3.124  0.1469  0.5720 -0.3146
 2160SOL    HW118116   3.020   1.177   3.051  1.3105  1.8368  0.9835
 2160SOL    HW218117   2.995   1.210   3.195 -0.8542 -1.0901  1.4723
 2161SOL     OW18118   4.313   0.001   9.748  0.2976  0.5150  0.2083
 2161SOL    HW118119   4.318   4.649   9.714 -0.3701  0.3542  0.5347
 2161SOL    HW218120   4.219   4.733   9.764 -0.5897  3.1347 -4.1671
 2162SOL     OW18121   2.951   1.791   5.922 -0.6902  0.1979  0.4632
 2162SOL    HW118122   2.988   1.867   5.968 -0.0063 -1.6048  2.9168
 2162SOL    HW218123   2.875   1.825   5.875  0.3936  2.1360  0.0947
 2163SOL     OW18124   4.066   4.097  15.959 -0.6584  0.0728  0.5685
 2163SOL    HW118125   4.038   4.149  15.883 -0.1300 -1.0043 -0.3652
 2163SOL    HW218126   4.003   4.027  15.943 -2.8586  2.4623 -1.3238
 2164SOL     OW18127   1.431   4.008   2.366 -0.0730 -0.1305  0.5240
 2164SOL    HW118128   1.451   3.949   2.438 -1.6289 -2.2014 -0.7293
 2164SOL    HW218129   1.358   4.058   2.403 -1.1966  0.1612 -2.0418
 2165SOL     OW18130   2.038   1.598   7.604  0.0173  0.1184 -0.0403
 2165SOL    HW118131   2.101   1.638   7.664 -0.2207  2.2140 -1.1894
 2165SOL    HW218132   2.090   1.567   7.530  2.1293 -1.8969  2.2864
 2166SOL     OW18133   2.847   3.207   5.972 -0.3081  0.2756 -0.0360
 2166SOL    HW118134   2.890   3.243   5.895 -1.1800 -0.6198 -0.9362
 2166SOL    HW218135   2.901   3.129   5.983 -0.0555  0.1713 -1.9666
 2167SOL     OW18136   2.087   1.754   7.959  0.1698  1.0429  0.4832
 2167SOL    HW118137   1.995   1.772   7.943 -0.5511 -0.9364  2.4038
 2167SOL    HW218138   2.079   1.673   8.008 -0.8451  1.6380  1.3039
 2168SOL     OW18139   3.096   0.636  10.255 -0.0612  0.2515 -0.4018
 2168SOL    HW118140   3.140   0.625  10.171 -3.3171 -0.0317 -2.0857
 2168SOL    HW218141   3.053   0.719  10.234 -0.0966 -0.0313 -1.4463
 2169SOL     OW18142   2.654   2.573   9.121 -0.3184 -0.0547  0.0454
 2169SOL    HW118143   2.660   2.497   9.064  0.9946  1.0530 -1.2971
 2169SOL    HW218144   2.675   2.648   9.065 -1.1362 -0.2907 -0.5780
 2170SOL     OW18145   1.910   1.424   2.466 -0.2025 -0.5437  0.6777
 2170SOL    HW118146   1.878   1.508   2.499 -0.8766  0.2352 -2.0307
 2170SOL    HW218147   1.992   1.448   2.423 -0.5046 -0.2121  0.2869
 2171SOL     OW18148   2.829   2.908   5.117 -0.2477 -0.3059  0.1036
 2171SOL    HW118149   2.848   3.001   5.100  0.4767 -0.5327 -0.3029
 2171SOL    HW218150   2.902   2.876   5.064 -0.5420 -1.2981  0.3068
 2172SOL     OW18151   1.997   3.154   4.158 -0.2971  0.1184 -0.1803
 2172SOL    HW118152   1.903   3.141   4.143 -0.6023  1.3844  0.6772
 2172SOL    HW218153   1.993   3.182   4.249  2.4334 -0.0788 -0.0095
 2173SOL     OW18154   3.039   0.301   7.949 -0.0540 -0.2608 -0.0846
 2173SOL    HW118155   3.105   0.274   8.012 -0.9982  2.0515  1.8997
 2173SOL    HW218156   2.968   0.320   8.011  0.3840 -1.1568  0.6880
 2174SOL     OW18157   3.201   1.158   8.825 -0.4323  0.2029 -0.2724
 2174SOL    HW118158   3.136   1.164   8.755  0.3124 -3.7869 -1.2699
 2174SOL    HW218159   3.209   1.063   8.836  0.2795  0.1596 -1.2175
 2175SOL     OW18160   0.318   4.114  17.107 -0.8268  0.4884  0.4425
 2175SOL    HW118161   0.265   4.037  17.130 -0.7373  0.1485 -0.4810
 2175SOL    HW218162   0.354   4.143  17.191  0.2282  0.0837  0.1370
 2176SOL     OW18163   4.555   2.766  11.888 -0.1233  0.4626 -0.0015
 2176SOL    HW118164   4.508   2.805  11.962  0.5511  0.9530  0.1729
 2176SOL    HW218165   4.511   2.685  11.865  1.8139 -0.6197  0.1227
 2177SOL     OW18166   1.340   2.282   2.275  0.1359  0.9380 -0.2430
 2177SOL    HW118167   1.375   2.230   2.202 -0.5490  0.6624 -0.3727
 2177SOL    HW218168   1.416   2.282   2.332 -0.1994  0.6957  0.1998
 2178SOL     OW18169   2.660   1.581   0.173 -0.6191  0.2037 -0.2754
 2178SOL    HW118170   2.661   1.593   0.268 -1.0312  2.4506 -0.5491
 2178SOL    HW218171   2.747   1.540   0.177 -0.0656  1.5627  1.6744
 2179SOL     OW18172   1.947   3.210  13.033  0.1395 -0.7098 -0.5071
 2179SOL    HW118173   1.931   3.304  13.043  0.9854 -0.6854  0.5820
 2179SOL    HW218174   2.002   3.196  13.110  2.3143  1.3346 -1.6971
 2180SOL     OW18175   0.179   2.152   6.036 -0.0204  0.1860  0.0615
 2180SOL    HW118176   0.204   2.157   6.128  1.0621 -0.4110 -0.2021
 2180SOL    HW218177   0.085   2.169   6.041 -0.0679  0.7728 -2.5763
 2181SOL     OW18178   3.013   4.386   5.271 -0.8558  0.0050 -0.3494
 2181SOL    HW118179   2.989   4.455   5.209  2.7532 -0.0852 -1.8634
 2181SOL    HW218180   2.935   4.382   5.327 -0.3774 -0.4690  0.2904
 2182SOL     OW18181   2.121   1.876  10.284  0.3831  0.4527  0.3458
 2182SOL    HW118182   2.035   1.891  10.321 -0.2434 -0.0671 -0.8795
 2182SOL    HW218183   2.118   1.920  10.199 -1.2604  0.9244  0.6573
 2183SOL     OW18184   1.627   0.145   3.191  0.3114  0.5069  0.8991
 2183SOL    HW118185   1.552   0.131   3.249 -0.6468  0.7431 -0.2839
 2183SOL    HW218186   1.638   0.051   3.181  0.6537  0.5264  1.1259
 2184SOL     OW18187   2.762   2.164   1.913  0.1100  0.2742 -0.5309
 2184SOL    HW118188   2.785   2.090   1.856  4.0435  0.5633  0.6653
 2184SOL    HW218189   2.804   2.234   1.863  1.9419 -2.4130 -2.7517
 2185SOL     OW18190   0.420   0.796   8.824 -0.6223  0.2565  0.0468
 2185SOL    HW118191   0.403   0.820   8.915  3.3922 -0.2455  0.9336
 2185SOL    HW218192   0.330   0.778   8.796 -0.8138  0.2370  0.6820
 2186SOL     OW18193   0.005   2.392  15.863 -0.0626 -0.4532  0.4884
 2186SOL    HW118194   0.091   2.433  15.855 -0.8009  1.4257  2.3367
 2186SOL    HW218195   0.018   2.332  15.936  0.3430  1.1635  1.7453
 2187SOL     OW18196   3.116   4.678   5.842  0.1992 -0.0626  0.1559
 2187SOL    HW118197   3.086   4.636   5.760 -0.2392 -2.4229  1.5267
 2187SOL    HW218198   3.087   0.032   5.831  0.6167  0.1711  1.0473
 2188SOL     OW18199   1.872   2.988  16.316  0.2716 -0.8342 -0.1629
 2188SOL    HW118200   1.854   2.928  16.388 -2.3069  0.2997  0.1153
 2188SOL    HW218201   1.876   2.931  16.239  0.5828 -0.3023 -0.5395
 2189SOL     OW18202   2.097   0.621  12.590  0.3370 -0.2123 -0.0899
 2189SOL    HW118203   2.102   0.713  12.616 -0.3382 -0.6520  1.6151
 2189SOL    HW218204   2.188   0.593  12.601 -0.3812 -1.8360  1.7543
 2190SOL     OW18205   4.460   4.049   8.291  0.0233 -0.7587 -0.0786
 2190SOL    HW118206   4.516   3.987   8.245 -1.6983 -1.5218 -1.1751
 2190SOL    HW218207   4.514   4.080   8.363  0.0735 -2.9898  0.8352
 2191SOL     OW18208   1.044   4.461   3.068 -0.1758 -0.1440 -0.4429
 2191SOL    HW118209   1.084   4.544   3.041 -0.4455 -0.8653 -3.0719
 2191SOL    HW218210   1.123   4.414   3.096 -0.3695  1.1059  2.2630
 2192SOL     OW18211   1.015   2.308   8.146  0.4234  0.2110  0.2278
 2192SOL    HW118212   1.087   2.371   8.137  1.7719 -1.6696 -2.2262
 2192SOL    HW218213   1.029   2.291   8.239  1.3704 -0.0757  0.0310
 2193SOL     OW18214   1.725   2.281   1.172 -0.5715  0.3331 -0.5123
 2193SOL    HW118215   1.783   2.250   1.241 -0.5855 -0.7401 -0.9868
 2193SOL    HW218216   1.668   2.335   1.228 -0.9020 -0.9756  0.4047
 2194SOL     OW18217   2.150   3.226   0.326  0.5862  0.7245  0.3913
 2194SOL    HW118218   2.237   3.248   0.358  0.6162  1.6511 -0.3393
 2194SOL    HW218219   2.167   3.154   0.265 -0.6385  1.7535 -1.1825
 2195SOL     OW18220   4.430   1.659   0.296 -0.2811 -0.1996 -0.0657
 2195SOL    HW118221   4.387   1.682   0.378  1.1836 -0.9973  0.9533
 2195SOL    HW218222   4.352   1.653   0.242  2.2488 -0.0995 -3.7556
 2196SOL     OW18223   3.778   0.808   2.631 -1.2824 -0.1980 -0.4446
 2196SOL    HW118224   3.759   0.733   2.688 -0.8588 -0.1369 -0.2317
 2196SOL    HW218225   3.745   0.885   2.677  2.2203  0.2690  1.2164
 2197SOL     OW18226   3.870   1.596   1.320 -0.2875 -0.2812  0.1290
 2197SOL    HW118227   3.893   1.567   1.232 -0.4556 -0.7957  0.2521
 2197SOL    HW218228   3.776   1.595   1.302 -0.0451 -1.1332 -1.1153
 2198SOL     OW18229   2.248   1.781   7.730 -0.3052 -0.7829  0.1623
 2198SOL    HW118230   2.209   1.748   7.811  0.9148 -1.6421  0.3825
 2198SOL    HW218231   2.334   1.808   7.761  0.5601 -1.5768 -1.5864
 2199SOL     OW18232   4.180   2.840   3.054  0.1719  0.0595  0.1824
 2199SOL    HW118233   4.120   2.767   3.068  1.6825 -1.1525  0.3641
 2199SOL    HW218234   4.245   2.792   3.003 -1.5087 -1.7636 -0.1960
 2200SOL     OW18235   1.085   1.067   2.518  0.1739  0.2675  0.4237
 2200SOL    HW118236   0.990   1.060   2.523  0.0515  1.4035 -0.3397
 2200SOL    HW218237   1.090   1.033   2.429  1.0255 -0.4920  0.7632
 2201SOL     OW18238   4.160   3.106   7.475 -0.5691 -0.4481  0.1450
 2201SOL    HW118239   4.169   3.130   7.383  1.6775 -0.6948  0.2992
 2201SOL    HW218240   4.164   3.192   7.516 -4.9796  0.4978 -1.4296
 2202SOL     OW18241   3.198   0.383   7.056  0.6291  0.4856 -0.0821
 2202SOL    HW118242   3.258   0.425   7.116  0.6780  1.9273 -1.1361
 2202SOL    HW218243   3.126   0.356   7.113  0.5571  0.0568 -0.3702
 2203SOL     OW18244   0.262   0.835   3.325 -0.3515  0.2693 -0.3016
 2203SOL    HW118245   0.345   0.879   3.342  0.6772 -0.0361 -4.7031
 2203SOL    HW218246   0.274   0.824   3.231 -0.4241 -0.1432 -0.2624
 2204SOL     OW18247   4.096   2.053   4.656 -0.0380  0.1376 -0.9791
 2204SOL    HW118248   4.018   2.049   4.601 -1.1624 -3.2571  0.9459
 2204SOL    HW218249   4.161   1.999   4.610  0.7897  0.6477 -0.4083
 2205SOL     OW18250   1.685   2.058  14.328 -0.3704  0.0822  0.1652
 2205SOL    HW118251   1.603   2.084  14.285 -0.7045  1.4042  1.5751
 2205SOL    HW218252   1.739   2.131  14.297 -0.9279 -0.0390 -1.1083
 2206SOL     OW18253   3.681   1.960   6.122 -0.5918  0.8154  0.2120
 2206SOL    HW118254   3.597   1.982   6.082 -1.1783 -2.6416 -0.4156
 2206SOL    HW218255   3.699   1.866   6.122  0.7158  1.0574  1.1538
 2207SOL     OW18256   0.039   4.714  10.001 -0.5085  0.2457 -0.8116
 2207SOL    HW118257   4.700   4.658   9.992 -1.3956  1.4539 -0.7204
 2207SOL    HW218258   0.109   4.655   9.973 -0.8505 -1.7878  2.5822
 2208SOL     OW18259   3.791   1.022   2.272 -0.2616  0.0559  0.3422
 2208SOL    HW118260   3.870   1.045   2.224 -2.2403  2.5100 -1.7066
 2208SOL    HW218261   3.800   0.927   2.274  0.5554  0.1106 -0.5379
 2209SOL     OW18262   0.282   2.046   1.801 -0.3028  0.4146  0.5095
 2209SOL    HW118263   0.377   2.042   1.811 -0.1762 -1.4100 -1.4958
 2209SOL    HW218264   0.263   1.953   1.805 -3.0856  0.9388 -0.3440
 2210SOL     OW18265   4.644   3.973   9.650 -0.2854  0.0828  0.7980
 2210SOL    HW118266   4.594   3.927   9.718  1.1973  0.7260  2.3183
 2210SOL    HW218267   4.578   3.979   9.581  2.7795  0.4791 -2.1207
 2211SOL     OW18268   3.466   3.146   3.710 -0.1619  0.1136 -0.1444
 2211SOL    HW118269   3.561   3.145   3.717 -0.2724 -2.4637  0.8975
 2211SOL    HW218270   3.461   3.103   3.624  0.6199 -0.0093 -0.1268
 2212SOL     OW18271   2.805   2.520   3.660  0.2604  0.2489 -0.2592
 2212SOL    HW118272   2.770   2.569   3.585  0.1448  0.2011 -0.2369
 2212SOL    HW218273   2.723   2.487   3.697  0.3351  1.1888  0.7525
 2213SOL     OW18274   2.816   3.802   2.511  0.1136 -0.0881 -0.0321
 2213SOL    HW118275   2.856   3.880   2.551  1.2490  0.5693 -2.4671
 2213SOL    HW218276   2.756   3.845   2.451 -1.4034 -0.3090  1.3344
 2214SOL     OW18277   0.521   4.009  10.327  0.2064 -0.0096  0.2915
 2214SOL    HW118278   0.479   4.004  10.413  0.2271 -1.2504  0.2258
 2214SOL    HW218279   0.503   4.098  10.297 -2.4686 -0.2229  1.2286
 2215SOL     OW18280   0.069   1.098   5.998  0.3263  0.0669 -0.0037
 2215SOL    HW118281   0.061   1.190   6.024 -1.7727 -0.2967  0.6238
 2215SOL    HW218282   0.157   1.077   6.029  0.6641  1.6069  0.0891
 2216SOL     OW18283   2.609   1.530   7.861  0.4470  0.2894 -0.0173
 2216SOL    HW118284   2.519   1.526   7.894  0.2781 -0.0165 -0.5007
 2216SOL    HW218285   2.631   1.437   7.870 -1.7677 -0.3416 -1.0167
 2217SOL     OW18286   3.444   0.011  13.569 -0.0250  0.0197  0.3112
 2217SOL    HW118287   3.356   4.718  13.590  0.9628 -2.2649  1.1576
 2217SOL    HW218288   3.435   0.036  13.477  0.5523 -1.7788 -0.2213
 2218SOL     OW18289   4.360   3.497   3.074  0.2260  0.1124  0.0114
 2218SOL    HW118290   4.349   3.589   3.099  0.9661  0.0637  0.5358
 2218SOL    HW218291   4.310   3.461   3.148 -1.9559  0.3351 -1.3447
 2219SOL     OW18292   1.527   4.734   5.104  0.4334 -0.1221 -0.1444
 2219SOL    HW118293   1.606   4.714   5.153  0.1059 -1.7568 -0.2887
 2219SOL    HW218294   1.465   4.676   5.149  2.1205  1.1684  3.8576
 2220SOL     OW18295   1.394   3.649   2.469 -0.0823 -0.2260  0.9997
 2220SOL    HW118296   1.413   3.563   2.433  0.9145 -0.8156  2.9312
 2220SOL    HW218297   1.381   3.695   2.386  0.8288  2.1937  2.1758
 2221SOL     OW18298   2.289   0.902   0.162 -0.0560  0.6249  0.0305
 2221SOL    HW118299   2.207   0.950   0.171 -0.0664  0.2817  1.6666
 2221SOL    HW218300   2.248   0.818   0.184  0.6586  0.2655  0.0141
 2222SOL     OW18301   2.456   0.723   8.496  0.0818  0.2109  0.4743
 2222SOL    HW118302   2.488   0.671   8.422 -0.3192  0.9254 -0.1976
 2222SOL    HW218303   2.531   0.718   8.557  1.1128  3.4695 -0.5577
 2223SOL     OW18304   3.970   3.011   5.170 -0.4622  0.2851  0.4132
 2223SOL    HW118305   3.958   3.044   5.259  2.5730  0.5017  0.7424
 2223SOL    HW218306   3.951   3.093   5.124 -0.5594  0.3535  0.5772
 2224SOL     OW18307   0.165   1.738   0.725 -0.1525 -0.3341 -0.1644
 2224SOL    HW118308   0.230   1.724   0.657 -0.8411 -0.6754 -0.7557
 2224SOL    HW218309   0.184   1.832   0.731  0.3284 -0.4010 -0.7070
 2225SOL     OW18310   3.508   1.043   2.141  0.5903 -0.2801  0.2777
 2225SOL    HW118311   3.582   1.005   2.189  1.4087  2.1623  0.9636
 2225SOL    HW218312   3.536   1.039   2.050  1.6644 -0.1511  0.5922
 2226SOL     OW18313   4.588   2.569   5.692 -0.2886  0.2166 -0.6043
 2226SOL    HW118314   4.614   2.598   5.779 -2.9348 -1.6597  0.8055
 2226SOL    HW218315   4.655   2.501   5.687 -1.3818 -0.7699 -1.8463
 2227SOL     OW18316   1.347   1.829   3.739 -0.1023 -0.3054  0.3696
 2227SOL    HW118317   1.344   1.750   3.794 -0.1799 -0.9205 -0.5116
 2227SOL    HW218318   1.268   1.804   3.690  0.0061 -1.6967  0.8965
 2228SOL     OW18319   3.003   3.227   7.003 -0.6918  0.5763 -0.2596
 2228SOL    HW118320   2.993   3.177   7.084  2.3245  1.0175  0.3807
 2228SOL    HW218321   3.066   3.294   7.029 -1.0215  0.9763 -0.4800
 2229SOL     OW18322   2.519   3.637   7.275  0.2198 -0.1579  0.2751
 2229SOL    HW118323   2.448   3.626   7.338  0.9442 -0.4598  1.0283
 2229SOL    HW218324   2.475   3.716   7.243  0.9436 -0.0599 -0.4751
 2230SOL     OW18325   1.766   4.210   5.013  0.0863  0.5033  0.2064
 2230SOL    HW118326   1.706   4.185   4.943  0.8141 -1.4882  0.2897
 2230SOL    HW218327   1.713   4.191   5.090  1.0603  3.1426  1.5228
 2231SOL     OW18328   1.299   0.883  12.312  0.2717 -0.2214  0.0421
 2231SOL    HW118329   1.221   0.929  12.344  0.5257  2.5453 -3.3516
 2231SOL    HW218330   1.273   0.791  12.315  1.6557 -0.6418 -1.0979
 2232SOL     OW18331   4.053   2.664   1.356  0.3344  0.2715 -0.7147
 2232SOL    HW118332   4.061   2.726   1.283  3.0209 -0.0064 -0.6245
 2232SOL    HW218333   3.999   2.718   1.415  0.3085 -0.0858 -0.4158
 2233SOL     OW18334   3.621   2.146   2.574 -0.2265 -0.9446  0.0536
 2233SOL    HW118335   3.677   2.070   2.562  1.3711  0.0437  1.3819
 2233SOL    HW218336   3.615   2.184   2.486 -0.9768  0.2902  0.6356
 2234SOL     OW18337   1.518   2.847   4.332 -0.1238  0.0582  0.3307
 2234SOL    HW118338   1.567   2.923   4.362  0.3888  0.1107 -0.6533
 2234SOL    HW218339   1.428   2.878   4.327 -0.1612 -0.5473 -2.2995
 2235SOL     OW18340   1.705   0.777   8.028  0.4077 -0.7973  0.2148
 2235SOL    HW118341   1.734   0.766   7.938 -2.5628 -2.8100 -0.4914
 2235SOL    HW218342   1.616   0.746   8.016  0.4176 -1.2639  1.3289
 2236SOL     OW18343   4.103   0.999  14.976  0.4935 -0.3417 -0.3499
 2236SOL    HW118344   4.024   1.054  14.970  1.2645  0.5712 -2.3595
 2236SOL    HW218345   4.161   1.069  15.006 -1.6780  1.6111 -0.6894
 2237SOL     OW18346   1.527   4.696   2.900 -0.3253 -0.4200  0.5162
 2237SOL    HW118347   1.617   4.724   2.881 -1.3508  2.4700 -0.1086
 2237SOL    HW218348   1.523   4.609   2.861 -0.9855 -0.9786  1.8266
 2238SOL     OW18349   3.064   1.256   7.502  0.0192  0.2595  0.2334
 2238SOL    HW118350   2.973   1.229   7.510  0.0627 -0.1276 -0.5095
 2238SOL    HW218351   3.072   1.292   7.413 -0.1184 -1.2607 -0.3982
 2239SOL     OW18352   1.592   2.930   2.613  0.2341 -0.0159  0.6969
 2239SOL    HW118353   1.524   2.866   2.588  0.5146  0.2549 -0.7704
 2239SOL    HW218354   1.638   2.937   2.529  1.4523 -1.2351  1.2531
 2240SOL     OW18355   0.671   4.261   1.723 -0.1814 -0.2411 -0.0367
 2240SOL    HW118356   0.755   4.248   1.767 -0.0305 -0.4406 -0.3761
 2240SOL    HW218357   0.634   4.172   1.720 -0.4457 -0.1469  0.4277
 2241SOL     OW18358   0.247   2.154  10.450 -0.0340 -0.0416 -0.3543
 2241SOL    HW118359   0.233   2.248  10.458 -2.0740 -0.4013  0.3760
 2241SOL    HW218360   0.339   2.143  10.425 -1.1238 -2.5428 -3.2874
 2242SOL     OW18361   0.294   0.034   2.730  0.3259  0.2905 -0.3464
 2242SOL    HW118362   0.347   4.700   2.694 -1.3775 -1.0934 -0.0937
 2242SOL    HW218363   0.253   0.070   2.652  0.1881 -1.2483 -0.9954
 2243SOL     OW18364   2.181   1.309   4.057 -0.3658 -0.0167  0.0710
 2243SOL    HW118365   2.099   1.264   4.033 -0.4122  0.4642 -0.6914
 2243SOL    HW218366   2.170   1.376   3.990 -2.4537 -1.9553 -1.5630
 2244SOL     OW18367   2.213   2.918   5.567  0.8184 -0.1703  0.1083
 2244SOL    HW118368   2.261   3.000   5.581  3.3992 -1.6341 -0.1225
 2244SOL    HW218369   2.277   2.852   5.592  0.9658  0.4988  1.4924
 2245SOL     OW18370   2.311   1.115   1.798 -0.5987 -0.2396  0.0126
 2245SOL    HW118371   2.290   1.031   1.757 -1.0938  0.0746 -0.3867
 2245SOL    HW218372   2.392   1.102   1.847  1.0977  1.0102 -2.4744
 2246SOL     OW18373   2.709   3.244   4.255  0.6436  0.0119  0.4765
 2246SOL    HW118374   2.694   3.187   4.179 -2.3414  2.4807 -0.8007
 2246SOL    HW218375   2.618   3.257   4.281  0.8301  0.2007  1.0244
 2247SOL     OW18376   2.129   3.578  13.163  0.0835 -0.1374 -0.4084
 2247SOL    HW118377   2.189   3.627  13.107 -0.0039 -2.0999 -2.1943
 2247SOL    HW218378   2.181   3.506  13.198  0.2209  0.3452  0.3886
 2248SOL     OW18379   1.824   3.059   4.763 -0.0447 -0.7073 -0.1947
 2248SOL    HW118380   1.823   2.990   4.829 -1.6815 -2.2358 -1.8200
 2248SOL    HW218381   1.900   3.109   4.792  0.7217 -0.7880 -2.0122
 2249SOL     OW18382   1.592   4.486   3.443 -0.2936  0.2170  0.2933
 2249SOL    HW118383   1.614   4.511   3.353 -3.6601  1.7086 -0.0936
 2249SOL    HW218384   1.600   4.576   3.474  0.2161  0.9734 -2.0961
 2250SOL     OW18385   2.324   3.813   5.790  0.0883  0.0765  0.3367
 2250SOL    HW118386   2.334   3.759   5.711  5.0672  3.3266 -1.2050
 2250SOL    HW218387   2.230   3.816   5.808  0.0877  1.5231  0.0889
 2251SOL     OW18388   0.895   1.000   0.042 -0.2896  0.7577 -0.3871
 2251SOL    HW118389   0.971   1.033  17.743 -0.0781  0.2461 -0.4054
 2251SOL    HW218390   0.933   0.953   0.116 -1.3831 -0.9979 -0.9292
 2252SOL     OW18391   2.603   3.398  10.566 -0.1024  0.4161  0.0002
 2252SOL    HW118392   2.592   3.492  10.552 -1.2242  0.2640 -0.0693
 2252SOL    HW218393   2.524   3.377  10.616 -0.8341 -0.4680 -1.5532
 2253SOL     OW18394   4.128   4.496   7.842 -0.0162  0.0130 -0.4346
 2253SOL    HW118395   4.115   4.421   7.784  2.8551 -0.4366 -0.4934
 2253SOL    HW218396   4.168   4.455   7.918  0.4848 -1.6577 -1.6026
 2254SOL     OW18397   2.214   0.245   8.456  0.4195  0.1913  0.6328
 2254SOL    HW118398   2.262   0.162   8.454 -2.5343 -1.4707 -1.5277
 2254SOL    HW218399   2.204   0.265   8.549  0.7608  0.5957  0.5823
 2255SOL     OW18400   1.471   1.375  16.875 -0.0430 -0.3013  0.5498
 2255SOL    HW118401   1.472   1.448  16.813  0.8432 -0.0428  0.8578
 2255SOL    HW218402   1.551   1.328  16.850 -0.4138 -0.2600 -0.7104
 2256SOL     OW18403   2.437   2.231   8.986  0.5707 -0.2687 -0.1371
 2256SOL    HW118404   2.404   2.250   9.074  1.5140  0.6899  0.0135
 2256SOL    HW218405   2.507   2.296   8.977 -0.6738  1.0344 -0.3089
 2257SOL     OW18406   3.973   4.182   9.122 -0.5911  0.1315  0.5063
 2257SOL    HW118407   3.895   4.152   9.169  0.9495 -3.5195  0.7309
 2257SOL    HW218408   3.948   4.269   9.090  0.7650 -0.2027 -1.4777
 2258SOL     OW18409   2.093   2.736  10.471 -0.3095  0.6341 -0.3572
 2258SOL    HW118410   2.170   2.751  10.526 -0.5455 -0.1636  0.1897
 2258SOL    HW218411   2.117   2.793  10.398  1.8200 -0.2566 -0.3442
 2259SOL     OW18412   0.730   1.737   9.304 -0.4547 -0.3430  0.3246
 2259SOL    HW118413   0.640   1.712   9.324  0.0864 -1.6193  1.1759
 2259SOL    HW218414   0.737   1.806   9.370 -0.5120  0.1804 -0.2128
 2260SOL     OW18415   2.432   0.720   1.944 -0.3076  0.6289  0.0088
 2260SOL    HW118416   2.376   0.772   1.887 -1.6755 -1.4052 -0.4801
 2260SOL    HW218417   2.435   0.761   2.030 -2.2003  0.6285  0.0749
 2261SOL     OW18418   3.277   3.917  10.527  0.5033 -0.0387 -0.0306
 2261SOL    HW118419   3.202   3.971  10.549  2.6106  2.1978  1.7119
 2261SOL    HW218420   3.341   3.951  10.589  1.4853 -0.8875 -0.5729
 2262SOL     OW18421   3.751   4.441  11.893 -0.4630  1.2331  0.0427
 2262SOL    HW118422   3.743   4.441  11.798 -2.6716  2.3277  0.2410
 2262SOL    HW218423   3.747   4.346  11.909 -0.1736  1.5020  1.7313
 2263SOL     OW18424   1.338   1.839  11.811  0.6300 -0.3635 -0.2010
 2263SOL    HW118425   1.394   1.772  11.852  0.9605 -0.3360 -0.6086
 2263SOL    HW218426   1.306   1.780  11.742  1.1484  0.5349 -1.2106
 2264SOL     OW18427   4.596   2.859   8.452  0.4978  0.2115  0.0938
 2264SOL    HW118428   4.654   2.789   8.482 -2.5697 -1.6431  1.6068
 2264SOL    HW218429   4.533   2.862   8.523  0.0410 -2.4260 -0.2069
 2265SOL     OW18430   3.543   0.922   7.136  0.2266 -0.3233  0.1955
 2265SOL    HW118431   3.511   0.903   7.224  0.4732 -1.9601 -0.0766
 2265SOL    HW218432   3.628   0.877   7.136  0.9006  0.9476  1.0231
 2266SOL     OW18433   2.228   4.615   7.980  0.1377 -0.3183  0.3967
 2266SOL    HW118434   2.137   4.610   7.951  0.6769 -2.0908 -1.0062
 2266SOL    HW218435   2.259   4.606   7.890 -0.3050 -0.4844  0.2632
 2267SOL     OW18436   4.084   4.427   3.848 -0.1673 -0.1716 -0.1432
 2267SOL    HW118437   4.076   4.522   3.840  3.3943 -0.0339 -1.7420
 2267SOL    HW218438   4.035   4.395   3.772  1.3308  1.0995 -1.6279
 2268SOL     OW18439   3.824   2.140   0.562 -0.3179  0.7881 -0.4088
 2268SOL    HW118440   3.732   2.159   0.548 -0.4921 -0.9723 -1.6458
 2268SOL    HW218441   3.814   2.074   0.631 -0.2888  1.6650  0.4312
 2269SOL     OW18442   2.682   0.890  17.530 -0.1372 -0.0756  0.9696
 2269SOL    HW118443   2.687   0.979  17.564  0.0256  0.1880  0.2491
 2269SOL    HW218444   2.774   0.865  17.531  0.3757  1.7072 -0.7110
 2270SOL     OW18445   0.198   4.366  12.973  0.8916 -0.4128 -0.6582
 2270SOL    HW118446   0.211   4.448  12.927 -1.2715 -0.4445 -1.3078
 2270SOL    HW218447   0.288   4.339  12.993  0.0319 -2.4309  0.5590
 2271SOL     OW18448   0.378   0.893   9.089 -0.1671 -0.4669 -0.5058
 2271SOL    HW118449   0.467   0.891   9.124 -0.1950 -0.9663 -0.4651
 2271SOL    HW218450   0.352   0.985   9.090 -1.0355 -0.7354  1.2737
 2272SOL     OW18451   1.212   4.520   2.186 -0.2208 -0.2982 -0.2120
 2272SOL    HW118452   1.211   4.553   2.276 -0.1727  2.9473 -1.3950
 2272SOL    HW218453   1.302   4.534   2.157 -0.3403  0.4382 -0.2337
 2273SOL     OW18454   1.758   4.605   5.752 -0.1195  0.1297  0.6461
 2273SOL    HW118455   1.724   4.679   5.803 -0.7904  1.1986 -1.3433
 2273SOL    HW218456   1.692   4.602   5.683 -2.6254 -0.3748  3.0520
 2274SOL     OW18457   0.033   0.701   1.547 -0.2285  0.2181  0.5828
 2274SOL    HW118458   4.678   0.716   1.527 -0.2705 -2.3507 -1.2588
 2274SOL    HW218459   0.049   0.760   1.620 -0.7819  0.9105  0.1409
 2275SOL     OW18460   1.369   3.934   4.604  0.0012  0.2704 -0.0335
 2275SOL    HW118461   1.453   3.932   4.649  0.1423 -1.9141 -0.3949
 2275SOL    HW218462   1.397   3.913   4.515 -0.9175 -0.6416 -0.1122
 2276SOL     OW18463   0.043   4.001   6.563 -0.1923 -0.4570  0.3978
 2276SOL    HW118464   4.688   4.014   6.585 -0.2985 -0.3548 -0.1088
 2276SOL    HW218465   0.067   4.080   6.515  1.6047 -0.0121  2.0264
 2277SOL     OW18466   0.588   4.722   6.241 -0.7967  0.1358 -0.3085
 2277SOL    HW118467   0.541   0.016   6.164  1.0758  1.7879 -0.7745
 2277SOL    HW218468   0.529   0.019   6.308 -0.6852  1.7918 -1.0550
 2278SOL     OW18469   4.163   4.172   3.870 -0.1456 -0.0369  0.1435
 2278SOL    HW118470   4.116   4.250   3.841 -0.5109 -0.1655  0.3852
 2278SOL    HW218471   4.101   4.107   3.838  0.5515 -0.2537 -0.7770
 2279SOL     OW18472   0.745   0.458   5.586 -0.0908  0.3304 -0.1476
 2279SOL    HW118473   0.782   0.444   5.674  0.7845 -0.0181 -0.5670
 2279SOL    HW218474   0.670   0.399   5.584 -0.5273  0.8372  1.1089
 2280SOL     OW18475   4.500   2.263   8.538 -0.3436 -0.3792 -0.3883
 2280SOL    HW118476   4.575   2.295   8.588  0.2300  1.4087 -2.3701
 2280SOL    HW218477   4.499   2.309   8.454 -1.2067  0.7648  0.2475
 2281SOL     OW18478   0.519   3.154   4.027  0.1030  0.2348  0.4413
 2281SOL    HW118479   0.557   3.234   3.991  1.8201 -1.1998 -0.9460
 2281SOL    HW218480   0.437   3.193   4.058  0.5441  0.6781  1.0290
 2282SOL     OW18481   0.315   1.048   2.054  0.4784  0.3168  0.3477
 2282SOL    HW118482   0.234   0.998   2.050  1.1897 -0.6889 -1.2198
 2282SOL    HW218483   0.295   1.117   2.118 -0.6034 -0.1217  0.4703
 2283SOL     OW18484   3.066   3.592   4.208 -0.0728  0.5656  0.1149
 2283SOL    HW118485   2.983   3.552   4.232  0.9241 -0.1228  2.3236
 2283SOL    HW218486   3.128   3.519   4.203  0.4930  1.0078  0.6592
 2284SOL     OW18487   3.986   3.960   4.067 -0.2485  0.2676  0.6506
 2284SOL    HW118488   4.002   3.959   3.972 -1.1890  0.7310  0.4894
 2284SOL    HW218489   4.014   3.872   4.091 -0.6722  0.3221  1.3179
 2285SOL     OW18490   1.995   2.863   9.165  0.6703  0.1560  0.4599
 2285SOL    HW118491   2.036   2.939   9.125 -0.4619  0.1354 -0.7157
 2285SOL    HW218492   1.913   2.867   9.116  0.7514  0.9075  0.3919
 2286SOL     OW18493   0.702   2.469   3.368 -0.5410  0.3635 -0.3401
 2286SOL    HW118494   0.690   2.461   3.273  0.5856  1.3414 -0.5645
 2286SOL    HW218495   0.622   2.437   3.408  1.1957 -2.8381  0.6496
 2287SOL     OW18496   4.454   2.886   5.594  0.3264  0.1921  0.2837
 2287SOL    HW118497   4.416   2.805   5.561 -2.1354  0.7528  1.7262
 2287SOL    HW218498   4.472   2.880   5.687 -0.1039  2.4894  0.5224
 2288SOL     OW18499   2.733   3.916   5.488  0.6859 -0.6524 -0.6963
 2288SOL    HW118500   2.744   3.926   5.393 -1.1702  0.7569 -0.7740
 2288SOL    HW218501   2.658   3.975   5.499  0.3911 -1.1657  0.0195
 2289SOL     OW18502   1.806   4.131  17.473  0.1567  0.1417  0.3982
 2289SOL    HW118503   1.780   4.143  17.382  1.7463  0.2140 -0.0428
 2289SOL    HW218504   1.762   4.211  17.502 -0.2395 -0.6568  1.9806
 2290SOL     OW18505   2.291   3.502   1.905  0.1925  0.0294  0.0114
 2290SOL    HW118506   2.230   3.467   1.969  0.7594  0.5673  0.8441
 2290SOL    HW218507   2.229   3.546   1.847  1.4775  0.0754 -1.3286
 2291SOL     OW18508   3.378   1.204   5.338 -0.5519 -0.8076  0.2298
 2291SOL    HW118509   3.387   1.109   5.329  0.0219 -0.6909 -0.4815
 2291SOL    HW218510   3.297   1.200   5.388 -1.2557 -2.2222 -1.0161
 2292SOL     OW18511   1.425   2.046   7.133  0.2309 -0.0822  0.9189
 2292SOL    HW118512   1.425   2.027   7.227  0.5198 -2.6730  0.3934
 2292SOL    HW218513   1.467   1.967   7.099  0.1261  0.7241 -1.0708
 2293SOL     OW18514   0.910   0.834   4.712  0.3461 -0.0047  0.1089
 2293SOL    HW118515   0.843   0.780   4.753  2.1503 -1.1940  1.4837
 2293SOL    HW218516   0.922   0.809   4.621  2.3323  0.2551  0.2916
 2294SOL     OW18517   4.189   4.419  10.969 -0.0153 -0.4042 -0.8926
 2294SOL    HW118518   4.107   4.374  10.988 -1.1766  1.5200 -1.3434
 2294SOL    HW218519   4.186   4.491  11.033  2.1320  0.3755 -1.6446
 2295SOL     OW18520   0.488   0.187  16.992 -0.5232 -0.0860  0.3493
 2295SOL    HW118521   0.562   0.132  16.967 -0.6119  0.1294 -0.4104
 2295SOL    HW218522   0.528   0.232  17.067 -0.4893 -0.8605  0.7922
 2296SOL     OW18523   3.966   0.863  10.231 -0.0633  0.3025  0.3905
 2296SOL    HW118524   4.036   0.800  10.212 -0.6297 -0.2158  0.0307
 2296SOL    HW218525   3.889   0.816  10.199  1.1097 -0.6308 -1.1070
 2297SOL     OW18526   4.470   4.297   6.254 -0.6334 -0.0158 -0.3784
 2297SOL    HW118527   4.423   4.309   6.336 -0.9845 -0.9360 -0.4441
 2297SOL    HW218528   4.444   4.377   6.209  0.3581  1.2026  1.2199
 2298SOL     OW18529   3.863   4.206   6.505 -0.4428 -0.3600 -0.1396
 2298SOL    HW118530   3.775   4.180   6.531 -1.0968  1.2352 -0.7422
 2298SOL    HW218531   3.861   4.198   6.410 -1.7021  1.1302 -0.2529
 2299SOL     OW18532   4.221   1.418   3.011  0.3274  0.1966 -0.2686
 2299SOL    HW118533   4.266   1.477   2.949 -2.6918  1.1631 -1.5451
 2299SOL    HW218534   4.271   1.435   3.091 -0.6529  0.5362  0.2690
 2300SOL     OW18535   4.140   0.288   6.928 -0.1873 -0.1064  0.2147
 2300SOL    HW118536   4.182   0.336   6.857  1.5782  1.5015  2.3393
 2300SOL    HW218537   4.208   0.229   6.962  0.4912  0.2858 -0.4813
 2301SOL     OW18538   0.398   0.612   7.096 -0.8434 -0.2222  0.2281
 2301SOL    HW118539   0.342   0.537   7.114  1.2264 -1.6430  0.6281
 2301SOL    HW218540   0.483   0.572   7.081  0.5722  2.3015  1.5087
 2302SOL     OW18541   3.628   4.661   5.398 -0.2238 -0.3789  0.4962
 2302SOL    HW118542   3.598   4.671   5.489 -2.9192 -0.2654 -0.3923
 2302SOL    HW218543   3.683   0.001   5.407 -1.0112  0.4207 -1.6111
 2303SOL     OW18544   2.493   4.642   5.447  0.1892 -0.7439 -0.2830
 2303SOL    HW118545   2.405   4.627   5.482 -0.8754 -0.3707 -2.8036
 2303SOL    HW218546   2.554   4.609   5.513 -0.5134  0.2667  0.8589
 2304SOL     OW18547   2.885   2.559  16.310 -0.0862 -0.7941  0.2661
 2304SOL    HW118548   2.851   2.478  16.349  1.1871 -2.2909 -1.7615
 2304SOL    HW218549   2.967   2.569  16.357  0.6822  0.3961 -1.3013
 2305SOL     OW18550   4.489   1.932   1.492 -0.1060 -0.1559  0.5939
 2305SOL    HW118551   4.419   1.977   1.445  0.3265  0.6221  0.6874
 2305SOL    HW218552   4.537   2.007   1.527  0.4804 -0.1462 -0.2395
 2306SOL     OW18553   0.011   2.597   6.389 -0.2392  0.4515 -0.0409
 2306SOL    HW118554   0.064   2.526   6.352 -2.9325 -1.3252 -0.4790
 2306SOL    HW218555   0.073   2.668   6.403  0.9333 -1.2757  3.6761
 2307SOL     OW18556   1.712   1.698   3.109 -0.6365 -0.6169  0.1255
 2307SOL    HW118557   1.749   1.624   3.159 -0.2272 -1.5203 -1.5201
 2307SOL    HW218558   1.626   1.661   3.089 -0.3524 -0.2276 -1.7369
 2308SOL     OW18559   2.199   2.153   3.151 -0.0858 -0.0914 -0.2866
 2308SOL    HW118560   2.213   2.192   3.237  0.5145  0.1044 -0.4673
 2308SOL    HW218561   2.116   2.195   3.129  0.4453  0.0747 -1.9634
 2309SOL     OW18562   3.623   2.216   2.816  0.4468 -0.3337  0.3143
 2309SOL    HW118563   3.627   2.191   2.724 -1.2207  1.9287 -0.3634
 2309SOL    HW218564   3.708   2.189   2.851  0.3269 -0.1270  0.7655
 2310SOL     OW18565   3.878   1.679  17.502  0.2315  0.0109  0.3505
 2310SOL    HW118566   3.792   1.706  17.535 -0.1159  0.6283 -1.0784
 2310SOL    HW218567   3.902   1.605  17.559 -0.9883 -0.7936 -0.1795
 2311SOL     OW18568   2.018   1.605   5.446 -0.6334 -0.5724 -0.3740
 2311SOL    HW118569   1.923   1.603   5.462 -0.5750 -0.8759 -0.0655
 2311SOL    HW218570   2.015   1.655   5.364  0.6804  0.0189 -0.0566
 2312SOL     OW18571   0.747   0.162   0.971  0.2700 -0.2727  0.0275
 2312SOL    HW118572   0.659   0.125   0.980  0.7204 -1.0551  1.3125
 2312SOL    HW218573   0.780   0.141   1.059  1.6501 -2.2786 -0.9729
 2313SOL     OW18574   1.403   2.348  10.859 -0.4229  0.3285 -0.2046
 2313SOL    HW118575   1.387   2.399  10.780 -1.0060  0.0113 -0.2921
 2313SOL    HW218576   1.496   2.350  10.878 -0.6600  0.9205  0.8672
 2314SOL     OW18577   2.321   3.026   1.966  0.4861 -0.4864  0.3962
 2314SOL    HW118578   2.398   2.970   1.975  1.2984  0.4777 -0.4740
 2314SOL    HW218579   2.249   2.963   1.972  0.6190 -0.6145  0.6491
 2315SOL     OW18580   4.536   2.604   0.507 -0.0385  0.1523 -0.4411
 2315SOL    HW118581   4.481   2.682   0.498  0.5568  0.4564 -1.5829
 2315SOL    HW218582   4.612   2.645   0.550 -0.6455  0.3401  0.4500
 2316SOL     OW18583   2.307   0.020   6.526  0.0493 -0.0194  0.4622
 2316SOL    HW118584   2.290   0.093   6.585 -0.5369 -1.3641  1.9688
 2316SOL    HW218585   2.343   4.693   6.588  0.0692 -1.1735 -0.7427
 2317SOL     OW18586   4.623   2.937   6.861  0.5075  0.2792 -0.3636
 2317SOL    HW118587   4.661   2.959   6.947 -0.2104  0.9234 -0.2078
 2317SOL    HW218588   4.566   3.014   6.857  0.5274  0.4341  2.1378
 2318SOL     OW18589   4.040   2.487   0.557 -0.1653  0.7412  0.6412
 2318SOL    HW118590   4.018   2.560   0.614 -0.8033  0.3646  0.8740
 2318SOL    HW218591   3.981   2.503   0.484  1.6204  0.0562 -0.9887
 2319SOL     OW18592   2.394   1.211  13.156 -0.7539 -0.1154 -0.3741
 2319SOL    HW118593   2.472   1.201  13.210 -1.5021 -1.1866  0.5031
 2319SOL    HW218594   2.336   1.253  13.219  1.2140  1.1190  0.6169
 2320SOL     OW18595   0.548   2.523   4.108 -0.6681  0.5257 -0.0959
 2320SOL    HW118596   0.596   2.579   4.047 -2.1800  2.3988  0.4425
 2320SOL    HW218597   0.528   2.450   4.050 -1.8318  0.4983  0.3208
 2321SOL     OW18598   1.155   1.584   2.574  0.6461 -0.1708  0.4194
 2321SOL    HW118599   1.202   1.501   2.559  0.1340 -0.0695 -1.6359
 2321SOL    HW218600   1.086   1.570   2.509 -0.4963  1.6052  1.2723
 2322SOL     OW18601   3.996   1.648  12.755  0.0841 -0.1174  0.2433
 2322SOL    HW118602   4.057   1.580  12.784 -1.7286 -0.5218  3.0302
 2322SOL    HW218603   3.907   1.617  12.768  0.6163 -0.9727  1.8565
 2323SOL     OW18604   0.493   2.233  15.546 -0.2407  0.5653 -0.6216
 2323SOL    HW118605   0.528   2.167  15.606 -0.2441 -0.1860 -1.4501
 2323SOL    HW218606   0.479   2.310  15.601 -0.4047 -0.7151  1.1225
 2324SOL     OW18607   2.906   4.535   2.261 -0.8038  0.2457  0.2545
 2324SOL    HW118608   2.952   4.570   2.338  1.3844 -1.6727 -0.1751
 2324SOL    HW218609   2.940   4.581   2.184  0.3341 -0.3639  0.3952
 2325SOL     OW18610   4.178   0.878   8.442  0.0719  0.1644 -0.9430
 2325SOL    HW118611   4.195   0.793   8.482 -0.6426  0.4529 -0.0355
 2325SOL    HW218612   4.110   0.919   8.496  0.3450  0.9434 -1.1847
 2326SOL     OW18613   1.439   0.352   4.818 -0.8566  0.1097 -0.1874
 2326SOL    HW118614   1.463   0.269   4.777  0.8992 -0.1358  1.2844
 2326SOL    HW218615   1.524   0.372   4.858  0.2673 -0.1464 -2.4584
 2327SOL     OW18616   1.811   4.610   1.931 -0.2131  0.8094  0.1315
 2327SOL    HW118617   1.890   4.576   1.888 -0.2373  3.0183 -1.6808
 2327SOL    HW218618   1.747   4.548   1.897  0.9188 -1.3138  1.8787
 2328SOL     OW18619   2.070   0.068   5.326 -0.4885  0.1852  0.2908
 2328SOL    HW118620   2.088   0.046   5.418  1.0414  0.8364  0.1492
 2328SOL    HW218621   1.989   0.112   5.352 -1.0293 -0.5392 -0.2191
 2329SOL     OW18622   2.617   2.173   5.357  0.1790 -0.0915 -0.3263
 2329SOL    HW118623   2.626   2.083   5.327 -0.1075  0.3653 -1.8274
 2329SOL    HW218624   2.709   2.187   5.378  0.0294  0.5205 -0.0879
 2330SOL     OW18625   2.699   3.738   6.525 -0.6337  0.2801 -0.1359
 2330SOL    HW118626   2.687   3.645   6.510  1.4279  0.0310 -0.2310
 2330SOL    HW218627   2.769   3.742   6.460  0.9369 -1.4367  1.4603
 2331SOL     OW18628   2.824   2.905   5.406 -0.0516 -0.1513  0.1841
 2331SOL    HW118629   2.747   2.947   5.444  0.0910  0.7046 -0.4797
 2331SOL    HW218630   2.816   2.927   5.313  1.5504  2.4905  0.6707
 2332SOL     OW18631   4.079   3.355   2.237  0.3332  0.2850  0.4093
 2332SOL    HW118632   4.078   3.288   2.169 -1.3313  0.6847  0.0484
 2332SOL    HW218633   3.985   3.372   2.242  0.0971 -0.6422 -0.9205
 2333SOL     OW18634   3.714   3.331  12.367 -0.0839  0.2656 -0.6326
 2333SOL    HW118635   3.774   3.363  12.300  1.0930 -0.5671  0.0247
 2333SOL    HW218636   3.699   3.416  12.410 -0.2809 -0.3771  0.5665
 2334SOL     OW18637   2.617   0.349  15.163 -0.7485 -0.6137 -0.2177
 2334SOL    HW118638   2.673   0.328  15.238  0.2889  1.6816 -0.3624
 2334SOL    HW218639   2.678   0.336  15.090 -2.0399 -1.3157 -1.1676
 2335SOL     OW18640   1.811   3.615  15.543 -0.8977  0.1936 -0.6212
 2335SOL    HW118641   1.723   3.610  15.582  0.5694  0.7953  2.7510
 2335SOL    HW218642   1.799   3.698  15.496 -2.7751 -0.0460 -0.5767
 2336SOL     OW18643   4.164   4.357  10.679  0.0059 -0.2337  0.0023
 2336SOL    HW118644   4.198   4.394  10.761  2.7819  0.1756 -1.3306
 2336SOL    HW218645   4.214   4.276  10.684 -0.3392 -0.4789 -0.5105
 2337SOL     OW18646   4.311   3.365   1.044  0.6796  0.0205 -0.2969
 2337SOL    HW118647   4.370   3.414   0.988 -0.9738  0.8356 -1.3438
 2337SOL    HW218648   4.287   3.287   0.993  0.1197  0.9236 -1.4092
 2338SOL     OW18649   2.113   0.570  10.462 -0.8734  0.2726  0.1560
 2338SOL    HW118650   2.021   0.598  10.457 -0.9626 -0.0158  0.2319
 2338SOL    HW218651   2.110   0.475  10.468 -1.1270  0.2618 -0.1623
 2339SOL     OW18652   0.356   0.690   5.357 -0.1092 -0.5930 -0.2586
 2339SOL    HW118653   0.372   0.759   5.291  1.2727 -0.5765  0.1130
 2339SOL    HW218654   0.387   0.728   5.439 -2.0943 -1.2398  0.7999
 2340SOL     OW18655   0.715   2.084   7.093  0.6616  0.2345  0.0337
 2340SOL    HW118656   0.778   2.020   7.059  0.0568 -1.0645  1.3780
 2340SOL    HW218657   0.695   2.139   7.018  1.4103 -1.0387 -1.1103
 2341SOL     OW18658   3.952   2.122   1.469 -0.1408 -0.2277  0.1320
 2341SOL    HW118659   3.935   2.075   1.550 -0.7460  0.5609  0.4490
 2341SOL    HW218660   3.948   2.214   1.491 -0.8645 -0.4964  1.0934
 2342SOL     OW18661   3.820   2.153   5.941 -0.0830 -0.0893  0.2665
 2342SOL    HW118662   3.764   2.100   5.998  0.2717 -1.6982 -0.8829
 2342SOL    HW218663   3.755   2.180   5.876 -0.1982 -1.2238 -0.0821
 2343SOL     OW18664   4.551   2.634   4.010  0.1605 -0.2538 -0.4798
 2343SOL    HW118665   4.542   2.688   3.931 -0.9722 -2.0357 -1.5694
 2343SOL    HW218666   4.621   2.688   4.046  0.2195  0.0022 -0.9666
 2344SOL     OW18667   1.572   0.895   4.966  0.5891 -0.3388 -0.3028
 2344SOL    HW118668   1.570   0.956   5.039 -2.8562 -0.9571  0.1535
 2344SOL    HW218669   1.641   0.933   4.912 -0.5196 -2.8084 -3.4505
 2345SOL     OW18670   2.993   2.233  16.238  0.1550  0.7382 -0.2289
 2345SOL    HW118671   3.079   2.192  16.242 -0.5928 -0.9706 -1.4473
 2345SOL    HW218672   2.970   2.206  16.149  2.8023  2.7580 -1.5256
 2346SOL     OW18673   3.105   2.957   8.966  0.1432  0.0194  0.3792
 2346SOL    HW118674   3.086   2.900   9.041 -0.7261 -0.6822 -0.3689
 2346SOL    HW218675   3.061   3.036   8.997  1.2629 -0.0034  1.9956
 2347SOL     OW18676   3.220   1.575  16.186  0.7262 -0.0103 -0.3118
 2347SOL    HW118677   3.180   1.573  16.100  1.4859 -4.0832 -0.5842
 2347SOL    HW218678   3.157   1.528  16.240  1.5366  0.3999  0.9960
 2348SOL     OW18679   0.740   2.957   7.639  0.2772  0.4538 -0.2222
 2348SOL    HW118680   0.816   2.900   7.625 -0.3774 -1.1868  2.8958
 2348SOL    HW218681   0.787   3.040   7.644  3.3137 -1.4209  2.7019
 2349SOL     OW18682   2.870   0.133   2.761 -0.2816 -0.0593  0.1426
 2349SOL    HW118683   2.898   0.122   2.670  1.6983  1.3585  0.5828
 2349SOL    HW218684   2.878   0.228   2.773  2.2291 -0.1869 -0.6215
 2350SOL     OW18685   0.297   1.740   8.680 -0.1944  0.2990 -0.7639
 2350SOL    HW118686   0.220   1.798   8.678  0.7270  1.4583 -2.3127
 2350SOL    HW218687   0.274   1.678   8.611  1.4681  0.3129 -1.3233
 2351SOL     OW18688   4.117   0.400  15.505 -0.3937 -0.0630 -0.4344
 2351SOL    HW118689   4.078   0.465  15.447 -2.7849 -2.7143 -1.7722
 2351SOL    HW218690   4.084   0.420  15.593  2.3308 -2.2118  1.0911
 2352SOL     OW18691   3.505   2.773  11.726 -0.6317 -0.5960  0.7292
 2352SOL    HW118692   3.474   2.712  11.793 -1.5324 -0.0738  0.7786
 2352SOL    HW218693   3.426   2.806  11.683  1.3261  1.1520 -1.5676
 2353SOL     OW18694   2.590   4.563   5.669 -0.2578 -0.0352 -0.3078
 2353SOL    HW118695   2.544   4.519   5.740  2.5044 -1.0232  0.9079
 2353SOL    HW218696   2.634   4.636   5.711  1.3922 -1.1397 -0.0996
 2354SOL     OW18697   0.702   1.780   6.166  0.5971  0.3534 -0.0418
 2354SOL    HW118698   0.777   1.751   6.218  1.5952 -0.9434 -2.1935
 2354SOL    HW218699   0.639   1.717   6.201  0.0035  0.7298 -0.4284
 2355SOL     OW18700   2.061   1.683   1.826 -0.4702 -0.2630 -0.2181
 2355SOL    HW118701   2.102   1.676   1.740 -0.8403 -2.8177 -0.1968
 2355SOL    HW218702   2.136   1.697   1.884 -0.4726  1.0483 -0.5179
 2356SOL     OW18703   4.233   2.127  15.767  0.0765 -0.0422 -1.1863
 2356SOL    HW118704   4.179   2.089  15.837  1.4814  0.9962  0.4479
 2356SOL    HW218705   4.314   2.078  15.785 -0.5425  0.3778  2.6097
 2357SOL     OW18706   1.002   0.120   0.384  0.7081 -0.1434 -0.2595
 2357SOL    HW118707   1.075   0.069   0.418  3.1948  2.3319 -1.8682
 2357SOL    HW218708   1.013   0.132   0.290 -0.3969  2.0061 -0.1309
 2358SOL     OW18709   0.236   4.485   3.406  0.0651 -0.1949  0.1480
 2358SOL    HW118710   0.177   4.554   3.435 -1.4024 -1.0812 -0.7363
 2358SOL    HW218711   0.310   4.540   3.380  1.0411 -1.7308 -0.3758
 2359SOL     OW18712   3.155   2.810   7.632  0.5617 -0.1686  0.0965
 2359SOL    HW118713   3.235   2.844   7.670 -0.1236  2.2968 -0.6045
 2359SOL    HW218714   3.095   2.817   7.707  0.6314  3.2828 -0.1822
 2360SOL     OW18715   0.823   3.730   3.586 -0.6089 -0.1874  0.7085
 2360SOL    HW118716   0.840   3.636   3.584 -1.2487 -0.2561 -0.9690
 2360SOL    HW218717   0.770   3.734   3.507 -2.7266 -1.4100  2.0737
 2361SOL     OW18718   3.607   1.304  17.042  0.3459 -0.2562  0.1541
 2361SOL    HW118719   3.619   1.290  17.136  0.5025 -0.2015  0.1431
 2361SOL    HW218720   3.693   1.270  17.019  0.6716  2.1519 -2.2634
 2362SOL     OW18721   4.525   1.406   8.539  0.3525  0.1715  0.2063
 2362SOL    HW118722   4.473   1.383   8.462  2.6951  1.5118 -1.7740
 2362SOL    HW218723   4.611   1.425   8.500 -0.5560  0.9224 -1.4528
 2363SOL     OW18724   0.671   4.422   2.678  0.9506 -0.0541 -0.8833
 2363SOL    HW118725   0.615   4.491   2.712  0.9862  0.0327 -1.0028
 2363SOL    HW218726   0.741   4.420   2.743 -1.5978 -2.2493  1.8427
 2364SOL     OW18727   2.862   0.406   4.576  0.1934  0.0841 -0.8537
 2364SOL    HW118728   2.780   0.355   4.580 -0.2346  0.6734 -2.0360
 2364SOL    HW218729   2.889   0.397   4.485  0.1446 -1.3120 -0.7377
 2365SOL     OW18730   0.594   1.464   4.090 -0.0696  0.0729  0.7401
 2365SOL    HW118731   0.506   1.429   4.099 -0.5217  1.2951  1.1499
 2365SOL    HW218732   0.571   1.555   4.071 -0.6051  0.2113  2.0844
 2366SOL     OW18733   0.116   3.681  11.287  0.8653 -0.4514  0.3267
 2366SOL    HW118734   0.186   3.626  11.322  0.3066 -1.8845 -0.7697
 2366SOL    HW218735   0.134   3.756  11.343 -1.3862  0.9426 -0.8190
 2367SOL     OW18736   0.372   2.749   6.082  0.3346  0.0232  0.1298
 2367SOL    HW118737   0.401   2.760   6.173 -0.4780 -1.7037  0.5979
 2367SOL    HW218738   0.429   2.809   6.035 -0.7652  0.2938 -0.8671
 2368SOL     OW18739   1.516   2.454  10.242 -0.1015 -0.2607 -0.0916
 2368SOL    HW118740   1.607   2.425  10.248 -0.1417 -0.3265  0.2100
 2368SOL    HW218741   1.506   2.514  10.316  1.3804 -1.4085  1.0343
 2369SOL     OW18742   3.172   1.268   8.251 -0.4932  0.0044  0.3435
 2369SOL    HW118743   3.088   1.303   8.280 -0.2584 -0.2961  1.3941
 2369SOL    HW218744   3.204   1.342   8.200  1.1123  0.0839  1.4502
 2370SOL     OW18745   0.227   4.693   9.637  0.1815 -0.0305 -0.9021
 2370SOL    HW118746   0.221   0.043   9.600 -1.5721  0.5253  0.7383
 2370SOL    HW218747   0.292   4.719   9.703 -1.2384 -1.7920  1.1997
 2371SOL     OW18748   0.796   2.611   9.409 -0.1144 -0.1139  0.2856
 2371SOL    HW118749   0.753   2.694   9.429 -0.3304  0.0810 -1.0078
 2371SOL    HW218750   0.780   2.614   9.315 -1.3581  2.2086  0.5595
 2372SOL     OW18751   0.205   1.396   8.608  0.1320 -0.3374 -0.1455
 2372SOL    HW118752   0.123   1.403   8.558 -0.5194 -0.4554  0.9047
 2372SOL    HW218753   0.278   1.404   8.548 -0.3697  0.5522 -0.6381
 2373SOL     OW18754   0.341   0.322   4.822 -0.1814 -0.0004 -0.0965
 2373SOL    HW118755   0.335   0.302   4.916  0.3864 -1.9277 -0.4766
 2373SOL    HW218756   0.350   0.234   4.785  1.0889 -0.5892  1.5701
 2374SOL     OW18757   4.389   0.137   7.015  0.1422  0.3076  0.0018
 2374SOL    HW118758   4.411   0.058   6.966  0.7514 -1.3164  2.8524
 2374SOL    HW218759   4.421   0.117   7.103  2.5070  0.1897 -0.8934
 2375SOL     OW18760   2.541   4.652   3.623 -0.2554 -0.0104  0.3222
 2375SOL    HW118761   2.623   4.650   3.573 -1.2023  1.8593 -1.2863
 2375SOL    HW218762   2.511   4.561   3.623 -2.1718  0.6255 -0.8995
 2376SOL     OW18763   3.185   3.257   7.556  0.2199  0.2070  0.2756
 2376SOL    HW118764   3.188   3.349   7.584  0.8486  0.3002 -0.0975
 2376SOL    HW218765   3.240   3.230   7.630  1.3868  1.1181 -0.2492
 2377SOL     OW18766   2.309   2.130  15.558 -0.0727 -0.0157  0.3910
 2377SOL    HW118767   2.333   2.173  15.640  1.1831  1.0060 -0.5189
 2377SOL    HW218768   2.347   2.045  15.578  0.3912 -0.1835 -1.2028
 2378SOL     OW18769   0.623   4.438   7.093 -0.4289  0.0659  0.4542
 2378SOL    HW118770   0.683   4.486   7.151  0.0580 -0.0192  0.0240
 2378SOL    HW218771   0.532   4.451   7.121 -1.1135 -0.1876 -1.6892
 2379SOL     OW18772   2.805   4.687   4.453  0.2667  0.1607  0.0690
 2379SOL    HW118773   2.892   4.707   4.418 -0.0826 -1.0520 -1.5220
 2379SOL    HW218774   2.758   4.643   4.382  0.8991 -1.7000  0.8197
 2380SOL     OW18775   0.064   0.624   2.961 -0.2708  0.3946  0.4167
 2380SOL    HW118776   0.018   0.695   3.005  0.9174  2.5105 -1.7562
 2380SOL    HW218777   0.132   0.673   2.915 -0.2234 -1.6052 -1.6290
 2381SOL     OW18778   1.882   2.831  14.036  0.2704 -0.0689  0.2870
 2381SOL    HW118779   1.809   2.862  13.983 -0.7136 -2.7036  0.1220
 2381SOL    HW218780   1.830   2.817  14.115  0.2269 -2.4915 -0.1694
 2382SOL     OW18781   0.215   3.891   5.347  0.3634 -0.3237  0.2363
 2382SOL    HW118782   0.159   3.901   5.270  0.0253  1.0008  0.6459
 2382SOL    HW218783   0.234   3.982   5.368 -0.0720  0.1976 -1.6600
 2383SOL     OW18784   1.197   1.463   4.029 -0.4764 -0.5007 -0.1354
 2383SOL    HW118785   1.250   1.477   3.951 -0.8287 -1.5873 -0.5728
 2383SOL    HW218786   1.127   1.528   4.022  1.6061  1.7706  0.0368
 2384SOL     OW18787   2.569   2.690   7.067 -0.1468  0.0274 -0.1887
 2384SOL    HW118788   2.511   2.765   7.085  0.5192  0.1731  1.3070
 2384SOL    HW218789   2.507   2.619   7.087 -0.9505  0.4528 -1.1251
 2385SOL     OW18790   0.310   2.943   1.470 -0.2183  0.2045 -0.2435
 2385SOL    HW118791   0.405   2.947   1.480 -0.3081  0.2314  0.6464
 2385SOL    HW218792   0.287   2.881   1.540 -1.3039 -0.6561 -1.3694
 2386SOL     OW18793   1.292   0.120   5.087 -0.0022 -0.1180  0.4476
 2386SOL    HW118794   1.382   0.089   5.085 -0.2634 -0.9518  1.5290
 2386SOL    HW218795   1.290   0.171   5.168 -1.2681  0.0136  0.3362
 2387SOL     OW18796   2.576   4.478   3.967  0.4225 -0.0102 -0.7647
 2387SOL    HW118797   2.515   4.415   4.006 -0.9534  0.6608 -1.8398
 2387SOL    HW218798   2.518   4.543   3.927  0.0582 -0.0612 -0.3208
 2388SOL     OW18799   3.775   1.752   6.846 -0.0291  0.5353  0.1662
 2388SOL    HW118800   3.789   1.783   6.935 -2.1874  0.1864  0.6380
 2388SOL    HW218801   3.866   1.753   6.818 -0.5209  2.1385 -1.3853
 2389SOL     OW18802   2.637   0.422   4.098  0.0433  1.3338 -0.1923
 2389SOL    HW118803   2.690   0.447   4.174 -0.2254 -0.9949  0.7719
 2389SOL    HW218804   2.569   0.489   4.101 -0.2437  1.0920 -1.2089
 2390SOL     OW18805   1.951   0.308   6.003 -0.3566 -0.3130  0.0585
 2390SOL    HW118806   1.964   0.305   5.908  0.7759 -0.0974  0.2045
 2390SOL    HW218807   2.001   0.235   6.041  0.0525 -0.1532 -0.1720
 2391SOL     OW18808   1.351   0.964   6.071 -0.1964 -0.2432 -0.5622
 2391SOL    HW118809   1.406   0.911   6.013  0.9993 -1.1030  1.3559
 2391SOL    HW218810   1.395   0.937   6.151 -1.6157  0.2550  0.3818
 2392SOL     OW18811   3.563   1.411   4.892  0.1027 -0.0297 -0.3319
 2392SOL    HW118812   3.554   1.317   4.906  1.2912 -0.1725 -0.5380
 2392SOL    HW218813   3.510   1.418   4.813 -1.0658  0.7753  0.5377
 2393SOL     OW18814   1.195   4.127  13.831 -0.1031  0.2271 -0.0688
 2393SOL    HW118815   1.169   4.206  13.783  1.0299  1.5267  1.4439
 2393SOL    HW218816   1.157   4.065  13.770  0.0700 -0.8399  0.9170
 2394SOL     OW18817   4.310   4.641   4.950  0.1080 -0.2628 -0.0353
 2394SOL    HW118818   4.288   4.661   4.859 -0.2239 -1.0934 -0.1436
 2394SOL    HW218819   4.344   4.553   4.935 -0.3870 -0.5251  0.3493
 2395SOL     OW18820   4.335   3.847  11.254  0.6404  0.1754 -0.2312
 2395SOL    HW118821   4.297   3.915  11.310  0.9570  0.7774 -0.7534
 2395SOL    HW218822   4.428   3.868  11.250  0.8130 -0.1098  2.1520
 2396SOL     OW18823   0.001   2.770  11.184 -0.3552  0.1216 -0.2160
 2396SOL    HW118824   0.093   2.795  11.192  0.0124  0.3275 -5.1126
 2396SOL    HW218825   4.704   2.826  11.115 -0.9734  0.0563  0.0403
 2397SOL     OW18826   0.353   2.721  12.373 -0.5922 -0.4510  0.1824
 2397SOL    HW118827   0.380   2.639  12.415  0.5976  0.2828  0.8356
 2397SOL    HW218828   0.258   2.728  12.385 -0.7934  0.3631 -1.9037
 2398SOL     OW18829   0.383   2.667   8.204  0.0494 -0.0218  0.3167
 2398SOL    HW118830   0.416   2.748   8.245 -2.6160  0.5594  1.3237
 2398SOL    HW218831   0.460   2.612   8.211  1.1166  1.6803  1.9681
 2399SOL     OW18832   1.856   1.964   3.693  0.4466 -0.1551  0.0737
 2399SOL    HW118833   1.849   2.001   3.781 -3.7244  0.0209 -0.3426
 2399SOL    HW218834   1.779   1.999   3.649  1.2927  0.9350 -0.5402
 2400SOL     OW18835   3.819   2.124   0.841  0.0052  0.2042  0.0070
 2400SOL    HW118836   3.759   2.150   0.912  1.4333  1.7816  0.6359
 2400SOL    HW218837   3.835   2.209   0.800  2.4111 -0.9925 -1.4657
 2401SOL     OW18838   3.638   1.379   0.781 -0.1024 -0.2601  0.2015
 2401SOL    HW118839   3.705   1.440   0.810  0.9116 -1.9498  1.4377
 2401SOL    HW218840   3.685   1.296   0.774 -1.7522 -1.0113 -1.9599
 2402SOL     OW18841   2.932   2.397   2.034  0.0705 -0.2522  0.0325
 2402SOL    HW118842   2.907   2.395   1.942  0.1771  0.1330 -0.0058
 2402SOL    HW218843   3.019   2.437   2.026 -0.4617  1.3345  1.9600
 2403SOL     OW18844   4.462   1.814   1.845 -0.0526  0.8251  0.1398
 2403SOL    HW118845   4.550   1.837   1.815 -0.5800  1.9086 -0.5609
 2403SOL    HW218846   4.453   1.874   1.918  1.4745  0.2461  0.8046
 2404SOL     OW18847   1.540   0.556   2.773  0.3729  0.3297  0.0265
 2404SOL    HW118848   1.623   0.597   2.798  0.8712 -0.5435 -0.2031
 2404SOL    HW218849   1.492   0.637   2.788 -0.6628 -0.0862 -0.9823
 2405SOL     OW18850   1.749   1.038   2.876 -0.2603 -0.1519 -0.5112
 2405SOL    HW118851   1.713   1.106   2.820 -1.5130  0.9454  1.6260
 2405SOL    HW218852   1.691   1.047   2.952  1.0357  0.2438  0.4366
 2406SOL     OW18853   2.759   1.223   4.880  0.2155  0.0338  0.1022
 2406SOL    HW118854   2.823   1.244   4.948 -1.2008  2.6079  0.6338
 2406SOL    HW218855   2.749   1.313   4.849  3.3367  0.2943 -0.1029
 2407SOL     OW18856   3.281   3.391   8.552 -0.1251  0.6104  0.7896
 2407SOL    HW118857   3.269   3.429   8.639 -1.1404 -0.4369  1.1008
 2407SOL    HW218858   3.372   3.416   8.538 -0.5947  1.6233 -0.4157
 2408SOL     OW18859   0.012   2.636   8.541 -0.6125 -0.5420  0.2213
 2408SOL    HW118860   0.082   2.620   8.478  1.9826  0.0739  2.9539
 2408SOL    HW218861   4.730   2.555   8.587  0.4030 -0.8264  0.1511
 2409SOL     OW18862   0.730   2.994   6.154  0.1998  0.0454 -0.3322
 2409SOL    HW118863   0.641   2.991   6.120  1.0153 -0.7352 -2.4034
 2409SOL    HW218864   0.719   3.056   6.226  1.4749 -1.4159  1.1211
 2410SOL     OW18865   1.684   4.310   2.511  0.0739  0.0377 -0.4773
 2410SOL    HW118866   1.653   4.240   2.453  0.5202 -0.6213  0.0758
 2410SOL    HW218867   1.611   4.372   2.520  0.0959  0.1849 -1.2877
 2411SOL     OW18868   2.274   0.242   7.723  0.0090 -0.0616 -0.2911
 2411SOL    HW118869   2.334   0.280   7.659 -0.3044  3.9198  1.7709
 2411SOL    HW218870   2.262   0.153   7.690 -4.4757  0.1637  0.6840
 2412SOL     OW18871   3.575   4.678   4.371  0.0835  0.1140  0.4840
 2412SOL    HW118872   3.534   4.595   4.346  1.9519 -0.0015 -2.1931
 2412SOL    HW218873   3.522   0.007   4.327  1.4670  1.3294  0.6373
 2413SOL     OW18874   3.173   0.187   7.671  0.8629  0.0567  0.0821
 2413SOL    HW118875   3.232   0.179   7.746  0.9670 -1.3792 -0.1538
 2413SOL    HW218876   3.093   0.206   7.720  1.4651  1.1387  0.6335
 2414SOL     OW18877   2.497   0.591   5.670 -0.8595  0.2941  0.2109
 2414SOL    HW118878   2.547   0.557   5.595  0.2567 -0.5922  1.3574
 2414SOL    HW218879   2.557   0.662   5.691  0.1714 -0.1058 -1.3648
 2415SOL     OW18880   3.050   0.166  16.859 -0.2028  0.1561 -0.0933
 2415SOL    HW118881   3.137   0.184  16.896  0.6263 -2.0899 -0.9559
 2415SOL    HW218882   3.019   0.080  16.886 -0.2088  0.5513  1.2133
 2416SOL     OW18883   3.921   1.158  12.923 -0.3576  1.4570 -0.2679
 2416SOL    HW118884   3.983   1.171  12.851  3.4719 -1.5867  2.4744
 2416SOL    HW218885   3.838   1.161  12.875 -0.4653 -2.2717 -0.3626
 2417SOL     OW18886   0.179   3.752   8.904 -0.4068 -0.0423 -0.1385
 2417SOL    HW118887   0.085   3.734   8.914 -0.7692  2.5176  1.0823
 2417SOL    HW218888   0.184   3.838   8.863  2.4896  0.0610  0.4590
 2418SOL     OW18889   3.000   0.564   1.747  0.0658  0.7936  0.0442
 2418SOL    HW118890   2.973   0.610   1.827 -1.8381 -1.4651  0.7121
 2418SOL    HW218891   2.939   0.491   1.754  2.0125 -0.9004 -0.5007
 2419SOL     OW18892   4.235   1.976   8.092 -0.7244 -0.2048  0.2457
 2419SOL    HW118893   4.256   1.988   8.185  1.0768 -0.7016 -0.0845
 2419SOL    HW218894   4.168   2.044   8.085  0.7990  1.3507  0.6157
 2420SOL     OW18895   4.106   2.596   3.605 -0.5815  0.1923 -0.9767
 2420SOL    HW118896   4.107   2.631   3.516 -0.8182  0.4636 -0.8762
 2420SOL    HW218897   4.024   2.546   3.604 -0.6988  0.3469  1.3574
 2421SOL     OW18898   3.488   3.919  16.468  0.0549  0.1030  0.4973
 2421SOL    HW118899   3.459   3.828  16.468  1.4260 -0.3299  0.5313
 2421SOL    HW218900   3.578   3.914  16.439 -0.6966 -1.0524 -1.6089
 2422SOL     OW18901   0.226   3.982   4.181  0.6626  0.4383  0.0691
 2422SOL    HW118902   0.197   4.027   4.102  1.1362 -0.4207 -0.5907
 2422SOL    HW218903   0.232   3.891   4.153  1.3528 -0.0187  1.6830
 2423SOL     OW18904   4.576   4.427   1.711 -0.2494 -0.0244  0.0157
 2423SOL    HW118905   4.561   4.350   1.657  1.6812 -0.2719 -0.1985
 2423SOL    HW218906   4.587   4.493   1.642 -0.4171  0.2730  0.2749
 2424SOL     OW18907   2.368   0.560   2.870  0.3150 -0.3928  0.3251
 2424SOL    HW118908   2.336   0.482   2.824  0.0808  0.5803 -1.1870
 2424SOL    HW218909   2.300   0.567   2.936  0.1366  0.6729  0.0334
 2425SOL     OW18910   4.371   3.977   3.588  0.5747 -0.1423  0.1865
 2425SOL    HW118911   4.327   3.954   3.670 -0.2401  1.5285  0.2078
 2425SOL    HW218912   4.449   4.016   3.628  0.1341  3.7742 -2.7693
 2426SOL     OW18913   3.817   3.447   3.818  0.0303  0.5966 -0.0390
 2426SOL    HW118914   3.789   3.538   3.825 -1.9050 -0.0352  0.3801
 2426SOL    HW218915   3.800   3.435   3.724 -2.2214 -0.0801  0.4693
 2427SOL     OW18916   2.099   1.720   1.298  0.0260 -0.1906  0.7234
 2427SOL    HW118917   2.140   1.653   1.242  1.7136 -0.3448  2.1461
 2427SOL    HW218918   2.010   1.696   1.273  0.3257 -1.1218  0.5576
 2428SOL     OW18919   3.302   0.122   9.990  0.1766 -0.6896 -0.5632
 2428SOL    HW118920   3.276   0.102  10.080 -1.1342 -2.0408 -1.2440
 2428SOL    HW218921   3.220   0.117   9.942  0.0821 -1.8383 -0.2805
 2429SOL     OW18922   4.615   1.208  15.251 -0.3415  0.2199 -0.0332
 2429SOL    HW118923   4.530   1.203  15.294 -1.3775  2.5977 -1.7573
 2429SOL    HW218924   4.600   1.146  15.179  0.7578  0.9194 -0.8571
 2430SOL     OW18925   0.528   1.053   4.940  0.0752  0.1704 -0.0186
 2430SOL    HW118926   0.570   0.968   4.951  0.0640  0.1906  0.1839
 2430SOL    HW218927   0.599   1.113   4.962 -1.1153  2.3517 -2.0839
 2431SOL     OW18928   1.817   0.304  12.384 -0.3998 -0.5506 -0.2323
 2431SOL    HW118929   1.888   0.343  12.436  0.8881 -0.1302 -2.3028
 2431SOL    HW218930   1.776   0.382  12.348  0.6865  0.5102  0.8316
 2432SOL     OW18931   0.918   3.267   9.558  0.1449 -0.3222 -0.7184
 2432SOL    HW118932   0.990   3.243   9.616 -2.1316  0.2260  2.3402
 2432SOL    HW218933   0.898   3.341   9.616  1.9016  0.5138 -1.1653
 2433SOL     OW18934   1.577   3.734   5.881  0.5164  0.0555  0.2619
 2433SOL    HW118935   1.652   3.740   5.940  0.5988 -1.4210  0.3062
 2433SOL    HW218936   1.615   3.763   5.798 -0.5359 -1.5376 -0.7873
 2434SOL     OW18937   2.211   1.783  16.634 -0.1626 -0.7052 -0.1460
 2434SOL    HW118938   2.206   1.743  16.548  2.5394  1.4969 -1.3295
 2434SOL    HW218939   2.135   1.743  16.676  0.6650 -0.2151  1.8271
 2435SOL     OW18940   3.470   0.981   7.980 -0.3240 -0.4140 -0.3874
 2435SOL    HW118941   3.406   0.913   8.000 -0.0702 -0.4266  0.4119
 2435SOL    HW218942   3.470   0.995   7.886 -1.5552 -1.7139 -0.5749
 2436SOL     OW18943   0.938   2.593   6.385 -0.2837  0.5880  0.6379
 2436SOL    HW118944   0.927   2.570   6.293 -2.0210  0.8213  0.7857
 2436SOL    HW218945   0.884   2.671   6.397 -1.2976 -0.2344  1.4169
 2437SOL     OW18946   0.235   1.188   0.133 -0.2892  0.0216  0.1226
 2437SOL    HW118947   0.226   1.248   0.059 -0.9486  1.7075  1.5537
 2437SOL    HW218948   0.146   1.194   0.169 -1.8726  0.9944 -3.9469
 2438SOL     OW18949   2.066   3.758   1.095 -0.5997 -0.9464 -0.4856
 2438SOL    HW118950   2.144   3.789   1.142 -0.6288 -2.3686  0.5263
 2438SOL    HW218951   2.001   3.802   1.149  2.2107  1.1983  1.1907
 2439SOL     OW18952   3.539   0.905   1.520 -0.3256 -0.6256  0.1716
 2439SOL    HW118953   3.494   0.821   1.510 -1.8643  0.4662 -2.0480
 2439SOL    HW218954   3.622   0.881   1.562 -0.2596 -2.3557 -0.9378
 2440SOL     OW18955   1.687   2.833   5.048  0.0422  0.4628  0.8428
 2440SOL    HW118956   1.691   2.919   5.089  1.2755 -0.0285  1.7300
 2440SOL    HW218957   1.773   2.798   5.071  0.2075  2.0237  2.5616
 2441SOL     OW18958   3.779   0.137   9.004 -0.2474 -0.1640 -0.3201
 2441SOL    HW118959   3.841   0.165   9.072 -1.7219  0.3983  0.7781
 2441SOL    HW218960   3.706   0.115   9.061 -1.2031  1.3125 -0.9847
 2442SOL     OW18961   4.267   2.320  12.460 -0.5804 -0.0915  0.3579
 2442SOL    HW118962   4.322   2.398  12.469  0.7004 -1.0375  0.5608
 2442SOL    HW218963   4.283   2.285  12.373 -0.4116  0.7287  0.0528
 2443SOL     OW18964   3.103   2.564  11.382  0.0229 -0.2152  0.0537
 2443SOL    HW118965   3.099   2.471  11.405 -0.6565 -0.1242  0.2861
 2443SOL    HW218966   3.193   2.568  11.415 -0.1786  1.1562  0.4167
 2444SOL     OW18967   0.899   2.632   9.777  0.1212  0.5108  0.2682
 2444SOL    HW118968   0.947   2.699   9.727 -1.8267  0.7005 -1.3496
 2444SOL    HW218969   0.891   2.673   9.863  0.1582 -0.0880  0.5538
 2445SOL     OW18970   3.114   3.614   8.461 -0.3428 -0.9701  0.3273
 2445SOL    HW118971   3.146   3.528   8.488 -1.3720 -1.5081 -0.1343
 2445SOL    HW218972   3.083   3.648   8.545  0.8623 -0.1426  0.4249
 2446SOL     OW18973   3.426   0.798   3.891 -0.1840  0.6455 -0.8257
 2446SOL    HW118974   3.343   0.809   3.938 -0.8029 -0.1147 -1.7499
 2446SOL    HW218975   3.429   0.703   3.889 -2.6025  0.5387 -0.1552
 2447SOL     OW18976   0.451   1.369  12.264  0.3970  0.2569  0.2219
 2447SOL    HW118977   0.423   1.406  12.180 -1.1394  1.9240  1.4567
 2447SOL    HW218978   0.509   1.439  12.292  1.9100 -1.0184  0.2552
 2448SOL     OW18979   2.010   3.263  12.005 -0.0925  0.1235 -0.3241
 2448SOL    HW118980   2.006   3.207  11.928 -0.6572 -0.8505  0.4151
 2448SOL    HW218981   1.922   3.259  12.041  0.3886 -1.0142  0.7046
 2449SOL     OW18982   0.397   3.849   6.368 -0.3828 -0.3971 -0.3483
 2449SOL    HW118983   0.378   3.912   6.299  0.4173 -0.6680 -0.8226
 2449SOL    HW218984   0.385   3.904   6.445  1.0317  1.0389 -1.1564
 2450SOL     OW18985   2.133   2.947   4.096  0.3921  0.2346  0.2576
 2450SOL    HW118986   2.205   2.946   4.158 -0.8102 -1.3471  1.6100
 2450SOL    HW218987   2.087   3.025   4.126  2.8101  2.0072 -0.6387
 2451SOL     OW18988   0.119   3.206   8.130  0.1467 -0.2643 -0.3386
 2451SOL    HW118989   0.060   3.172   8.063 -0.5236 -0.7909  0.5255
 2451SOL    HW218990   0.059   3.196   8.204  0.1409  0.3732 -0.2528
 2452SOL     OW18991   3.123   4.570   6.644  0.3377 -0.6815  0.5801
 2452SOL    HW118992   3.050   4.622   6.677 -0.1235 -0.1238 -1.3661
 2452SOL    HW218993   3.082   4.484   6.641  0.2873 -0.5380 -2.6332
 2453SOL     OW18994   3.101   4.076   5.457 -0.0859  0.1446 -0.5510
 2453SOL    HW118995   3.039   4.148   5.470 -0.9516 -0.8854  0.9580
 2453SOL    HW218996   3.076   4.047   5.370 -1.1495  0.1533 -0.2503
 2454SOL     OW18997   2.411   0.736   3.264  0.2456  0.4092  0.1880
 2454SOL    HW118998   2.453   0.654   3.240 -2.9417 -1.6958  1.8330
 2454SOL    HW218999   2.485   0.773   3.313 -0.5946  1.6252  0.5393
 2455SOL     OW19000   1.161   2.653   7.490  0.0896 -0.2464  0.2447
 2455SOL    HW119001   1.173   2.583   7.553 -0.1081 -0.5879 -0.0951
 2455SOL    HW219002   1.251   2.674   7.464 -0.2458 -0.0485 -0.7671
 2456SOL     OW19003   1.380   3.900   3.462  0.2801 -0.0382  0.1672
 2456SOL    HW119004   1.299   3.851   3.478 -1.5196  1.3347 -4.9121
 2456SOL    HW219005   1.342   3.987   3.474 -0.5950 -0.4402  0.2637
 2457SOL     OW19006   3.673   3.853  15.368 -0.4049  0.7022 -0.1327
 2457SOL    HW119007   3.729   3.800  15.425  0.3207  2.1484  0.5048
 2457SOL    HW219008   3.717   3.937  15.381 -1.6146  1.4623 -0.9399
 2458SOL     OW19009   1.699   2.350   7.628 -0.2765 -0.1920 -0.2671
 2458SOL    HW119010   1.675   2.329   7.718  1.9106 -0.2720  0.2978
 2458SOL    HW219011   1.739   2.273   7.589 -1.7017 -0.3959 -1.3011
 2459SOL     OW19012   3.967   1.330   2.984  0.0304 -0.0435 -0.2401
 2459SOL    HW119013   4.059   1.353   2.988 -0.3202  1.8921 -3.2445
 2459SOL    HW219014   3.939   1.352   3.073 -1.0378  2.9134 -1.3114
 2460SOL     OW19015   2.746   4.691   4.714  0.1546  0.1864  0.3730
 2460SOL    HW119016   2.762   4.688   4.619 -1.4017 -1.3265  0.1569
 2460SOL    HW219017   2.812   4.627   4.738 -3.3504 -2.9013  1.8559
 2461SOL     OW19018   3.654   1.300   6.582  0.0042  0.2357  0.2668
 2461SOL    HW119019   3.663   1.354   6.661 -2.4937  0.0149  0.7270
 2461SOL    HW219020   3.664   1.215   6.627  0.6168  0.4866  0.5929
 2462SOL     OW19021   1.856   0.916   4.346 -0.7568  0.1538  0.1740
 2462SOL    HW119022   1.810   0.966   4.279  0.2932  2.0353  0.8796
 2462SOL    HW219023   1.810   0.832   4.338  0.1509 -0.3504  0.2758
 2463SOL     OW19024   2.049   3.491   3.125 -0.3391 -0.3928  0.0855
 2463SOL    HW119025   2.135   3.517   3.093 -0.1294 -0.3968  0.6333
 2463SOL    HW219026   2.009   3.454   3.047 -2.0815 -0.4673  1.0158
 2464SOL     OW19027   3.258   4.450   1.289  0.9094  0.7928 -0.1579
 2464SOL    HW119028   3.349   4.433   1.313  0.2517 -1.4406  0.6923
 2464SOL    HW219029   3.216   4.387   1.348 -1.4439  1.3789 -1.2158
 2465SOL     OW19030   1.422   4.254   3.598  0.3706 -0.2265  0.0687
 2465SOL    HW119031   1.339   4.267   3.553 -0.4445 -1.6434  1.1663
 2465SOL    HW219032   1.482   4.309   3.547 -1.5209 -0.4680 -2.4115
 2466SOL     OW19033   3.426   0.520   3.323  0.1645 -0.3078  0.5389
 2466SOL    HW119034   3.500   0.579   3.335 -0.4645  0.5599  0.0771
 2466SOL    HW219035   3.464   0.438   3.356 -0.1654  0.1131  1.9258
 2467SOL     OW19036   3.451   0.667  14.670 -0.1635 -0.0580 -0.1715
 2467SOL    HW119037   3.376   0.717  14.703  0.5771 -0.0585  1.4699
 2467SOL    HW219038   3.522   0.730  14.662  0.7124 -0.9368  0.7056
 2468SOL     OW19039   0.311   4.298   4.726 -0.0664 -0.8258  0.5049
 2468SOL    HW119040   0.229   4.346   4.715  0.0492 -0.9095 -0.6769
 2468SOL    HW219041   0.322   4.314   4.820  3.0940  0.5206 -0.1026
 2469SOL     OW19042   0.199   4.088  11.277 -0.0668  0.3446  1.0941
 2469SOL    HW119043   0.200   4.019  11.342  0.8840 -0.1663  0.5440
 2469SOL    HW219044   0.112   4.126  11.282 -0.5199 -0.3081 -1.8721
 2470SOL     OW19045   1.223   4.071   7.401 -0.0576  0.0921 -0.3540
 2470SOL    HW119046   1.281   4.116   7.462  0.1612 -0.0703 -0.4426
 2470SOL    HW219047   1.137   4.098   7.433 -0.1426 -0.7078  0.0886
 2471SOL     OW19048   2.048   4.100   4.773  0.0421 -0.2597 -0.0947
 2471SOL    HW119049   1.983   4.159   4.734 -1.0223 -0.9603  0.6228
 2471SOL    HW219050   1.990   4.029   4.802 -3.2107  1.6121 -1.9835
 2472SOL     OW19051   3.016   1.916   8.919 -0.6294  0.2086 -0.1450
 2472SOL    HW119052   3.097   1.961   8.898 -0.6630  1.3723  2.2373
 2472SOL    HW219053   3.045   1.845   8.976 -4.0516 -2.3799 -1.5617
 2473SOL     OW19054   0.747   0.057   5.915 -0.4257  0.1754  0.5355
 2473SOL    HW119055   0.766   0.109   5.837  0.0985 -0.4013  0.2813
 2473SOL    HW219056   0.652   0.066   5.908 -0.5013 -1.4666 -0.5970
 2474SOL     OW19057   3.301   1.055  11.114 -0.4076  0.0683  0.7397
 2474SOL    HW119058   3.326   0.973  11.157  0.6808  0.1350  0.2469
 2474SOL    HW219059   3.232   1.079  11.175 -0.8259 -1.4622  0.8613
 2475SOL     OW19060   1.684   3.875   1.581  0.3351  0.4570  0.5056
 2475SOL    HW119061   1.628   3.937   1.533  0.6311  1.2915  1.2308
 2475SOL    HW219062   1.667   3.793   1.535 -1.4007  0.9911  0.1533
 2476SOL     OW19063   2.330   2.639   6.670  0.3210 -0.1185  0.5076
 2476SOL    HW119064   2.357   2.574   6.735  0.1885  2.0088  2.7101
 2476SOL    HW219065   2.409   2.687   6.647  0.0330 -0.7679 -1.8018
 2477SOL     OW19066   2.813   2.303  16.426  0.4241 -0.2910  0.2192
 2477SOL    HW119067   2.806   2.252  16.507 -1.3169 -1.1967 -0.4948
 2477SOL    HW219068   2.888   2.263  16.383  1.1419 -1.3013  2.4019
 2478SOL     OW19069   3.479   2.024   8.005 -0.2369 -0.2928  0.3786
 2478SOL    HW119070   3.484   2.087   8.077  0.5443 -0.5991  0.5908
 2478SOL    HW219071   3.442   2.086   7.942  1.7410 -0.3641 -0.8365
 2479SOL     OW19072   0.404   1.710  16.062  0.0613 -0.0241 -0.0386
 2479SOL    HW119073   0.393   1.797  16.099 -1.2723 -0.5747  0.8401
 2479SOL    HW219074   0.316   1.697  16.027  0.5692 -0.1877 -1.2635
 2480SOL     OW19075   1.645   1.529   7.885 -0.3253 -0.2861 -0.1426
 2480SOL    HW119076   1.575   1.498   7.828 -0.8009  1.3779 -0.4662
 2480SOL    HW219077   1.604   1.574   7.959 -0.7690  1.1619 -1.2697
 2481SOL     OW19078   0.419   3.257   7.187  0.2085 -0.4448  0.0666
 2481SOL    HW119079   0.484   3.264   7.118 -0.6332 -1.1177 -0.7976
 2481SOL    HW219080   0.341   3.213   7.151 -0.6294  0.9943  0.1157
 2482SOL     OW19081   3.181   3.415   7.034 -0.0632  0.3337 -0.1920
 2482SOL    HW119082   3.200   3.394   7.126 -1.9736  2.4606  0.6947
 2482SOL    HW219083   3.266   3.444   7.000 -0.6439  0.6931 -1.3030
 2483SOL     OW19084   3.546   0.751   2.062  0.0893  0.1999 -0.2945
 2483SOL    HW119085   3.513   0.829   2.017 -0.0261 -0.3210 -1.1042
 2483SOL    HW219086   3.464   0.711   2.094  2.1762 -3.0066  1.0353
 2484SOL     OW19087   1.338   0.050   5.947  0.3104 -1.2232  0.1918
 2484SOL    HW119088   1.288   0.132   5.942  2.8303  0.1937 -1.5782
 2484SOL    HW219089   1.274   4.729   5.906  0.8461 -1.7093  0.0526
 2485SOL     OW19090   4.355   0.466   6.725 -0.6682  0.0508 -0.2059
 2485SOL    HW119091   4.395   0.435   6.807  0.1372 -0.4307 -0.7858
 2485SOL    HW219092   4.437   0.490   6.684 -0.1489 -0.9487  0.2415
 2486SOL     OW19093   2.896   0.255   5.256  0.0668 -0.0405  0.4083
 2486SOL    HW119094   2.915   0.255   5.162  2.1169 -1.7379  0.8138
 2486SOL    HW219095   2.801   0.243   5.256 -0.2336  2.3557  0.1349
 2487SOL     OW19096   2.854   0.971  10.780 -0.0986 -0.3796 -0.2645
 2487SOL    HW119097   2.916   1.043  10.769  0.6280 -1.2296 -1.7737
 2487SOL    HW219098   2.911   0.894  10.787 -0.5768 -0.6987  0.1000
 2488SOL     OW19099   3.393   0.870   9.865  0.6158  0.1872 -0.3846
 2488SOL    HW119100   3.464   0.838   9.920  1.5965  0.4977 -1.4629
 2488SOL    HW219101   3.434   0.874   9.778 -1.4163 -1.5482 -1.4386
 2489SOL     OW19102   0.942   0.703   7.229  0.2096  0.6250 -0.0729
 2489SOL    HW119103   0.940   0.703   7.133  0.2830 -1.0494 -0.0879
 2489SOL    HW219104   0.881   0.774   7.248  0.3976  1.3128 -2.0449
 2490SOL     OW19105   4.022   0.852   1.725 -0.0642  0.0532 -0.2184
 2490SOL    HW119106   4.111   0.869   1.696 -0.5543  0.6617 -1.3493
 2490SOL    HW219107   4.036   0.856   1.820  3.1640  1.7965 -0.7611
 2491SOL     OW19108   2.215   3.087   4.573  0.3494  0.3850 -0.3552
 2491SOL    HW119109   2.213   3.018   4.639 -1.6728  1.0682  0.3052
 2491SOL    HW219110   2.241   3.047   4.490 -3.0537 -0.2757 -1.1037
 2492SOL     OW19111   1.673   3.404   2.764 -0.2983 -0.2521 -0.0592
 2492SOL    HW119112   1.703   3.487   2.727 -0.0720 -0.2090  0.2193
 2492SOL    HW219113   1.707   3.359   2.686  1.8604  0.3991  0.4960
 2493SOL     OW19114   1.936   0.110   3.809 -0.2157  0.6488 -0.2414
 2493SOL    HW119115   1.996   0.108   3.735 -2.0380 -0.4523 -1.6941
 2493SOL    HW219116   1.981   0.178   3.858 -0.7702  0.3849  0.6360
 2494SOL     OW19117   0.532   3.603   7.178 -0.5414 -0.5446 -0.2872
 2494SOL    HW119118   0.440   3.576   7.182 -0.6466 -0.4236 -1.8389
 2494SOL    HW219119   0.588   3.531   7.208  0.9142 -0.1462 -2.0624
 2495SOL     OW19120   4.029   2.464   7.728 -0.1851  0.2663 -0.6608
 2495SOL    HW119121   3.999   2.464   7.819  0.3815 -1.4877 -0.4693
 2495SOL    HW219122   3.962   2.409   7.688 -0.6253 -0.6206  1.2567
 2496SOL     OW19123   0.733   1.735   0.828 -0.3598  0.5098 -0.0100
 2496SOL    HW119124   0.718   1.738   0.923  0.0814 -2.1471  0.1411
 2496SOL    HW219125   0.694   1.817   0.796 -0.3063  0.6116  0.1846
 2497SOL     OW19126   0.032   4.242   6.432  0.8357  0.6183  0.3557
 2497SOL    HW119127   4.681   4.276   6.420  0.7305  0.1144 -0.2918
 2497SOL    HW219128   0.067   4.309   6.491  3.2855 -1.0036  0.7341
 2498SOL     OW19129   3.105   4.080   4.934  0.8012 -0.1950 -0.8848
 2498SOL    HW119130   3.197   4.061   4.953 -0.0728 -0.4771  2.8902
 2498SOL    HW219131   3.094   4.174   4.921 -1.7576 -0.0259  2.5793
 2499SOL     OW19132   2.816   0.194   7.792 -0.7777  0.5218  0.5707
 2499SOL    HW119133   2.742   0.161   7.842  0.5320 -2.2537  0.7047
 2499SOL    HW219134   2.853   0.260   7.850  1.3803  1.3619 -1.7680
 2500SOL     OW19135   0.609   2.201   4.054 -0.2489  0.1229 -0.1760
 2500SOL    HW119136   0.601   2.116   4.011  1.4882  0.3421 -0.9407
 2500SOL    HW219137   0.650   2.187   4.139  2.0274 -0.8582 -1.4460
 2501SOL     OW19138   4.338   4.669   5.654 -0.2148 -0.1622 -0.0291
 2501SOL    HW119139   4.249   4.644   5.630  0.2055 -0.9700 -0.7419
 2501SOL    HW219140   4.341   0.020   5.616 -0.1889 -0.2768 -0.2910
 2502SOL     OW19141   3.166   1.486  13.152 -0.3624  0.2511 -0.1172
 2502SOL    HW119142   3.218   1.539  13.212  0.2018 -1.9473  1.3249
 2502SOL    HW219143   3.223   1.480  13.075  1.0111 -1.0628  1.0010
 2503SOL     OW19144   2.608   2.468   5.419 -0.1210  0.1314 -0.1997
 2503SOL    HW119145   2.658   2.391   5.391  2.4128  1.4771  0.7041
 2503SOL    HW219146   2.670   2.537   5.398  1.6533 -1.3420  0.2223
 2504SOL     OW19147   2.850   2.826   6.057 -0.1411 -0.0798  0.4192
 2504SOL    HW119148   2.919   2.893   6.053 -1.1435  0.8623 -1.0947
 2504SOL    HW219149   2.887   2.784   6.135  0.2181 -1.6288 -0.6057
 2505SOL     OW19150   1.280   3.484   0.093 -0.1405  0.1711 -0.0646
 2505SOL    HW119151   1.324   3.516   0.014 -0.4926 -2.2459 -1.2643
 2505SOL    HW219152   1.311   3.394   0.107  0.7711  0.5317  0.2131
 2506SOL     OW19153   3.753   1.759   4.883 -0.6411  0.1506  0.1230
 2506SOL    HW119154   3.696   1.725   4.814  0.8709 -0.3549 -0.8868
 2506SOL    HW219155   3.703   1.834   4.915 -0.1891  0.1843  0.7503
 2507SOL     OW19156   4.282   3.500   9.241  0.4809  0.3959  0.6171
 2507SOL    HW119157   4.362   3.476   9.194  0.3572 -2.1130  1.6910
 2507SOL    HW219158   4.230   3.421   9.223  0.5099  0.7174 -0.8738
 2508SOL     OW19159   1.968   3.457  13.397 -0.8531  0.8829  0.6116
 2508SOL    HW119160   2.021   3.531  13.367 -0.9530  0.8579  0.3729
 2508SOL    HW219161   1.943   3.471  13.488 -1.4903 -0.4414  0.6357
 2509SOL     OW19162   0.448   4.310  12.955  0.0801 -0.1527  0.0934
 2509SOL    HW119163   0.513   4.240  12.955 -1.7754 -1.8714  5.1640
 2509SOL    HW219164   0.469   4.343  12.868  2.1822  1.7864  1.3380
 2510SOL     OW19165   1.330   3.806   7.475 -0.2445  0.3703 -0.7482
 2510SOL    HW119166   1.406   3.824   7.419 -0.1353 -1.1834 -1.0724
 2510SOL    HW219167   1.279   3.884   7.453  0.0313  0.4189 -1.2069
 2511SOL     OW19168   1.413   1.465   6.064  0.0614 -0.3224  0.2389
 2511SOL    HW119169   1.443   1.502   6.147 -0.9186  2.0190 -0.4532
 2511SOL    HW219170   1.485   1.404   6.045 -0.3618 -0.4934 -0.8151
 2512SOL     OW19171   1.508   3.462  12.332 -0.5259  0.6324 -0.6186
 2512SOL    HW119172   1.485   3.517  12.407 -2.0251  1.4966 -1.7328
 2512SOL    HW219173   1.604   3.471  12.336 -0.5067 -0.9671  2.4647
 2513SOL     OW19174   1.565   3.700   2.817 -0.0437  0.5403  0.0172
 2513SOL    HW119175   1.519   3.718   2.898 -0.0866  0.6949 -0.0418
 2513SOL    HW219176   1.657   3.718   2.836  0.1493  1.0975 -1.4205
 2514SOL     OW19177   4.668   0.610   9.456 -0.1837 -0.1046  0.0107
 2514SOL    HW119178   0.026   0.605   9.465 -0.4722 -1.1005  2.3877
 2514SOL    HW219179   4.647   0.517   9.468  1.2205 -0.7791 -2.5482
 2515SOL     OW19180   4.055   0.851   3.579  0.1081 -0.9349  0.1839
 2515SOL    HW119181   4.080   0.840   3.671 -2.5627 -3.3166  0.6249
 2515SOL    HW219182   4.019   0.766   3.555 -0.3075 -0.7332  0.0908
 2516SOL     OW19183   3.853   4.387  14.059  0.6742  0.2315 -0.3288
 2516SOL    HW119184   3.887   4.474  14.082 -0.0322  0.3067  0.4334
 2516SOL    HW219185   3.767   4.401  14.019  1.1381  0.7583 -1.1409
 2517SOL     OW19186   1.494   4.239   4.298 -0.2153  0.5979 -0.6201
 2517SOL    HW119187   1.459   4.298   4.364  0.3670 -0.6812  0.8410
 2517SOL    HW219188   1.555   4.189   4.352 -0.5967  2.0093  1.0908
 2518SOL     OW19189   3.800   1.248   1.894  0.4572 -0.1404  0.2673
 2518SOL    HW119190   3.832   1.330   1.858 -1.5034  1.1851  1.5338
 2518SOL    HW219191   3.874   1.226   1.951 -0.7038 -0.2397  1.7298
 2519SOL     OW19192   3.431   4.440   5.795  0.1746  0.2373  0.0931
 2519SOL    HW119193   3.395   4.491   5.867 -3.1597 -4.3414  1.6628
 2519SOL    HW219194   3.353   4.428   5.741 -2.1523 -2.3308  4.0575
 2520SOL     OW19195   1.645   0.122  16.162 -0.2962 -0.2144 -0.2460
 2520SOL    HW119196   1.668   0.215  16.171 -0.5223 -0.0600 -1.2405
 2520SOL    HW219197   1.574   0.117  16.226 -1.6061  0.0035 -1.6946
 2521SOL     OW19198   2.826   2.411   2.308  0.0258 -0.0181  0.1407
 2521SOL    HW119199   2.866   2.406   2.221  2.1808 -2.5642  1.2763
 2521SOL    HW219200   2.898   2.447   2.359 -0.6101 -0.5173  1.3972
 2522SOL     OW19201   3.998   2.065   8.967 -0.0167  0.5646 -0.0997
 2522SOL    HW119202   3.994   2.002   9.039  0.9812 -1.4894 -1.8376
 2522SOL    HW219203   4.083   2.041   8.930 -0.7217 -0.7703 -0.8624
 2523SOL     OW19204   0.930   0.084   5.222 -0.3690 -0.5710 -0.8458
 2523SOL    HW119205   0.971   0.169   5.208 -3.1208  0.5133 -2.3358
 2523SOL    HW219206   0.991   0.012   5.240  0.0269  0.0144  0.1867
 2524SOL     OW19207   4.593   2.496   3.684  0.2914 -0.1253 -0.5322
 2524SOL    HW119208   4.500   2.477   3.696  0.2101  1.7405  1.8320
 2524SOL    HW219209   4.607   2.429   3.618  0.5064 -2.1884  1.5879
 2525SOL     OW19210   0.268   2.386   3.926  1.0096  0.0655 -0.1373
 2525SOL    HW119211   0.186   2.435   3.922 -0.0281 -1.6513 -0.0972
 2525SOL    HW219212   0.238   2.310   3.975 -1.7953  0.6346 -0.9150
 2526SOL     OW19213   2.596   4.364  16.686 -0.2113  0.1000  0.0881
 2526SOL    HW119214   2.634   4.431  16.741 -0.2316  0.4285 -0.2974
 2526SOL    HW219215   2.531   4.329  16.746  1.9558 -1.3453  1.6021
 2527SOL     OW19216   4.357   3.721   2.605 -0.3877 -0.5561 -0.0160
 2527SOL    HW119217   4.262   3.732   2.613 -0.6694 -1.5486 -1.8922
 2527SOL    HW219218   4.366   3.662   2.679 -2.4156 -1.7098 -0.6726
 2528SOL     OW19219   2.389   2.285   5.487  0.0727  0.2840  0.3454
 2528SOL    HW119220   2.327   2.308   5.417  0.1014  0.1406  0.2720
 2528SOL    HW219221   2.461   2.259   5.429  1.0961  2.7861  0.5044
 2529SOL     OW19222   2.967   3.619   4.868 -0.5441  0.4464 -0.1559
 2529SOL    HW119223   2.929   3.535   4.842 -1.9856  0.2573  2.6153
 2529SOL    HW219224   2.915   3.645   4.943  0.9480  0.4466  0.8837
 2530SOL     OW19225   2.011   1.894   3.476  0.1777  0.0169  0.0539
 2530SOL    HW119226   1.952   1.880   3.402 -0.3581  1.8962  0.1299
 2530SOL    HW219227   1.955   1.884   3.553 -1.4531  2.8929 -0.7782
 2531SOL     OW19228   4.160   3.036  11.563  0.1923 -0.7313 -0.5974
 2531SOL    HW119229   4.172   2.963  11.503  1.7932 -0.8953 -0.0839
 2531SOL    HW219230   4.251   3.065  11.562  0.4810 -1.6046  0.7225
 2532SOL     OW19231   4.496   4.652   6.889  0.5021  0.3753 -0.6555
 2532SOL    HW119232   4.447   4.642   6.808 -1.5836 -0.2746  0.6803
 2532SOL    HW219233   4.545   4.570   6.892 -0.4699 -0.1313  1.2630
 2533SOL     OW19234   0.315   2.715   5.116 -0.6433  0.3164  0.1281
 2533SOL    HW119235   0.290   2.686   5.028  0.9433  0.3394 -0.3312
 2533SOL    HW219236   0.346   2.629   5.145  1.0498  0.8019 -0.2294
 2534SOL     OW19237   4.439   4.569  16.235 -0.6712  0.7273 -0.1290
 2534SOL    HW119238   4.429   4.611  16.150 -0.9132 -0.9883 -0.9474
 2534SOL    HW219239   4.520   4.617  16.253 -0.7553  0.5648  0.7083
 2535SOL     OW19240   1.785   2.367  11.123  0.2608 -0.7421  0.3037
 2535SOL    HW119241   1.740   2.419  11.056 -1.0691 -0.2699  1.5625
 2535SOL    HW219242   1.822   2.437  11.177  1.1819 -0.3644 -0.7949
 2536SOL     OW19243   4.570   2.357   4.035 -0.5037  0.1290  0.0525
 2536SOL    HW119244   4.582   2.412   4.113 -1.0396  1.0431 -0.5041
 2536SOL    HW219245   4.549   2.425   3.971 -2.7941 -0.3344  0.3068
 2537SOL     OW19246   1.663   2.200   7.324  0.1460 -0.2262 -0.0047
 2537SOL    HW119247   1.721   2.130   7.294 -0.2732  0.4368 -2.4000
 2537SOL    HW219248   1.581   2.152   7.334 -0.5159  0.6468 -1.2457
 2538SOL     OW19249   0.981   4.447   2.045 -0.0739 -0.0750 -0.0053
 2538SOL    HW119250   1.003   4.495   2.124 -0.7887 -0.3086  0.3402
 2538SOL    HW219251   1.050   4.484   1.990  0.9676  0.7146  1.8358
 2539SOL     OW19252   1.195   0.787   8.940  0.0111  0.1980  0.3318
 2539SOL    HW119253   1.188   0.722   9.011 -2.0335  1.9476  1.7127
 2539SOL    HW219254   1.109   0.828   8.935  0.0710  0.3641  0.6688
 2540SOL     OW19255   0.003   0.840   1.794 -0.1781 -0.0161 -0.5347
 2540SOL    HW119256   4.658   0.802   1.824  0.6775 -1.0693  0.4720
 2540SOL    HW219257   4.729   0.932   1.818 -0.2459 -0.5357  1.3991
 2541SOL     OW19258   1.584   0.201   2.626 -0.1441 -0.0838  0.5619
 2541SOL    HW119259   1.645   0.230   2.693  0.3375  0.2166 -0.0016
 2541SOL    HW219260   1.519   0.272   2.632 -0.3450 -0.1764 -0.4380
 2542SOL     OW19261   1.133   1.170  13.179  0.0792 -0.1289  0.1995
 2542SOL    HW119262   1.168   1.230  13.245  1.6660 -0.9862  0.1558
 2542SOL    HW219263   1.112   1.231  13.109 -2.2427 -2.5771 -1.2054
 2543SOL     OW19264   1.248   2.525   6.911 -0.1578 -0.0988  0.0594
 2543SOL    HW119265   1.279   2.474   6.985 -0.1224  0.7437  0.6199
 2543SOL    HW219266   1.240   2.456   6.846 -0.2330  1.3195 -1.4590
 2544SOL     OW19267   3.020   2.564  14.133 -0.5159  0.6171 -0.3746
 2544SOL    HW119268   3.066   2.484  14.158  1.1874  1.3301 -1.2324
 2544SOL    HW219269   3.009   2.553  14.038 -0.3939 -0.4173 -0.2644
 2545SOL     OW19270   3.002   0.761   4.202  0.3474 -0.1095  0.1172
 2545SOL    HW119271   2.909   0.743   4.207  0.3939 -0.3886 -0.0098
 2545SOL    HW219272   3.021   0.817   4.278  0.3172  1.5845 -1.1206
 2546SOL     OW19273   4.175   3.843  13.846 -0.1985  0.3679  0.2711
 2546SOL    HW119274   4.246   3.899  13.878 -0.4835 -0.1050  1.7591
 2546SOL    HW219275   4.141   3.890  13.770 -1.5802  1.4634  1.5538
 2547SOL     OW19276   3.198   4.639  13.566  0.1714 -0.3883 -0.2141
 2547SOL    HW119277   3.141   4.711  13.596 -1.1774 -1.0436 -1.2226
 2547SOL    HW219278   3.145   4.562  13.583  0.3850 -0.8015 -1.4178
 2548SOL     OW19279   1.474   2.440   4.830 -0.0383  0.4073 -0.2190
 2548SOL    HW119280   1.519   2.525   4.828  0.3655  0.1503 -2.0491
 2548SOL    HW219281   1.447   2.438   4.738 -0.1848 -2.6707 -0.0980
 2549SOL     OW19282   4.143   4.113   4.272  0.2265 -0.2942  0.6386
 2549SOL    HW119283   4.153   4.184   4.209  1.9430 -1.9958 -1.0085
 2549SOL    HW219284   4.089   4.058   4.215 -0.8888  0.3765  1.0417
 2550SOL     OW19285   3.897   0.888   1.400  0.0025  0.1362  0.0836
 2550SOL    HW119286   3.983   0.848   1.410  0.8020  0.5214 -5.2385
 2550SOL    HW219287   3.857   0.888   1.487  1.2295  6.5674  0.6888
 2551SOL     OW19288   1.740   2.777   0.863  0.4815  0.2071 -0.3410
 2551SOL    HW119289   1.768   2.693   0.900  1.3354  0.5054 -0.3161
 2551SOL    HW219290   1.686   2.750   0.788  1.2687  0.3329 -0.9536
 2552SOL     OW19291   1.045   0.363   6.599 -0.3325 -0.2202 -0.0256
 2552SOL    HW119292   1.116   0.340   6.660 -0.8697 -0.1040  0.6437
 2552SOL    HW219293   0.982   0.309   6.648 -0.4327  0.3205  0.4380
 2553SOL     OW19294   3.920   3.140  15.539 -0.0243 -0.5711 -0.2866
 2553SOL    HW119295   3.987   3.124  15.473 -0.9132 -0.1560 -1.2963
 2553SOL    HW219296   3.896   3.225  15.501  2.4713  1.2549  2.1305
 2554SOL     OW19297   2.527   0.843   3.505  0.2749  0.2861  0.3988
 2554SOL    HW119298   2.457   0.815   3.564 -0.2146 -0.4344 -0.5446
 2554SOL    HW219299   2.602   0.789   3.532 -1.4004 -0.6273  3.2405
 2555SOL     OW19300   2.331   2.071  17.482 -0.1889 -0.2794  0.0035
 2555SOL    HW119301   2.286   2.140  17.434  0.4175 -0.8870 -1.4185
 2555SOL    HW219302   2.386   2.031  17.415 -0.2946 -1.0882  0.4042
 2556SOL     OW19303   0.069   1.005   7.584 -0.0635 -0.5869 -0.4500
 2556SOL    HW119304   0.138   0.961   7.635 -0.0561  0.0380  0.0694
 2556SOL    HW219305   0.070   0.974   7.493 -0.3507  0.1930 -0.7171
 2557SOL     OW19306   3.981   0.215   1.856  0.1055  0.2073 -0.1233
 2557SOL    HW119307   4.070   0.202   1.823  0.1380  2.2825 -0.8469
 2557SOL    HW219308   3.935   0.189   1.776  0.2422 -0.1367 -0.0897
 2558SOL     OW19309   2.125   3.148   6.527 -0.4016  0.5682 -0.0902
 2558SOL    HW119310   2.090   3.065   6.492  0.4906 -0.7705  2.1904
 2558SOL    HW219311   2.064   3.210   6.488 -2.2899 -1.9331 -1.1741
 2559SOL     OW19312   3.106   4.081   9.446 -0.2544  0.2077 -1.0137
 2559SOL    HW119313   3.061   4.008   9.404  0.8900 -0.7364 -0.5744
 2559SOL    HW219314   3.033   4.109   9.502 -0.4063  0.4910 -1.3563
 2560SOL     OW19315   3.836   1.551   9.362 -0.0038  0.2979 -0.6276
 2560SOL    HW119316   3.907   1.613   9.340 -0.1611  0.4848 -0.6084
 2560SOL    HW219317   3.887   1.473   9.341 -0.8221 -0.1515 -0.9428
 2561SOL     OW19318   3.606   0.558   8.079 -0.2600 -0.1565 -0.0670
 2561SOL    HW119319   3.666   0.622   8.114 -1.2999  1.1102 -0.6039
 2561SOL    HW219320   3.625   0.562   7.985  0.0470 -3.2617 -0.1672
 2562SOL     OW19321   3.318   0.653  11.142  0.0060  0.0607  0.2462
 2562SOL    HW119322   3.376   0.714  11.187 -0.8314  0.9684  0.0728
 2562SOL    HW219323   3.252   0.649  11.211 -0.1838 -0.3120  0.0467
 2563SOL     OW19324   2.429   4.283   7.621 -0.1911  0.3416 -0.1184
 2563SOL    HW119325   2.506   4.305   7.570  1.3105  0.0249  2.0203
 2563SOL    HW219326   2.359   4.322   7.569 -2.4739 -2.2775  0.9652
 2564SOL     OW19327   0.080   4.085   6.221  0.0032  0.3186 -0.0082
 2564SOL    HW119328   0.160   4.034   6.234  1.0386  1.6034 -1.4459
 2564SOL    HW219329   0.085   4.145   6.296 -2.6672  0.3335  0.1637
 2565SOL     OW19330   1.929   1.805   2.207  0.4897  0.3595 -0.3384
 2565SOL    HW119331   1.927   1.728   2.151  0.7929 -0.3472  0.6115
 2565SOL    HW219332   1.838   1.835   2.207  0.7277  1.0852 -0.1232
 2566SOL     OW19333   2.417   1.806  13.356 -0.5608 -1.0565  0.1963
 2566SOL    HW119334   2.334   1.763  13.334 -1.6517  0.8269  0.5712
 2566SOL    HW219335   2.453   1.751  13.425  0.0987 -0.6311  0.1979
 2567SOL     OW19336   2.411   4.672  17.714  0.2069 -0.3581  0.0266
 2567SOL    HW119337   2.372   4.643  17.631  2.2963 -2.6188 -0.1664
 2567SOL    HW219338   2.491   4.718  17.687 -0.0640  0.6736  0.9792
 2568SOL     OW19339   3.283   1.074   5.909  0.5173 -0.0897 -0.1385
 2568SOL    HW119340   3.225   1.101   5.981 -2.4429 -1.5794 -1.9457
 2568SOL    HW219341   3.321   1.155   5.873  0.5255 -0.0986 -0.1495
 2569SOL     OW19342   1.709   3.888  15.482 -0.0416  0.7463 -0.2055
 2569SOL    HW119343   1.670   3.937  15.554  2.1653  0.6858  1.0517
 2569SOL    HW219344   1.784   3.944  15.462 -0.1971  1.6167  1.7323
 2570SOL     OW19345   2.094   2.825   3.756  0.2291 -0.8823 -0.6038
 2570SOL    HW119346   2.051   2.826   3.670  0.2324  0.8497 -0.6036
 2570SOL    HW219347   2.018   2.805   3.811  1.2818 -0.6304  0.9337
 2571SOL     OW19348   4.548   2.867   3.033  0.1977 -0.2428 -0.0305
 2571SOL    HW119349   4.642   2.851   3.028  0.4572  1.1993  0.1444
 2571SOL    HW219350   4.509   2.841   2.949  1.5809 -3.5936  0.3641
 2572SOL     OW19351   4.684   3.050   1.886  0.0519  0.1361  0.0585
 2572SOL    HW119352   0.033   3.064   1.847 -1.5340  1.9638 -2.7956
 2572SOL    HW219353   4.645   3.137   1.894 -1.2250 -0.2773 -1.6158
 2573SOL     OW19354   1.325   0.439  17.433 -0.9947 -0.1703 -0.0575
 2573SOL    HW119355   1.257   0.463  17.370  0.4355 -2.8344 -2.5324
 2573SOL    HW219356   1.281   0.372  17.486  1.3703 -1.8584 -0.2768
 2574SOL     OW19357   1.307   3.090   6.951  0.1038 -0.7561  0.1841
 2574SOL    HW119358   1.284   3.103   6.859  0.6252 -2.2247 -0.1507
 2574SOL    HW219359   1.335   2.999   6.940  0.9086 -0.3604 -1.0942
 2575SOL     OW19360   3.990   1.745   6.408 -0.3269  0.3421 -0.4119
 2575SOL    HW119361   4.036   1.816   6.451  2.0791 -0.9724 -0.7897
 2575SOL    HW219362   3.899   1.773   6.411 -0.3037  0.3464  0.1400
 2576SOL     OW19363   2.420   0.490  15.721 -0.3285 -0.2368  0.7759
 2576SOL    HW119364   2.441   0.566  15.668 -0.0432 -0.5661  0.4131
 2576SOL    HW219365   2.497   0.434  15.711 -0.2203 -0.0707  0.6813
 2577SOL     OW19366   0.183   4.277   9.654 -0.5382  0.0674  0.0472
 2577SOL    HW119367   0.191   4.365   9.689 -0.9215  0.2574 -0.3392
 2577SOL    HW219368   0.165   4.295   9.561 -1.1441 -0.9314 -0.0346
 2578SOL     OW19369   4.586   4.083   8.525 -0.1326 -0.3440  0.5959
 2578SOL    HW119370   4.557   4.037   8.603 -1.1920 -1.9295 -0.7359
 2578SOL    HW219371   4.674   4.047   8.515 -0.1274 -0.1097 -0.2195
 2579SOL     OW19372   2.212   4.517   8.648  0.3055  0.4382  0.3230
 2579SOL    HW119373   2.138   4.473   8.606  0.0073  1.5716 -0.3161
 2579SOL    HW219374   2.171   4.575   8.712  0.4599  2.4204 -1.3750
 2580SOL     OW19375   1.842   2.870  14.965  0.5662  0.0252 -0.1305
 2580SOL    HW119376   1.913   2.809  14.945 -0.1393 -0.8527  0.0689
 2580SOL    HW219377   1.780   2.813  14.921  0.2014 -0.1621  0.6294
 2581SOL     OW19378   1.871   1.746   4.385 -0.0736  0.5020 -0.0113
 2581SOL    HW119379   1.939   1.796   4.340  0.2364 -0.5762 -0.7268
 2581SOL    HW219380   1.924   1.666   4.385 -0.0129  0.5496  1.2818
 2582SOL     OW19381   4.616   3.441  14.534 -0.2525 -0.8389 -0.0918
 2582SOL    HW119382   4.587   3.414  14.447 -0.0964 -2.4715  0.3566
 2582SOL    HW219383   4.669   3.513  14.500  0.5646 -0.6634  1.5546
 2583SOL     OW19384   0.124   4.297   9.338 -0.4037  0.1541 -0.6260
 2583SOL    HW119385   0.165   4.210   9.341 -3.6681 -1.3670 -0.4491
 2583SOL    HW219386   0.034   4.270   9.319 -0.3062 -0.6296  0.0097
 2584SOL     OW19387   2.252   2.192   1.519 -0.4437 -0.1923  0.0104
 2584SOL    HW119388   2.191   2.157   1.454 -0.5732  1.6849 -0.9058
 2584SOL    HW219389   2.324   2.138   1.486 -0.9732 -1.1052  0.3685
 2585SOL     OW19390   0.263   2.799   4.380  0.6842 -0.7193 -0.0926
 2585SOL    HW119391   0.279   2.758   4.295 -0.1760 -0.4908 -0.3673
 2585SOL    HW219392   0.252   2.887   4.345  0.6159 -0.8471 -0.3890
 2586SOL     OW19393   4.600   3.470   0.625  0.8878 -0.1353  0.0226
 2586SOL    HW119394   4.690   3.495   0.602  0.8995  1.5369  1.8911
 2586SOL    HW219395   4.581   3.539   0.688  0.6891  0.2375 -0.4432
 2587SOL     OW19396   4.623   0.522   1.841  0.2575 -0.0429 -0.1194
 2587SOL    HW119397   4.625   0.561   1.753 -0.6363  1.1222  0.3769
 2587SOL    HW219398   4.621   0.602   1.894 -0.8525 -0.8782  1.0889
 2588SOL     OW19399   3.387   3.898   9.205  0.0358  0.3878 -0.2602
 2588SOL    HW119400   3.372   3.992   9.215  0.4513  0.4506 -0.2154
 2588SOL    HW219401   3.468   3.882   9.253  0.7856  0.5161 -1.4589
 2589SOL     OW19402   2.226   3.908   9.360 -0.3294 -0.0777  0.2553
 2589SOL    HW119403   2.146   3.856   9.374  1.2568 -1.8536  2.7027
 2589SOL    HW219404   2.266   3.881   9.443 -0.3149  2.1954  0.9839
 2590SOL     OW19405   1.351   3.223   0.126  0.0105  0.2449  0.1236
 2590SOL    HW119406   1.305   3.185   0.051  1.8546 -1.1861 -0.2886
 2590SOL    HW219407   1.430   3.168   0.124  1.2432  1.9646  1.3494
 2591SOL     OW19408   3.239   2.115   7.565  0.0596 -0.4552  0.4104
 2591SOL    HW119409   3.164   2.165   7.534  0.6485 -0.6442 -1.2853
 2591SOL    HW219410   3.301   2.187   7.556  0.6033 -0.9794 -0.0211
 2592SOL     OW19411   2.241   3.978   9.096  0.1569 -0.2961 -0.4604
 2592SOL    HW119412   2.229   3.955   9.189  2.2165  2.3974  0.4664
 2592SOL    HW219413   2.170   4.038   9.072  0.6874  0.0892 -1.0570
 2593SOL     OW19414   1.514   1.852   4.893 -0.5658  0.1552  0.0126
 2593SOL    HW119415   1.443   1.908   4.925 -0.9995 -0.2455 -0.2516
 2593SOL    HW219416   1.486   1.771   4.936  0.0182 -0.6274 -1.0915
 2594SOL     OW19417   2.596   0.376   4.586  0.1938 -0.5885 -0.1742
 2594SOL    HW119418   2.538   0.304   4.612  2.3262 -2.7587 -1.3856
 2594SOL    HW219419   2.557   0.457   4.617  1.1471  1.0177 -3.2142
 2595SOL     OW19420   4.516   4.668   2.643 -0.1738 -0.2865 -0.9111
 2595SOL    HW119421   4.476   4.648   2.728 -0.7766  0.1199 -1.1034
 2595SOL    HW219422   4.453   4.729   2.606  0.7201  1.3247  0.2324
 2596SOL     OW19423   3.849   2.427   2.850  0.5932 -0.5670 -0.3896
 2596SOL    HW119424   3.906   2.380   2.789  0.7549 -0.4498 -0.3273
 2596SOL    HW219425   3.795   2.453   2.775  2.7229 -0.9551 -2.0727
 2597SOL     OW19426   3.341   0.309   5.415  0.5327 -0.2931  0.1953
 2597SOL    HW119427   3.320   0.219   5.440  0.7226 -1.1437 -2.7199
 2597SOL    HW219428   3.252   0.345   5.411  1.1730  1.5912  3.2502
 2598SOL     OW19429   1.258   0.861   5.447 -0.2081  0.1722 -0.2302
 2598SOL    HW119430   1.234   0.954   5.449  1.0674  0.5005 -0.2075
 2598SOL    HW219431   1.233   0.840   5.357  0.6357 -2.4614  0.1314
 2599SOL     OW19432   1.087   0.206   5.568  0.3526 -0.0654  0.0271
 2599SOL    HW119433   1.095   0.292   5.526  0.5520 -0.3210 -0.4569
 2599SOL    HW219434   1.124   0.145   5.504 -1.7686 -2.2807  0.9232
 2600SOL     OW19435   4.266   0.189   8.260  0.4803 -0.0704  0.7157
 2600SOL    HW119436   4.208   0.265   8.266 -0.3967 -0.4958 -2.4716
 2600SOL    HW219437   4.313   0.196   8.343  0.9133  0.3827  0.4312
 2601SOL     OW19438   0.113   4.064   9.785  0.3016 -0.2853  0.4112
 2601SOL    HW119439   0.047   4.023   9.729  0.3306 -0.4213  0.4755
 2601SOL    HW219440   0.135   4.143   9.736  0.3656 -1.6784 -1.8307
 2602SOL     OW19441   2.908   3.870  12.168  0.2456 -0.0172 -0.0800
 2602SOL    HW119442   2.976   3.896  12.106  1.5783  1.0285  1.8071
 2602SOL    HW219443   2.873   3.959  12.176  0.7636  0.1623  0.2417
 2603SOL     OW19444   2.781   1.639   8.078 -0.0628  0.1572 -0.6319
 2603SOL    HW119445   2.733   1.597   8.006  0.3468 -0.5726 -0.4768
 2603SOL    HW219446   2.747   1.609   8.162  1.1560 -0.8305 -0.5027
 2604SOL     OW19447   4.299   4.113  15.143 -0.1087  0.1699  0.3314
 2604SOL    HW119448   4.305   4.042  15.079  2.3613  2.3965 -1.9310
 2604SOL    HW219449   4.361   4.173  15.100  0.7475 -1.8487 -1.2288
 2605SOL     OW19450   4.119   1.876  11.291  0.1987  0.6673 -0.5112
 2605SOL    HW119451   4.093   1.793  11.252 -0.8621 -0.4001  2.4770
 2605SOL    HW219452   4.211   1.868  11.318 -0.2570  0.0657  0.8145
 2606SOL     OW19453   0.203   4.027   3.019  0.4986  0.0257  0.2238
 2606SOL    HW119454   0.160   3.996   3.098 -1.2103 -0.9231 -1.0925
 2606SOL    HW219455   0.277   4.065   3.067 -0.0406  1.1691  0.1493
 2607SOL     OW19456   2.038   4.220   2.199  0.3066  0.0878 -0.1401
 2607SOL    HW119457   1.947   4.211   2.171 -0.2518  0.2189  1.5988
 2607SOL    HW219458   2.078   4.149   2.149 -0.3399 -1.4050  1.4544
 2608SOL     OW19459   3.913   1.818  17.259  0.2726 -0.0999 -0.4916
 2608SOL    HW119460   3.890   1.793  17.349 -3.0442  1.3801 -0.9270
 2608SOL    HW219461   3.872   1.905  17.259 -0.3186 -0.3966 -2.3945
 2609SOL     OW19462   3.197   1.667   1.225 -0.2650  0.5617 -0.7222
 2609SOL    HW119463   3.259   1.600   1.254  1.2097  1.9373 -0.7010
 2609SOL    HW219464   3.191   1.643   1.132  2.1627  0.6545 -0.8841
 2610SOL     OW19465   1.022   0.719   7.970 -0.0928 -0.4677  0.5059
 2610SOL    HW119466   1.092   0.777   7.997 -2.3539  1.6799  1.7480
 2610SOL    HW219467   0.974   0.723   8.053 -1.2900  0.5476 -0.2296
 2611SOL     OW19468   1.726   2.332   6.243 -0.0003 -0.0976 -0.6137
 2611SOL    HW119469   1.674   2.363   6.169 -1.3511  2.7946  1.5510
 2611SOL    HW219470   1.685   2.381   6.314 -1.8934 -1.2478 -0.9085
 2612SOL     OW19471   4.201   3.717  12.871  0.0651  0.6819  0.1680
 2612SOL    HW119472   4.156   3.707  12.787  1.6734 -0.8979 -0.5129
 2612SOL    HW219473   4.282   3.666  12.864 -1.0662 -0.7588 -2.3995
 2613SOL     OW19474   3.017   3.319   5.761  0.3057  0.0283 -0.1757
 2613SOL    HW119475   3.074   3.242   5.764 -0.8148 -0.7946 -0.1332
 2613SOL    HW219476   3.086   3.385   5.767  0.6802 -0.3660 -0.1183
 2614SOL     OW19477   1.815   4.450   8.334  0.8325 -0.6053  0.7136
 2614SOL    HW119478   1.775   4.450   8.247  0.5527  1.0386  0.8395
 2614SOL    HW219479   1.835   4.543   8.339 -0.5907 -0.2656  0.0128
 2615SOL     OW19480   3.436   1.963   0.851  0.2637  0.3681 -0.2549
 2615SOL    HW119481   3.482   1.913   0.918 -2.1135 -1.8982 -0.2955
 2615SOL    HW219482   3.412   2.046   0.892  0.6028  1.2702 -1.8536
 2616SOL     OW19483   3.460   2.432   0.692 -0.6790  0.3352 -0.2930
 2616SOL    HW119484   3.442   2.480   0.773 -1.5675  0.5048 -0.5910
 2616SOL    HW219485   3.534   2.374   0.713 -2.1739 -0.2252  3.5232
 2617SOL     OW19486   4.044   1.702   0.367 -0.5824 -0.0721  0.0436
 2617SOL    HW119487   4.104   1.695   0.293  1.3859  0.8998  1.5479
 2617SOL    HW219488   4.029   1.611   0.391  0.9867 -0.8405 -1.9763
 2618SOL     OW19489   3.616   3.558  16.306 -0.0430 -0.4518  0.2412
 2618SOL    HW119490   3.594   3.636  16.255  2.4020  0.2989  0.3624
 2618SOL    HW219491   3.579   3.495  16.243  0.6329  0.0857 -0.6893
 2619SOL     OW19492   3.881   4.519   3.050 -1.0484  0.0394 -0.1547
 2619SOL    HW119493   3.822   4.580   3.006 -0.0376  0.7814 -0.4722
 2619SOL    HW219494   3.956   4.567   3.085  0.0930 -0.0939 -2.4394
 2620SOL     OW19495   1.882   0.365  16.191  0.2648 -0.2696  0.6283
 2620SOL    HW119496   1.858   0.432  16.128 -0.6733 -0.3933  0.8525
 2620SOL    HW219497   1.977   0.368  16.184  0.1412  1.8951 -0.1137
 2621SOL     OW19498   3.069   0.137   2.336  0.4399  0.3212  0.1207
 2621SOL    HW119499   3.023   0.111   2.256 -0.8238 -0.6174  1.1575
 2621SOL    HW219500   3.081   0.230   2.318 -1.9048  0.2742 -1.6199
 2622SOL     OW19501   3.924   2.594   4.389  0.2272  0.0874  0.1425
 2622SOL    HW119502   3.972   2.603   4.471 -1.7108  0.1901  1.2699
 2622SOL    HW219503   3.987   2.636   4.330  0.7324 -3.3043 -1.7547
 2623SOL     OW19504   1.271   4.340   4.805 -0.1706 -0.0025  0.3547
 2623SOL    HW119505   1.208   4.337   4.877 -1.2526 -0.5508 -0.6206
 2623SOL    HW219506   1.237   4.264   4.758 -2.8254  1.7359 -0.5608
 2624SOL     OW19507   4.610   3.897   8.743 -0.0355  0.2934 -0.0374
 2624SOL    HW119508   4.616   3.982   8.786 -0.8506 -0.1983  1.0565
 2624SOL    HW219509   4.586   3.835   8.812  2.3719 -0.1067  0.4323
 2625SOL     OW19510   1.844   3.597   4.762  0.0274 -0.0625 -0.0040
 2625SOL    HW119511   1.773   3.612   4.700  1.4728  0.4282 -1.5532
 2625SOL    HW219512   1.829   3.503   4.763  0.7317 -0.1700  0.7147
 2626SOL     OW19513   3.312   2.321   2.244  0.3144 -1.1593 -0.0870
 2626SOL    HW119514   3.302   2.402   2.192  1.6812  0.3263  1.9747
 2626SOL    HW219515   3.294   2.252   2.180  1.1164 -0.9892 -0.5023
 2627SOL     OW19516   4.200   1.700   1.847 -0.1702 -0.2935 -0.5692
 2627SOL    HW119517   4.147   1.755   1.790 -0.0039  0.8134  0.3365
 2627SOL    HW219518   4.290   1.734   1.839 -0.3039  0.0482 -0.6084
 2628SOL     OW19519   0.949   1.360   8.996  0.1442 -0.2501  0.1138
 2628SOL    HW119520   0.891   1.410   9.053  0.1396  0.4366 -0.5086
 2628SOL    HW219521   0.887   1.304   8.949 -2.8676  0.9191  2.7462
 2629SOL     OW19522   2.076   2.063   1.347  0.2137  0.4400  0.2817
 2629SOL    HW119523   2.049   1.973   1.331 -1.0662  1.1343 -1.4985
 2629SOL    HW219524   2.063   2.098   1.259 -0.0147 -0.3536 -0.0054
 2630SOL     OW19525   2.534   3.104  12.109  0.3477 -0.4459  0.7914
 2630SOL    HW119526   2.564   3.146  12.029 -0.3231  0.7370  1.1474
 2630SOL    HW219527   2.447   3.143  12.122  0.2707 -0.5812  0.6789
 2631SOL     OW19528   1.089   1.616  12.964  0.2054 -0.2717 -0.2571
 2631SOL    HW119529   1.175   1.638  12.927  0.4864 -0.0300  0.5492
 2631SOL    HW219530   1.079   1.692  13.021 -0.7889 -0.7112  0.1410
 2632SOL     OW19531   0.875   4.569   5.007 -0.3761  0.5174  1.0077
 2632SOL    HW119532   0.906   4.526   5.087 -2.0958 -2.9367 -0.2312
 2632SOL    HW219533   0.966   4.577   4.979 -1.4391  1.1747 -2.2858
 2633SOL     OW19534   3.602   2.772   5.779  0.0002 -0.0342 -0.3432
 2633SOL    HW119535   3.693   2.780   5.807 -0.1561 -0.5641  0.3090
 2633SOL    HW219536   3.610   2.797   5.687 -2.2773  0.1690 -0.4943
 2634SOL     OW19537   3.813   0.175   9.663 -0.0515  0.0624  0.5175
 2634SOL    HW119538   3.851   0.184   9.750 -0.0550 -1.5280  0.6930
 2634SOL    HW219539   3.746   0.108   9.678  1.5587 -1.5865  0.4838
 2635SOL     OW19540   3.080   3.855   8.654 -0.2048 -0.0141  0.3956
 2635SOL    HW119541   3.029   3.913   8.711 -0.2502  0.0132  0.3267
 2635SOL    HW219542   3.122   3.796   8.718 -0.7515 -0.4022  0.4027
 2636SOL     OW19543   2.254   3.060   1.389  0.0859 -0.2808 -0.2909
 2636SOL    HW119544   2.221   3.103   1.468  0.0731  2.3791 -1.7256
 2636SOL    HW219545   2.232   2.968   1.402 -0.8450  0.0261  0.2960
 2637SOL     OW19546   0.551   0.787   2.716  0.8874 -0.0786 -0.0921
 2637SOL    HW119547   0.615   0.792   2.787 -0.6537  1.5703  1.1864
 2637SOL    HW219548   0.589   0.740   2.642 -0.8646 -3.4028  1.1470
 2638SOL     OW19549   1.471   3.109   9.475 -0.2713  0.2353 -0.1192
 2638SOL    HW119550   1.540   3.059   9.430  0.4537 -1.3178  2.7089
 2638SOL    HW219551   1.458   3.176   9.408 -3.5428 -0.3849 -0.0879
 2639SOL     OW19552   4.384   3.128   2.002  0.5096 -0.9570 -0.1368
 2639SOL    HW119553   4.325   3.200   1.979 -1.2071 -2.5892 -0.9021
 2639SOL    HW219554   4.466   3.159   1.966  1.5436 -0.8905  2.2832
 2640SOL     OW19555   3.383   3.983   3.097  0.0898  0.5522  0.2135
 2640SOL    HW119556   3.322   3.932   3.150  2.1773 -1.3389  0.8071
 2640SOL    HW219557   3.463   3.996   3.149 -0.0540  0.6610  0.4064
 2641SOL     OW19558   2.721   1.123   7.254  0.0794 -0.0763 -0.2645
 2641SOL    HW119559   2.732   1.046   7.197 -0.8587  0.2992 -0.9553
 2641SOL    HW219560   2.671   1.184   7.200  0.2142 -0.6509 -1.0385
 2642SOL     OW19561   2.095   1.995   6.500  0.7251  0.1925  0.1129
 2642SOL    HW119562   2.018   2.052   6.494  0.6538  0.2310  1.3016
 2642SOL    HW219563   2.084   1.960   6.412  1.8891 -2.6113  1.0736
 2643SOL     OW19564   4.692   2.056   7.307 -0.0955 -0.3646  0.5119
 2643SOL    HW119565   4.623   2.121   7.320  0.2880  0.2969 -0.7742
 2643SOL    HW219566   4.707   2.033   7.399 -1.1277  1.0697  1.0347
 2644SOL     OW19567   1.482   3.596   6.583 -0.2149  0.8944  0.6862
 2644SOL    HW119568   1.558   3.577   6.637 -0.6673 -0.4182  0.8639
 2644SOL    HW219569   1.423   3.625   6.653 -0.8609 -1.9080  1.2954
 2645SOL     OW19570   3.415   4.063   1.640  1.1708  0.6085  0.6524
 2645SOL    HW119571   3.418   3.969   1.655  0.2083  0.4652  0.0123
 2645SOL    HW219572   3.500   4.086   1.677  1.5743 -0.2181  0.2307
 2646SOL     OW19573   1.242   3.733   3.769  0.1180  0.6688  0.1131
 2646SOL    HW119574   1.190   3.800   3.812 -3.9716 -0.3118 -3.3971
 2646SOL    HW219575   1.213   3.745   3.679 -2.2003  0.2446  0.8214
 2647SOL     OW19576   2.567   3.493   0.090 -0.4914  0.0374  0.1899
 2647SOL    HW119577   2.514   3.552   0.143 -0.6639 -0.3119  0.3992
 2647SOL    HW219578   2.656   3.529   0.098 -1.1387  1.3142  1.5648
 2648SOL     OW19579   0.857   3.732   5.722 -0.5650 -0.1877  0.2537
 2648SOL    HW119580   0.919   3.802   5.703 -0.8036  0.2713  1.1617
 2648SOL    HW219581   0.912   3.673   5.774 -0.0508 -0.8533 -1.0490
 2649SOL     OW19582   3.729   2.350   8.175  0.2259  0.3460 -0.5449
 2649SOL    HW119583   3.807   2.318   8.221 -0.1790 -0.7830 -0.6323
 2649SOL    HW219584   3.753   2.311   8.091  0.8633 -1.0471  0.2667
 2650SOL     OW19585   0.125   4.525   0.246  0.3913 -0.1049  0.1574
 2650SOL    HW119586   0.170   4.583   0.185  0.6631  0.6456  1.0643
 2650SOL    HW219587   0.105   4.457   0.182  0.6784 -1.5836  1.6418
 2651SOL     OW19588   1.850   1.775   9.330 -0.3143 -0.5939 -0.1818
 2651SOL    HW119589   1.770   1.827   9.341  0.0235  0.0324 -0.7041
 2651SOL    HW219590   1.887   1.839   9.269  1.0643  0.5283  1.8252
 2652SOL     OW19591   4.303   3.059   7.809 -0.7693 -0.3260 -0.9863
 2652SOL    HW119592   4.354   3.024   7.736  0.9076 -0.2104  0.1411
 2652SOL    HW219593   4.214   3.025   7.798 -2.8019  4.2830  1.4135
 2653SOL     OW19594   1.579   1.951   1.677 -0.9472  0.5229 -0.2299
 2653SOL    HW119595   1.571   2.037   1.634  0.2465  0.4332 -0.6178
 2653SOL    HW219596   1.673   1.945   1.662 -0.7000  1.0999  1.0920
 2654SOL     OW19597   0.665   4.244   4.094 -0.2615  0.3952  0.5627
 2654SOL    HW119598   0.753   4.221   4.126  0.6099  1.4301 -1.0841
 2654SOL    HW219599   0.612   4.175   4.133 -1.3046 -0.5128 -2.4468
 2655SOL     OW19600   3.711   4.031   2.449 -0.1482  0.0702  0.1657
 2655SOL    HW119601   3.749   4.117   2.429  0.6429 -0.1875  0.5619
 2655SOL    HW219602   3.650   4.051   2.520 -0.1486  0.0422  0.1732
 2656SOL     OW19603   3.131   1.620   6.633  0.2559  0.2704  0.7401
 2656SOL    HW119604   3.064   1.552   6.626  0.7955  0.1072 -3.0780
 2656SOL    HW219605   3.112   1.651   6.721  0.3494 -0.0643  0.8792
 2657SOL     OW19606   3.542   4.328   5.479  0.2653 -0.6974 -0.6454
 2657SOL    HW119607   3.464   4.328   5.424  2.9382  1.0091 -4.4245
 2657SOL    HW219608   3.546   4.423   5.496  1.7508 -1.2493  2.1290
 2658SOL     OW19609   2.381   3.144   5.285 -0.0710  0.4151 -0.0924
 2658SOL    HW119610   2.289   3.169   5.295  0.0197  0.9300 -0.5477
 2658SOL    HW219611   2.418   3.226   5.316  0.0903  0.6686 -0.9457
 2659SOL     OW19612   0.631   4.414  11.190  0.0104  0.5651 -0.3936
 2659SOL    HW119613   0.705   4.469  11.164  1.2262 -0.7401  0.3010
 2659SOL    HW219614   0.680   4.346  11.235 -0.7835  0.4366  0.2584
 2660SOL     OW19615   3.577   0.571   7.187 -0.1183  0.1894 -0.0143
 2660SOL    HW119616   3.614   0.488   7.155 -0.0541  0.4666 -0.6738
 2660SOL    HW219617   3.501   0.534   7.230  0.4877 -1.4452 -0.3441
 2661SOL     OW19618   0.481   4.428  10.315  0.3003 -0.1428 -0.1613
 2661SOL    HW119619   0.471   4.345  10.269  0.0561  0.2805 -0.8710
 2661SOL    HW219620   0.450   4.492  10.250  2.7628  0.9802 -0.2262
 2662SOL     OW19621   2.011   0.898   3.156  0.6836  0.2561 -0.4346
 2662SOL    HW119622   2.080   0.915   3.220  2.2829 -0.9758 -1.8240
 2662SOL    HW219623   1.933   0.931   3.202  0.5482 -2.1460  1.0210
 2663SOL     OW19624   3.904   4.629   1.840  0.6562  0.0848  0.1406
 2663SOL    HW119625   3.836   4.603   1.778 -0.5865  0.9146  1.1640
 2663SOL    HW219626   3.970   4.664   1.779  0.5562  0.1597  0.0737
 2664SOL     OW19627   3.584   1.811   1.056 -0.5235 -0.4456 -0.0227
 2664SOL    HW119628   3.663   1.789   1.007 -1.2095  0.0067 -1.3382
 2664SOL    HW219629   3.557   1.738   1.112 -0.9136 -0.7963 -0.6710
 2665SOL     OW19630   1.745   1.926  11.918  0.1318 -0.3071  0.3023
 2665SOL    HW119631   1.699   1.939  12.001 -0.2587  1.6535 -0.2215
 2665SOL    HW219632   1.762   2.019  11.901 -2.6482 -0.0876 -1.2094
 2666SOL     OW19633   3.211   1.347  13.393 -0.6701 -0.0171  0.3234
 2666SOL    HW119634   3.144   1.403  13.433 -2.0218 -0.4560 -1.3096
 2666SOL    HW219635   3.189   1.372  13.303 -0.9418 -2.8868 -0.4306
 2667SOL     OW19636   4.639   3.060   2.330  0.0281 -0.2630 -0.3815
 2667SOL    HW119637   4.625   2.966   2.320  0.4838 -0.1819 -1.6605
 2667SOL    HW219638   4.733   3.069   2.316  0.1021  0.0388  0.2617
 2668SOL     OW19639   0.541   1.607  17.303 -0.2016  0.3767 -0.8931
 2668SOL    HW119640   0.538   1.570  17.391  1.1977 -0.1284 -1.0548
 2668SOL    HW219641   0.527   1.528  17.252 -1.6767 -0.2526  0.4971
 2669SOL     OW19642   2.948   1.126   1.826  0.2160  0.0178 -0.1181
 2669SOL    HW119643   2.983   1.172   1.749 -0.5384  1.0468  0.1479
 2669SOL    HW219644   3.024   1.122   1.884 -0.5610  0.1521  0.9110
 2670SOL     OW19645   2.469   2.730   3.509 -0.0072  0.2711  0.0406
 2670SOL    HW119646   2.393   2.749   3.565  0.4711 -2.4568  1.6249
 2670SOL    HW219647   2.466   2.635   3.502  0.7047  0.3808 -1.7050
 2671SOL     OW19648   1.532   0.732   8.783 -0.0239  0.1617 -0.1001
 2671SOL    HW119649   1.604   0.681   8.819  0.5870  2.3773  1.8004
 2671SOL    HW219650   1.514   0.796   8.851  0.8260  0.5231 -0.2278
 2672SOL     OW19651   4.564   1.579   7.880 -0.4102 -0.2444 -0.2079
 2672SOL    HW119652   4.543   1.541   7.965  0.2277 -1.2369 -0.4938
 2672SOL    HW219653   4.540   1.671   7.895 -0.3959 -0.2199 -0.3302
 2673SOL     OW19654   4.182   0.298   7.346 -0.4842 -0.2654 -0.1898
 2673SOL    HW119655   4.105   0.282   7.401  1.4724  1.4347  3.0196
 2673SOL    HW219656   4.240   0.236   7.390 -1.2088 -1.3010 -0.6863
 2674SOL     OW19657   0.252   1.807   1.454 -0.0812  0.0412 -0.3140
 2674SOL    HW119658   0.260   1.750   1.378  2.7472 -3.4303  2.6127
 2674SOL    HW219659   0.285   1.891   1.420  1.5034 -0.6190 -0.4022
 2675SOL     OW19660   1.942   1.939  10.036  0.5303 -0.4486  0.2363
 2675SOL    HW119661   1.880   1.934  10.109  2.9287 -2.0195  2.1587
 2675SOL    HW219662   1.898   1.884   9.972 -0.3530  1.7264 -1.0388
 2676SOL     OW19663   3.864   3.116   8.158 -0.1496 -0.3308 -0.2652
 2676SOL    HW119664   3.835   3.157   8.239  0.8463  0.5689 -0.3532
 2676SOL    HW219665   3.889   3.030   8.192  0.8087 -1.5046 -3.9724
 2677SOL     OW19666   0.360   0.433   5.330  0.3630  0.3333 -0.1470
 2677SOL    HW119667   0.438   0.453   5.278 -0.7770  1.5334 -1.3940
 2677SOL    HW219668   0.345   0.524   5.355 -1.2012  0.3061 -1.0166
 2678SOL     OW19669   4.660   1.954   0.945 -0.3793  0.3563 -0.1797
 2678SOL    HW119670   0.007   1.916   0.918  1.1591  2.2748  1.8887
 2678SOL    HW219671   4.597   1.910   0.888 -1.5819 -1.3139  2.4622
 2679SOL     OW19672   0.944   1.566   2.396 -0.2923 -0.0985  0.9825
 2679SOL    HW119673   0.929   1.608   2.312 -2.4533 -0.8343  1.0090
 2679SOL    HW219674   0.853   1.579   2.422 -0.1517  0.2841  1.2869
 2680SOL     OW19675   2.498   4.525   4.868  0.2396  0.8530  0.4356
 2680SOL    HW119676   2.545   4.566   4.796 -2.2735  0.2852 -1.5306
 2680SOL    HW219677   2.556   4.452   4.891 -1.3294 -0.2958  0.7368
 2681SOL     OW19678   3.212   1.879   7.376 -0.1071  0.0265  0.2850
 2681SOL    HW119679   3.276   1.839   7.435 -0.0905 -0.9187 -0.3827
 2681SOL    HW219680   3.201   1.963   7.422  1.8544  1.5450 -2.0059
 2682SOL     OW19681   2.068   1.892  12.008  0.0689 -0.3735 -0.0651
 2682SOL    HW119682   2.090   1.802  11.984  2.3736  0.6355 -1.7702
 2682SOL    HW219683   2.052   1.940  11.926  2.0281 -0.6141 -0.5962
 2683SOL     OW19684   3.788   3.536   4.531  0.3248  0.4630  0.0502
 2683SOL    HW119685   3.754   3.507   4.616  2.0400  0.1262  0.6041
 2683SOL    HW219686   3.774   3.631   4.526 -2.3981  0.1876  2.1821
 2684SOL     OW19687   1.537   0.398   3.188 -0.5228 -0.7155  0.0882
 2684SOL    HW119688   1.537   0.414   3.282 -0.0056 -0.0928 -0.0151
 2684SOL    HW219689   1.600   0.327   3.178 -0.8319 -0.8587 -0.9001
 2685SOL     OW19690   0.567   0.816   6.029 -0.0559 -0.2957  0.5171
 2685SOL    HW119691   0.553   0.850   6.118  1.2247  0.5327  0.3960
 2685SOL    HW219692   0.503   0.744   6.021  1.6015 -1.8181  0.9250
 2686SOL     OW19693   0.015   0.938   8.862 -0.4020  0.1946 -0.2524
 2686SOL    HW119694   0.087   0.973   8.810 -0.6371  0.5190 -0.3665
 2686SOL    HW219695   0.007   1.015   8.919  1.6474  0.7321 -0.6917
 2687SOL     OW19696   0.050   3.749   6.568  0.2489  0.2312 -0.3132
 2687SOL    HW119697   0.033   3.843   6.560 -0.2673  0.2318  0.7862
 2687SOL    HW219698   0.003   3.719   6.490  2.5587  1.3199 -2.1298
 2688SOL     OW19699   4.448   3.355   3.499  0.6287  0.5793 -0.3082
 2688SOL    HW119700   4.499   3.423   3.543 -0.6078 -0.0474  2.1199
 2688SOL    HW219701   4.510   3.282   3.508 -1.1674 -0.6991  1.4581
 2689SOL     OW19702   1.691   0.365   8.253 -0.4863  0.0342 -0.2339
 2689SOL    HW119703   1.737   0.446   8.230 -0.8565  0.2192 -0.3302
 2689SOL    HW219704   1.762   0.314   8.290 -1.1377 -0.6926  0.0233
 2690SOL     OW19705   0.969   4.240   7.980 -0.2465  0.2611 -0.4501
 2690SOL    HW119706   1.043   4.211   7.927 -0.5165 -0.7791 -0.2423
 2690SOL    HW219707   0.901   4.193   7.931 -0.6700 -1.2002  1.5580
 2691SOL     OW19708   2.507   1.446  13.002 -0.0830 -0.5210 -0.3148
 2691SOL    HW119709   2.513   1.485  13.090  1.5440 -0.1268 -0.5953
 2691SOL    HW219710   2.455   1.368  13.021  1.1509 -0.8495  1.8035
 2692SOL     OW19711   2.840   1.726   3.070 -0.9382 -0.4970  0.2569
 2692SOL    HW119712   2.905   1.698   3.134 -0.1641 -0.8230 -0.6799
 2692SOL    HW219713   2.882   1.800   3.027 -0.2706 -1.3804 -0.6083
 2693SOL     OW19714   0.138   2.185   6.497  0.4366  0.1760 -0.0998
 2693SOL    HW119715   0.151   2.133   6.418  0.0367 -0.2042  0.0871
 2693SOL    HW219716   0.163   2.123   6.565 -1.0204  0.1205  0.3880
 2694SOL     OW19717   4.373   3.580  11.192 -0.0437  1.5214 -0.1276
 2694SOL    HW119718   4.342   3.670  11.202 -2.2262  0.5598  1.6990
 2694SOL    HW219719   4.394   3.569  11.100  1.2827  3.3163 -0.0361
 2695SOL     OW19720   4.143   0.387   1.293 -0.6974 -0.0161  0.4793
 2695SOL    HW119721   4.093   0.468   1.303  0.2173  0.4177  1.5745
 2695SOL    HW219722   4.076   0.320   1.286 -0.8246  0.2339 -0.7443
 2696SOL     OW19723   0.125   4.204   9.030  0.2477  0.3454  0.3456
 2696SOL    HW119724   0.084   4.288   9.012 -1.9323 -0.5154  1.3404
 2696SOL    HW219725   0.174   4.214   9.111  2.8639 -0.9664 -1.0480
 2697SOL     OW19726   3.861   0.583   5.842  0.0871  0.0291  0.5722
 2697SOL    HW119727   3.856   0.673   5.875  1.6408  1.3795 -2.7415
 2697SOL    HW219728   3.955   0.586   5.821  0.2009  0.6704  1.1799
 2698SOL     OW19729   2.199   2.592   9.148 -0.0412 -0.3404 -0.0435
 2698SOL    HW119730   2.157   2.546   9.221 -2.2182  2.3608  0.4177
 2698SOL    HW219731   2.226   2.671   9.194 -0.5255 -0.2796  0.1366
 2699SOL     OW19732   2.479   1.930  10.957  0.3378 -0.4348 -0.2572
 2699SOL    HW119733   2.547   1.906  10.894 -1.7198  0.2324 -2.7593
 2699SOL    HW219734   2.453   2.012  10.914 -0.0323 -0.1779  0.4569
 2700SOL     OW19735   2.199   2.060   3.600 -0.5244 -0.0022 -0.1094
 2700SOL    HW119736   2.138   2.014   3.658  0.1206  0.2572  0.7791
 2700SOL    HW219737   2.161   2.032   3.517 -1.0711 -2.5969  1.0328
 2701SOL     OW19738   1.613   2.671   7.278  0.0950 -0.5075  0.1905
 2701SOL    HW119739   1.652   2.659   7.365  0.7932  1.4543  0.1491
 2701SOL    HW219740   1.549   2.600   7.271 -0.9836  0.5306 -0.5556
 2702SOL     OW19741   2.996   0.147   5.658  0.1933 -0.2821  0.6187
 2702SOL    HW119742   2.971   0.237   5.680 -2.9268 -0.6109 -1.5525
 2702SOL    HW219743   2.945   0.130   5.579  0.0686  1.9283  0.2405
 2703SOL     OW19744   3.736   0.009   1.420 -0.1386 -0.4056 -0.3881
 2703SOL    HW119745   3.644   0.024   1.395 -0.0305  2.2081  0.7944
 2703SOL    HW219746   3.745   4.653   1.402  0.2285 -0.2706 -0.9165
 2704SOL     OW19747   2.902   0.106   3.745  0.5266 -0.3111 -0.3240
 2704SOL    HW119748   2.833   0.065   3.694 -1.9687  3.0569  0.3333
 2704SOL    HW219749   2.879   0.066   3.829 -0.4879  1.7424  0.3716
 2705SOL     OW19750   1.655   1.459  11.822  0.6804  0.1518  0.6213
 2705SOL    HW119751   1.669   1.545  11.781  0.1992  0.1795  0.5071
 2705SOL    HW219752   1.597   1.481  11.895  0.0122  1.8729 -0.4112
 2706SOL     OW19753   2.152   4.195   3.640 -0.7320 -0.0348 -0.0312
 2706SOL    HW119754   2.180   4.222   3.553  0.3702  2.5758  1.1375
 2706SOL    HW219755   2.141   4.100   3.631 -1.4685  0.0273  0.2260
 2707SOL     OW19756   3.586   2.030   6.374  0.3410  0.2237 -0.2782
 2707SOL    HW119757   3.586   1.985   6.289 -1.6234  0.5504 -0.4493
 2707SOL    HW219758   3.543   1.959   6.422  2.8164 -1.4370 -0.5336
 2708SOL     OW19759   2.905   3.916   4.792 -0.0856 -0.0075  0.0798
 2708SOL    HW119760   2.969   3.983   4.816  0.5816 -0.4361 -0.4973
 2708SOL    HW219761   2.951   3.839   4.825  2.2867  0.4094 -2.2236
 2709SOL     OW19762   2.009   1.917  14.318  0.0408  0.4762 -0.2914
 2709SOL    HW119763   2.080   1.928  14.255  1.1495  0.7248  1.0132
 2709SOL    HW219764   1.990   2.009  14.331 -0.3235  0.6791 -2.1590
 2710SOL     OW19765   4.373   3.509   4.381  0.7624  0.4301  0.5101
 2710SOL    HW119766   4.367   3.414   4.396  0.0144  0.1500 -1.4760
 2710SOL    HW219767   4.413   3.529   4.465  0.5010  2.5437  0.1292
 2711SOL     OW19768   3.492   1.461  13.647 -0.5248 -0.0215 -0.1594
 2711SOL    HW119769   3.535   1.462  13.733  1.5398  0.9118 -1.1858
 2711SOL    HW219770   3.553   1.410  13.594 -1.1810 -0.0858 -0.8538
 2712SOL     OW19771   4.646   0.044  11.862  0.1508 -0.6558  0.3347
 2712SOL    HW119772   4.644   0.106  11.789 -1.6525 -1.1437 -0.0265
 2712SOL    HW219773   4.558   0.007  11.854 -0.3481  1.6504 -4.5729
 2713SOL     OW19774   1.413   3.949   0.352  0.5352  0.2713 -0.3526
 2713SOL    HW119775   1.332   3.996   0.333  1.4328  1.7704 -0.4356
 2713SOL    HW219776   1.395   3.877   0.291 -0.5150 -0.4486  0.7972
 2714SOL     OW19777   3.305   0.643   5.562  0.1792  0.0722  0.1386
 2714SOL    HW119778   3.292   0.736   5.584  1.0331  0.0597  0.7317
 2714SOL    HW219779   3.377   0.650   5.499 -1.5288  1.8501 -1.6230
 2715SOL     OW19780   3.213   3.662   3.069 -0.3632  0.4298 -0.4286
 2715SOL    HW119781   3.255   3.697   2.990 -0.6916 -1.5753 -1.4823
 2715SOL    HW219782   3.290   3.655   3.125 -1.8574  4.2192  2.0982
 2716SOL     OW19783   4.585   2.888   6.320  0.2927  0.3038 -0.2552
 2716SOL    HW119784   4.594   2.793   6.314  1.9045  0.4702 -0.2860
 2716SOL    HW219785   4.611   2.908   6.410  0.0549 -0.9609  0.0980
 2717SOL     OW19786   1.053   0.178   0.113  0.2993  0.1153  0.1938
 2717SOL    HW119787   0.987   0.121   0.073  1.0196 -0.0800 -0.7165
 2717SOL    HW219788   1.108   0.198   0.037  0.0437  0.7856  0.1870
 2718SOL     OW19789   1.894   3.316   7.770 -0.4396 -0.2666 -0.3852
 2718SOL    HW119790   1.943   3.373   7.829  0.5148 -1.6408  0.1531
 2718SOL    HW219791   1.813   3.366   7.778  1.3583  2.2652  1.8899
 2719SOL     OW19792   4.656   1.766   2.803  0.1602 -0.0022 -0.2775
 2719SOL    HW119793   4.628   1.811   2.723 -2.5303 -0.5432  0.3815
 2719SOL    HW219794   0.015   1.767   2.796  0.0876 -1.1446 -1.5503
 2720SOL     OW19795   0.096   3.012   7.338  0.1154  0.4287 -0.7760
 2720SOL    HW119796   0.073   3.010   7.245 -1.2308 -1.3675 -0.4155
 2720SOL    HW219797   0.184   2.977   7.330  0.5732  1.4487 -0.1023
 2721SOL     OW19798   3.406   2.671   2.440  0.2892  0.6834 -0.5677
 2721SOL    HW119799   3.403   2.764   2.463 -0.4503  0.7899 -1.0733
 2721SOL    HW219800   3.323   2.634   2.469  1.9724 -1.6115  1.3271
 2722SOL     OW19801   1.234   3.957   4.961  0.0158  0.2428  0.0551
 2722SOL    HW119802   1.253   3.972   5.054  0.5356 -1.4604  0.2270
 2722SOL    HW219803   1.200   3.867   4.960  0.7111 -0.0405  1.8073
 2723SOL     OW19804   3.464   1.084   3.967 -0.0336  0.2492  0.1970
 2723SOL    HW119805   3.483   0.998   3.928  1.7180  0.6206  0.2489
 2723SOL    HW219806   3.549   1.106   4.006  0.9236  0.8347 -2.1763
 2724SOL     OW19807   4.707   0.196  13.288 -0.0027 -0.1704 -0.2355
 2724SOL    HW119808   0.018   0.239  13.358 -3.0701  1.0182  1.1380
 2724SOL    HW219809   4.624   0.185  13.334  1.6129 -1.7917  2.2639
 2725SOL     OW19810   2.751   0.659   5.846  0.4627  0.3404 -0.0511
 2725SOL    HW119811   2.799   0.710   5.911  0.5356  0.3715 -0.1285
 2725SOL    HW219812   2.666   0.676   5.884 -0.6415 -0.8537 -1.9463
 2726SOL     OW19813   3.604   0.671   5.689  0.4906 -0.0809 -0.6686
 2726SOL    HW119814   3.666   0.642   5.755 -0.5118 -1.0365 -0.1452
 2726SOL    HW219815   3.550   0.592   5.694  1.7777 -0.8854  0.2239
 2727SOL     OW19816   0.964   1.160   8.529  0.4203  0.3080 -0.4737
 2727SOL    HW119817   0.901   1.105   8.482  0.1891  0.8623 -0.8131
 2727SOL    HW219818   1.033   1.099   8.556  2.1182  1.8483 -1.2959
 2728SOL     OW19819   2.365   4.133   5.287 -0.6438 -0.2946  0.2291
 2728SOL    HW119820   2.351   4.091   5.202  2.5445  1.4696 -1.1486
 2728SOL    HW219821   2.398   4.214   5.249  1.7854 -0.0315  2.9071
 2729SOL     OW19822   1.644   3.088  14.953  0.2088  0.4693 -0.2220
 2729SOL    HW119823   1.572   3.025  14.952  1.8686 -1.3647 -2.9879
 2729SOL    HW219824   1.712   3.026  14.983 -0.8573 -0.6530 -0.1213
 2730SOL     OW19825   3.380   0.561   9.322  0.4851 -0.0202  0.0181
 2730SOL    HW119826   3.300   0.572   9.373 -0.7755 -1.2654 -1.7101
 2730SOL    HW219827   3.353   0.591   9.236 -0.3583  1.2660  0.7433
 2731SOL     OW19828   4.422   1.936   2.127 -0.1299 -0.5799 -0.3904
 2731SOL    HW119829   4.337   1.931   2.169 -0.3431  1.2307 -0.6135
 2731SOL    HW219830   4.434   2.029   2.148 -2.4973 -0.6769  1.2533
 2732SOL     OW19831   3.815   3.290  15.788 -0.1010  0.1253  0.1874
 2732SOL    HW119832   3.865   3.263  15.711  0.6027  0.0665  0.6619
 2732SOL    HW219833   3.727   3.280  15.753 -0.3284 -0.8502  1.0193
 2733SOL     OW19834   4.620   4.259   9.256 -0.1327  0.0747 -0.6355
 2733SOL    HW119835   4.661   4.327   9.203  0.4821  0.2434  0.0468
 2733SOL    HW219836   4.536   4.243   9.213 -0.5913  1.2737 -0.1830
 2734SOL     OW19837   3.306   2.908   6.434  0.0659  0.6872 -0.3565
 2734SOL    HW119838   3.292   3.000   6.457  1.4028  0.1084  2.7666
 2734SOL    HW219839   3.244   2.860   6.490  0.7888 -0.8769 -0.8805
 2735SOL     OW19840   0.812   4.186   5.072  0.6814 -0.0248 -0.5788
 2735SOL    HW119841   0.745   4.218   5.011 -0.9284 -0.5795  0.8702
 2735SOL    HW219842   0.776   4.102   5.104 -1.2862  0.4635 -1.4779
 2736SOL     OW19843   0.181   2.252  15.200 -0.4976 -0.1225 -0.1197
 2736SOL    HW119844   0.189   2.159  15.220  1.8882  0.1293  0.0558
 2736SOL    HW219845   0.246   2.297  15.253  1.4966 -2.0389 -0.9594
 2737SOL     OW19846   0.911   1.514  15.732 -0.3308  0.0735  0.2098
 2737SOL    HW119847   0.924   1.572  15.657 -0.3325  1.8413  1.5591
 2737SOL    HW219848   0.946   1.566  15.805 -0.0810  1.1637 -0.6798
 2738SOL     OW19849   1.180   4.188   5.433 -0.5582  0.6303  0.1726
 2738SOL    HW119850   1.138   4.103   5.449  1.2148 -0.6214 -1.7332
 2738SOL    HW219851   1.109   4.246   5.458 -0.9890  0.6377 -1.0613
 2739SOL     OW19852   1.582   1.975   5.186 -0.2663 -0.7446  0.0308
 2739SOL    HW119853   1.608   1.961   5.095 -0.3689 -1.1195  0.0570
 2739SOL    HW219854   1.665   2.001   5.224 -0.0071  0.8999 -1.6823
 2740SOL     OW19855   2.756   0.846   3.033 -0.2616  0.3132 -0.4095
 2740SOL    HW119856   2.700   0.776   3.002 -2.1976  2.1112 -0.9825
 2740SOL    HW219857   2.843   0.812   3.014  0.6396  0.8063  2.7145
 2741SOL     OW19858   2.813   2.899  10.368 -1.1986 -0.9147  0.2827
 2741SOL    HW119859   2.873   2.845  10.418 -0.4028  2.2955  2.8055
 2741SOL    HW219860   2.739   2.839  10.362 -1.0015 -1.2771  1.5508
 2742SOL     OW19861   1.930   4.501  17.301 -0.3208  0.2261  0.1415
 2742SOL    HW119862   1.941   4.432  17.235  0.5728 -0.0589  0.6001
 2742SOL    HW219863   1.835   4.509  17.311 -0.5957 -2.0112 -0.7082
 2743SOL     OW19864   2.168   3.656  17.549  0.1557  0.1550 -0.1346
 2743SOL    HW119865   2.173   3.563  17.525 -0.4777  0.2964 -0.8306
 2743SOL    HW219866   2.120   3.659  17.632  1.7975  0.0233  0.8167
 2744SOL     OW19867   1.805   4.093   3.581  0.1067 -0.1668  0.0637
 2744SOL    HW119868   1.774   4.074   3.669 -2.6709 -1.4101 -1.1381
 2744SOL    HW219869   1.841   4.009   3.551  1.9173  1.2152 -1.6700
 2745SOL     OW19870   1.245   0.708   9.464  0.3843 -0.4941 -0.5569
 2745SOL    HW119871   1.299   0.783   9.438  0.6044 -0.3210  0.4133
 2745SOL    HW219872   1.188   0.702   9.387  0.3658  1.8837 -0.7124
 2746SOL     OW19873   4.057   4.503   6.319 -0.6427  0.6192 -0.5260
 2746SOL    HW119874   4.029   4.487   6.409  0.6953 -1.5458 -0.5067
 2746SOL    HW219875   3.984   4.464   6.272 -0.0194  0.0002 -0.9791
 2747SOL     OW19876   3.823   0.303  13.139  0.1617  0.3878 -0.1533
 2747SOL    HW119877   3.865   0.340  13.217  2.2444 -1.5450 -0.3572
 2747SOL    HW219878   3.885   0.230  13.134 -1.6512 -1.2201  0.6637
 2748SOL     OW19879   3.804   3.988   1.383  0.1983 -0.0415 -0.6816
 2748SOL    HW119880   3.752   4.018   1.457  0.4011  1.9163 -1.3352
 2748SOL    HW219881   3.886   3.996   1.430  1.0042 -2.5882 -1.6638
 2749SOL     OW19882   0.957   2.849   7.490  0.0098 -0.0003 -0.7492
 2749SOL    HW119883   1.034   2.792   7.497 -1.3597 -1.8768 -1.0050
 2749SOL    HW219884   0.997   2.918   7.437 -1.1647  1.0027 -0.3264
 2750SOL     OW19885   3.376   3.477   6.845 -0.5668 -0.5136  0.0944
 2750SOL    HW119886   3.462   3.472   6.804  0.5761  1.0048  2.3226
 2750SOL    HW219887   3.363   3.571   6.857  1.1902 -0.1393 -1.0059
 2751SOL     OW19888   3.870   2.089   4.508  0.0920 -0.1586 -0.0890
 2751SOL    HW119889   3.795   2.106   4.565 -0.4891 -0.2130 -0.8487
 2751SOL    HW219890   3.850   2.142   4.431 -0.5183 -1.8922 -1.1149
 2752SOL     OW19891   2.514   1.358  16.433 -0.2695 -0.5304 -0.0459
 2752SOL    HW119892   2.575   1.374  16.505  1.4229 -2.6816 -1.0003
 2752SOL    HW219893   2.496   1.451  16.414  0.2326 -0.2619  0.7880
 2753SOL     OW19894   1.684   0.950   4.082 -0.0461  0.0043  0.1959
 2753SOL    HW119895   1.688   0.870   4.029  0.8670  1.3826 -1.7977
 2753SOL    HW219896   1.589   0.962   4.094  0.4877  2.7557  1.5419
 2754SOL     OW19897   1.688   3.194  13.699 -0.1188 -0.3980  0.3132
 2754SOL    HW119898   1.649   3.119  13.654 -0.7251 -0.0771  0.3131
 2754SOL    HW219899   1.777   3.199  13.664  0.0516  0.6069  0.9084
 2755SOL     OW19900   3.038   2.532   1.423 -0.9449 -0.2594 -0.4210
 2755SOL    HW119901   3.002   2.577   1.499 -0.4139  3.2612 -2.2807
 2755SOL    HW219902   3.080   2.604   1.376  0.3059 -0.2099  0.7580
 2756SOL     OW19903   4.193   2.155   8.321  0.3735 -0.5228  0.3897
 2756SOL    HW119904   4.234   2.086   8.373  1.4650 -0.5541 -0.5237
 2756SOL    HW219905   4.123   2.172   8.384  0.0416 -2.1402  0.4635
 2757SOL     OW19906   0.729   2.204   4.302  0.0536  0.1292 -0.1412
 2757SOL    HW119907   0.642   2.239   4.322  0.5270 -0.0135  2.1236
 2757SOL    HW219908   0.775   2.268   4.355  2.4636 -2.0099  0.3749
 2758SOL     OW19909   3.116   3.713   5.113  0.1098 -0.0766 -0.1240
 2758SOL    HW119910   3.029   3.674   5.116  0.0564 -0.2441 -4.1711
 2758SOL    HW219911   3.149   3.681   5.029 -2.4206  1.9349 -1.8441
 2759SOL     OW19912   2.798   3.126   1.593 -0.0297  0.6733 -0.3399
 2759SOL    HW119913   2.729   3.173   1.546 -0.2065 -0.1463 -0.9006
 2759SOL    HW219914   2.757   3.115   1.678  1.4113 -0.3334  0.2414
 2760SOL     OW19915   3.591   0.493  15.317  0.1343 -0.1154 -0.6556
 2760SOL    HW119916   3.549   0.416  15.356 -1.4359  1.3425  0.5554
 2760SOL    HW219917   3.683   0.468  15.314  0.4794  0.8116  1.8615
 2761SOL     OW19918   4.711   0.632  11.869  0.5439  0.8748  0.1512
 2761SOL    HW119919   4.726   0.641  11.776  0.8745 -0.1934  0.0966
 2761SOL    HW219920   4.615   0.626  11.867  0.4550  2.1848  0.7959
 2762SOL     OW19921   2.274   2.269   3.985 -0.3363 -0.5863 -0.0200
 2762SOL    HW119922   2.318   2.262   3.900  0.2640 -0.9144  0.3181
 2762SOL    HW219923   2.345   2.301   4.041 -1.1174  0.0119  0.6256
 2763SOL     OW19924   2.578   0.849   7.178 -0.1011  0.5100  0.0961
 2763SOL    HW119925   2.647   0.806   7.127 -2.3580 -0.3505 -2.2216
 2763SOL    HW219926   2.553   0.917   7.116  3.0670  1.6712  0.1068
 2764SOL     OW19927   3.266   1.711   2.952  0.6099 -0.1476  0.0364
 2764SOL    HW119928   3.304   1.718   3.039  0.1835  1.5219  0.0847
 2764SOL    HW219929   3.181   1.750   2.973  1.3431  2.4440 -1.8131
 2765SOL     OW19930   2.665   3.123  10.583  0.0729 -0.5516 -0.5217
 2765SOL    HW119931   2.671   3.217  10.600  1.0882 -0.1871 -2.8147
 2765SOL    HW219932   2.727   3.125  10.510 -0.9910  1.6098 -1.3483
 2766SOL     OW19933   1.757   4.555  15.823  0.1734 -0.0380 -0.0472
 2766SOL    HW119934   1.688   4.543  15.757 -0.7945  1.5762  0.6597
 2766SOL    HW219935   1.754   4.650  15.837  1.1612  0.0653 -0.5335
 2767SOL     OW19936   3.503   3.621   9.093  0.1627 -0.6090  0.3585
 2767SOL    HW119937   3.435   3.668   9.141 -0.0255 -0.6786  0.1581
 2767SOL    HW219938   3.530   3.557   9.159 -3.0281  1.2229  3.4129
 2768SOL     OW19939   3.873   0.154   5.727  0.5958  0.0066  0.1564
 2768SOL    HW119940   3.920   0.088   5.676 -2.9060 -1.0970 -1.6276
 2768SOL    HW219941   3.946   0.214   5.743 -0.2817  1.6245 -1.9910
 2769SOL     OW19942   4.695   0.218  10.129 -0.3209 -0.3994 -0.1961
 2769SOL    HW119943   4.606   0.189  10.110  0.2429 -0.6663 -2.5208
 2769SOL    HW219944   0.006   0.150  10.083 -0.2905 -0.4236 -0.1276
 2770SOL     OW19945   0.893   0.540  13.910 -0.9471  0.2413 -0.3264
 2770SOL    HW119946   0.950   0.464  13.924 -1.1799  0.0215 -0.5693
 2770SOL    HW219947   0.893   0.559  13.816  0.4739 -2.1413 -0.8110
 2771SOL     OW19948   0.465   2.905   8.044 -0.6440 -0.2304  0.0166
 2771SOL    HW119949   0.520   2.907   7.966  1.7063  0.8373  1.6856
 2771SOL    HW219950   0.388   2.859   8.011 -2.0373  2.2539 -0.2118
 2772SOL     OW19951   1.410   3.647   5.065  0.2535 -0.6191  0.0657
 2772SOL    HW119952   1.463   3.624   4.989 -0.0659 -0.6739 -0.1385
 2772SOL    HW219953   1.475   3.707   5.103 -3.4090  2.5590  1.2731
 2773SOL     OW19954   3.625   1.491   2.485  0.0271 -0.3007  0.2107
 2773SOL    HW119955   3.680   1.412   2.480  0.9686  0.5016 -2.4059
 2773SOL    HW219956   3.544   1.455   2.520  0.0760 -0.5136  0.1062
 2774SOL     OW19957   2.424   0.791   9.847 -0.4982  0.6395  0.1081
 2774SOL    HW119958   2.512   0.763   9.872  0.1166  4.1737  1.8256
 2774SOL    HW219959   2.368   0.766   9.921 -2.3651 -0.1248 -1.5566
 2775SOL     OW19960   2.394   1.160  12.885  0.6669 -0.1984 -0.0689
 2775SOL    HW119961   2.485   1.180  12.907  0.1652  1.1435  0.7984
 2775SOL    HW219962   2.353   1.162  12.971 -0.1312 -1.9878 -0.3952
 2776SOL     OW19963   1.804   1.649  10.430  0.0575  0.1951  0.8115
 2776SOL    HW119964   1.869   1.621  10.365 -1.3704  2.7106 -1.6806
 2776SOL    HW219965   1.745   1.574  10.434 -0.2832  0.4943  1.4360
 2777SOL     OW19966   3.320   4.627  10.330 -0.0610 -0.2264  0.1124
 2777SOL    HW119967   3.323   4.555  10.267 -1.6098 -0.6139  0.4855
 2777SOL    HW219968   3.241   4.671  10.300 -0.3332 -1.2618 -0.6715
 2778SOL     OW19969   4.160   0.303   5.825 -0.0731  0.4796 -0.3342
 2778SOL    HW119970   4.225   0.358   5.779 -0.5478  0.4753 -1.0080
 2778SOL    HW219971   4.214   0.263   5.892 -0.5495  1.7191  0.7938
 2779SOL     OW19972   2.249   4.533   3.976 -0.2615 -0.3468  0.2194
 2779SOL    HW119973   2.272   4.479   4.052  0.0429  1.5455  1.4726
 2779SOL    HW219974   2.271   4.478   3.901  0.4496 -0.2379  0.3432
 2780SOL     OW19975   2.771   3.488   9.352 -0.5111 -0.6499  0.6247
 2780SOL    HW119976   2.745   3.563   9.297 -0.4407  0.1973  1.7496
 2780SOL    HW219977   2.865   3.501   9.341 -0.4894 -1.0332  0.3720
 2781SOL     OW19978   3.570   3.882   2.739  0.0302 -0.0950  0.8637
 2781SOL    HW119979   3.583   3.870   2.645  1.0271 -0.0470  1.0050
 2781SOL    HW219980   3.581   3.977   2.743 -1.2266  0.1550 -1.3109
 2782SOL     OW19981   2.850   0.510   0.076  0.0271 -0.4749 -0.2731
 2782SOL    HW119982   2.898   0.564   0.139  0.7787 -2.5230  0.9180
 2782SOL    HW219983   2.804   0.577   0.025 -1.4683 -0.8339  0.6089
 2783SOL     OW19984   3.490   1.570   8.505 -0.1446 -0.3652 -0.4287
 2783SOL    HW119985   3.416   1.535   8.555  0.0680 -1.4748 -0.8948
 2783SOL    HW219986   3.562   1.524   8.549  1.7278  2.2908 -0.6958
 2784SOL     OW19987   4.091   3.383   2.956 -0.0796  0.1059 -0.0612
 2784SOL    HW119988   4.138   3.465   2.975  2.4379 -1.0777 -1.1504
 2784SOL    HW219989   4.146   3.318   2.999 -2.3225 -2.4814 -1.1628
 2785SOL     OW19990   0.043   3.629   7.084  0.1684 -0.1811  0.2585
 2785SOL    HW119991   4.715   3.567   7.051 -0.4360  0.4720  0.2246
 2785SOL    HW219992   0.040   3.690   7.010  0.1035 -1.2321 -0.5995
 2786SOL     OW19993   1.862   2.081   3.938 -0.3767 -0.1899 -0.5425
 2786SOL    HW119994   1.826   2.091   4.026  3.0659 -0.9473  0.9808
 2786SOL    HW219995   1.867   2.172   3.908  1.4224  0.0472  0.4522
 2787SOL     OW19996   0.727   3.561   4.167 -0.1811  0.1227  0.1487
 2787SOL    HW119997   0.794   3.587   4.231 -0.8508  0.2013  0.8227
 2787SOL    HW219998   0.771   3.489   4.121 -0.0070 -0.3365  1.0192
 2788SOL     OW19999   3.385   4.506   3.670  0.3766  1.1490 -0.5900
 2788SOL    HW120000   3.378   4.418   3.708 -0.8573  0.9634 -1.2594
 2788SOL    HW220001   3.463   4.550   3.704 -0.1702 -0.9831  3.4233
 2789SOL     OW20002   4.600   3.972  15.116  0.2298  0.4711  0.0565
 2789SOL    HW120003   4.552   3.889  15.111  0.1187  0.6063 -1.2070
 2789SOL    HW220004   4.687   3.933  15.126 -0.3081 -0.4576  1.1819
 2790SOL     OW20005   0.297   1.002   5.677  0.2294 -0.0318 -0.0785
 2790SOL    HW120006   0.332   1.056   5.748  1.2053  0.4481 -0.9220
 2790SOL    HW220007   0.293   1.051   5.595 -3.4277  0.9717  0.7082
 2791SOL     OW20008   2.045   0.731   5.742  0.4048 -0.5702  0.3654
 2791SOL    HW120009   2.102   0.658   5.766 -1.0565 -1.6714  0.4456
 2791SOL    HW220010   2.061   0.776   5.826  3.0140 -0.2790 -0.2950
 2792SOL     OW20011   3.687   1.448   6.818  0.0342 -0.1450 -0.2577
 2792SOL    HW120012   3.763   1.441   6.877  0.8561  1.4861 -1.1384
 2792SOL    HW220013   3.632   1.508   6.868 -0.1977 -0.1702 -0.4836
 2793SOL     OW20014   0.163   2.883   3.496 -0.0352  0.2505 -0.5677
 2793SOL    HW120015   0.072   2.854   3.502  0.1032 -0.3238 -1.1089
 2793SOL    HW220016   0.203   2.846   3.575 -0.4484 -1.1592 -1.0050
 2794SOL     OW20017   3.349   3.405   2.878  0.1238 -0.0524  0.3295
 2794SOL    HW120018   3.302   3.449   2.806  2.1348  0.6196 -0.5775
 2794SOL    HW220019   3.429   3.376   2.835 -1.3148 -2.2323 -0.9010
 2795SOL     OW20020   3.788   3.010   7.534 -0.1569 -0.8529 -0.4335
 2795SOL    HW120021   3.754   2.921   7.542 -0.1531 -0.6828  1.4655
 2795SOL    HW220022   3.878   3.001   7.564  0.0970  1.5337 -0.4898
 2796SOL     OW20023   3.178   0.812   1.364  0.0031  0.1387 -0.2644
 2796SOL    HW120024   3.127   0.822   1.283 -1.4722  2.1856  0.9038
 2796SOL    HW220025   3.181   0.899   1.403 -0.5645 -0.1050  0.3289
 2797SOL     OW20026   4.255   4.278   3.102  0.3871  0.2055  0.2942
 2797SOL    HW120027   4.253   4.185   3.077 -2.9077  0.7487 -1.4738
 2797SOL    HW220028   4.166   4.290   3.136  0.0383 -1.3253 -0.0687
 2798SOL     OW20029   0.779   4.327   6.001  0.0703 -0.1448  1.0134
 2798SOL    HW120030   0.704   4.377   6.032 -1.6643 -0.5292 -2.5347
 2798SOL    HW220031   0.830   4.394   5.956 -1.6471  0.5873  0.1778
 2799SOL     OW20032   1.256   0.681   6.237 -0.0073  0.1556  0.1601
 2799SOL    HW120033   1.338   0.721   6.266  0.3369 -0.0224 -0.5613
 2799SOL    HW220034   1.285   0.662   6.148  0.4864  1.2289  0.0921
 2800SOL     OW20035   4.650   1.344  15.844 -1.0719  0.5523  0.1608
 2800SOL    HW120036   4.638   1.438  15.827  0.4857 -0.1171 -4.8514
 2800SOL    HW220037   4.723   1.317  15.789  1.1959  2.1879  2.3967
 2801SOL     OW20038   1.886   4.725  15.476  0.6898  0.0537 -0.1132
 2801SOL    HW120039   1.895   0.024  15.388  1.4228  0.1797  0.0136
 2801SOL    HW220040   1.971   4.684  15.493  0.4787 -1.2273 -2.1392
 2802SOL     OW20041   1.852   0.070   3.525  0.3672  0.1833 -0.3054
 2802SOL    HW120042   1.843   0.020   3.606 -0.6221 -1.2723 -1.3267
 2802SOL    HW220043   1.809   0.151   3.552  1.4896  1.3598 -2.0397
 2803SOL     OW20044   0.548   2.824   5.345 -0.0230 -0.0913 -0.3335
 2803SOL    HW120045   0.518   2.820   5.254  2.4831 -0.7783 -1.1311
 2803SOL    HW220046   0.472   2.862   5.388 -0.1754 -1.9810  1.0734
 2804SOL     OW20047   0.404   4.130   3.473  1.1821  0.3600 -0.5070
 2804SOL    HW120048   0.379   4.220   3.493  2.7426  0.2667  1.8703
 2804SOL    HW220049   0.439   4.144   3.385  1.0583  4.4161  0.1119
 2805SOL     OW20050   2.243   0.541   5.819  0.0341 -0.3353 -0.2011
 2805SOL    HW120051   2.259   0.483   5.893  0.2513 -1.1938 -0.9177
 2805SOL    HW220052   2.326   0.545   5.771  0.4328 -0.2707  0.4853
 2806SOL     OW20053   3.530   1.666   7.281 -0.6786  0.3501  0.2402
 2806SOL    HW120054   3.563   1.724   7.212 -3.1666  1.6955  0.1953
 2806SOL    HW220055   3.472   1.608   7.231  0.6780 -1.3705  0.6527
 2807SOL     OW20056   4.551   4.297   4.317  0.1969  0.6746 -0.9072
 2807SOL    HW120057   4.486   4.231   4.297  0.2600  0.3266  0.0484
 2807SOL    HW220058   4.628   4.259   4.274  0.5328 -1.4010  1.5533
 2808SOL     OW20059   0.873   4.498   0.237  0.5488  0.2936  0.3006
 2808SOL    HW120060   0.852   4.406   0.218 -1.0863  0.0062  3.4558
 2808SOL    HW220061   0.791   4.536   0.267 -0.0031 -0.7626  0.1645
 2809SOL     OW20062   3.631   2.495  16.284  0.0076 -0.1144 -0.1187
 2809SOL    HW120063   3.587   2.579  16.299  0.3227  0.3831 -2.0527
 2809SOL    HW220064   3.692   2.523  16.216 -1.2053  1.2354 -0.6472
 2810SOL     OW20065   3.156   1.111   2.001  0.1009  0.8677  0.0920
 2810SOL    HW120066   3.195   1.113   2.088  2.5093  0.3051 -0.9528
 2810SOL    HW220067   3.235   1.087   1.951 -1.1519 -0.8086 -1.0811
 2811SOL     OW20068   2.380   2.032   4.289  0.2300  0.1014 -0.6383
 2811SOL    HW120069   2.469   1.996   4.295  0.6293  0.8543 -1.9185
 2811SOL    HW220070   2.342   1.961   4.237 -0.5436 -0.6872  1.0326
 2812SOL     OW20071   3.443   4.080   5.963  0.2504  0.7059  0.3531
 2812SOL    HW120072   3.498   4.124   5.898 -1.1277  1.5614 -0.2287
 2812SOL    HW220073   3.428   4.147   6.030  0.0248  0.0567  0.9515
 2813SOL     OW20074   4.230   2.039   7.599 -0.5569  0.2336 -0.0392
 2813SOL    HW120075   4.282   1.992   7.664  0.6637  3.1603  1.1095
 2813SOL    HW220076   4.228   2.125   7.641 -1.5368  1.3334 -2.3478
 2814SOL     OW20077   2.339   4.527   6.682  0.1173 -0.1399 -0.0659
 2814SOL    HW120078   2.341   4.440   6.642  1.8594 -0.7956  1.4532
 2814SOL    HW220079   2.250   4.525   6.716  0.4180 -0.4164  0.7169
 2815SOL     OW20080   2.543   0.998   7.585  0.4792  0.0619 -0.2906
 2815SOL    HW120081   2.630   0.988   7.547 -0.1554 -2.8676 -0.9588
 2815SOL    HW220082   2.571   1.032   7.670 -1.0263  1.0423 -0.1864
 2816SOL     OW20083   3.127   2.923   5.415  0.1265 -0.2544 -0.2633
 2816SOL    HW120084   3.119   2.920   5.511  0.7707 -0.4247 -0.2165
 2816SOL    HW220085   3.035   2.922   5.389  0.0968  1.6426 -0.2673
 2817SOL     OW20086   2.934   2.629   6.689 -0.2363  0.0900  0.1698
 2817SOL    HW120087   2.883   2.624   6.770 -1.3405 -0.8067 -0.5984
 2817SOL    HW220088   3.020   2.597   6.717 -0.4707 -0.1556  0.6121
 2818SOL     OW20089   1.468   2.696  17.228 -0.1800  0.1231  0.0275
 2818SOL    HW120090   1.463   2.603  17.205 -0.0632  0.3053 -0.7366
 2818SOL    HW220091   1.390   2.739  17.193 -1.7099 -1.1830  1.8000
 2819SOL     OW20092   1.815   3.837   3.417 -0.1612 -0.5379 -0.0915
 2819SOL    HW120093   1.864   3.831   3.335  4.3977 -0.5630  2.6379
 2819SOL    HW220094   1.723   3.821   3.397 -0.2995  1.0839 -0.7436
 2820SOL     OW20095   3.153   2.507   4.557 -0.2968 -0.0941 -0.1578
 2820SOL    HW120096   3.144   2.585   4.503  1.4128 -0.2337 -0.6422
 2820SOL    HW220097   3.070   2.462   4.535 -1.3523  2.0856 -0.6295
 2821SOL     OW20098   1.086   0.874   6.072 -0.8096  0.1333 -0.0233
 2821SOL    HW120099   1.139   0.820   6.132 -2.2766  1.5394  2.5454
 2821SOL    HW220100   1.159   0.918   6.028 -2.1463  2.0356 -0.3290
 2822SOL     OW20101   0.936   1.296   2.242  0.5843  0.0550  0.3310
 2822SOL    HW120102   0.844   1.278   2.221  0.6356 -1.4623  1.3789
 2822SOL    HW220103   0.945   1.346   2.323 -1.5699  0.5988  0.2426
 2823SOL     OW20104   1.827   4.352   3.947 -0.1930  0.3017  0.1097
 2823SOL    HW120105   1.791   4.366   3.859 -0.3442  1.8998  0.4373
 2823SOL    HW220106   1.865   4.439   3.950  0.4041 -0.0120  1.4247
 2824SOL     OW20107   0.487   3.648   8.248  0.2405  0.3367 -0.1319
 2824SOL    HW120108   0.450   3.705   8.180 -0.5445  0.1771  0.1695
 2824SOL    HW220109   0.407   3.602   8.272 -0.2060  0.0931 -2.0671
 2825SOL     OW20110   0.257   4.608  12.863  0.2073  0.0094  0.0815
 2825SOL    HW120111   0.256   4.664  12.785 -2.1781  0.6597  0.5681
 2825SOL    HW220112   0.322   4.655  12.915  0.5289  0.1285 -0.4303
 2826SOL     OW20113   3.839   0.916   7.103  0.2473  0.4103  0.1113
 2826SOL    HW120114   3.871   0.851   7.166 -1.2563 -0.1006  0.3456
 2826SOL    HW220115   3.915   0.947   7.053 -0.0188  0.8901  0.0058
 2827SOL     OW20116   0.896   4.267   6.698  0.2210  0.5622 -0.4253
 2827SOL    HW120117   0.875   4.250   6.790 -0.1694  0.5352 -0.5166
 2827SOL    HW220118   0.867   4.189   6.650 -0.3891  0.4140  0.1806
 2828SOL     OW20119   0.083   4.711   7.277 -0.2458 -0.2759  0.4152
 2828SOL    HW120120   0.002   0.022   7.293 -1.7113 -2.4413 -0.3790
 2828SOL    HW220121   0.060   4.644   7.341 -1.8437 -1.3184 -1.2349
 2829SOL     OW20122   0.599   2.693   8.607  0.0080 -0.4213 -0.5780
 2829SOL    HW120123   0.546   2.640   8.666  0.1342 -0.8867 -0.8784
 2829SOL    HW220124   0.541   2.767   8.591 -0.2306 -0.7403 -1.2078
 2830SOL     OW20125   3.580   0.330   0.310 -0.5428  0.0760  0.1595
 2830SOL    HW120126   3.558   0.360   0.399 -1.5155  0.9280 -0.3771
 2830SOL    HW220127   3.555   0.406   0.259  1.1145 -0.2237 -1.0842
 2831SOL     OW20128   0.304   3.585  16.455  0.3913 -0.5111  0.2400
 2831SOL    HW120129   0.391   3.620  16.471 -0.6112  0.5545  3.3353
 2831SOL    HW220130   0.262   3.668  16.433  0.6457 -0.5390 -0.3503
 2832SOL     OW20131   3.992   3.932   8.961  0.4512 -0.4802  0.1253
 2832SOL    HW120132   3.998   4.019   8.999 -0.7634  0.2991 -1.4948
 2832SOL    HW220133   3.977   3.948   8.868  0.9055  1.2748  0.3635
 2833SOL     OW20134   3.945   4.357  16.839  0.2712 -0.4891 -0.2021
 2833SOL    HW120135   3.916   4.417  16.771 -0.9042 -0.1583  0.5748
 2833SOL    HW220136   3.931   4.403  16.922  0.6424  2.3234 -1.7234
 2834SOL     OW20137   3.997   0.761   8.251 -0.9881  0.0844  1.2614
 2834SOL    HW120138   4.059   0.795   8.316 -0.5446 -1.7150  1.7599
 2834SOL    HW220139   3.919   0.764   8.306 -0.8229 -0.2837  1.5099
 2835SOL     OW20140   2.637   2.166   3.906  0.1134  0.1467  0.7668
 2835SOL    HW120141   2.651   2.077   3.938 -1.2857  0.0731  1.1628
 2835SOL    HW220142   2.719   2.211   3.928  1.0091 -1.3184  0.4409
 2836SOL     OW20143   1.899   3.929   7.760 -0.0871 -0.3277 -0.5122
 2836SOL    HW120144   1.897   3.909   7.854  1.2993 -0.0092 -0.4087
 2836SOL    HW220145   1.951   3.854   7.732  0.8862  0.3889 -0.6338
 2837SOL     OW20146   4.580   0.784   8.992 -0.4226  0.1598  0.0350
 2837SOL    HW120147   4.644   0.843   8.952 -2.1165  1.8440 -0.1737
 2837SOL    HW220148   4.633   0.709   9.019 -2.4420 -0.9293  0.9683
 2838SOL     OW20149   4.531   4.036   6.200  0.1787 -0.0710 -0.4451
 2838SOL    HW120150   4.505   4.128   6.195  0.0825  0.0133  1.5837
 2838SOL    HW220151   4.626   4.048   6.197  0.2120 -0.2621 -0.1188
 2839SOL     OW20152   1.874   3.414   8.790 -0.0813 -0.4426  0.2611
 2839SOL    HW120153   1.830   3.339   8.831 -0.7019  0.0124  0.4287
 2839SOL    HW220154   1.806   3.449   8.733 -0.8968 -2.2617  0.0954
 2840SOL     OW20155   3.200   0.964   5.677  0.3997 -0.4207  0.2066
 2840SOL    HW120156   3.210   1.020   5.753 -2.7798  1.6777 -0.9222
 2840SOL    HW220157   3.287   0.924   5.675 -0.1960 -1.7357 -0.1005
 2841SOL     OW20158   1.261   2.536   2.487  0.0844 -1.0352  0.1561
 2841SOL    HW120159   1.184   2.511   2.538 -0.0163 -0.6359  0.2003
 2841SOL    HW220160   1.267   2.455   2.435 -1.9357 -1.9127  1.2736
 2842SOL     OW20161   3.633   3.800   8.959 -0.0567 -0.0408  0.1568
 2842SOL    HW120162   3.727   3.792   8.946 -0.1554 -0.5104 -0.2697
 2842SOL    HW220163   3.612   3.723   9.012 -0.5242 -1.3868 -1.9793
 2843SOL     OW20164   2.244   4.719   5.885  0.4266 -0.0825  0.2194
 2843SOL    HW120165   2.333   4.728   5.919  0.8150  0.0212 -0.8398
 2843SOL    HW220166   2.186   0.027   5.946 -1.1302 -0.4301 -1.0204
 2844SOL     OW20167   2.042   0.763   9.150 -0.3574  0.7636 -0.2891
 2844SOL    HW120168   2.016   0.827   9.216 -1.6286 -0.3955  0.3537
 2844SOL    HW220169   2.137   0.759   9.159 -0.4900 -0.9981  0.2787
 2845SOL     OW20170   0.900   1.056   6.088  0.4779 -0.7428  0.1114
 2845SOL    HW120171   0.916   1.085   5.998 -2.3960 -0.6375 -0.3518
 2845SOL    HW220172   0.963   0.986   6.101  1.8581  0.1398 -1.7982
 2846SOL     OW20173   0.211   1.808   4.027 -0.5643  0.2062 -0.6214
 2846SOL    HW120174   0.216   1.815   4.123 -0.0487  1.9967 -0.7908
 2846SOL    HW220175   0.230   1.900   4.010 -2.5610  1.2164  2.6054
 2847SOL     OW20176   1.381   2.970   4.897  0.2370  0.2843 -1.0879
 2847SOL    HW120177   1.426   2.997   4.817  0.2295 -2.0570 -1.8714
 2847SOL    HW220178   1.429   3.026   4.959  0.1694  0.6310 -1.3449
 2848SOL     OW20179   1.698   0.439   5.562 -0.3052  0.1096 -0.3243
 2848SOL    HW120180   1.674   0.408   5.649 -0.3076 -0.4775 -0.5359
 2848SOL    HW220181   1.698   0.534   5.572  0.5448  0.1437 -0.5724
 2849SOL     OW20182   0.288   0.577  10.101  0.3804 -0.3477  0.3639
 2849SOL    HW120183   0.323   0.503  10.050 -3.1496 -0.3243 -2.0527
 2849SOL    HW220184   0.194   0.564  10.091  0.4604  0.3336 -1.3367
 2850SOL     OW20185   1.409   0.292   8.603 -0.9385  0.4506 -0.1927
 2850SOL    HW120186   1.332   0.301   8.546 -1.8471  0.7392  1.0906
 2850SOL    HW220187   1.388   0.217   8.658  2.1792  0.3668  0.8488
 2851SOL     OW20188   2.189   1.281  14.365  0.1534  0.3817  0.0550
 2851SOL    HW120189   2.192   1.194  14.324 -2.9073  0.1824  0.2008
 2851SOL    HW220190   2.095   1.297  14.371 -0.0558 -0.5415 -0.6400
 2852SOL     OW20191   3.497   1.956   4.631 -0.4046  0.0757  0.2874
 2852SOL    HW120192   3.534   2.044   4.639 -1.4440  0.5742 -0.4088
 2852SOL    HW220193   3.411   1.968   4.591 -0.7352  1.2765  1.3496
 2853SOL     OW20194   4.668   2.432  12.047  0.2180 -0.5684  0.1648
 2853SOL    HW120195   4.584   2.429  12.001  0.3443  1.0957 -0.1691
 2853SOL    HW220196   4.720   2.377  11.987  1.9479  0.6250  0.5834
 2854SOL     OW20197   1.641   2.618  16.609 -0.3489 -0.1899 -0.1247
 2854SOL    HW120198   1.594   2.580  16.683 -0.4332 -0.1649 -0.1655
 2854SOL    HW220199   1.606   2.570  16.535  1.8177  2.4645 -2.8653
 2855SOL     OW20200   4.646   2.910  12.308 -0.1950 -0.0585 -0.1090
 2855SOL    HW120201   4.643   2.906  12.404 -1.2879  2.2551 -0.0559
 2855SOL    HW220202   4.555   2.893  12.284 -0.7031  0.3272  1.5622
 2856SOL     OW20203   3.132   0.568   1.511 -0.3278  0.5091 -0.4921
 2856SOL    HW120204   3.157   0.654   1.479  1.7646 -0.1871 -0.7115
 2856SOL    HW220205   3.101   0.586   1.600  0.4849 -1.2427  0.1597
 2857SOL     OW20206   0.643   3.679  11.023 -0.8471  0.8842 -0.2281
 2857SOL    HW120207   0.675   3.636  11.103 -0.2698  1.1172 -0.3322
 2857SOL    HW220208   0.555   3.642  11.018 -0.0144 -1.2520  1.2546
 2858SOL     OW20209   3.326   1.113   9.907  0.7630 -0.2463  0.1472
 2858SOL    HW120210   3.318   1.154   9.821 -0.5467 -3.8735 -1.4586
 2858SOL    HW220211   3.351   1.022   9.891  2.8451  0.2318  0.6587
 2859SOL     OW20212   0.854   0.725  15.961  0.0412 -0.5312  0.7102
 2859SOL    HW120213   0.779   0.783  15.966  0.3952 -0.0072 -0.0508
 2859SOL    HW220214   0.828   0.673  15.885  0.6334  0.1780  0.0313
 2860SOL     OW20215   0.141   3.796   4.732 -0.2191 -0.0154  0.5914
 2860SOL    HW120216   0.218   3.782   4.677  0.6659 -1.9759  2.2905
 2860SOL    HW220217   0.150   3.722   4.792  3.6287 -1.1697 -1.4219
 2861SOL     OW20218   4.009   4.363   7.172 -0.1502  0.5753 -0.8364
 2861SOL    HW120219   3.934   4.332   7.121 -0.3954 -2.0568  1.1650
 2861SOL    HW220220   4.027   4.291   7.232 -2.6890  2.5912  2.3608
 2862SOL     OW20221   4.408   0.556   0.847  0.4373  0.2411 -0.0102
 2862SOL    HW120222   4.358   0.611   0.787  0.9652 -1.9900 -2.5104
 2862SOL    HW220223   4.377   0.468   0.826  0.9905  0.1061 -0.2808
 2863SOL     OW20224   0.643   0.411  12.125 -0.6001 -0.0211 -0.7441
 2863SOL    HW120225   0.687   0.385  12.044  0.1684  1.6986 -0.8713
 2863SOL    HW220226   0.704   0.474  12.163 -2.2931  1.9107 -1.2477
 2864SOL     OW20227   1.294   4.263  11.567 -0.5191  0.0760 -0.2185
 2864SOL    HW120228   1.279   4.325  11.496 -0.6038 -0.2829 -0.5129
 2864SOL    HW220229   1.319   4.183  11.520  2.8804  0.6279  0.6052
 2865SOL     OW20230   2.542   3.705  14.833  0.3357  0.4404  0.5257
 2865SOL    HW120231   2.516   3.613  14.837  4.1921 -0.5845  1.2810
 2865SOL    HW220232   2.631   3.707  14.800 -0.1532  2.4517 -0.6586
 2866SOL     OW20233   0.679   0.303   9.682  0.2060 -0.3737 -0.4621
 2866SOL    HW120234   0.618   0.234   9.709  0.7849 -0.8340 -0.3111
 2866SOL    HW220235   0.743   0.303   9.753  0.2784 -1.3065 -0.5256
 2867SOL     OW20236   3.959   3.651  13.831  0.2665 -0.2136 -0.2554
 2867SOL    HW120237   4.039   3.703  13.817  0.3180  0.1094  1.3298
 2867SOL    HW220238   3.969   3.582  13.765 -0.3660 -1.1680  0.6594
 2868SOL     OW20239   3.870   0.236  12.325  0.0624 -0.9586 -0.5632
 2868SOL    HW120240   3.790   0.199  12.288 -1.0603  0.7536  0.1430
 2868SOL    HW220241   3.849   0.319  12.368  5.7489  0.3393 -0.2186
 2869SOL     OW20242   0.269   0.237   9.544 -0.3652  0.2971  0.1251
 2869SOL    HW120243   0.358   0.270   9.539  0.2643 -1.3958  0.2492
 2869SOL    HW220244   0.224   0.315   9.512  1.8393  0.4205 -2.5944
 2870SOL     OW20245   0.590   4.199   2.893 -0.0185 -0.0547  0.4210
 2870SOL    HW120246   0.540   4.133   2.845  0.9058 -0.0120 -0.5981
 2870SOL    HW220247   0.533   4.276   2.897 -1.2361 -1.0038  1.2383
 2871SOL     OW20248   1.345   0.531   8.230  0.0541 -0.0248 -0.1714
 2871SOL    HW120249   1.260   0.560   8.262 -0.1288  0.2676 -0.9336
 2871SOL    HW220250   1.388   0.502   8.311 -1.3811 -1.0197  0.2356
 2872SOL     OW20251   1.147   4.625   4.993  0.3377  0.2689 -0.3554
 2872SOL    HW120252   1.130   4.654   4.903  1.3909  1.2351 -0.2416
 2872SOL    HW220253   1.217   4.686   5.018  0.8858 -0.9863  1.1400
 2873SOL     OW20254   1.912   1.719   7.150  0.0934 -0.4238  0.3109
 2873SOL    HW120255   1.895   1.700   7.058 -1.3687  1.6171  0.1538
 2873SOL    HW220256   1.861   1.649   7.191 -1.5107 -1.0303 -2.7390
 2874SOL     OW20257   4.641   1.332   2.946  0.7416 -0.0766  0.1300
 2874SOL    HW120258   4.728   1.309   2.914  0.4924 -0.2090 -0.4448
 2874SOL    HW220259   4.633   1.277   3.024 -0.0309  1.3715  1.0772
 2875SOL     OW20260   1.668   4.628   2.273  0.4931 -0.2104 -0.3724
 2875SOL    HW120261   1.676   4.588   2.360  1.5104 -1.9178 -1.2613
 2875SOL    HW220262   1.751   4.608   2.231  0.3333 -2.4757  0.3819
 2876SOL     OW20263   3.997   3.387   4.673 -0.7464 -0.8757 -0.1624
 2876SOL    HW120264   3.996   3.293   4.691 -1.1407 -1.3200 -2.4867
 2876SOL    HW220265   4.011   3.384   4.578  2.8472  1.1550  0.2993
 2877SOL     OW20266   3.622   2.547   2.567  0.7224 -0.2553  0.4316
 2877SOL    HW120267   3.657   2.538   2.478  0.4005 -1.2755  0.4128
 2877SOL    HW220268   3.534   2.574   2.542  1.4870  1.8318 -0.0873
 2878SOL     OW20269   3.651   0.952   8.176  0.0899  0.2892 -0.7123
 2878SOL    HW120270   3.584   0.963   8.109 -1.9055 -3.2529  0.6650
 2878SOL    HW220271   3.709   0.902   8.119  0.7429 -0.4728  0.6134
 2879SOL     OW20272   3.504   0.445   4.007  0.4236  0.4041  0.0995
 2879SOL    HW120273   3.575   0.455   3.943  2.2673  0.2801  2.1307
 2879SOL    HW220274   3.507   0.350   4.006  0.7929  0.4112  0.3642
 2880SOL     OW20275   3.323   4.648   2.183 -0.2064 -0.3826 -0.5840
 2880SOL    HW120276   3.287   4.708   2.117  0.5467  0.9869  0.2729
 2880SOL    HW220277   3.417   4.640   2.169 -0.2106 -0.9966 -0.2879
 2881SOL     OW20278   1.653   2.436  10.862 -0.1607 -0.5215  0.1946
 2881SOL    HW120279   1.704   2.412  10.785  2.6097  1.4816  1.3721
 2881SOL    HW220280   1.636   2.530  10.856  1.1447 -0.3473 -0.8873
 2882SOL     OW20281   3.013   3.859   6.829 -0.5922 -0.5114 -0.2394
 2882SOL    HW120282   2.926   3.843   6.792 -0.2765  0.7187 -1.5075
 2882SOL    HW220283   3.057   3.883   6.747  1.0284  0.8057  1.0123
 2883SOL     OW20284   0.410   3.019  15.179 -0.2094 -0.5585 -0.1626
 2883SOL    HW120285   0.374   2.930  15.170 -0.8195 -0.5584  2.2708
 2883SOL    HW220286   0.440   3.034  15.090 -0.1451  2.1095  0.3092
 2884SOL     OW20287   2.826   1.023   2.588 -0.6815 -0.3297 -0.0394
 2884SOL    HW120288   2.763   1.073   2.537  0.1089 -0.6705 -1.3530
 2884SOL    HW220289   2.789   1.019   2.676 -2.0628 -2.1514 -0.7313
 2885SOL     OW20290   2.496   3.841  12.512  0.9973  0.2356 -0.3484
 2885SOL    HW120291   2.527   3.844  12.422  2.3746 -0.2264  0.1026
 2885SOL    HW220292   2.444   3.762  12.498  1.6852 -0.7720  2.7350
 2886SOL     OW20293   4.737   2.228   6.841  0.0343  0.0183  0.5258
 2886SOL    HW120294   4.645   2.219   6.866  0.6317 -2.7721  1.6948
 2886SOL    HW220295   0.037   2.241   6.928 -0.1019 -0.4289  0.6519
 2887SOL     OW20296   0.062   0.703  11.109  0.0711 -0.4375 -0.0780
 2887SOL    HW120297   0.035   0.772  11.049  0.4695 -1.7995 -1.8136
 2887SOL    HW220298   0.047   0.628  11.051 -0.4573  1.2127 -2.0809
 2888SOL     OW20299   2.723   3.215   9.341  0.4817  0.1669  0.6661
 2888SOL    HW120300   2.719   3.311   9.350 -0.6562  0.1495  0.3615
 2888SOL    HW220301   2.802   3.205   9.288 -0.2576  2.0242 -0.7843
 2889SOL     OW20302   3.784   1.173  12.555  0.9759  0.0228  0.4039
 2889SOL    HW120303   3.771   1.250  12.500 -0.3123 -0.3291  0.2181
 2889SOL    HW220304   3.766   1.207  12.643  0.7696  2.0734 -0.4264
 2890SOL     OW20305   0.375   0.480   5.713  0.5934 -0.4871 -0.5645
 2890SOL    HW120306   0.291   0.457   5.673  1.1629 -0.1030 -1.9874
 2890SOL    HW220307   0.437   0.425   5.665  0.4622 -1.5039  0.4489
 2891SOL     OW20308   0.541   1.392   6.980 -0.0979 -0.1387 -0.4734
 2891SOL    HW120309   0.467   1.386   7.040  1.2450 -0.3686  1.1816
 2891SOL    HW220310   0.527   1.304   6.944 -0.2481 -0.8537  1.2893
 2892SOL     OW20311   2.973   3.772   7.177 -0.4419 -0.3067 -0.3830
 2892SOL    HW120312   2.944   3.741   7.263 -2.3370  0.9844 -0.5543
 2892SOL    HW220313   2.907   3.720   7.132 -1.4217 -0.7607  1.5731
 2893SOL     OW20314   3.368   1.036   5.074 -0.1220 -0.9299 -0.0562
 2893SOL    HW120315   3.421   0.986   5.136 -2.6093 -2.4489  0.8796
 2893SOL    HW220316   3.298   0.978   5.044 -1.1110  0.7127 -0.9163
 2894SOL     OW20317   1.886   2.644   2.200  0.8017 -0.3324  0.1496
 2894SOL    HW120318   1.973   2.620   2.233  2.2052  0.1547 -3.2655
 2894SOL    HW220319   1.906   2.732   2.168 -1.7840  0.4282  0.5808
 2895SOL     OW20320   3.167   3.522   3.845 -0.4456  0.3958  0.1652
 2895SOL    HW120321   3.214   3.486   3.920 -0.5556  0.3277  0.2023
 2895SOL    HW220322   3.228   3.505   3.773 -1.0610 -0.8474 -0.0796
 2896SOL     OW20323   0.799   2.819   8.839  0.6289  0.0023  0.3412
 2896SOL    HW120324   0.844   2.801   8.757  1.3785 -0.9079  0.9517
 2896SOL    HW220325   0.740   2.743   8.845  0.6346 -0.0428 -0.1659
 2897SOL     OW20326   3.530   2.717   6.078  0.3648 -0.1323  0.7657
 2897SOL    HW120327   3.469   2.781   6.113 -0.6547 -1.0160  0.6030
 2897SOL    HW220328   3.553   2.750   5.991 -2.4427 -1.0613 -0.3095
 2898SOL     OW20329   4.362   1.144  16.817 -0.1615  0.4297 -0.0226
 2898SOL    HW120330   4.452   1.126  16.792  0.1060  2.5434 -0.5819
 2898SOL    HW220331   4.378   1.214  16.880  1.8582 -0.6316  0.6331
 2899SOL     OW20332   0.249   3.602   5.363 -0.0053  0.4475 -0.1738
 2899SOL    HW120333   0.160   3.585   5.333  0.5755 -2.4153 -0.2663
 2899SOL    HW220334   0.245   3.695   5.388 -3.1905  0.5135 -0.8984
 2900SOL     OW20335   3.306   2.067   3.095  0.1230 -0.2209 -0.0812
 2900SOL    HW120336   3.365   2.060   3.170 -1.7295  0.1805  1.4109
 2900SOL    HW220337   3.300   2.161   3.111 -2.0812 -0.3479 -0.2544
 2901SOL     OW20338   3.236   4.710   9.129 -0.0530  0.2789 -0.2016
 2901SOL    HW120339   3.162   0.031   9.140  0.4326  0.8310  0.1347
 2901SOL    HW220340   3.257   4.690   9.221 -2.9230  3.1745  1.0751
 2902SOL     OW20341   2.452   1.294  11.216  0.3021 -0.3171  0.2516
 2902SOL    HW120342   2.532   1.320  11.169 -0.5250 -1.1333 -1.5795
 2902SOL    HW220343   2.416   1.238  11.148  0.9202  0.6485 -0.8823
 2903SOL     OW20344   4.330   2.861   1.526  0.7192 -0.4004 -0.1107
 2903SOL    HW120345   4.392   2.864   1.453  1.6029  2.0958  0.7051
 2903SOL    HW220346   4.387   2.842   1.601 -1.1991 -0.7629  1.2433
 2904SOL     OW20347   0.447   4.211  16.899 -0.4933  0.3579 -0.2885
 2904SOL    HW120348   0.394   4.190  16.976  0.1294 -2.0950 -0.5222
 2904SOL    HW220349   0.425   4.304  16.888  0.4877  0.3211 -2.6543
 2905SOL     OW20350   3.224   0.972   8.561  0.3341  0.0084  0.0177
 2905SOL    HW120351   3.228   1.062   8.527 -2.3546 -0.2833 -1.0879
 2905SOL    HW220352   3.244   0.921   8.483  1.3813  1.4205 -0.6489
 2906SOL     OW20353   4.020   0.944   7.629  0.7685 -0.0084  0.3378
 2906SOL    HW120354   3.996   0.997   7.706 -1.3624 -2.2172  1.1725
 2906SOL    HW220355   3.977   0.988   7.556 -0.7497 -1.2625  0.4802
 2907SOL     OW20356   2.859   3.300  17.472 -0.1359 -0.0240 -0.2266
 2907SOL    HW120357   2.786   3.237  17.471 -0.5868  0.4983 -0.4068
 2907SOL    HW220358   2.852   3.343  17.387 -2.3876  0.2688  0.0983
 2908SOL     OW20359   3.716   0.474   7.497 -0.4612  0.2586 -0.2112
 2908SOL    HW120360   3.630   0.434   7.501 -0.1859 -0.2388  0.9145
 2908SOL    HW220361   3.695   0.567   7.485 -0.3651  0.3336  0.1779
 2909SOL     OW20362   2.859   2.425   9.249 -0.2590  0.5088  0.2874
 2909SOL    HW120363   2.802   2.498   9.227 -2.2952 -0.7555  1.3857
 2909SOL    HW220364   2.914   2.425   9.171 -1.5141  1.0636 -0.5932
 2910SOL     OW20365   4.045   0.768  12.996  0.0131 -0.0424  0.4476
 2910SOL    HW120366   4.072   0.756  12.905 -1.5051  0.9124 -0.1404
 2910SOL    HW220367   3.952   0.746  13.003 -0.7030  2.3767 -1.4494
 2911SOL     OW20368   4.498   1.441   7.241  0.2344 -0.2155 -0.0740
 2911SOL    HW120369   4.574   1.384   7.255  0.6539  0.2823 -0.3165
 2911SOL    HW220370   4.422   1.386   7.259 -0.1911 -0.3689 -2.3932
 2912SOL     OW20371   1.351   0.121   3.271 -0.0417 -0.0013 -0.4675
 2912SOL    HW120372   1.294   0.178   3.323  2.8046  2.0192  0.4576
 2912SOL    HW220373   1.343   0.155   3.182 -2.3904 -0.3414 -0.3818
 2913SOL     OW20374   2.056   2.353   2.979  0.4376  0.5889 -0.1989
 2913SOL    HW120375   2.073   2.418   3.046  0.6178  1.3859 -1.0106
 2913SOL    HW220376   1.987   2.400   2.932  0.9445  0.0239 -1.5333
 2914SOL     OW20377   3.854   3.255  14.812 -0.5146 -0.1202 -0.3631
 2914SOL    HW120378   3.780   3.201  14.839 -0.4309  1.0295  2.1763
 2914SOL    HW220379   3.881   3.291  14.897  0.8953 -0.0022 -0.8623
 2915SOL     OW20380   2.508   4.591   6.061 -0.2290 -0.2212 -0.4391
 2915SOL    HW120381   2.527   4.672   6.014 -0.3433  0.6644  1.0226
 2915SOL    HW220382   2.588   4.587   6.114 -0.3925 -3.8036 -0.5022
 2916SOL     OW20383   3.079   1.906  13.966  0.1252 -0.3016  0.0267
 2916SOL    HW120384   3.036   1.854  13.898 -2.3267  0.5484  0.9172
 2916SOL    HW220385   3.021   1.880  14.038 -0.1939 -2.4499 -0.9855
 2917SOL     OW20386   3.005   4.227   8.418 -0.8171  0.0964  0.3967
 2917SOL    HW120387   3.091   4.201   8.451 -1.0947 -1.4238 -0.1140
 2917SOL    HW220388   2.947   4.155   8.442 -0.6978  0.0589  0.5774
 2918SOL     OW20389   3.840   0.303  13.453 -0.0088 -0.3550  0.5398
 2918SOL    HW120390   3.800   0.270  13.534  0.6035 -1.9460  0.1861
 2918SOL    HW220391   3.899   0.373  13.482  0.0763  0.0448 -0.5965
 2919SOL     OW20392   1.201   3.016   5.557  0.1216 -0.0114  0.0021
 2919SOL    HW120393   1.237   3.082   5.497  2.3521 -1.6933 -0.5434
 2919SOL    HW220394   1.207   2.938   5.501 -0.8706 -0.5519  0.6621
 2920SOL     OW20395   2.893   3.193   4.032 -0.1029 -0.4444 -0.6092
 2920SOL    HW120396   2.917   3.164   3.944  0.9838  0.1572 -0.5155
 2920SOL    HW220397   2.884   3.288   4.028 -0.8738 -0.4504  0.8816
 2921SOL     OW20398   4.630   4.567   2.144 -0.0423 -0.1287 -0.0713
 2921SOL    HW120399   4.668   4.652   2.164  0.0268 -0.2963  0.5106
 2921SOL    HW220400   4.574   4.581   2.067 -1.4391  2.0486  1.3599
 2922SOL     OW20401   1.754   1.207  13.417 -0.1955 -0.4933  0.0247
 2922SOL    HW120402   1.823   1.212  13.351 -1.2924 -0.0638 -1.0802
 2922SOL    HW220403   1.770   1.119  13.451  0.6864 -0.9106 -1.4789
 2923SOL     OW20404   2.387   3.897   3.202 -0.3838  0.0708 -0.4315
 2923SOL    HW120405   2.381   3.806   3.231  0.0496 -0.4759 -2.0835
 2923SOL    HW220406   2.411   3.920   3.292 -2.0401 -0.1157  0.0502
 2924SOL     OW20407   1.211   0.915   1.503 -0.4833 -0.1010  0.5425
 2924SOL    HW120408   1.223   0.820   1.504 -0.5317 -0.1243 -0.9350
 2924SOL    HW220409   1.278   0.943   1.441  1.4844 -2.7217  1.4473
 2925SOL     OW20410   1.761   0.124   1.996 -0.6278  0.2925  0.4592
 2925SOL    HW120411   1.758   0.032   1.973 -1.7650  0.2142  0.9560
 2925SOL    HW220412   1.803   0.119   2.082  1.7375  1.4401 -0.6110
 2926SOL     OW20413   1.586   3.376   3.677 -0.0198  0.5310 -0.0142
 2926SOL    HW120414   1.492   3.363   3.688  0.1423  0.8570  1.7150
 2926SOL    HW220415   1.614   3.340   3.761  0.2914 -1.0198 -0.7845
 2927SOL     OW20416   0.600   2.670   1.791  0.0606  0.1221 -0.1163
 2927SOL    HW120417   0.663   2.664   1.863 -1.2867 -1.7205  0.8897
 2927SOL    HW220418   0.526   2.702   1.843 -0.3832  0.2371 -0.8239
 2928SOL     OW20419   2.939   0.975   6.524 -0.3073 -0.2251 -0.1763
 2928SOL    HW120420   2.971   0.887   6.507  2.1037  0.7853 -0.8709
 2928SOL    HW220421   2.966   0.985   6.616 -2.0751 -0.7444  0.4033
 2929SOL     OW20422   1.797   2.440  13.448 -0.0736 -0.4861  0.5260
 2929SOL    HW120423   1.810   2.447  13.354  0.8229  1.1116  0.7671
 2929SOL    HW220424   1.855   2.509  13.481 -0.4157 -0.6602  1.4967
 2930SOL     OW20425   1.526   1.027   7.390  0.2663  0.4133  0.1395
 2930SOL    HW120426   1.432   1.012   7.385 -0.0367  2.1550  0.3629
 2930SOL    HW220427   1.548   0.979   7.311  3.1274 -0.4445  1.4207
 2931SOL     OW20428   0.640   4.360  14.360  0.0164 -0.1892 -0.4141
 2931SOL    HW120429   0.615   4.424  14.294 -1.6613 -0.1314  0.2732
 2931SOL    HW220430   0.558   4.311  14.364  0.4705 -0.8483  0.9321
 2932SOL     OW20431   4.109   3.824   2.742  0.1758 -0.8984 -0.1029
 2932SOL    HW120432   4.167   3.899   2.750  1.7924 -2.3285  1.6299
 2932SOL    HW220433   4.071   3.838   2.655 -0.6681 -1.0222  0.2476
 2933SOL     OW20434   3.357   2.742   1.758  0.1200 -0.3931  0.1030
 2933SOL    HW120435   3.406   2.751   1.840 -0.5813  1.2077  0.3307
 2933SOL    HW220436   3.418   2.708   1.693  0.9915 -1.4385  1.4502
 2934SOL     OW20437   3.298   4.548   5.137 -0.0068 -0.3683 -0.2255
 2934SOL    HW120438   3.276   4.570   5.228  0.9539  0.1397 -0.1134
 2934SOL    HW220439   3.388   4.518   5.144  0.7121  2.1890  1.7564
 2935SOL     OW20440   3.135   0.883   6.176 -0.4771 -0.5639  0.3621
 2935SOL    HW120441   3.180   0.927   6.248 -0.5421 -1.0198  0.6797
 2935SOL    HW220442   3.074   0.949   6.144  1.2956 -1.0259 -4.0205
 2936SOL     OW20443   2.610   2.175  17.026 -0.9691 -0.2818 -0.2216
 2936SOL    HW120444   2.590   2.265  17.053 -1.0109 -0.4346  0.2447
 2936SOL    HW220445   2.599   2.124  17.106  0.1336 -1.0354 -0.5551
 2937SOL     OW20446   1.689   4.615   7.908 -0.0796 -0.0588 -0.3991
 2937SOL    HW120447   1.686   4.593   7.815 -2.3632  2.2347 -0.8683
 2937SOL    HW220448   1.743   4.693   7.901 -0.3078  0.1382  0.0862
 2938SOL     OW20449   1.728   2.160   6.783  0.1541  0.0516 -0.7538
 2938SOL    HW120450   1.676   2.177   6.862  2.2722  1.4777  0.3239
 2938SOL    HW220451   1.662   2.152   6.714 -1.6626 -0.7850  1.0792
 2939SOL     OW20452   3.792   3.791   4.598 -0.1929  0.2662  0.1348
 2939SOL    HW120453   3.728   3.839   4.652 -0.7312  2.0305 -2.0709
 2939SOL    HW220454   3.826   3.860   4.541  0.9295  0.5217  1.1174
 2940SOL     OW20455   0.565   0.915   0.851 -0.0729 -0.4240  0.5871
 2940SOL    HW120456   0.471   0.931   0.838  0.2540 -0.2218 -1.5837
 2940SOL    HW220457   0.597   0.985   0.908 -0.0749  1.0334 -1.1879
 2941SOL     OW20458   2.839   0.033   5.461  0.3215  0.2199 -0.1648
 2941SOL    HW120459   2.745   0.020   5.445  0.5311 -2.4398  0.7232
 2941SOL    HW220460   2.862   0.072   5.377  1.2376  0.7833  0.3556
 2942SOL     OW20461   3.643   2.115  13.830  0.2352  0.2689 -0.0184
 2942SOL    HW120462   3.692   2.107  13.748 -0.8892  0.8129 -0.7498
 2942SOL    HW220463   3.649   2.211  13.839  0.6600  0.4556 -2.3638
 2943SOL     OW20464   0.407   1.771   2.622  0.3675  0.2279 -0.3027
 2943SOL    HW120465   0.428   1.728   2.540 -1.6374  2.7975 -2.1679
 2943SOL    HW220466   0.493   1.813   2.631  1.2126 -1.4430 -0.7249
 2944SOL     OW20467   0.665   3.352   3.896 -0.2454 -0.2777  0.7472
 2944SOL    HW120468   0.676   3.440   3.859  3.8740 -0.9389  0.4358
 2944SOL    HW220469   0.744   3.351   3.949  0.3537  1.5519 -0.1107
 2945SOL     OW20470   0.944   3.069   8.320  0.0759  0.4899  0.1863
 2945SOL    HW120471   0.971   3.054   8.410  0.5227  1.0152  0.1389
 2945SOL    HW220472   0.869   3.129   8.323 -0.8138 -0.5513 -1.2881
 2946SOL     OW20473   3.582   4.004   0.329 -0.0764  0.2447  0.1005
 2946SOL    HW120474   3.546   3.982   0.243 -1.1761  2.9166 -0.1582
 2946SOL    HW220475   3.663   3.955   0.340 -1.2175 -2.0195 -1.6723
 2947SOL     OW20476   0.543   0.805   4.707  0.7708 -0.1934  0.0234
 2947SOL    HW120477   0.496   0.722   4.698 -1.6493  1.1330  0.3024
 2947SOL    HW220478   0.505   0.843   4.786 -0.4418  0.9133 -1.0939
 2948SOL     OW20479   3.862   0.052  10.215 -0.1562  0.4485  0.3131
 2948SOL    HW120480   3.904   0.111  10.278  0.5575  0.2818 -0.0055
 2948SOL    HW220481   3.835   4.729  10.284  2.4183 -0.8979  0.1294
 2949SOL     OW20482   1.536   0.960   6.834  0.0507 -0.2916 -0.2644
 2949SOL    HW120483   1.534   1.012   6.754  2.5319 -1.0822 -0.8555
 2949SOL    HW220484   1.577   1.012   6.903  2.0104 -2.4522  0.2386
 2950SOL     OW20485   1.491   1.431   2.166  0.3345  0.0677 -0.0007
 2950SOL    HW120486   1.433   1.402   2.096  1.1313 -3.6089  0.8279
 2950SOL    HW220487   1.485   1.368   2.238 -0.7122 -0.2300 -0.3543
 2951SOL     OW20488   4.600   1.018   3.565 -0.0992  0.5677  0.2981
 2951SOL    HW120489   4.670   1.084   3.565 -0.8057  1.3180  0.0753
 2951SOL    HW220490   4.605   0.977   3.479 -0.0346 -1.3479  1.2269
 2952SOL     OW20491   0.888   2.386   3.988 -0.2365  0.7887 -0.9376
 2952SOL    HW120492   0.937   2.333   4.052 -0.1182 -0.0143 -1.6941
 2952SOL    HW220493   0.958   2.435   3.946 -1.2116  1.4713 -1.7484
 2953SOL     OW20494   1.089   4.713   4.729 -0.0109 -0.2476 -0.3974
 2953SOL    HW120495   1.071   0.066   4.754  3.4298  0.2988  0.1910
 2953SOL    HW220496   1.012   4.693   4.676 -0.0996  2.5960 -1.3382
 2954SOL     OW20497   2.583   0.126   7.967  0.0726 -0.2625 -0.0808
 2954SOL    HW120498   2.547   0.081   7.891 -1.8920 -0.0296  0.7306
 2954SOL    HW220499   2.553   0.215   7.948  0.4442 -0.0988  0.1076
 2955SOL     OW20500   4.047   1.787   6.984 -0.3879  0.4849  0.0983
 2955SOL    HW120501   4.110   1.798   6.913  0.0112  3.0085  0.8268
 2955SOL    HW220502   4.098   1.722   7.033  0.2544  0.6476 -0.3490
 2956SOL     OW20503   0.720   1.726  17.069 -0.0668 -0.0526 -0.1130
 2956SOL    HW120504   0.650   1.709  17.132 -1.6327 -1.8684 -2.3665
 2956SOL    HW220505   0.795   1.682  17.110 -0.2993  0.2094  0.5902
 2957SOL     OW20506   0.059   1.871  13.025 -0.4435 -0.7083 -0.4781
 2957SOL    HW120507   4.703   1.885  13.005 -0.2551 -0.6739 -1.3672
 2957SOL    HW220508   0.092   1.837  12.941 -0.0203 -0.1857 -0.5248
 2958SOL     OW20509   3.347   2.820   7.030 -0.7517 -0.1033  0.2697
 2958SOL    HW120510   3.350   2.828   6.935 -2.7626 -0.4476  0.1755
 2958SOL    HW220511   3.416   2.758   7.053 -0.5598  0.2479  0.6507
 2959SOL     OW20512   1.172   2.583  16.790 -0.3881  0.0303 -0.2088
 2959SOL    HW120513   1.261   2.558  16.765 -0.6672  0.3138 -1.4951
 2959SOL    HW220514   1.172   2.558  16.882 -2.3863 -0.9142 -0.4868
 2960SOL     OW20515   2.571   3.531   9.537  0.3287 -0.4313 -0.4883
 2960SOL    HW120516   2.642   3.492   9.485  0.9826  0.3456 -0.1728
 2960SOL    HW220517   2.613   3.573   9.612  0.4190 -1.4516  0.0262
 2961SOL     OW20518   1.884   2.935   2.133 -0.1546 -0.2280 -0.3674
 2961SOL    HW120519   1.929   3.019   2.137  0.1869 -0.4635  0.9682
 2961SOL    HW220520   1.863   2.933   2.040 -0.9120 -0.0845 -0.1986
 2962SOL     OW20521   3.462   1.504   5.311  0.2246  0.0874  0.9525
 2962SOL    HW120522   3.407   1.460   5.246  1.9294 -0.7703  0.0770
 2962SOL    HW220523   3.399   1.533   5.377 -0.4159  1.5732 -0.3262
 2963SOL     OW20524   1.388   0.962   1.756  0.3039  0.0581  0.3789
 2963SOL    HW120525   1.427   0.877   1.739 -0.0020 -0.3029  1.4516
 2963SOL    HW220526   1.438   1.023   1.702  1.6319 -0.9314  0.5063
 2964SOL     OW20527   0.412   2.754  17.724  0.5814 -0.1070  0.5522
 2964SOL    HW120528   0.414   2.816  17.651 -0.5351 -1.4821 -0.6314
 2964SOL    HW220529   0.504   2.752   0.001  0.5800  0.1667  0.5812
 2965SOL     OW20530   3.033   2.099   6.361  0.3343  0.3247 -0.5489
 2965SOL    HW120531   3.078   2.031   6.411  0.0711  0.4906 -0.0813
 2965SOL    HW220532   2.965   2.137   6.418  1.3006  0.8635  0.2411
 2966SOL     OW20533   1.645   0.807   1.869  0.2452  0.2252 -0.5082
 2966SOL    HW120534   1.648   0.721   1.911  0.2300 -0.2346 -1.4564
 2966SOL    HW220535   1.734   0.837   1.888  0.0315  1.4465 -1.4151
 2967SOL     OW20536   0.858   0.665   1.144 -0.3768 -0.2359  0.4812
 2967SOL    HW120537   0.783   0.674   1.086  0.6302  2.2472 -0.4014
 2967SOL    HW220538   0.916   0.609   1.093  1.1069  0.8601  0.9580
 2968SOL     OW20539   1.362   3.355   1.427 -0.3950  0.0989 -0.1128
 2968SOL    HW120540   1.355   3.422   1.496 -1.2281 -0.2043  0.0924
 2968SOL    HW220541   1.371   3.278   1.483  0.8154  0.0466 -0.3851
 2969SOL     OW20542   1.472   4.530   8.266 -0.4975 -0.0524 -0.0790
 2969SOL    HW120543   1.498   4.448   8.224 -0.0525 -0.1972  0.4736
 2969SOL    HW220544   1.393   4.553   8.217 -0.9863 -0.0377  0.7304
 2970SOL     OW20545   2.392   3.847   3.804 -0.6734 -0.3817 -0.0699
 2970SOL    HW120546   2.448   3.922   3.785 -2.2502  0.5602 -1.0119
 2970SOL    HW220547   2.438   3.778   3.757  0.2224 -1.3092  2.1857
 2971SOL     OW20548   0.795   4.558   7.263  0.3018 -0.2843 -0.5244
 2971SOL    HW120549   0.752   4.609   7.331  0.3124 -1.0761  0.0856
 2971SOL    HW220550   0.859   4.624   7.236  2.4015 -2.0439  0.1357
 2972SOL     OW20551   2.998   2.932   5.648 -0.1140  0.5788  0.1542
 2972SOL    HW120552   2.969   2.859   5.702 -0.4956 -1.1191 -2.3658
 2972SOL    HW220553   2.918   2.955   5.600  0.8099 -0.2270 -1.7583
 2973SOL     OW20554   2.939   1.433  14.625  0.6896  0.3858 -0.4137
 2973SOL    HW120555   2.899   1.459  14.707  0.7538  0.8703 -0.5385
 2973SOL    HW220556   2.869   1.385  14.581 -0.3199 -0.2860  1.9784
 2974SOL     OW20557   2.902   2.928   6.460 -0.1786  0.4022 -0.3841
 2974SOL    HW120558   2.961   2.937   6.535 -1.0518  0.2489  0.3146
 2974SOL    HW220559   2.930   2.851   6.411 -0.4374 -0.8992  1.5316
 2975SOL     OW20560   4.723   0.740   6.688  0.5565  0.1651 -0.1753
 2975SOL    HW120561   0.051   0.785   6.742 -1.8288  1.0450  1.9725
 2975SOL    HW220562   4.642   0.783   6.715  1.1743  0.4791  1.1913
 2976SOL     OW20563   3.614   3.801   7.899 -0.5053  0.1504  0.1045
 2976SOL    HW120564   3.604   3.724   7.843  1.3608  0.7225 -1.0041
 2976SOL    HW220565   3.521   3.811   7.923 -0.3810 -1.3668  1.2236
 2977SOL     OW20566   4.589   0.151  12.782  0.3200 -0.3597  0.3694
 2977SOL    HW120567   4.498   0.124  12.771  1.0576 -2.2978 -0.8703
 2977SOL    HW220568   4.607   0.188  12.696 -1.5027  1.4237  0.7507
 2978SOL     OW20569   4.402   1.065   0.620  0.0950  0.3182  0.3763
 2978SOL    HW120570   4.431   1.003   0.553  0.4770 -0.3112  1.1182
 2978SOL    HW220571   4.481   1.066   0.675 -0.0668  1.3308  0.5883
 2979SOL     OW20572   2.571   4.712   2.201  0.2598 -0.5667 -0.8157
 2979SOL    HW120573   2.525   4.649   2.255 -0.6666  0.3851 -0.4922
 2979SOL    HW220574   2.520   0.053   2.222  1.2724 -0.7786  2.3053
 2980SOL     OW20575   4.477   2.800  15.217  0.2045  0.4909 -0.3181
 2980SOL    HW120576   4.565   2.789  15.178 -0.8711  0.7173 -2.8364
 2980SOL    HW220577   4.457   2.708  15.233  1.9588 -0.1193 -1.5045
 2981SOL     OW20578   0.550   2.875   4.084 -0.0134 -0.0745  0.5784
 2981SOL    HW120579   0.558   2.957   4.035  3.2571 -0.1082  1.0090
 2981SOL    HW220580   0.547   2.914   4.172 -0.4366  1.8803 -0.3027
 2982SOL     OW20581   0.932   1.842   2.237 -1.0191 -0.2982 -0.4333
 2982SOL    HW120582   0.861   1.855   2.173 -0.2639 -0.5104 -1.3164
 2982SOL    HW220583   1.013   1.827   2.189 -0.1415 -0.5990  1.1368
 2983SOL     OW20584   0.122   0.065   4.139  0.2452 -0.1840 -0.0934
 2983SOL    HW120585   0.108   0.157   4.116  0.1570 -0.4117 -0.9415
 2983SOL    HW220586   0.176   0.066   4.218  0.2963  0.4304 -0.1340
 2984SOL     OW20587   1.158   1.770   5.115  0.0999 -0.2358  0.6838
 2984SOL    HW120588   1.079   1.812   5.151 -1.5007 -1.8801 -0.9793
 2984SOL    HW220589   1.123   1.729   5.036 -1.0067 -2.4873  2.3361
 2985SOL     OW20590   2.638   0.301   1.707 -0.2577 -0.2786 -0.3264
 2985SOL    HW120591   2.547   0.293   1.677 -0.1694 -1.4193 -0.2669
 2985SOL    HW220592   2.626   0.376   1.765  0.2312  1.7472 -2.8077
 2986SOL     OW20593   2.371   0.887   2.170  0.5028  0.0645 -0.1822
 2986SOL    HW120594   2.294   0.942   2.187  0.7363  0.2621  0.2366
 2986SOL    HW220595   2.412   0.872   2.255 -1.3607 -1.0906  0.5279
 2987SOL     OW20596   0.571   1.210   6.323 -0.1267 -0.1722 -0.5085
 2987SOL    HW120597   0.613   1.190   6.239 -3.1542  0.3900 -2.1549
 2987SOL    HW220598   0.628   1.273   6.366  1.4610 -0.5763 -2.0144
 2988SOL     OW20599   3.854   1.940   3.343 -0.4739  0.6618  0.4826
 2988SOL    HW120600   3.906   2.019   3.329 -0.8303  1.0444  1.3012
 2988SOL    HW220601   3.861   1.924   3.437  1.8218 -1.7810 -0.1004
 2989SOL     OW20602   4.404   1.806   5.083 -0.0239  0.0059 -0.3013
 2989SOL    HW120603   4.447   1.778   5.163 -0.3986  0.5512  0.0882
 2989SOL    HW220604   4.315   1.771   5.091  0.4315 -0.9810  0.5225
 2990SOL     OW20605   1.174   2.640   5.570 -0.1522 -0.1887 -0.2534
 2990SOL    HW120606   1.211   2.573   5.512 -0.3218  1.6251 -2.4748
 2990SOL    HW220607   1.248   2.700   5.562  0.2743 -0.7148 -0.2212
 2991SOL     OW20608   1.265   3.851   8.321  0.3800 -0.1071  0.3066
 2991SOL    HW120609   1.171   3.838   8.333  0.3527 -0.4884 -0.3269
 2991SOL    HW220610   1.289   3.902   8.398 -0.0811 -1.5520  1.4068
 2992SOL     OW20611   2.944   3.690   8.241 -0.3013 -0.3113 -0.4231
 2992SOL    HW120612   2.934   3.598   8.216 -1.6027 -0.9494  2.3663
 2992SOL    HW220613   3.001   3.687   8.318  0.7747 -0.4925 -1.2439
 2993SOL     OW20614   4.008   0.929   0.890 -0.5070  0.1101 -0.3051
 2993SOL    HW120615   4.058   0.941   0.809 -1.4858  0.8707 -0.7936
 2993SOL    HW220616   4.045   0.849   0.929 -0.4374 -0.0323 -0.6666
 2994SOL     OW20617   3.055   1.919   2.906 -0.0221 -0.0903 -0.0673
 2994SOL    HW120618   3.135   1.896   2.858 -1.2049 -0.1820 -2.0164
 2994SOL    HW220619   3.083   2.005   2.937  0.4611 -0.5395  0.7163
 2995SOL     OW20620   0.084   2.654  12.326  0.1918  0.2642  0.5164
 2995SOL    HW120621   0.019   2.584  12.325 -1.0268  1.3795  0.1269
 2995SOL    HW220622   0.037   2.726  12.284  2.3961  1.4701  0.1210
 2996SOL     OW20623   2.690   1.344   2.502 -0.2473  0.9124 -0.6217
 2996SOL    HW120624   2.604   1.338   2.460  0.3061 -4.8441 -0.9346
 2996SOL    HW220625   2.739   1.338   2.420 -0.6201  0.2242 -0.7922
 2997SOL     OW20626   0.744   1.753  12.165 -0.0105 -0.1569 -0.3979
 2997SOL    HW120627   0.799   1.776  12.240  0.6003 -0.1622 -0.8471
 2997SOL    HW220628   0.677   1.820  12.177 -0.5269 -0.7131 -0.1944
 2998SOL     OW20629   3.139   0.872   0.517  0.1113 -0.0556  0.6241
 2998SOL    HW120630   3.048   0.842   0.515  0.3420 -0.7507  0.7087
 2998SOL    HW220631   3.183   0.792   0.545 -0.6317 -0.0377  1.8324
 2999SOL     OW20632   3.864   2.580   6.271 -0.1698 -0.2103  0.2999
 2999SOL    HW120633   3.859   2.487   6.250 -3.0750 -0.4457  2.0096
 2999SOL    HW220634   3.834   2.587   6.361 -0.7803 -1.6180  0.1970
 3000SOL     OW20635   4.447   3.311  12.808 -0.2944  0.1749  0.0859
 3000SOL    HW120636   4.460   3.321  12.714  1.0744  0.3268  0.2981
 3000SOL    HW220637   4.409   3.223  12.802 -1.5849  0.7255  0.2873
 3001SOL     OW20638   0.439   3.956   3.955 -0.5338  0.1505 -0.3096
 3001SOL    HW120639   0.426   3.890   3.886  2.1966 -0.7289  0.0404
 3001SOL    HW220640   0.357   4.005   3.945  0.1122  1.3289  0.1319
 3002SOL     OW20641   4.412   2.573  14.927 -0.1453 -0.4031 -0.3714
 3002SOL    HW120642   4.504   2.593  14.907  0.0985 -2.3740 -1.2531
 3002SOL    HW220643   4.379   2.553  14.840 -1.0956 -0.8956  0.1031
 3003SOL     OW20644   4.201   2.977   4.232 -0.0640 -0.7571  0.2127
 3003SOL    HW120645   4.123   3.025   4.204  1.4732  0.8467 -1.2538
 3003SOL    HW220646   4.269   3.044   4.223  0.4207 -1.2025  0.5515
 3004SOL     OW20647   0.264   3.892   1.838 -0.0500 -0.4053 -0.1156
 3004SOL    HW120648   0.252   3.854   1.926 -1.4866 -0.2118 -0.2161
 3004SOL    HW220649   0.178   3.926   1.814  0.9004  1.8398 -0.3008
 3005SOL     OW20650   3.645   0.900   7.571  0.4309 -0.0660  0.3756
 3005SOL    HW120651   3.728   0.935   7.539  0.1768 -0.9928 -1.2955
 3005SOL    HW220652   3.619   0.968   7.634 -1.7001 -0.8277  0.3348
 3006SOL     OW20653   0.546   2.633   6.777 -0.1610 -0.2184 -0.3537
 3006SOL    HW120654   0.498   2.617   6.858 -1.2908 -3.7420 -1.7095
 3006SOL    HW220655   0.496   2.584   6.711 -1.0944  0.7272 -0.3407
 3007SOL     OW20656   3.427   0.615   1.435  0.1181  0.3159 -0.7875
 3007SOL    HW120657   3.402   0.554   1.366  2.1680  0.6666 -1.8412
 3007SOL    HW220658   3.383   0.696   1.410  1.9676  2.1672  1.9175
 3008SOL     OW20659   3.891   3.858  12.214 -0.2207  0.6328 -0.4582
 3008SOL    HW120660   3.952   3.830  12.282 -1.2871  1.4084  0.8051
 3008SOL    HW220661   3.850   3.939  12.246 -2.2256 -0.5435 -0.0796
 3009SOL     OW20662   3.757   0.855   1.697 -1.1053  0.0613 -0.4328
 3009SOL    HW120663   3.734   0.764   1.718  2.9924 -0.6063  1.2131
 3009SOL    HW220664   3.852   0.846   1.703 -1.1647  0.5122  1.2259
 3010SOL     OW20665   0.095   1.192   8.242 -0.0585  0.4059 -0.2561
 3010SOL    HW120666   0.185   1.206   8.214  1.1272 -2.5460  2.0552
 3010SOL    HW220667   0.080   1.098   8.250 -0.6044  0.3485 -2.0627
 3011SOL     OW20668   1.213   3.774   7.740 -0.1348  0.3098  0.0324
 3011SOL    HW120669   1.250   3.771   7.652 -0.3965  0.0493 -0.0693
 3011SOL    HW220670   1.259   3.852   7.771 -0.8715  0.8708 -0.2968
 3012SOL     OW20671   3.473   3.912   1.187 -0.6125 -0.6125 -0.8604
 3012SOL    HW120672   3.497   3.945   1.100  0.1445  0.9704 -0.0470
 3012SOL    HW220673   3.448   4.000   1.218 -1.9654 -1.4011  0.2694
 3013SOL     OW20674   3.604   1.143  12.169 -0.2794 -0.4929 -0.0772
 3013SOL    HW120675   3.665   1.070  12.161 -1.5121 -1.6013  0.6093
 3013SOL    HW220676   3.563   1.158  12.083 -0.0544 -0.9628 -0.2672
 3014SOL     OW20677   0.185   2.708   1.976  0.0275  1.0476 -0.3095
 3014SOL    HW120678   0.154   2.622   2.005 -0.3062  0.8490 -1.2536
 3014SOL    HW220679   0.116   2.751   2.026 -0.8787 -2.6168  1.5752
 3015SOL     OW20680   2.586   1.538   0.745 -1.3218 -0.4140  0.0851
 3015SOL    HW120681   2.662   1.557   0.800 -2.5794  1.3205  1.2635
 3015SOL    HW220682   2.536   1.468   0.786  0.3086 -0.9286  1.1924
 3016SOL     OW20683   0.859   2.906   4.269  0.6010  0.4668 -0.3824
 3016SOL    HW120684   0.877   2.966   4.342 -0.1348  0.6192 -0.3177
 3016SOL    HW220685   0.834   2.825   4.314  0.7027  0.2603 -0.6953
 3017SOL     OW20686   1.224   3.551   8.540  0.4152 -0.0027 -0.1387
 3017SOL    HW120687   1.169   3.628   8.557  1.5190  0.9221 -0.7971
 3017SOL    HW220688   1.169   3.496   8.485 -0.5386  1.2227 -0.4097
 3018SOL     OW20689   1.043   2.689   4.485 -0.0296 -0.5909 -0.3722
 3018SOL    HW120690   0.979   2.653   4.548  0.1516 -0.4335 -0.0988
 3018SOL    HW220691   1.093   2.739   4.549  0.9025 -0.9593 -0.8192
 3019SOL     OW20692   0.701   2.782   4.597 -0.2592  0.2665 -0.0353
 3019SOL    HW120693   0.777   2.740   4.637 -0.1111  1.0084  0.4739
 3019SOL    HW220694   0.672   2.720   4.530  3.0967 -1.0871 -0.1831
 3020SOL     OW20695   3.807   0.846   5.401 -0.2805 -0.0012  0.0477
 3020SOL    HW120696   3.902   0.842   5.396 -0.1639 -0.1453  2.4753
 3020SOL    HW220697   3.787   0.916   5.463  1.0847 -0.6008  1.1443
 3021SOL     OW20698   0.496   2.075  10.304 -0.1745 -0.0128  0.0056
 3021SOL    HW120699   0.512   2.000  10.360  0.8904  0.8744  0.9006
 3021SOL    HW220700   0.575   2.129  10.316 -0.1275  0.1309 -0.9748
 3022SOL     OW20701   3.730   3.199   2.045  0.2206 -0.0980 -0.0425
 3022SOL    HW120702   3.790   3.231   1.977  1.3244 -1.7809  0.1368
 3022SOL    HW220703   3.740   3.265   2.114  1.2959 -0.7392  0.4133
 3023SOL     OW20704   2.897   1.780  12.586 -0.5013 -0.0743 -0.6214
 3023SOL    HW120705   2.916   1.847  12.652  0.9449  0.0141 -1.1434
 3023SOL    HW220706   2.977   1.727  12.586  0.8273  1.9441  1.0213
 3024SOL     OW20707   0.870   0.768   8.184 -0.1069  0.0867 -0.7926
 3024SOL    HW120708   0.927   0.841   8.206 -1.2812  1.1797 -1.4109
 3024SOL    HW220709   0.784   0.809   8.196 -0.0866 -0.6864  2.1646
 3025SOL     OW20710   3.907   1.804   4.439 -0.4043  0.3538 -0.3076
 3025SOL    HW120711   3.855   1.808   4.359 -0.5762 -0.2544 -0.2233
 3025SOL    HW220712   3.892   1.896   4.461  2.3461  0.2613  1.9178
 3026SOL     OW20713   3.569   3.710   3.529  0.2153  0.5322  0.5346
 3026SOL    HW120714   3.581   3.622   3.565  2.7902 -1.3692 -4.9213
 3026SOL    HW220715   3.486   3.742   3.563  0.3108 -1.1340  2.3349
 3027SOL     OW20716   0.606   3.731   6.268 -0.8959 -0.0200  0.3863
 3027SOL    HW120717   0.556   3.782   6.332 -1.3250  1.8401 -1.4426
 3027SOL    HW220718   0.685   3.783   6.261 -1.3728  0.8236  1.3252
 3028SOL     OW20719   4.022   1.557   6.762  0.1384 -0.5196  0.3300
 3028SOL    HW120720   4.030   1.647   6.793  0.3789 -0.2790 -0.4278
 3028SOL    HW220721   3.995   1.518   6.845 -1.1992 -0.5595 -0.1191
 3029SOL     OW20722   2.801   1.510   4.786 -0.3127  0.0844  0.4688
 3029SOL    HW120723   2.760   1.542   4.866 -0.7787 -2.9170  1.4351
 3029SOL    HW220724   2.894   1.519   4.807  0.0786 -1.0115 -0.7500
 3030SOL     OW20725   4.294   2.121   2.413  0.0642 -0.3179  0.2608
 3030SOL    HW120726   4.206   2.097   2.442 -0.0277 -2.0746 -1.4613
 3030SOL    HW220727   4.340   2.039   2.427 -0.0001 -0.4688 -0.3744
 3031SOL     OW20728   3.933   3.323  16.153  0.0463  0.0751 -0.3691
 3031SOL    HW120729   3.921   3.383  16.226 -2.8686 -0.8515 -0.0972
 3031SOL    HW220730   4.026   3.307  16.166 -0.1351  0.7572  1.8219
 3032SOL     OW20731   3.630   4.427  13.924  0.0613  0.1259 -0.2928
 3032SOL    HW120732   3.580   4.456  13.847 -1.2321  1.1822  0.9514
 3032SOL    HW220733   3.575   4.454  13.997  2.6236  3.0448  0.5565
 3033SOL     OW20734   4.582   0.200  15.966  0.3313  0.0750 -0.1518
 3033SOL    HW120735   4.659   0.245  15.934 -0.0449 -0.6162 -1.9908
 3033SOL    HW220736   4.524   0.217  15.892 -1.2313 -0.0966  1.0078
 3034SOL     OW20737   4.050   0.490   2.505  0.2411 -0.0993  0.2132
 3034SOL    HW120738   3.977   0.437   2.475 -0.5843  1.8288 -1.1732
 3034SOL    HW220739   4.070   0.539   2.425 -0.4367 -0.7321 -0.3316
 3035SOL     OW20740   3.061   3.120  11.862  0.2072  0.1844  0.1185
 3035SOL    HW120741   3.096   3.080  11.941  1.0061 -1.8353 -1.2590
 3035SOL    HW220742   2.983   3.071  11.836  0.9009 -1.6741  1.5725
 3036SOL     OW20743   2.603   2.012   8.140  0.0216 -0.5917  0.5114
 3036SOL    HW120744   2.618   2.043   8.051  1.7710 -0.0294  0.9949
 3036SOL    HW220745   2.538   1.944   8.122 -0.6269 -0.0854  0.9044
 3037SOL     OW20746   3.398   2.788   7.990 -0.1273  0.2526  0.6029
 3037SOL    HW120747   3.482   2.744   7.974  0.7153  2.8440 -2.2984
 3037SOL    HW220748   3.348   2.716   7.952 -1.2569  2.1260 -1.4972
 3038SOL     OW20749   4.371   2.821  10.624  0.1555  0.0906  0.0310
 3038SOL    HW120750   4.279   2.847  10.630  0.4158  0.5956  1.9168
 3038SOL    HW220751   4.420   2.902  10.633  0.9351 -0.1824 -1.7924
 3039SOL     OW20752   4.232   3.554   1.675  0.0005  0.2711  0.1445
 3039SOL    HW120753   4.290   3.498   1.624  1.4737  2.0047 -0.0846
 3039SOL    HW220754   4.216   3.617   1.604 -1.1135 -0.2937 -0.1129
 3040SOL     OW20755   2.699   3.654  14.596 -0.0883 -0.4726  0.2071
 3040SOL    HW120756   2.783   3.687  14.562 -1.6382  3.8010  0.5737
 3040SOL    HW220757   2.647   3.731  14.575  0.9443 -0.5073 -2.5087
 3041SOL     OW20758   3.177   0.080   2.004  0.2746 -1.0741  0.0153
 3041SOL    HW120759   3.162   0.164   2.047  0.0384 -1.4981  0.7558
 3041SOL    HW220760   3.191   0.111   1.914  0.8830 -1.8304 -0.1470
 3042SOL     OW20761   4.020   4.566   5.899  0.0167 -0.1602  0.2158
 3042SOL    HW120762   4.072   4.506   5.952  0.1690 -0.9503 -0.8248
 3042SOL    HW220763   3.952   4.513   5.856 -0.1646 -0.6633  1.1078
 3043SOL     OW20764   0.550   0.392  17.194 -0.0651  0.1586  0.4017
 3043SOL    HW120765   0.565   0.470  17.248  2.7797  0.2482 -0.5033
 3043SOL    HW220766   0.456   0.374  17.203 -0.6568  2.5604 -1.0828
 3044SOL     OW20767   3.834   2.871   2.219 -0.2906  0.0317  0.0354
 3044SOL    HW120768   3.840   2.783   2.256 -0.6377 -1.0486 -2.4683
 3044SOL    HW220769   3.749   2.901   2.250 -1.7706 -2.3698 -1.7360
 3045SOL     OW20770   4.133   2.273  12.980  0.1874  0.5895 -0.6244
 3045SOL    HW120771   4.063   2.298  12.919  0.2054 -0.4434 -1.0649
 3045SOL    HW220772   4.124   2.178  12.981 -1.4427  0.7577  0.8216
 3046SOL     OW20773   2.777   1.287   2.973  0.0560  0.1135  0.0853
 3046SOL    HW120774   2.826   1.237   3.038  1.7694  0.6325 -0.8094
 3046SOL    HW220775   2.848   1.310   2.914  1.7635 -0.2862  1.9952
 3047SOL     OW20776   0.729   2.064   6.164 -0.2059  0.4170 -0.2777
 3047SOL    HW120777   0.707   1.971   6.164 -1.3222  0.6835  0.1177
 3047SOL    HW220778   0.786   2.064   6.087 -0.1820  2.5088 -0.2611
 3048SOL     OW20779   0.388   0.224  14.664  0.3056 -0.5238 -0.1638
 3048SOL    HW120780   0.456   0.253  14.724  0.0321 -1.6590  0.7030
 3048SOL    HW220781   0.356   0.311  14.641  0.2604 -0.3316  0.6272
 3049SOL     OW20782   0.547   4.024  15.622 -0.8898 -0.1348  0.4935
 3049SOL    HW120783   0.568   4.053  15.534 -1.8689 -2.3901 -0.4874
 3049SOL    HW220784   0.461   3.984  15.606 -0.5538 -0.6963  0.1152
 3050SOL     OW20785   4.371   0.474   4.946 -0.1171 -0.0689  0.1258
 3050SOL    HW120786   4.386   0.380   4.935 -0.9834 -0.1483 -0.3614
 3050SOL    HW220787   4.361   0.480   5.041 -0.6482 -1.6200  0.1569
 3051SOL     OW20788   4.191   1.775   4.318 -0.4132 -0.8812  0.4106
 3051SOL    HW120789   4.178   1.795   4.226 -0.4783  3.1273  1.3046
 3051SOL    HW220790   4.112   1.808   4.360 -0.7521  1.2798 -1.9465
 3052SOL     OW20791   1.510   1.593   6.295 -0.4828 -0.1176 -0.2460
 3052SOL    HW120792   1.553   1.632   6.371 -1.3544 -1.2055  0.7889
 3052SOL    HW220793   1.486   1.675   6.252 -1.7100 -1.0059 -1.2627
 3053SOL     OW20794   2.624   1.512  14.228 -0.4916  0.2801 -0.1045
 3053SOL    HW120795   2.675   1.460  14.290  0.4506 -0.0452 -1.1417
 3053SOL    HW220796   2.534   1.522  14.259  0.1780 -1.5385  2.3355
 3054SOL     OW20797   3.855   2.804   4.761  0.5187  0.2515  0.2277
 3054SOL    HW120798   3.762   2.824   4.754  0.8951  1.8044 -0.4507
 3054SOL    HW220799   3.857   2.805   4.856 -3.3757  0.1831  0.3119
 3055SOL     OW20800   0.707   3.549   8.946  0.5621 -0.6276  0.4323
 3055SOL    HW120801   0.801   3.543   8.925  1.4325 -0.1303  4.1395
 3055SOL    HW220802   0.702   3.583   9.035 -0.7685 -1.8147  0.7914
 3056SOL     OW20803   3.032   4.391  13.957 -0.4541 -0.4911 -0.1655
 3056SOL    HW120804   3.122   4.424  13.967 -0.5317 -0.2787 -0.1675
 3056SOL    HW220805   2.995   4.393  14.045 -2.2982  0.0088 -0.9552
 3057SOL     OW20806   3.936   1.654   0.064 -0.3122 -0.5541  0.6860
 3057SOL    HW120807   3.841   1.664   0.072 -0.3778 -1.0984  0.6433
 3057SOL    HW220808   3.938   1.565   0.028  2.6771  0.1197 -0.7445
 3058SOL     OW20809   0.324   2.927  14.863  0.5014 -0.0507  0.0869
 3058SOL    HW120810   0.414   2.935  14.893  1.5462 -2.2908 -2.5236
 3058SOL    HW220811   0.312   3.021  14.856 -1.5680 -0.2563  0.6652
 3059SOL     OW20812   1.596   2.825  13.331  0.0502 -0.1585  0.0579
 3059SOL    HW120813   1.565   2.763  13.266  0.7655  0.4949 -0.9182
 3059SOL    HW220814   1.677   2.779  13.354  0.0587 -0.8079 -1.2873
 3060SOL     OW20815   1.842   4.404   8.764  0.1533  0.5871  0.2272
 3060SOL    HW120816   1.769   4.453   8.724  0.5792  0.9363 -0.1169
 3060SOL    HW220817   1.881   4.382   8.680  0.0584 -2.3299  0.9539
 3061SOL     OW20818   0.822   3.891   0.558  0.2155  0.6829  0.2106
 3061SOL    HW120819   0.856   3.945   0.629  0.9308  1.3993 -0.6855
 3061SOL    HW220820   0.830   3.938   0.475 -0.1617 -2.7475 -1.7620
 3062SOL     OW20821   2.098   1.778   5.636  0.1106  0.5507  0.2724
 3062SOL    HW120822   2.096   1.731   5.553  1.1404  2.7959 -1.0253
 3062SOL    HW220823   2.043   1.719   5.687  0.4377 -0.0557 -0.0745
 3063SOL     OW20824   1.815   2.350   3.933 -0.0654  0.0178 -0.5599
 3063SOL    HW120825   1.827   2.434   3.890 -2.6418  1.6751  1.9353
 3063SOL    HW220826   1.830   2.371   4.025 -1.7548 -1.5139  0.0556
 3064SOL     OW20827   0.763   1.928   9.123 -0.4269 -0.1397 -0.0706
 3064SOL    HW120828   0.764   1.848   9.176  1.7614  0.3583  0.6400
 3064SOL    HW220829   0.855   1.945   9.104  0.4780 -1.2193  3.2721
 3065SOL     OW20830   3.178   4.031   6.165  0.1825  0.1435 -0.7105
 3065SOL    HW120831   3.197   4.118   6.132  0.7555  0.5165  0.5790
 3065SOL    HW220832   3.083   4.020   6.157 -0.0005  0.8397  0.4459
 3066SOL     OW20833   1.343   2.010  14.554  0.7360  0.3179 -0.0521
 3066SOL    HW120834   1.379   1.957  14.483  1.0066  1.7004 -0.9560
 3066SOL    HW220835   1.257   1.972  14.567 -0.1282  1.5824 -2.0402
 3067SOL     OW20836   2.794   3.700   1.896  0.1186 -0.4109 -0.0449
 3067SOL    HW120837   2.716   3.648   1.877 -0.9467  0.2906  2.4736
 3067SOL    HW220838   2.756   3.788   1.905  0.1515 -0.3612 -0.3747
 3068SOL     OW20839   2.082   2.418  15.780  0.1780  0.0360 -0.5294
 3068SOL    HW120840   2.083   2.453  15.691 -1.3349  2.4336  0.3950
 3068SOL    HW220841   2.075   2.323  15.771 -1.0281 -0.1273  2.0541
 3069SOL     OW20842   3.342   3.110   5.107  0.1995  0.0892  0.4206
 3069SOL    HW120843   3.428   3.070   5.094  0.1554 -0.3060  1.3726
 3069SOL    HW220844   3.302   3.083   5.024 -0.3493  3.2881 -0.3286
 3070SOL     OW20845   3.926   0.961   4.076  0.4254  0.0461  0.1087
 3070SOL    HW120846   3.931   0.865   4.077 -0.2691  0.0091 -0.7497
 3070SOL    HW220847   3.909   0.989   3.986  0.2557  1.3095  0.5312
 3071SOL     OW20848   2.096   4.540  15.510  0.2450  0.9736 -0.4139
 3071SOL    HW120849   2.092   4.475  15.440  0.2736  0.7602 -0.2143
 3071SOL    HW220850   2.071   4.484  15.583  0.6944  0.3384 -0.7514
 3072SOL     OW20851   2.163   4.400   8.292  0.0582  0.2751  0.0693
 3072SOL    HW120852   2.130   4.422   8.379 -2.7560  1.4327 -1.2785
 3072SOL    HW220853   2.095   4.345   8.253  1.2124  0.3666 -2.0563
 3073SOL     OW20854   0.854   0.217   3.260  0.2768 -0.3760  0.2862
 3073SOL    HW120855   0.913   0.286   3.230  0.3702 -0.3652  0.4997
 3073SOL    HW220856   0.829   0.186   3.173  1.8219 -2.6759  0.6620
 3074SOL     OW20857   3.862   2.945  15.721  0.1553  0.5168 -0.1740
 3074SOL    HW120858   3.912   2.876  15.677  0.4650 -0.0162  1.0263
 3074SOL    HW220859   3.901   3.018  15.673  0.2605  0.9572  0.5833
 3075SOL     OW20860   3.094   3.133   1.735 -0.0725  0.3582  0.6051
 3075SOL    HW120861   3.022   3.110   1.677 -0.9882  2.6068  0.8347
 3075SOL    HW220862   3.057   3.221   1.746  0.0820  0.3746  1.0196
 3076SOL     OW20863   0.332   3.564   6.420 -0.3183 -0.4583  0.1998
 3076SOL    HW120864   0.325   3.655   6.390 -0.4055 -0.4250  0.3186
 3076SOL    HW220865   0.243   3.532   6.406  0.5066 -2.9449  0.6729
 3077SOL     OW20866   4.673   0.566   9.110  0.0274  0.4917  0.1508
 3077SOL    HW120867   4.706   0.477   9.118  0.2680  0.3499 -2.3246
 3077SOL    HW220868   4.700   0.599   9.195  1.7855  0.0667 -0.2468
 3078SOL     OW20869   1.544   0.181   9.369  0.0637 -0.0962  0.5727
 3078SOL    HW120870   1.569   0.182   9.462  2.8642 -2.1147 -0.1608
 3078SOL    HW220871   1.449   0.170   9.368 -0.2171  2.1994  1.4229
 3079SOL     OW20872   0.058   0.240  10.522 -0.0278  0.0714  0.1423
 3079SOL    HW120873   0.001   0.202  10.589  1.1854  0.9530  1.6369
 3079SOL    HW220874   0.117   0.300  10.567 -0.7329 -0.3791  1.6731
 3080SOL     OW20875   0.210   2.718  16.786 -0.0999  0.0402  0.2409
 3080SOL    HW120876   0.221   2.785  16.718 -1.5120 -0.2918 -0.3236
 3080SOL    HW220877   0.135   2.758  16.830 -0.6014  0.4583 -0.9833
 3081SOL     OW20878   2.190   3.348   5.004  0.5131  0.9141  0.3718
 3081SOL    HW120879   2.181   3.429   4.954  2.0801  0.2268 -1.0230
 3081SOL    HW220880   2.285   3.344   5.012  0.3895  0.5269  1.5726
 3082SOL     OW20881   2.664   2.286   0.678 -0.7458  1.0484 -0.0154
 3082SOL    HW120882   2.759   2.273   0.683 -0.4478  3.2818  0.2312
 3082SOL    HW220883   2.647   2.266   0.586  2.4197  2.2219 -0.8741
 3083SOL     OW20884   2.851   0.524  13.844 -0.0151 -0.2141 -0.8723
 3083SOL    HW120885   2.895   0.515  13.928  1.0401 -1.2000 -1.5155
 3083SOL    HW220886   2.867   0.617  13.824  0.3956  0.6276  3.5475
 3084SOL     OW20887   2.440   2.786   5.629  0.3776  0.2298 -0.0001
 3084SOL    HW120888   2.461   2.692   5.633  1.6801  0.5403  0.4689
 3084SOL    HW220889   2.506   2.811   5.693  0.6443 -2.0494  0.6413
 3085SOL     OW20890   2.007   2.177  14.908  0.1171 -0.1027 -0.8881
 3085SOL    HW120891   1.968   2.119  14.843 -1.2231 -1.2845  0.9631
 3085SOL    HW220892   1.940   2.241  14.931 -0.3600 -0.8084 -0.2944
 3086SOL     OW20893   1.085   3.182  12.550  0.0118  1.0351  0.6673
 3086SOL    HW120894   1.133   3.205  12.629 -0.3896 -0.1936  1.2677
 3086SOL    HW220895   1.132   3.123  12.491 -2.8134  2.6044 -3.1951
 3087SOL     OW20896   1.646   2.980   8.885  0.1331  0.7444  0.3754
 3087SOL    HW120897   1.570   2.974   8.827 -2.0067 -2.6055  3.6282
 3087SOL    HW220898   1.660   2.886   8.891 -4.1921  0.2246  1.6179
 3088SOL     OW20899   4.129   0.864   3.839 -0.2015 -0.2350  0.5107
 3088SOL    HW120900   4.185   0.927   3.885  1.1969 -1.6717  0.7985
 3088SOL    HW220901   4.110   0.798   3.905  1.6739 -1.1872  0.1086
 3089SOL     OW20902   2.968   3.809   8.915  0.1377 -0.0633  0.3305
 3089SOL    HW120903   2.896   3.871   8.926 -0.5181 -0.8050  0.2711
 3089SOL    HW220904   2.931   3.730   8.954 -2.4003  0.8443 -0.2318
 3090SOL     OW20905   0.550   2.698   1.310  0.4833 -0.5456  0.0993
 3090SOL    HW120906   0.469   2.699   1.258  1.7606  1.7325 -1.8530
 3090SOL    HW220907   0.547   2.789   1.339  0.5898 -0.6123  0.3191
 3091SOL     OW20908   1.365   1.254  10.040 -0.1255  0.6288 -0.1613
 3091SOL    HW120909   1.428   1.313  10.082  1.0341 -1.4930  1.0907
 3091SOL    HW220910   1.336   1.187  10.102  0.5131  0.7831  0.3051
 3092SOL     OW20911   1.790   0.885   6.140 -0.3904  0.1471 -0.9613
 3092SOL    HW120912   1.813   0.977   6.129 -1.0695  0.4230 -0.1175
 3092SOL    HW220913   1.711   0.873   6.088 -2.4678  2.6884  1.5989
 3093SOL     OW20914   4.677   1.814   2.168  0.5816 -0.1992  0.7062
 3093SOL    HW120915   4.719   1.848   2.247 -0.4181  0.3151  1.0154
 3093SOL    HW220916   4.602   1.874   2.164 -0.5536 -1.5051  1.9420
 3094SOL     OW20917   3.230   3.732   6.946  0.3191  0.1233 -0.0458
 3094SOL    HW120918   3.177   3.808   6.918  0.6159  0.5748  0.6281
 3094SOL    HW220919   3.167   3.660   6.945 -0.1449  0.5070  1.3705
 3095SOL     OW20920   3.422   1.199   7.058 -0.4636  0.4241  0.3920
 3095SOL    HW120921   3.462   1.282   7.084  2.3113 -1.5558  2.4883
 3095SOL    HW220922   3.479   1.137   7.103  0.6971  0.7083 -0.7088
 3096SOL     OW20923   0.218   4.466  12.127  0.3694  0.1708 -0.3252
 3096SOL    HW120924   0.233   4.550  12.084  1.1707  0.1580 -0.0763
 3096SOL    HW220925   0.137   4.438  12.086 -0.0688  0.6828  0.1967
 3097SOL     OW20926   2.696   3.000   4.508 -0.0696  0.1738  0.1024
 3097SOL    HW120927   2.641   2.928   4.537 -1.7784  0.5771 -2.1220
 3097SOL    HW220928   2.669   3.072   4.566  1.0478  1.4964 -1.0110
 3098SOL     OW20929   1.782   0.894   8.606 -0.0919  0.4003 -0.4078
 3098SOL    HW120930   1.711   0.876   8.545 -0.3982  0.9788 -0.2257
 3098SOL    HW220931   1.804   0.808   8.640 -1.0667  0.1465 -0.4224
 3099SOL     OW20932   2.199   1.736   5.904 -0.5228  0.2687  0.2840
 3099SOL    HW120933   2.249   1.792   5.845 -2.1080  1.2494 -0.1158
 3099SOL    HW220934   2.116   1.783   5.917 -0.3468  0.0812  2.1070
 3100SOL     OW20935   3.646   4.050   6.578 -0.1008  0.2798  0.0533
 3100SOL    HW120936   3.569   3.997   6.557  0.1319 -0.5324  1.2508
 3100SOL    HW220937   3.716   4.006   6.529  0.8024 -0.2179  1.8090
 3101SOL     OW20938   1.905   1.888   4.606  0.1574 -0.0453  0.0295
 3101SOL    HW120939   1.813   1.898   4.629  0.3368 -1.2079  1.2494
 3101SOL    HW220940   1.903   1.847   4.519 -2.8322  1.1239 -0.4376
 3102SOL     OW20941   3.512   3.454   7.288 -0.8027 -0.5277 -0.0438
 3102SOL    HW120942   3.430   3.405   7.284 -0.1280 -1.2982 -4.0465
 3102SOL    HW220943   3.506   3.534   7.236 -0.1497 -0.2291  0.3470
 3103SOL     OW20944   3.656   0.532   4.825  0.4442 -0.5045  0.3075
 3103SOL    HW120945   3.667   0.507   4.916 -2.7948 -0.5234  0.6754
 3103SOL    HW220946   3.565   0.504   4.822  0.1966  0.5278 -1.8563
 3104SOL     OW20947   0.911   1.853   3.111  0.1686  0.2603  0.0339
 3104SOL    HW120948   0.945   1.765   3.097  1.8082  1.3259 -2.5519
 3104SOL    HW220949   0.857   1.865   3.033 -0.3920  2.7963  0.8007
 3105SOL     OW20950   4.433   1.008   4.599  0.3247  0.2331  0.0299
 3105SOL    HW120951   4.343   1.038   4.613 -0.0300  0.1133 -2.0618
 3105SOL    HW220952   4.469   1.074   4.540 -0.3676  1.8786  1.4532
 3106SOL     OW20953   4.420   1.809   8.900  0.2529  0.2661 -1.0524
 3106SOL    HW120954   4.433   1.787   8.993 -2.6602  1.1524 -0.4416
 3106SOL    HW220955   4.512   1.821   8.878  0.7628 -1.2063  0.2368
 3107SOL     OW20956   3.837   2.456   1.297 -0.6424  0.9744  0.2226
 3107SOL    HW120957   3.880   2.537   1.325 -0.2159  0.6516  0.4977
 3107SOL    HW220958   3.908   2.398   1.269  0.5441  2.7342 -0.4350
 3108SOL     OW20959   1.471   1.570   5.424  0.1084  0.7134 -0.0294
 3108SOL    HW120960   1.403   1.629   5.457 -0.2153  1.8739 -2.8390
 3108SOL    HW220961   1.421   1.519   5.361 -0.8684  0.9159  0.5808
 3109SOL     OW20962   3.771   4.099   7.415 -0.1642  0.0121  0.1307
 3109SOL    HW120963   3.785   4.186   7.452  1.3834  0.2605 -1.0246
 3109SOL    HW220964   3.690   4.115   7.366  0.3275  0.5003 -0.5386
 3110SOL     OW20965   3.457   2.058   2.330 -0.3914 -0.0448 -0.4648
 3110SOL    HW120966   3.386   2.006   2.293  0.5305 -2.8262  1.6619
 3110SOL    HW220967   3.409   2.131   2.370  0.2501 -1.0013  2.0592
 3111SOL     OW20968   3.772   0.898   8.413  0.0032  0.4982  0.5721
 3111SOL    HW120969   3.739   0.915   8.325  1.0609 -1.8037 -0.2506
 3111SOL    HW220970   3.685   0.901   8.452  0.8350  0.6021  2.4503
 3112SOL     OW20971   2.032   0.898  16.968 -0.3724  0.2681 -0.5565
 3112SOL    HW120972   2.042   0.847  17.048  0.8317  1.0956 -0.1905
 3112SOL    HW220973   2.112   0.866  16.928 -0.4364 -0.6200  0.0312
 3113SOL     OW20974   3.281   4.643   9.395  0.3096  0.0630 -0.2695
 3113SOL    HW120975   3.328   4.562   9.378 -0.7210 -0.6667  0.3774
 3113SOL    HW220976   3.342   4.689   9.453  1.7280 -1.9472 -0.1515
 3114SOL     OW20977   4.181   3.164   5.507 -0.6348 -0.0187 -0.2269
 3114SOL    HW120978   4.200   3.219   5.583 -0.9649  0.9989 -0.8824
 3114SOL    HW220979   4.270   3.137   5.482 -0.4619  1.1602 -0.9062
 3115SOL     OW20980   1.854   4.408   6.606 -0.8063 -0.1499 -0.0936
 3115SOL    HW120981   1.798   4.455   6.545 -1.4236  0.4597  0.9317
 3115SOL    HW220982   1.941   4.445   6.590 -1.1113  1.0216  0.9417
 3116SOL     OW20983   0.249   4.621   7.705  0.4778  0.4690  0.2614
 3116SOL    HW120984   0.195   4.543   7.721 -1.7960  1.9406 -0.3848
 3116SOL    HW220985   0.280   4.632   7.795 -0.0088  0.7643  0.3893
 3117SOL     OW20986   2.937   1.991   5.075 -0.0979  0.4732  0.3387
 3117SOL    HW120987   2.853   2.035   5.064  0.3396  2.0137  3.0589
 3117SOL    HW220988   2.925   1.915   5.019 -1.5814 -1.0882  2.7876
 3118SOL     OW20989   4.235   0.388   8.000 -0.4779  0.2693  0.0965
 3118SOL    HW120990   4.328   0.376   7.983 -0.3447  1.6148 -0.0680
 3118SOL    HW220991   4.224   0.460   8.061 -1.1072  0.6923 -0.5111
 3119SOL     OW20992   4.548   3.841   1.643 -0.3844  0.3254 -0.7926
 3119SOL    HW120993   4.596   3.905   1.696  1.9324 -1.1428 -1.0771
 3119SOL    HW220994   4.467   3.831   1.692 -0.7192  0.5614 -1.3030
 3120SOL     OW20995   2.021   2.348   8.790  0.1988 -0.3982  0.1713
 3120SOL    HW120996   2.002   2.312   8.876 -0.5049  0.7844  0.5052
 3120SOL    HW220997   2.096   2.404   8.811  0.3430 -0.9867  1.1703
 3121SOL     OW20998   4.455   3.287   3.881  0.1219 -0.2945  0.4089
 3121SOL    HW120999   4.540   3.300   3.923  0.9758  1.9539 -2.0129
 3121SOL    HW221000   4.453   3.194   3.859 -2.6450 -0.6391  2.1602
 3122SOL     OW21001   4.013   0.567  17.098 -0.8316  0.1648  0.2274
 3122SOL    HW121002   4.064   0.616  17.033 -1.6655 -2.6774 -2.5489
 3122SOL    HW221003   4.089   0.553  17.155 -0.7686  1.6077  0.5136
 3123SOL     OW21004   4.378   0.538   8.841  0.1237 -0.3831 -0.5615
 3123SOL    HW121005   4.454   0.545   8.899 -1.3141 -0.2568  1.3168
 3123SOL    HW221006   4.406   0.582   8.761  1.2829 -0.0040  0.0690
 3124SOL     OW21007   0.219   0.621   6.554 -0.0958  0.0244 -0.0645
 3124SOL    HW121008   0.213   0.617   6.459  1.8656  0.3546 -0.2038
 3124SOL    HW221009   0.136   0.664   6.575 -0.3985 -0.8999  0.6629
 3125SOL     OW21010   1.039   0.133   7.214  0.4881  0.0272 -0.7598
 3125SOL    HW121011   1.012   0.073   7.145 -1.4875 -1.5274  1.3614
 3125SOL    HW221012   1.131   0.148   7.196  0.1672  0.0221 -2.3656
 3126SOL     OW21013   3.503   2.204   8.237  0.0121  0.1186  0.4253
 3126SOL    HW121014   3.570   2.269   8.214  0.3860 -0.7198 -0.8422
 3126SOL    HW221015   3.423   2.248   8.209  0.3980  0.1379 -0.6418
 3127SOL     OW21016   3.184   3.485  10.813 -0.5143  0.7731  0.0195
 3127SOL    HW121017   3.250   3.536  10.767 -0.1958 -0.7114 -1.1675
 3127SOL    HW221018   3.244   3.422  10.853 -2.3315  0.0052  1.5249
 3128SOL     OW21019   2.250   2.355  14.948  0.0232 -0.4161  0.0835
 3128SOL    HW121020   2.192   2.279  14.947  0.2411 -0.5667 -1.8431
 3128SOL    HW221021   2.303   2.335  15.024  0.4151  0.6013  0.0825
 3129SOL     OW21022   3.954   1.953   3.601 -0.2615  0.0223 -0.4271
 3129SOL    HW121023   4.042   1.979   3.573 -0.1398  0.5200  0.3863
 3129SOL    HW221024   3.907   2.036   3.606 -2.3327 -1.1178 -0.7358
 3130SOL     OW21025   1.387   1.534   5.809  0.4643  0.1771  0.0885
 3130SOL    HW121026   1.408   1.508   5.899 -0.4832 -0.0063  0.2623
 3130SOL    HW221027   1.327   1.609   5.817 -0.4867 -0.6158  0.3245
 3131SOL     OW21028   4.129   3.068   1.621  0.5961 -0.7569  0.1508
 3131SOL    HW121029   4.192   3.003   1.590  2.4656  1.2002 -0.1272
 3131SOL    HW221030   4.112   3.041   1.711  0.4802  1.1892  0.6961
 3132SOL     OW21031   2.576   3.376   6.715 -0.0670 -1.3797  0.7220
 3132SOL    HW121032   2.655   3.321   6.715  0.0423 -1.2140  1.5907
 3132SOL    HW221033   2.592   3.434   6.789  0.5873  0.8208 -1.1617
 3133SOL     OW21034   0.045   2.777  12.047  0.2685 -0.4873 -0.6948
 3133SOL    HW121035   4.712   2.806  11.990 -0.7777 -1.6203  0.0234
 3133SOL    HW221036   0.010   2.688  12.049 -0.3283 -0.2354  0.0097
 3134SOL     OW21037   3.772   1.480   2.809 -0.4075 -0.1526 -0.4913
 3134SOL    HW121038   3.835   1.441   2.748 -0.9865  0.0008 -1.1864
 3134SOL    HW221039   3.817   1.561   2.831 -0.4729 -0.5825  1.1984
 3135SOL     OW21040   2.064   4.328   1.673 -0.1714  0.1036 -0.1451
 3135SOL    HW121041   2.154   4.296   1.672 -0.0371  0.4864 -0.2490
 3135SOL    HW221042   2.031   4.301   1.759  1.1619 -0.8236  0.0708
 3136SOL     OW21043   1.777   2.125   2.732  0.3907 -0.9599 -0.2763
 3136SOL    HW121044   1.829   2.083   2.801  0.1251 -0.8680 -0.0167
 3136SOL    HW221045   1.706   2.061   2.725 -0.1605 -0.5960  1.8659
 3137SOL     OW21046   1.170   3.676   4.619  0.0400  0.0660  0.3867
 3137SOL    HW121047   1.189   3.700   4.529 -0.2868  0.3184  0.3879
 3137SOL    HW221048   1.257   3.669   4.660  2.5015 -1.7373 -5.0987
 3138SOL     OW21049   4.152   2.442   8.654  0.1142 -0.0477  0.0668
 3138SOL    HW121050   4.121   2.408   8.738 -1.8914  0.9110 -0.2907
 3138SOL    HW221051   4.155   2.358   8.607 -1.4108 -0.0399 -0.0447
 3139SOL     OW21052   2.428   0.658   6.572 -0.5994  0.2747  0.5885
 3139SOL    HW121053   2.512   0.687   6.538 -0.1870 -0.7557  0.7356
 3139SOL    HW221054   2.394   0.745   6.595 -1.9597  0.1545 -0.9206
 3140SOL     OW21055   1.449   4.227   5.456 -0.0244 -0.9106  0.2972
 3140SOL    HW121056   1.455   4.318   5.484  0.0542 -0.3630 -1.5012
 3140SOL    HW221057   1.358   4.197   5.461 -0.3172 -0.1531 -0.4535
 3141SOL     OW21058   3.619   1.566  12.407 -0.3116  0.1983 -0.2062
 3141SOL    HW121059   3.657   1.618  12.336  1.5502  0.2775  0.8495
 3141SOL    HW221060   3.667   1.483  12.403  0.8090  0.8988 -1.3658
 3142SOL     OW21061   3.362   2.577   8.229 -0.0704  0.2456  0.2535
 3142SOL    HW121062   3.363   2.555   8.135  1.2896  2.0979 -0.1480
 3142SOL    HW221063   3.314   2.501   8.263  0.5399  0.6948  2.1092
 3143SOL     OW21064   1.987   3.854   0.045  0.0559  0.2314  0.4590
 3143SOL    HW121065   1.892   3.848   0.038  0.1501  0.2262 -0.7945
 3143SOL    HW221066   2.001   3.943   0.013  2.4876 -0.0416  0.7747
 3144SOL     OW21067   3.952   1.985  13.558  0.0221  0.6671 -0.6229
 3144SOL    HW121068   3.985   1.926  13.626 -0.9828 -1.9194 -2.4070
 3144SOL    HW221069   4.032   2.007  13.511  0.4630 -1.9927 -1.1466
 3145SOL     OW21070   0.647   0.349  15.866  0.2371 -0.2750 -0.5398
 3145SOL    HW121071   0.570   0.296  15.886 -0.2396  0.4251 -0.5360
 3145SOL    HW221072   0.718   0.308  15.916  0.7391  0.9944 -0.2145
 3146SOL     OW21073   3.549   3.963   5.241 -0.2025  0.1672  0.1517
 3146SOL    HW121074   3.613   3.898   5.270  0.3033 -0.6148 -2.6969
 3146SOL    HW221075   3.544   4.016   5.320 -1.2192 -2.1848  1.6694
 3147SOL     OW21076   0.854   1.468   5.340 -0.3799  0.4887  0.3812
 3147SOL    HW121077   0.844   1.531   5.412 -1.1562 -0.4351  1.0956
 3147SOL    HW221078   0.830   1.390   5.391 -1.0346 -1.5804 -3.1192
 3148SOL     OW21079   0.149   0.906   4.847 -0.6081 -0.6928 -0.2939
 3148SOL    HW121080   0.199   0.972   4.894  0.5652 -1.6704 -0.1683
 3148SOL    HW221081   0.092   0.964   4.797 -0.1171  1.0597  1.1995
 3149SOL     OW21082   0.145   0.756  12.682 -0.5366  0.5269 -0.2695
 3149SOL    HW121083   0.117   0.847  12.693  0.6792  0.9778 -0.9041
 3149SOL    HW221084   0.233   0.764  12.644 -0.2672 -1.9205 -0.1030
 3150SOL     OW21085   4.143   1.633   2.344 -0.4358  0.1437  0.1109
 3150SOL    HW121086   4.189   1.668   2.268 -0.5498 -2.4768 -1.1942
 3150SOL    HW221087   4.211   1.627   2.411 -0.4134  0.5120  0.1175
 3151SOL     OW21088   1.484   3.249   5.050  0.0891 -0.0600  0.3112
 3151SOL    HW121089   1.524   3.194   5.117  1.1997  1.2399  0.7378
 3151SOL    HW221090   1.549   3.319   5.061 -1.3193  1.1294  0.9995
 3152SOL     OW21091   1.670   0.641   4.027  0.2440  0.1045  0.0461
 3152SOL    HW121092   1.741   0.682   3.978 -0.0526  0.2011 -0.2997
 3152SOL    HW221093   1.670   0.556   3.982  1.4863 -1.7875  3.6362
 3153SOL     OW21094   1.673   2.036   9.291  0.0182  0.1488  0.4289
 3153SOL    HW121095   1.648   2.067   9.204  1.3231  0.2794  0.1050
 3153SOL    HW221096   1.744   2.098   9.310  0.1814 -0.1869  0.8948
 3154SOL     OW21097   1.592   3.840   2.165  0.1978 -0.4739  0.0121
 3154SOL    HW121098   1.619   3.923   2.205 -1.9412 -0.1409  0.7677
 3154SOL    HW221099   1.501   3.829   2.192 -0.6100 -0.4767 -2.7480
 3155SOL     OW21100   1.816   1.560   2.864 -0.4846  0.5036 -0.3158
 3155SOL    HW121101   1.908   1.543   2.883  0.1885  1.7983 -2.4550
 3155SOL    HW221102   1.781   1.617   2.932 -0.3227  0.7918 -0.4718
 3156SOL     OW21103   3.906   4.667  15.661 -0.3112  0.1355 -0.6711
 3156SOL    HW121104   3.901   4.581  15.619 -1.8463 -0.6234  1.0776
 3156SOL    HW221105   3.880   4.727  15.592 -2.8039  1.8693  1.7848
 3157SOL     OW21106   4.658   1.486   2.634  0.2968 -0.6821  0.4572
 3157SOL    HW121107   4.631   1.489   2.542 -1.3896  1.6940  1.0140
 3157SOL    HW221108   0.015   1.499   2.623  0.1087 -0.2074 -0.6334
 3158SOL     OW21109   1.917   3.845   9.035 -0.2380  0.0883  0.6901
 3158SOL    HW121110   1.836   3.879   8.998 -0.9102 -2.4089 -0.1465
 3158SOL    HW221111   1.947   3.781   8.970 -0.3717  0.6619  0.0601
 3159SOL     OW21112   2.777   4.472   2.543  0.1340 -0.6850 -0.0395
 3159SOL    HW121113   2.744   4.560   2.522  2.9462  0.2927 -0.4609
 3159SOL    HW221114   2.734   4.421   2.475  0.7494  0.0412 -0.9777
 3160SOL     OW21115   2.877   2.465   6.468 -0.1802  0.2523  0.0432
 3160SOL    HW121116   2.892   2.512   6.550  1.9225  0.5129 -0.4954
 3160SOL    HW221117   2.954   2.410   6.459 -0.6470 -0.4597  0.3565
 3161SOL     OW21118   3.812   4.117   5.940 -0.5530  0.7839  0.2902
 3161SOL    HW121119   3.902   4.126   5.910  0.0403 -2.1429  1.2509
 3161SOL    HW221120   3.774   4.134   5.854  0.2542 -1.2959 -0.4549
 3162SOL     OW21121   1.531   4.343  12.369 -0.0734  0.0850  0.8414
 3162SOL    HW121122   1.463   4.286  12.403  0.1176 -0.1189  0.8832
 3162SOL    HW221123   1.500   4.426  12.404 -0.1605  1.0082 -1.3756
 3163SOL     OW21124   3.757   0.039   3.959  0.5737  0.1206  0.0325
 3163SOL    HW121125   3.829   0.094   3.929  0.0551  0.4252 -0.6610
 3163SOL    HW221126   3.800   4.717   4.020  0.8944  0.5279  0.1969
 3164SOL     OW21127   1.502   2.581   4.363 -0.0639  0.2241  0.2464
 3164SOL    HW121128   1.514   2.674   4.342 -0.5838  0.4051  0.7747
 3164SOL    HW221129   1.589   2.551   4.337 -0.7179 -1.1174 -0.3726
 3165SOL     OW21130   1.007   4.075   4.392 -0.5640 -0.0312 -0.0558
 3165SOL    HW121131   1.083   4.105   4.441 -0.6380  0.2442 -0.1094
 3165SOL    HW221132   0.938   4.088   4.457  0.9866 -1.0952  1.7892
 3166SOL     OW21133   0.667   0.159   2.372  0.6102  0.1425 -0.1921
 3166SOL    HW121134   0.620   0.210   2.438 -0.9314 -0.0297 -1.1436
 3166SOL    HW221135   0.603   0.143   2.302 -0.1640  2.3432  0.0316
 3167SOL     OW21136   1.062   0.337   4.242  0.0686 -0.4156 -0.0783
 3167SOL    HW121137   1.116   0.268   4.203 -0.0308 -0.4208 -0.2081
 3167SOL    HW221138   1.063   0.294   4.328  0.0385 -0.5905 -0.1646
 3168SOL     OW21139   0.932   3.672   1.675  0.4214 -0.5501 -0.4336
 3168SOL    HW121140   0.840   3.688   1.654  0.3484 -1.3539 -0.7097
 3168SOL    HW221141   0.967   3.753   1.638 -0.4141  0.8344  1.7844
 3169SOL     OW21142   4.494   1.641   5.768  0.2187  0.1826 -0.2120
 3169SOL    HW121143   4.484   1.720   5.821 -0.9145  0.1433 -0.3741
 3169SOL    HW221144   4.439   1.658   5.692  0.5052 -0.4045 -0.5550
 3170SOL     OW21145   1.870   2.554   8.024  0.1477 -0.3839  0.0865
 3170SOL    HW121146   1.838   2.485   7.965 -1.6739  2.0502 -1.7896
 3170SOL    HW221147   1.899   2.499   8.097 -1.2229  0.9435  1.6329
 3171SOL     OW21148   1.942   3.339   6.066 -0.0647 -0.6805 -0.1356
 3171SOL    HW121149   2.031   3.360   6.093  0.4932 -0.1869 -2.3837
 3171SOL    HW221150   1.954   3.306   5.977 -1.5904 -1.0466 -0.2099
 3172SOL     OW21151   0.212   1.953   2.746 -0.0807  0.0010 -0.2879
 3172SOL    HW121152   0.275   1.891   2.708 -0.7085 -0.8782  0.1147
 3172SOL    HW221153   0.166   1.913   2.820  0.4633 -0.1925 -0.0510
 3173SOL     OW21154   3.674   4.342   8.571 -0.1004 -0.1051 -0.2994
 3173SOL    HW121155   3.753   4.358   8.520  0.7798 -0.7796  0.8683
 3173SOL    HW221156   3.608   4.388   8.518 -1.2461 -1.6669 -0.2350
 3174SOL     OW21157   1.130   0.113   7.491 -0.5149  0.0725 -0.5961
 3174SOL    HW121158   1.215   0.117   7.446  0.8665  2.4551  2.2652
 3174SOL    HW221159   1.080   0.123   7.410  0.9145 -1.3393 -1.6742
 3175SOL     OW21160   2.423   3.783   2.857 -0.0334 -0.0688 -0.0137
 3175SOL    HW121161   2.416   3.819   2.768 -1.0907 -1.6953 -0.5962
 3175SOL    HW221162   2.377   3.856   2.898 -1.2534 -0.3444 -0.8647
 3176SOL     OW21163   0.859   3.077   2.998  0.3818  0.4099 -0.2159
 3176SOL    HW121164   0.880   2.984   2.989 -0.9164 -0.0143  1.0214
 3176SOL    HW221165   0.764   3.085   3.007  0.2731 -1.2265 -0.0071
 3177SOL     OW21166   2.688   1.189   4.480  0.3085  0.2215  0.1009
 3177SOL    HW121167   2.680   1.168   4.573 -0.6923  1.3141  0.2723
 3177SOL    HW221168   2.770   1.141   4.466  0.6400  0.5373  0.9406
 3178SOL     OW21169   3.853   2.564   8.024  0.8488  0.0438  0.2248
 3178SOL    HW121170   3.809   2.509   8.089  2.3130  0.4282  1.5262
 3178SOL    HW221171   3.938   2.520   8.014  1.5749  1.9701 -1.9327
 3179SOL     OW21172   0.786   0.463   3.026 -0.0903 -0.2619  0.0256
 3179SOL    HW121173   0.724   0.390   3.022  0.1109 -0.4696  0.6078
 3179SOL    HW221174   0.834   0.455   2.944 -1.7184  1.0801 -1.0451
 3180SOL     OW21175   1.525   4.108  12.098 -0.2745  0.1868  0.3284
 3180SOL    HW121176   1.515   4.086  12.005 -1.2085 -0.0602  0.4910
 3180SOL    HW221177   1.455   4.065  12.145  0.0262 -1.4890 -0.7654
 3181SOL     OW21178   1.915   1.596  12.637  0.0885  0.2850 -0.6748
 3181SOL    HW121179   1.880   1.508  12.651  1.2275 -0.3135 -1.6057
 3181SOL    HW221180   1.997   1.561  12.603  1.2897  2.5731 -0.1256
 3182SOL     OW21181   3.769   2.326   6.251 -0.5394  0.2962  0.2217
 3182SOL    HW121182   3.742   2.333   6.160 -0.7973  0.7185  0.3266
 3182SOL    HW221183   3.694   2.370   6.292  0.2242 -1.5967  3.6988
 3183SOL     OW21184   1.030   3.079   9.004  0.4296  0.3849  0.0344
 3183SOL    HW121185   1.008   2.994   9.041  1.6272  1.2773  2.8524
 3183SOL    HW221186   0.950   3.128   8.985  0.1558 -0.1220 -0.1163
 3184SOL     OW21187   1.092   2.875   8.560 -0.1644  0.5265  0.4581
 3184SOL    HW121188   0.996   2.870   8.554 -0.2844 -0.1259  2.9550
 3184SOL    HW221189   1.108   2.783   8.583 -0.4351  0.6483  1.1398
 3185SOL     OW21190   3.547   1.418   4.101  0.0129  0.6147  0.2390
 3185SOL    HW121191   3.504   1.442   4.184  0.9862  3.0260  0.0600
 3185SOL    HW221192   3.636   1.397   4.130  0.3624  0.8346 -0.6802
 3186SOL     OW21193   1.978   3.218   4.446 -0.7612 -0.1939  0.2328
 3186SOL    HW121194   2.005   3.273   4.520  2.1515  1.2465 -1.9026
 3186SOL    HW221195   2.041   3.152   4.472  0.1335  0.3978 -0.4341
 3187SOL     OW21196   2.879   1.853  13.757  0.0436  0.3911 -0.4734
 3187SOL    HW121197   2.784   1.847  13.746  0.0694 -1.9767  0.6283
 3187SOL    HW221198   2.903   1.918  13.691 -0.8096  1.3832  0.1957
 3188SOL     OW21199   1.702   0.433   4.897  0.9913  0.1230  0.1915
 3188SOL    HW121200   1.783   0.391   4.869  1.6304  1.2746  0.2859
 3188SOL    HW221201   1.709   0.515   4.847 -0.2208  0.9266  1.3439
 3189SOL     OW21202   2.950   3.121   3.164  0.9120 -0.5832 -0.2784
 3189SOL    HW121203   2.922   3.196   3.216  1.1950  0.3608 -1.5090
 3189SOL    HW221204   2.863   3.083   3.154 -0.3937  2.0019  1.1603
 3190SOL     OW21205   1.858   0.314   1.841 -0.6871 -0.0780  0.2757
 3190SOL    HW121206   1.926   0.281   1.900 -0.7582 -0.4975  0.1208
 3190SOL    HW221207   1.795   0.243   1.849  0.5466 -1.2033  0.1246
 3191SOL     OW21208   3.848   0.572   8.692 -0.1755  0.0708 -0.3793
 3191SOL    HW121209   3.931   0.554   8.649  1.5919  2.6473  1.9033
 3191SOL    HW221210   3.859   0.533   8.779 -1.6109  0.2830 -0.1027
 3192SOL     OW21211   4.021   3.999   1.536 -0.4623 -0.2005  0.2837
 3192SOL    HW121212   4.002   3.961   1.622 -1.4831  1.6091  0.8670
 3192SOL    HW221213   4.115   3.986   1.529 -0.1778  1.0917  1.6670
 3193SOL     OW21214   2.446   4.530   2.364 -0.0909 -0.5756 -0.2598
 3193SOL    HW121215   2.414   4.542   2.454 -0.5449 -0.2666 -0.4594
 3193SOL    HW221216   2.378   4.478   2.321  0.7948  0.0946 -2.4573
 3194SOL     OW21217   2.006   0.154   4.709  0.2735  0.3220 -0.5839
 3194SOL    HW121218   1.996   0.239   4.752  1.2922 -0.6478  1.5749
 3194SOL    HW221219   2.099   0.141   4.690  0.6417 -2.0264  2.9737
 3195SOL     OW21220   0.759   3.400   6.840 -0.0429 -0.0886  0.0664
 3195SOL    HW121221   0.791   3.340   6.773 -0.2812  1.8764 -1.7863
 3195SOL    HW221222   0.821   3.469   6.818  0.4589 -0.0849  1.5274
 3196SOL     OW21223   3.648   1.343   7.833 -0.2903 -0.2846 -0.5133
 3196SOL    HW121224   3.589   1.342   7.757  0.3719  3.7383 -1.0640
 3196SOL    HW221225   3.657   1.436   7.854 -0.5766 -0.2803 -0.4142
 3197SOL     OW21226   2.701   0.903   1.629  0.0124 -0.0872 -0.1827
 3197SOL    HW121227   2.662   0.946   1.705 -0.1243  0.0160 -0.3110
 3197SOL    HW221228   2.636   0.931   1.564 -0.1944  1.0735  0.5072
 3198SOL     OW21229   4.428   4.702   7.346  0.1084  0.5159 -0.3109
 3198SOL    HW121230   4.480   0.039   7.317 -1.3282  1.4702 -0.4499
 3198SOL    HW221231   4.367   4.693   7.273 -1.4195  2.7355  0.6889
 3199SOL     OW21232   1.104   1.227   2.050  0.0514 -0.9530 -0.1971
 3199SOL    HW121233   1.064   1.145   2.018 -3.6812  0.1963  1.5079
 3199SOL    HW221234   1.034   1.266   2.103  0.5922 -1.6224  0.9949
 3200SOL     OW21235   1.359   1.270   1.943 -0.0766 -0.5961 -0.0154
 3200SOL    HW121236   1.350   1.276   1.848  2.3202 -2.7583 -0.3879
 3200SOL    HW221237   1.271   1.267   1.981 -0.6926 -0.7526 -1.4488
 3201SOL     OW21238   1.874   0.600   6.862  0.1203  0.3023  0.0905
 3201SOL    HW121239   1.822   0.562   6.933  1.7009 -1.1496  0.4600
 3201SOL    HW221240   1.866   0.695   6.875  0.4681  0.3004  0.3036
 3202SOL     OW21241   3.356   2.707   5.443 -0.7607 -0.0170  0.8649
 3202SOL    HW121242   3.312   2.670   5.520  1.5011  0.4239  2.3936
 3202SOL    HW221243   3.319   2.794   5.452 -2.6971 -0.6072 -1.4160
 3203SOL     OW21244   4.137   4.555   2.427  0.4132  0.1972  0.0315
 3203SOL    HW121245   4.067   4.497   2.455 -1.2264  1.4633 -1.4218
 3203SOL    HW221246   4.099   4.635   2.391  0.8453 -0.8677 -2.8015
 3204SOL     OW21247   4.279   3.323   4.995  0.2306 -0.7157  0.1744
 3204SOL    HW121248   4.234   3.350   5.075 -1.2178 -0.4193 -0.7493
 3204SOL    HW221249   4.361   3.374   4.990 -1.6118  2.3718  1.0900
 3205SOL     OW21250   0.079   3.015   5.325 -0.0442  0.2175 -0.4977
 3205SOL    HW121251   0.070   3.091   5.383 -3.2942 -0.2777 -0.3150
 3205SOL    HW221252   4.725   2.994   5.303  0.0172 -1.3583  0.6810
 3206SOL     OW21253   1.125   4.460   1.773 -0.4616 -0.3753 -0.0111
 3206SOL    HW121254   1.177   4.411   1.710  0.1802 -0.8284  0.8690
 3206SOL    HW221255   1.195   4.518   1.803 -0.9528 -0.4374  1.2715
 3207SOL     OW21256   0.043   0.305   4.066 -0.1756 -0.2437 -0.5870
 3207SOL    HW121257   4.730   0.294   3.985 -0.5114 -0.6384 -0.3245
 3207SOL    HW221258   0.070   0.395   4.048  0.8443 -0.3838  0.2163
 3208SOL     OW21259   4.409   0.451   9.155 -0.3575 -0.0561 -0.3182
 3208SOL    HW121260   4.409   0.545   9.171 -2.1837 -0.2118  0.6661
 3208SOL    HW221261   4.475   0.425   9.220  0.4905  1.8060 -0.4481
 3209SOL     OW21262   2.030   1.337   3.506  0.4387 -0.8649 -0.1873
 3209SOL    HW121263   2.110   1.384   3.483  0.0063 -0.2050 -0.3428
 3209SOL    HW221264   2.012   1.304   3.418  0.7503  1.3495 -1.0806
 3210SOL     OW21265   0.340   0.315  17.557 -0.8664  0.5293 -0.4391
 3210SOL    HW121266   0.346   0.305  17.462  0.6764  0.3546 -0.3239
 3210SOL    HW221267   0.432   0.309  17.584 -0.8494 -0.7777 -0.7767
 3211SOL     OW21268   0.472   3.567   4.395  0.5336 -0.4822 -0.1030
 3211SOL    HW121269   0.394   3.616   4.419  1.3924  0.5676  0.4887
 3211SOL    HW221270   0.511   3.641   4.350 -1.5666  1.0086  0.5586
 3212SOL     OW21271   3.841   4.598   9.213  0.6537 -0.1118  0.2800
 3212SOL    HW121272   3.745   4.604   9.219  0.6233 -0.8969  0.6314
 3212SOL    HW221273   3.851   4.544   9.134 -1.1613 -0.8507  0.5499
 3213SOL     OW21274   0.261   2.056   3.415 -0.8025  0.0386 -0.0492
 3213SOL    HW121275   0.213   2.098   3.487  1.0039 -0.8168  1.6657
 3213SOL    HW221276   0.349   2.095   3.408 -0.6799  0.0167  1.3789
 3214SOL     OW21277   4.659   4.698  16.645 -0.5383 -0.1803 -0.3777
 3214SOL    HW121278   4.577   4.665  16.680 -0.3168 -0.3779 -0.0485
 3214SOL    HW221279   4.672   0.031  16.708  0.5033  0.5281 -1.3644
 3215SOL     OW21280   2.536   0.978   5.574  0.0381  0.2787  0.1122
 3215SOL    HW121281   2.512   0.929   5.495 -0.1148  0.4263  0.0659
 3215SOL    HW221282   2.489   1.062   5.565  0.5023  0.6497  1.1436
 3216SOL     OW21283   0.537   2.990   6.455  0.0293  0.4195 -0.1495
 3216SOL    HW121284   0.552   3.038   6.537  0.9813 -1.2671  0.6610
 3216SOL    HW221285   0.584   3.055   6.402 -1.1555  0.9550 -0.5306
 3217SOL     OW21286   3.385   4.562   6.785 -0.7795  0.6317 -0.1123
 3217SOL    HW121287   3.294   4.591   6.775 -0.9795 -0.5629 -1.6635
 3217SOL    HW221288   3.408   4.540   6.876 -0.6118 -1.6268 -0.7035
 3218SOL     OW21289   0.680   3.025   2.343 -0.3303  0.1140  0.8474
 3218SOL    HW121290   0.767   3.050   2.311 -0.3222  0.3439  1.0556
 3218SOL    HW221291   0.684   2.930   2.331  1.5676  0.5606 -2.1808
 3219SOL     OW21292   0.488   4.264   7.295 -0.4711  0.1787 -0.3110
 3219SOL    HW121293   0.424   4.296   7.231  0.6511  1.1924 -0.9152
 3219SOL    HW221294   0.459   4.306   7.376 -0.0578  2.0960 -1.1651
 3220SOL     OW21295   1.706   1.857   2.858  0.0879  0.7947 -0.2065
 3220SOL    HW121296   1.652   1.838   2.935  1.4551 -0.0598  0.5564
 3220SOL    HW221297   1.663   1.801   2.793  0.4223  2.2698 -1.7010
 3221SOL     OW21298   3.565   4.308   4.945  0.5865  0.5234  0.3009
 3221SOL    HW121299   3.558   4.372   5.015  0.4721 -0.3827  1.1138
 3221SOL    HW221300   3.653   4.327   4.912  0.5332 -0.3693 -0.3738
 3222SOL     OW21301   0.436   1.653   9.446  0.1183 -0.2674 -0.1220
 3222SOL    HW121302   0.425   1.581   9.508 -1.2612  0.5986  0.6462
 3222SOL    HW221303   0.490   1.716   9.495  0.1154 -1.2311  1.1107
 3223SOL     OW21304   2.377   0.365   3.234 -0.2014 -0.1870 -0.6813
 3223SOL    HW121305   2.449   0.429   3.232 -1.7959  1.6095 -0.5622
 3223SOL    HW221306   2.335   0.384   3.318 -1.0731 -0.3176 -1.0829
 3224SOL     OW21307   2.266   0.112   1.155  0.4799  0.9466  0.2788
 3224SOL    HW121308   2.325   0.056   1.206  0.5172  0.8004  0.0749
 3224SOL    HW221309   2.324   0.187   1.138  0.6818  1.0689  1.4890
 3225SOL     OW21310   0.772   1.307   8.200 -0.5782 -0.0178  0.9424
 3225SOL    HW121311   0.683   1.272   8.197 -1.0190  1.2158 -0.1594
 3225SOL    HW221312   0.753   1.362   8.276  0.2677 -1.6170  2.3142
 3226SOL     OW21313   0.704   1.548   2.990  0.0730  0.0513  0.0421
 3226SOL    HW121314   0.784   1.497   3.003 -0.9787 -1.4351  0.6700
 3226SOL    HW221315   0.647   1.521   3.062 -2.0596  2.8818 -0.5681
 3227SOL     OW21316   1.535   1.668  12.233 -0.0967  0.0808 -0.6363
 3227SOL    HW121317   1.463   1.624  12.278  0.4116 -0.5719 -0.4657
 3227SOL    HW221318   1.597   1.599  12.208  1.3198  0.9482  0.4661
 3228SOL     OW21319   1.041   0.539   6.295 -0.1493  0.0252  0.1551
 3228SOL    HW121320   1.119   0.583   6.260  0.6835 -0.3515  1.5320
 3228SOL    HW221321   1.068   0.447   6.299  1.2192  0.5153  2.1970
 3229SOL     OW21322   3.312   0.433  12.952 -0.2134 -0.3469 -0.2475
 3229SOL    HW121323   3.307   0.359  13.012  1.3935  1.1907  1.8032
 3229SOL    HW221324   3.404   0.462  12.960  0.1870 -0.9139 -2.6641
 3230SOL     OW21325   0.600   2.893   3.548 -0.4029 -0.9299  0.1737
 3230SOL    HW121326   0.643   2.829   3.492 -0.0269 -1.2496  0.8286
 3230SOL    HW221327   0.669   2.916   3.610  1.2125 -0.9725 -1.6146
 3231SOL     OW21328   1.532   3.112   9.183 -0.3616 -0.0362 -0.0242
 3231SOL    HW121329   1.549   3.022   9.155  0.2440 -0.1727  0.8055
 3231SOL    HW221330   1.457   3.135   9.128 -2.3923 -0.8505  2.4161
 3232SOL     OW21331   2.987   2.176   5.925 -0.3365  0.0254 -0.0479
 3232SOL    HW121332   3.042   2.122   5.982 -0.8446 -0.2297  0.2029
 3232SOL    HW221333   3.039   2.249   5.892 -0.8174  0.8176  0.9481
 3233SOL     OW21334   3.387   1.665   7.800 -0.1495  0.2863  0.0177
 3233SOL    HW121335   3.292   1.670   7.811 -0.1429  1.7529 -0.6221
 3233SOL    HW221336   3.397   1.638   7.708  0.2038 -0.7839  0.3667
 3234SOL     OW21337   1.497   1.378   4.317 -0.0329 -0.3054 -0.1332
 3234SOL    HW121338   1.558   1.379   4.390  0.7015  2.5410 -0.7649
 3234SOL    HW221339   1.560   1.401   4.249 -1.3853  1.0005 -0.9680
 3235SOL     OW21340   2.316   0.112   2.582 -0.5077 -0.2910  0.2939
 3235SOL    HW121341   2.285   0.052   2.514 -0.7895  1.0557 -0.7706
 3235SOL    HW221342   2.378   0.057   2.630  1.0813  2.2606  1.1660
 3236SOL     OW21343   1.709   3.454   8.166  0.3257 -0.2911 -0.0188
 3236SOL    HW121344   1.754   3.396   8.228  0.0845  0.3287  0.7318
 3236SOL    HW221345   1.651   3.501   8.226  0.7237 -2.0257  1.7283
 3237SOL     OW21346   2.934   0.299  14.901 -0.3698 -0.2117 -0.2848
 3237SOL    HW121347   2.847   0.261  14.892 -0.3055 -0.5573  0.5305
 3237SOL    HW221348   2.940   0.353  14.822 -0.3995  0.9101  0.4845
 3238SOL     OW21349   2.393   1.397   3.144 -0.5270  0.5399  0.1743
 3238SOL    HW121350   2.422   1.361   3.060 -0.7087  1.9821 -0.5005
 3238SOL    HW221351   2.402   1.492   3.137  3.0908  0.1012 -0.9814
 3239SOL     OW21352   3.864   3.314   2.488 -0.0796 -0.5142 -0.6416
 3239SOL    HW121353   3.944   3.275   2.523 -0.7032 -1.5673 -0.4076
 3239SOL    HW221354   3.840   3.239   2.435 -1.6075  0.4625 -1.3562
 3240SOL     OW21355   3.771   3.085   1.148 -0.3889 -0.3563  0.0160
 3240SOL    HW121356   3.757   3.120   1.060 -0.2644  1.4549  0.7201
 3240SOL    HW221357   3.699   3.128   1.194  0.9898 -2.2424  3.9330
 3241SOL     OW21358   2.794   1.647   0.931  0.0754  0.5537  0.8808
 3241SOL    HW121359   2.813   1.740   0.920  2.6829 -0.1403 -0.4184
 3241SOL    HW221360   2.745   1.653   1.014  2.3413 -0.4608  2.2911
 3242SOL     OW21361   4.301   1.039   8.699  0.1386 -0.0097 -0.5926
 3242SOL    HW121362   4.254   1.015   8.779 -2.0616  1.2808 -1.4782
 3242SOL    HW221363   4.223   1.038   8.644  1.2731 -1.1623 -2.1822
 3243SOL     OW21364   3.121   2.875   8.242  0.1597 -0.2237  0.0446
 3243SOL    HW121365   3.170   2.950   8.207 -0.1531  1.8299  4.0097
 3243SOL    HW221366   3.187   2.825   8.290  1.2453  0.5021 -0.6709
 3244SOL     OW21367   4.629   2.625   6.119 -0.3281 -0.7744 -0.4718
 3244SOL    HW121368   4.721   2.624   6.095 -0.4424  1.0495 -0.9248
 3244SOL    HW221369   4.621   2.535   6.152 -0.2021 -0.2752  0.9314
 3245SOL     OW21370   2.874   3.097  16.863 -0.0934  0.3418 -0.6090
 3245SOL    HW121371   2.784   3.087  16.892  0.0926 -1.1505 -0.5326
 3245SOL    HW221372   2.874   3.172  16.804 -2.1727  0.2689 -0.6943
 3246SOL     OW21373   2.087   2.149   5.895  0.6079 -0.7423  0.1598
 3246SOL    HW121374   2.071   2.244   5.893  0.9537 -0.6993 -0.9070
 3246SOL    HW221375   2.097   2.139   5.800 -2.1180 -2.3432  0.0770
 3247SOL     OW21376   4.457   0.583   1.483 -0.3020  0.2261  0.2705
 3247SOL    HW121377   4.424   0.623   1.563  3.8704  1.3696  1.4637
 3247SOL    HW221378   4.451   0.669   1.442  0.0207  0.2327  0.2320
 3248SOL     OW21379   1.463   0.836  14.345  0.0673  0.4790 -0.0736
 3248SOL    HW121380   1.442   0.928  14.356  2.1692  1.2091 -2.2410
 3248SOL    HW221381   1.412   0.805  14.270  1.7299 -4.1015  0.6664
 3249SOL     OW21382   4.066   3.212   1.998  0.7383  0.2432  0.1748
 3249SOL    HW121383   3.996   3.250   1.943  0.2946 -1.1837 -0.2506
 3249SOL    HW221384   4.141   3.259   1.963 -0.5325  1.3441 -1.0904
 3250SOL     OW21385   0.747   0.684  14.098 -0.2723 -0.1580 -0.1512
 3250SOL    HW121386   0.702   0.736  14.031 -0.5203  2.1440  1.8118
 3250SOL    HW221387   0.824   0.658  14.046  0.3282  0.8253  0.2450
 3251SOL     OW21388   4.316   1.729   5.534  0.2323 -0.3349  0.2372
 3251SOL    HW121389   4.222   1.712   5.528  0.0364  1.1081 -0.6274
 3251SOL    HW221390   4.349   1.703   5.448 -1.1186  1.2534 -0.7544
 3252SOL     OW21391   0.592   1.596   5.642 -0.0243  0.0294  0.6112
 3252SOL    HW121392   0.536   1.534   5.596 -1.4459  0.4962  1.7339
 3252SOL    HW221393   0.626   1.656   5.575 -2.4144  1.2439  0.5056
 3253SOL     OW21394   4.561   4.130   7.470  0.3162  0.3658  0.6133
 3253SOL    HW121395   4.502   4.100   7.401  0.3667  2.3855 -0.3276
 3253SOL    HW221396   4.599   4.204   7.422 -1.2705  1.2315  0.6966
 3254SOL     OW21397   0.231   3.335   1.358  0.1644 -0.2406 -0.0682
 3254SOL    HW121398   0.249   3.420   1.400  1.9478 -0.6523 -0.0139
 3254SOL    HW221399   0.141   3.362   1.340  0.2408 -0.5283 -0.8862
 3255SOL     OW21400   1.442   4.158   7.074  0.2636  0.4045 -0.5641
 3255SOL    HW121401   1.434   4.251   7.052  1.1050  0.4831 -0.5394
 3255SOL    HW221402   1.354   4.125   7.089  0.9684 -1.6464 -0.9885
 3256SOL     OW21403   4.280   0.688   4.175  0.6418 -0.0715 -0.2095
 3256SOL    HW121404   4.297   0.764   4.231 -1.0133 -1.0466  1.6385
 3256SOL    HW221405   4.257   0.622   4.241  1.8721  0.4031  0.6880
 3257SOL     OW21406   2.086   3.315   7.989  0.2181 -0.0593  0.2660
 3257SOL    HW121407   2.144   3.246   8.021 -0.4733  0.0571  1.8103
 3257SOL    HW221408   2.140   3.383   8.030 -1.4258  1.7101 -0.4901
 3258SOL     OW21409   4.419   4.044   2.010 -0.4420  0.0000 -0.0899
 3258SOL    HW121410   4.401   4.103   2.084 -1.2400  0.3187 -0.5443
 3258SOL    HW221411   4.371   3.965   2.032  0.8095 -0.7353  0.0368
 3259SOL     OW21412   3.994   2.151   8.502 -0.4296 -0.2791  0.0404
 3259SOL    HW121413   3.997   2.055   8.509 -0.1769 -0.2938 -0.2915
 3259SOL    HW221414   3.903   2.178   8.515 -1.0897 -1.3244 -2.4655
 3260SOL     OW21415   0.457   3.028   6.962  0.2723  0.2684 -0.1353
 3260SOL    HW121416   0.419   3.090   6.900 -1.9202 -1.2002 -0.2653
 3260SOL    HW221417   0.536   3.073   6.991  0.6874 -1.7541  1.8915
 3261SOL     OW21418   3.960   3.627   0.987  0.8481  0.1087 -0.4993
 3261SOL    HW121419   3.913   3.678   0.921  0.7205 -0.1198 -0.5820
 3261SOL    HW221420   3.885   3.586   1.030  1.9682 -2.0455 -0.5898
 3262SOL     OW21421   2.322   1.532   7.986  0.5756 -0.0809 -0.4567
 3262SOL    HW121422   2.244   1.532   8.041  1.3434  0.2486  0.6352
 3262SOL    HW221423   2.383   1.529   8.060 -1.6222 -2.1630  1.2634
 3263SOL     OW21424   1.448   3.942   9.990  0.4945 -0.1982 -0.2892
 3263SOL    HW121425   1.454   4.037   9.992 -0.7057 -0.1274 -0.3375
 3263SOL    HW221426   1.460   3.926  10.084  1.1071 -0.3078 -0.3861
 3264SOL     OW21427   3.282   1.965   7.809 -0.1112  0.1632 -0.0642
 3264SOL    HW121428   3.211   1.945   7.747 -0.6187 -1.4488  1.0387
 3264SOL    HW221429   3.339   1.890   7.798 -1.0092 -0.7344  1.3763
 3265SOL     OW21430   3.898   0.122   6.204 -0.1467 -0.4771  0.4617
 3265SOL    HW121431   3.878   0.174   6.127 -2.5510 -0.2006  1.2757
 3265SOL    HW221432   3.990   0.098   6.193  0.2185  0.1176  2.3094
 3266SOL     OW21433   2.003   1.599  14.798 -0.4741 -0.3255 -0.3772
 3266SOL    HW121434   2.034   1.605  14.708  1.1201 -0.0419  0.1889
 3266SOL    HW221435   2.022   1.509  14.824  2.4001  0.1610 -0.7341
 3267SOL     OW21436   0.865   4.492   6.949 -0.7652 -0.1526 -0.2759
 3267SOL    HW121437   0.850   4.400   6.928 -2.5281 -0.2453  1.3214
 3267SOL    HW221438   0.779   4.529   6.928  0.6529  1.8072 -2.7025
 3268SOL     OW21439   1.880   0.018   4.132  0.2649  0.6587  0.2726
 3268SOL    HW121440   1.787   0.038   4.135 -0.4889 -2.7097 -1.0877
 3268SOL    HW221441   1.899   0.069   4.053 -0.9769  0.2421 -0.2868
 3269SOL     OW21442   3.815   3.400   4.305 -0.2612 -0.3622  0.1556
 3269SOL    HW121443   3.820   3.448   4.388 -0.4318  0.9345 -0.5852
 3269SOL    HW221444   3.851   3.314   4.324 -0.4159 -0.7722 -1.4427
 3270SOL     OW21445   2.262   4.606   2.954 -0.4238 -0.5560 -0.0336
 3270SOL    HW121446   2.258   4.623   3.049 -0.1430  0.9485 -0.2921
 3270SOL    HW221447   2.337   4.661   2.931  0.0407 -2.4855 -3.1099
 3271SOL     OW21448   2.662   4.425   5.237 -0.4714 -0.0245  0.5026
 3271SOL    HW121449   2.573   4.428   5.202  0.2704 -1.4856 -1.4984
 3271SOL    HW221450   2.677   4.518   5.254 -1.5674  0.4470 -1.1304
 3272SOL     OW21451   0.675   1.298   2.169  0.7388  0.3831  0.1647
 3272SOL    HW121452   0.631   1.250   2.239 -1.0955  1.9414  0.0847
 3272SOL    HW221453   0.629   1.258   2.095  1.9221 -2.5186  0.9695
 3273SOL     OW21454   2.862   4.247   9.477 -0.4890 -0.2894 -0.5942
 3273SOL    HW121455   2.922   4.320   9.494 -1.2422 -0.2728  1.9518
 3273SOL    HW221456   2.853   4.255   9.382  0.4302  1.2136 -0.5579
 3274SOL     OW21457   3.137   2.281   1.453 -0.0168 -0.5637  0.5142
 3274SOL    HW121458   3.090   2.363   1.439 -0.9964 -1.4070 -1.1828
 3274SOL    HW221459   3.206   2.294   1.388  0.4410 -0.5631  1.0027
 3275SOL     OW21460   0.624   1.102   1.032 -0.2598  0.3551  0.0091
 3275SOL    HW121461   0.581   1.123   1.115 -0.5130 -0.7360  0.1574
 3275SOL    HW221462   0.685   1.033   1.056 -2.7610 -2.6194 -2.1712
 3276SOL     OW21463   2.477   3.373   9.169  0.1637 -0.2338 -0.2197
 3276SOL    HW121464   2.444   3.398   9.082  3.1437  0.5990 -1.0873
 3276SOL    HW221465   2.495   3.460   9.205  0.0372  0.1995 -1.1852
 3277SOL     OW21466   0.296   4.468  16.866 -0.1939  0.3526  0.5060
 3277SOL    HW121467   0.214   4.512  16.884 -0.8884 -0.6580 -0.1961
 3277SOL    HW221468   0.283   4.464  16.771 -2.0846  0.9316  0.7491
 3278SOL     OW21469   0.880   0.573  11.721 -0.2249  0.0734  1.2847
 3278SOL    HW121470   0.829   0.497  11.694 -0.9646  0.8437  0.5590
 3278SOL    HW221471   0.963   0.526  11.732 -1.2746 -2.4833 -1.8129
 3279SOL     OW21472   4.287   3.594  16.115  0.4006 -0.3114 -0.4953
 3279SOL    HW121473   4.330   3.664  16.164 -0.9661 -1.1109  1.8213
 3279SOL    HW221474   4.254   3.538  16.185 -0.3097 -1.4206 -1.7304
 3280SOL     OW21475   4.459   3.789   8.063  0.4257  0.6159 -0.9277
 3280SOL    HW121476   4.541   3.812   8.021 -0.3992  1.9629 -1.8060
 3280SOL    HW221477   4.496   3.763   8.147 -1.7548  0.2576 -0.0638
 3281SOL     OW21478   4.020   3.624   1.839 -0.4260 -0.0557  0.3674
 3281SOL    HW121479   4.102   3.586   1.806 -0.1103  0.2458  0.7958
 3281SOL    HW221480   4.033   3.606   1.932 -0.4721 -2.6595 -0.1180
 3282SOL     OW21481   1.774   4.359   6.939  0.5912 -0.4601 -0.2670
 3282SOL    HW121482   1.755   4.329   7.028 -0.7533 -2.0114 -1.0959
 3282SOL    HW221483   1.870   4.352   6.945  0.6805  0.4274 -0.5752
 3283SOL     OW21484   2.979   2.280   7.489 -0.3513 -0.2592  0.0716
 3283SOL    HW121485   2.892   2.267   7.527 -0.6112  3.4960  0.7159
 3283SOL    HW221486   2.992   2.375   7.496  1.8229 -0.6500  1.3276
 3284SOL     OW21487   0.794   4.495  10.258  0.3710 -0.2156  0.0858
 3284SOL    HW121488   0.866   4.485  10.319  1.1599  1.2089 -0.6111
 3284SOL    HW221489   0.740   4.427  10.298 -0.2484  1.6586  2.4554
 3285SOL     OW21490   0.582   2.890  16.161  0.1078  0.1114  0.1886
 3285SOL    HW121491   0.591   2.812  16.216  1.1353  1.9858  2.6374
 3285SOL    HW221492   0.631   2.864  16.082  0.1934  0.6898  0.0532
 3286SOL     OW21493   1.224   3.400   7.015  0.3241 -0.4573 -0.6088
 3286SOL    HW121494   1.206   3.385   6.922 -1.5195 -0.9085 -0.1776
 3286SOL    HW221495   1.176   3.325   7.049 -0.2354  0.4047  0.5178
 3287SOL     OW21496   1.641   4.202   5.265 -0.0325  0.0795 -0.2663
 3287SOL    HW121497   1.664   4.294   5.278  0.8547 -0.2073  0.2023
 3287SOL    HW221498   1.549   4.203   5.293 -0.8490 -1.6995 -2.8585
 3288SOL     OW21499   1.388   1.800   8.447  0.1326  0.3968 -0.1948
 3288SOL    HW121500   1.464   1.742   8.454 -0.4019 -0.3807 -0.8540
 3288SOL    HW221501   1.397   1.841   8.533  2.7195  0.2476 -0.3725
 3289SOL     OW21502   2.725   2.237   9.937  0.5643  0.1639  0.0704
 3289SOL    HW121503   2.789   2.173   9.968 -0.7969 -0.5752  1.3639
 3289SOL    HW221504   2.739   2.306  10.002  0.1778  1.0704 -0.8008
 3290SOL     OW21505   2.335   2.551   7.357 -0.5512 -0.3884  0.1537
 3290SOL    HW121506   2.394   2.520   7.289  1.5795 -2.6771  3.0263
 3290SOL    HW221507   2.247   2.520   7.336 -0.9802  0.5983  0.4657
 3291SOL     OW21508   1.728   3.499   3.005 -1.1315 -0.2380  0.0733
 3291SOL    HW121509   1.811   3.453   2.994 -1.0041  0.5568 -2.1841
 3291SOL    HW221510   1.691   3.483   2.919 -2.0925 -1.2959  0.6899
 3292SOL     OW21511   4.070   3.266   9.934 -0.0470 -0.3096 -0.3227
 3292SOL    HW121512   4.080   3.338   9.872  0.4855 -0.3848 -0.3272
 3292SOL    HW221513   3.975   3.274   9.926  0.0805 -1.7721 -3.6403
 3293SOL     OW21514   2.498   1.211   6.591  0.3467  0.3411  0.3160
 3293SOL    HW121515   2.439   1.196   6.517 -0.2492  2.3478  0.3943
 3293SOL    HW221516   2.440   1.225   6.665 -0.4780 -1.4636  0.0091
 3294SOL     OW21517   4.614   0.364   1.433  0.5043  0.3609  0.6526
 3294SOL    HW121518   4.697   0.394   1.397 -0.8130  3.6787  0.3478
 3294SOL    HW221519   4.580   0.445   1.471 -0.4932 -0.5741  1.7443
 3295SOL     OW21520   4.615   2.106  16.664 -0.5430  0.2520  0.1180
 3295SOL    HW121521   4.524   2.077  16.663 -0.5636  0.3389 -1.3515
 3295SOL    HW221522   4.606   2.177  16.728  0.9406  0.5885 -0.0461
 3296SOL     OW21523   4.659   2.824   7.931 -0.3094  0.0519 -0.0721
 3296SOL    HW121524   4.705   2.891   7.880 -0.2208 -1.3760 -1.8743
 3296SOL    HW221525   4.674   2.748   7.876 -1.4173 -1.4088  1.6276
 3297SOL     OW21526   0.929   4.684   7.597 -0.0180  0.1222  0.8108
 3297SOL    HW121527   1.003   0.008   7.597  0.6827 -0.7579 -2.9130
 3297SOL    HW221528   0.877   4.722   7.526 -0.5893 -1.1737  0.5367
 3298SOL     OW21529   4.489   3.480   5.983 -0.1852  0.2234 -0.0100
 3298SOL    HW121530   4.529   3.393   5.981 -2.0065 -0.6296  0.7784
 3298SOL    HW221531   4.495   3.505   5.890  0.1425  2.5589  0.6367
 3299SOL     OW21532   2.074   3.243  11.060  0.7167  0.2433 -0.1491
 3299SOL    HW121533   1.985   3.242  11.095  0.2963  1.7258 -1.1552
 3299SOL    HW221534   2.116   3.185  11.123 -2.1341 -1.1418  0.4629
 3300SOL     OW21535   1.568   1.645   1.887  0.3417 -0.2429 -0.4493
 3300SOL    HW121536   1.476   1.620   1.879 -0.0205 -0.2424  3.4094
 3300SOL    HW221537   1.612   1.561   1.874 -0.1808 -0.6639  0.4665
 3301SOL     OW21538   1.884   0.554  17.536  0.1687 -0.4584  0.3163
 3301SOL    HW121539   1.872   0.638  17.582  1.0173  0.7543 -1.6599
 3301SOL    HW221540   1.888   0.487  17.604 -0.7234 -1.2753 -0.4257
 3302SOL     OW21541   3.954   4.566  14.223  0.5071  0.2341  0.8040
 3302SOL    HW121542   4.024   4.618  14.261 -1.1102  3.0990 -0.2067
 3302SOL    HW221543   3.879   4.596  14.274 -0.0931 -0.1328  0.1388
 3303SOL     OW21544   0.831   2.526   4.938 -0.0459 -0.0257 -0.8218
 3303SOL    HW121545   0.735   2.527   4.931  0.0724  1.1497 -2.4151
 3303SOL    HW221546   0.853   2.563   5.023 -0.6564 -0.5845 -0.4148
 3304SOL     OW21547   3.163   4.241   3.637  0.5933  0.0177 -0.4907
 3304SOL    HW121548   3.147   4.308   3.703  0.3410  0.7991 -1.3515
 3304SOL    HW221549   3.137   4.165   3.690  0.4336  0.1265 -0.4143
 3305SOL     OW21550   4.242   0.958   1.609 -0.0283  0.4552  0.0840
 3305SOL    HW121551   4.253   0.942   1.515  0.2139 -2.2201  0.5832
 3305SOL    HW221552   4.289   1.040   1.623  1.8138 -0.4135 -1.0073
 3306SOL     OW21553   4.143   4.096   3.499 -0.6264 -0.0760  0.8146
 3306SOL    HW121554   4.161   4.189   3.492  1.5179 -0.5306  0.1252
 3306SOL    HW221555   4.227   4.067   3.534 -1.3128 -0.6338  2.0043
 3307SOL     OW21556   1.779   3.041   6.615  0.4021  0.2589 -0.7831
 3307SOL    HW121557   1.797   2.965   6.671 -0.2740  0.9669  0.3844
 3307SOL    HW221558   1.868   3.072   6.598  0.8662 -0.6694 -0.0249
 3308SOL     OW21559   3.274   0.202   5.850  0.4971 -0.3968  0.2869
 3308SOL    HW121560   3.189   0.206   5.894  1.2075  3.1517  1.3095
 3308SOL    HW221561   3.307   0.292   5.852  1.5440 -0.7726 -0.1699
 3309SOL     OW21562   3.362   4.174   9.403  0.6019  0.2337  0.1816
 3309SOL    HW121563   3.269   4.155   9.391  0.4442  1.1693 -0.0287
 3309SOL    HW221564   3.372   4.117   9.479  0.3221 -0.7236 -0.4936
 3310SOL     OW21565   3.392   3.367  17.144  0.1405 -0.2804  0.5290
 3310SOL    HW121566   3.454   3.295  17.151 -1.2948 -1.6718 -1.0035
 3310SOL    HW221567   3.407   3.401  17.056  1.0415 -0.9029  0.4468
 3311SOL     OW21568   2.870   3.920  13.058  0.3568  0.3757 -0.5822
 3311SOL    HW121569   2.784   3.932  13.098  0.7472 -0.7772  0.5868
 3311SOL    HW221570   2.849   3.921  12.964  1.9213 -0.7298 -0.9392
 3312SOL     OW21571   1.334   2.899   8.029 -0.2763 -0.0793 -0.2798
 3312SOL    HW121572   1.299   2.979   7.989  0.6989  0.3127 -0.3489
 3312SOL    HW221573   1.278   2.831   7.992 -0.6512  0.0312  0.0788
 3313SOL     OW21574   2.144   0.530   4.560  0.5524 -0.2453  0.1245
 3313SOL    HW121575   2.061   0.527   4.514  1.9047 -1.6640 -2.1984
 3313SOL    HW221576   2.151   0.623   4.582 -3.2683  0.4507 -1.6536
 3314SOL     OW21577   1.381   0.506   1.990 -0.2224 -0.0809 -0.5401
 3314SOL    HW121578   1.429   0.437   1.944  0.6330  0.6536 -0.7546
 3314SOL    HW221579   1.443   0.517   2.062  0.0996  1.5591 -1.0692
 3315SOL     OW21580   2.420   3.222  14.668  0.2495 -0.3564 -0.1107
 3315SOL    HW121581   2.389   3.210  14.578 -0.3549 -0.3836  0.1051
 3315SOL    HW221582   2.336   3.230  14.713  0.7055  0.8327  0.5451
 3316SOL     OW21583   4.376   1.282   3.952 -0.1303 -0.1561 -0.1822
 3316SOL    HW121584   4.339   1.250   3.870  0.8434  0.7821 -0.9850
 3316SOL    HW221585   4.455   1.322   3.916 -1.0049  1.8764  0.1419
 3317SOL     OW21586   2.543   1.376  14.906 -0.3150 -0.5960  0.2759
 3317SOL    HW121587   2.491   1.297  14.893 -3.4740  1.8683 -1.9430
 3317SOL    HW221588   2.581   1.393  14.820 -1.4054 -0.5980 -0.1977
 3318SOL     OW21589   2.120   2.074   7.288  0.2504 -0.0613  0.3074
 3318SOL    HW121590   2.141   2.003   7.228 -1.7157 -0.0142 -0.4065
 3318SOL    HW221591   2.055   2.116   7.232 -0.2885 -0.4066  0.6838
 3319SOL     OW21592   2.262   2.236   3.396  0.1915 -0.0406  0.0637
 3319SOL    HW121593   2.223   2.304   3.451 -2.8084 -2.1553  0.5757
 3319SOL    HW221594   2.287   2.173   3.463  1.0659 -0.6392 -0.8213
 3320SOL     OW21595   2.463   3.173   9.401  0.2484  0.4661  0.0680
 3320SOL    HW121596   2.448   3.246   9.342 -0.7698  0.0948 -0.1318
 3320SOL    HW221597   2.559   3.176   9.407  0.1888  1.2946  0.5454
 3321SOL     OW21598   0.861   0.148   3.642  0.2170  0.1019 -0.2973
 3321SOL    HW121599   0.869   0.075   3.703 -0.4463  0.0501 -0.2813
 3321SOL    HW221600   0.835   0.214   3.707  0.9215  1.2963 -1.2183
 3322SOL     OW21601   4.274   0.328   2.611  0.1451 -0.0406 -0.3723
 3322SOL    HW121602   4.205   0.281   2.658  1.0423  0.0250  1.0241
 3322SOL    HW221603   4.242   0.344   2.522  0.9668  0.6896 -0.5371
 3323SOL     OW21604   1.354   3.021   8.560 -0.4312 -0.0377  0.6447
 3323SOL    HW121605   1.397   2.949   8.606  0.2767 -1.2018 -1.8359
 3323SOL    HW221606   1.267   2.982   8.552  0.1398 -0.7674 -1.8475
 3324SOL     OW21607   3.478   0.419   1.198 -0.0554  0.4425 -0.2274
 3324SOL    HW121608   3.437   0.348   1.148 -2.9277  1.4450  0.7446
 3324SOL    HW221609   3.568   0.436   1.169 -0.1571  0.2312 -0.6720
 3325SOL     OW21610   3.520   0.225   6.490 -0.1933  0.3335 -0.0902
 3325SOL    HW121611   3.455   0.167   6.530 -2.6875  0.6700 -3.7200
 3325SOL    HW221612   3.604   0.180   6.483  1.1062  2.5735  0.7658
 3326SOL     OW21613   2.435   1.187  16.125 -0.0482  0.2049 -0.1609
 3326SOL    HW121614   2.348   1.200  16.163  0.1937  0.5229  0.2831
 3326SOL    HW221615   2.406   1.198  16.034  0.3234  0.5485 -0.2374
 3327SOL     OW21616   4.682   4.574  11.049  0.9894 -0.1266 -0.0467
 3327SOL    HW121617   4.647   4.527  10.974 -1.1192  0.4515  0.5951
 3327SOL    HW221618   0.013   4.512  11.075  0.2971 -0.2474  1.4996
 3328SOL     OW21619   3.206   0.139   6.882 -0.2940  0.1107  0.3749
 3328SOL    HW121620   3.299   0.117   6.887 -0.7198 -0.9069  3.6727
 3328SOL    HW221621   3.211   0.222   6.930 -1.7157  0.5176 -0.2014
 3329SOL     OW21622   0.494   2.161   6.501  1.0807 -0.6914 -0.5468
 3329SOL    HW121623   0.512   2.146   6.594 -1.4090  1.2764  0.2343
 3329SOL    HW221624   0.531   2.249   6.491  0.5525 -0.5194 -0.9929
 3330SOL     OW21625   1.507   1.568   4.561 -0.5566 -0.2254  0.2641
 3330SOL    HW121626   1.505   1.663   4.547 -2.3988 -0.0287  1.8025
 3330SOL    HW221627   1.456   1.561   4.642 -1.4231  0.0788 -0.2531
 3331SOL     OW21628   2.284   4.709   3.581 -0.0475 -0.1844 -0.5750
 3331SOL    HW121629   2.375   4.682   3.592  0.0460  0.5595  0.4472
 3331SOL    HW221630   2.263   4.642   3.516 -0.5417  0.4227 -1.0299
 3332SOL     OW21631   2.132   0.950  15.400 -0.0479 -0.4822  0.6541
 3332SOL    HW121632   2.227   0.963  15.404  0.1500 -0.9687 -2.0436
 3332SOL    HW221633   2.115   0.902  15.480  1.5926 -1.4864  0.4182
 3333SOL     OW21634   3.202   3.772  16.140  0.2779 -0.0943 -0.1347
 3333SOL    HW121635   3.146   3.738  16.070 -0.9184  1.2168  0.1974
 3333SOL    HW221636   3.150   3.831  16.193 -0.1201  0.9948 -1.7459
 3334SOL     OW21637   2.897   1.068   9.090  0.1380  0.1004 -0.6532
 3334SOL    HW121638   2.933   1.157   9.094 -0.3076  0.2503  0.0908
 3334SOL    HW221639   2.973   1.010   9.092 -0.5698 -0.8493 -0.8826
 3335SOL     OW21640   4.023   3.655   7.211  0.0583  0.4022  0.0459
 3335SOL    HW121641   3.993   3.731   7.259  1.4256  0.6470  0.5100
 3335SOL    HW221642   3.961   3.583   7.225 -1.6989  1.4338 -2.4379
 3336SOL     OW21643   0.375   4.565   6.848 -0.2005 -0.0075  0.2068
 3336SOL    HW121644   0.350   4.633   6.785  2.8736  2.0934  1.2765
 3336SOL    HW221645   0.467   4.565   6.820 -0.5916 -0.2541 -1.0690
 3337SOL     OW21646   1.284   4.441  15.483  0.1163 -0.2112  0.0622
 3337SOL    HW121647   1.273   4.355  15.443  0.5662  1.1170 -2.8913
 3337SOL    HW221648   1.235   4.425  15.563 -0.5307 -2.3440 -0.7647
 3338SOL     OW21649   1.326   3.729   0.563  0.2745 -0.7354 -0.7029
 3338SOL    HW121650   1.271   3.652   0.544 -2.1964  0.5042  1.3945
 3338SOL    HW221651   1.411   3.708   0.525  1.1459 -0.3033  1.0062
 3339SOL     OW21652   3.199   2.220   4.323  0.2249 -0.1629 -0.2426
 3339SOL    HW121653   3.111   2.183   4.320 -0.0963  0.4417  1.3605
 3339SOL    HW221654   3.182   2.306   4.284 -1.7453 -0.6826 -0.5417
 3340SOL     OW21655   4.535   0.489   9.951 -0.4737  0.0119 -0.0496
 3340SOL    HW121656   4.623   0.509   9.984 -0.6993  1.6405 -0.4440
 3340SOL    HW221657   4.504   0.434  10.023 -0.0456  1.7584  1.4791
 3341SOL     OW21658   2.132   1.975   3.904  0.0301  0.0909  0.2885
 3341SOL    HW121659   2.062   2.034   3.932 -0.7887 -0.3933 -0.7346
 3341SOL    HW221660   2.184   2.026   3.842  0.0681 -0.5221 -0.1739
 3342SOL     OW21661   0.072   1.583  14.702  0.4947 -0.2349  0.1639
 3342SOL    HW121662   0.122   1.653  14.660  0.6703  1.2563  2.8020
 3342SOL    HW221663   0.116   1.508  14.664  3.3819  2.0262 -0.9697
 3343SOL     OW21664   1.842   4.571  14.297  0.1381  0.4888  0.2964
 3343SOL    HW121665   1.900   4.506  14.337 -0.3014  0.8833  1.5559
 3343SOL    HW221666   1.822   4.533  14.211 -0.8375  3.2094 -0.6574
 3344SOL     OW21667   1.925   2.935   0.356  0.4250 -0.2219 -0.1150
 3344SOL    HW121668   1.866   2.885   0.413  1.6554 -0.4556  0.9398
 3344SOL    HW221669   2.006   2.892   0.382  0.2634 -1.8001 -2.1990
 3345SOL     OW21670   0.613   0.589   2.484  0.5324 -0.2008 -0.3390
 3345SOL    HW121671   0.700   0.565   2.514  0.4094  0.1783  0.3286
 3345SOL    HW221672   0.643   0.633   2.405 -1.7678  1.5563 -0.2582
 3346SOL     OW21673   0.272   4.701  14.678  0.0566 -0.6289 -0.0153
 3346SOL    HW121674   0.334   4.723  14.608  1.8433 -3.2011  0.7794
 3346SOL    HW221675   0.264   0.051  14.717  3.3588 -0.1535 -0.3697
 3347SOL     OW21676   1.238   4.159  10.168  0.8982 -0.0825 -0.3793
 3347SOL    HW121677   1.178   4.094  10.205  0.1221 -0.5190 -2.3460
 3347SOL    HW221678   1.184   4.223  10.120  0.2654 -1.4117 -1.4607
 3348SOL     OW21679   3.449   0.888   5.650 -0.0780 -0.1594  0.5949
 3348SOL    HW121680   3.500   0.967   5.665 -0.4465  0.4957 -1.6301
 3348SOL    HW221681   3.510   0.815   5.640 -0.8057 -0.4550 -1.7819
 3349SOL     OW21682   1.829   1.662  14.450 -0.4481  0.0434  0.3882
 3349SOL    HW121683   1.804   1.578  14.411 -0.7115  0.0801  0.4771
 3349SOL    HW221684   1.773   1.719  14.398  0.2093  0.3951  0.0669
 3350SOL     OW21685   1.824   0.627  10.461  0.4697  0.1872  0.5824
 3350SOL    HW121686   1.787   0.539  10.451 -1.7676  1.0092  1.5618
 3350SOL    HW221687   1.787   0.671  10.537 -0.6735 -1.7269  1.1408
 3351SOL     OW21688   0.488   1.119   8.294 -0.3030 -0.4313 -0.0866
 3351SOL    HW121689   0.531   1.083   8.216  0.4444 -2.1527  1.1126
 3351SOL    HW221690   0.505   1.044   8.351  3.4276  0.7334  0.3412
 3352SOL     OW21691   3.933   0.839   9.841  0.4482  0.3175 -0.6582
 3352SOL    HW121692   3.889   0.865   9.760 -2.3214 -2.2345  0.0605
 3352SOL    HW221693   3.998   0.908   9.854 -0.1885  0.4713  1.7627
 3353SOL     OW21694   4.595   2.417  10.394  0.2395  0.4830  0.2892
 3353SOL    HW121695   4.632   2.505  10.391 -1.5472  1.1945 -0.7305
 3353SOL    HW221696   4.575   2.406  10.486 -1.9915  1.5570 -0.0663
 3354SOL     OW21697   3.222   0.248   8.997  0.3458 -0.3794 -0.5766
 3354SOL    HW121698   3.224   0.179   8.930 -2.1697 -0.4718 -0.5702
 3354SOL    HW221699   3.168   0.204   9.063  1.8157 -1.1842  0.0970
 3355SOL     OW21700   0.848   3.003   4.538 -0.1244  0.0683  0.3847
 3355SOL    HW121701   0.798   3.062   4.594 -0.7977  0.4500 -0.6421
 3355SOL    HW221702   0.809   2.917   4.556  0.8663 -0.4920 -0.1097
 3356SOL     OW21703   0.009   0.672  11.610  0.1085  0.0393 -0.9563
 3356SOL    HW121704   0.000   0.600  11.547  2.4502  0.3642 -1.6484
 3356SOL    HW221705   0.065   0.728  11.557 -2.0704  2.4928 -0.6691
 3357SOL     OW21706   4.729   3.705   8.531  0.4675 -0.3092  0.4660
 3357SOL    HW121707   4.732   3.628   8.588  2.5848  0.7924  1.8508
 3357SOL    HW221708   4.703   3.771   8.595  0.4160 -1.8468  2.0257
 3358SOL     OW21709   3.762   3.880  16.488 -0.1703 -0.0458 -0.8744
 3358SOL    HW121710   3.761   3.881  16.584 -0.6100  0.4136 -0.8817
 3358SOL    HW221711   3.769   3.972  16.463  0.5708  0.5962  1.7171
 3359SOL     OW21712   0.514   1.205   4.682  0.1554 -0.0959 -0.7239
 3359SOL    HW121713   0.505   1.271   4.751 -0.3447  1.2529 -2.0632
 3359SOL    HW221714   0.548   1.130   4.731  1.3259  0.8380 -0.1095
 3360SOL     OW21715   2.829   2.954  11.846 -0.0785 -0.3109  0.2723
 3360SOL    HW121716   2.804   2.925  11.758  2.7153  1.6703 -1.2131
 3360SOL    HW221717   2.827   2.873  11.897  3.0932 -0.2052  0.6132
 3361SOL     OW21718   0.494   2.989   7.460 -0.6221  0.0111 -0.4448
 3361SOL    HW121719   0.567   2.983   7.522 -0.6396  0.0840 -0.4181
 3361SOL    HW221720   0.434   3.058   7.486  0.0281  0.3846  0.0655
 3362SOL     OW21721   0.017   1.729   8.625 -0.1636 -0.3468  0.5139
 3362SOL    HW121722   4.716   1.679   8.697  0.1003 -0.4934  0.5512
 3362SOL    HW221723   4.684   1.793   8.608  1.2200  0.7128 -1.2330
 3363SOL     OW21724   0.236   3.680  14.628 -0.0878  0.4952 -0.0122
 3363SOL    HW121725   0.158   3.692  14.682 -0.7341  0.2805 -0.9008
 3363SOL    HW221726   0.243   3.585  14.634 -1.9881  0.4724  1.9210
 3364SOL     OW21727   0.149   0.478   8.923  0.3228 -0.2380 -0.0166
 3364SOL    HW121728   0.076   0.427   8.889 -1.0689  1.2027  0.8163
 3364SOL    HW221729   0.177   0.414   8.988 -0.0755 -0.4314 -0.0376
 3365SOL     OW21730   0.189   1.593  17.086 -0.5564  0.6201 -0.4082
 3365SOL    HW121731   0.144   1.537  17.023 -0.2970 -1.3591  1.1857
 3365SOL    HW221732   0.186   1.677  17.040 -0.6834  0.5648 -0.5021
 3366SOL     OW21733   0.400   0.162  12.957  0.3604  0.9796  0.0763
 3366SOL    HW121734   0.349   0.179  12.878  0.1908 -0.7407 -0.1774
 3366SOL    HW221735   0.468   0.101  12.929 -0.1160  1.8692 -3.0007
 3367SOL     OW21736   4.068   4.202   2.422  0.3457  0.2668  0.0139
 3367SOL    HW121737   4.082   4.114   2.456  0.5223 -0.2976 -1.5270
 3367SOL    HW221738   4.010   4.249   2.482 -0.0348 -1.5576  1.0742
 3368SOL     OW21739   2.759   3.363   2.033 -0.2488 -0.1075  0.0216
 3368SOL    HW121740   2.754   3.301   1.960 -2.1429  0.2477 -0.1539
 3368SOL    HW221741   2.681   3.410   2.003  0.2530  0.6617 -0.0739
 3369SOL     OW21742   4.462   3.373   2.569  0.0464 -0.8519 -0.3441
 3369SOL    HW121743   4.419   3.345   2.488  0.2692  0.5184 -0.9246
 3369SOL    HW221744   4.418   3.316   2.633 -2.6495  0.5894 -0.8990
 3370SOL     OW21745   3.221   2.160   3.469  0.2236  0.2517  0.0977
 3370SOL    HW121746   3.293   2.149   3.530  0.0853 -3.8124 -0.4486
 3370SOL    HW221747   3.265   2.208   3.399 -1.2761  1.4079 -0.0633
 3371SOL     OW21748   0.517   2.424  14.295 -0.6776 -0.0773 -0.1891
 3371SOL    HW121749   0.507   2.441  14.389 -1.4247 -0.5943 -0.1742
 3371SOL    HW221750   0.427   2.429  14.262 -0.8485  0.3382  0.3229
 3372SOL     OW21751   1.685   2.955   3.655  0.5635  0.2270 -0.3766
 3372SOL    HW121752   1.613   2.899   3.684 -0.2191  0.7871 -1.2425
 3372SOL    HW221753   1.659   2.962   3.563  0.5196 -0.8394 -0.4528
 3373SOL     OW21754   0.659   1.457  15.840 -0.4827 -0.1114 -0.0899
 3373SOL    HW121755   0.631   1.376  15.798 -0.1097 -0.1196 -0.3236
 3373SOL    HW221756   0.739   1.469  15.790 -1.4905  2.6954 -1.0374
 3374SOL     OW21757   1.990   4.095   7.568 -0.4363  0.7461  0.0383
 3374SOL    HW121758   1.964   4.026   7.507  0.0199  2.0571 -1.6332
 3374SOL    HW221759   1.960   4.062   7.653 -1.4096 -0.3897 -0.7571
 3375SOL     OW21760   4.125   2.808  15.667  0.1389  0.1676 -0.3061
 3375SOL    HW121761   4.200   2.826  15.610 -0.4502  1.6150 -0.6303
 3375SOL    HW221762   4.155   2.725  15.704 -0.3300  0.7654  1.4304
 3376SOL     OW21763   0.056   4.397   1.910  0.1058  0.5795 -0.1201
 3376SOL    HW121764   4.736   4.399   1.833  0.0414  0.3142 -0.0819
 3376SOL    HW221765   0.102   4.479   1.893  2.4158 -0.8737 -0.7582
 3377SOL     OW21766   1.877   4.190   3.130  0.1504 -0.3701  0.1542
 3377SOL    HW121767   1.781   4.180   3.130  0.3270 -2.0864 -0.7768
 3377SOL    HW221768   1.892   4.258   3.195  2.2762 -0.6605 -0.0499
 3378SOL     OW21769   0.196   2.038   6.724 -0.4845 -0.2630  0.2702
 3378SOL    HW121770   0.175   1.947   6.744  0.0601 -1.0002 -2.5839
 3378SOL    HW221771   0.136   2.093   6.775  1.0222  1.8278 -0.2150
 3379SOL     OW21772   0.413   0.002   4.230 -0.0356  0.1031  0.2073
 3379SOL    HW121773   0.450   0.081   4.192 -0.8962  1.8330  2.9453
 3379SOL    HW221774   0.489   4.683   4.217 -1.0345 -1.8136  2.6666
 3380SOL     OW21775   3.773   4.289  10.941 -0.1600  0.1830 -0.1077
 3380SOL    HW121776   3.777   4.345  11.019 -1.0898  1.3048 -0.8838
 3380SOL    HW221777   3.833   4.221  10.972 -0.6254 -1.9334 -3.9782
 3381SOL     OW21778   2.543   3.664  12.886  0.3562  0.1854  0.3690
 3381SOL    HW121779   2.587   3.748  12.902  1.5381 -0.4258  0.3385
 3381SOL    HW221780   2.551   3.622  12.971 -1.3520 -1.6970 -0.4025
 3382SOL     OW21781   2.056   4.337  12.345  0.4553  0.5514  0.0698
 3382SOL    HW121782   2.047   4.430  12.327  0.0770  0.6212  0.6164
 3382SOL    HW221783   1.964   4.311  12.347  0.4836  0.3926 -0.6504
 3383SOL     OW21784   3.523   3.193   6.122  0.0807  0.2001  0.1556
 3383SOL    HW121785   3.461   3.133   6.082  1.4434  0.1540 -1.9085
 3383SOL    HW221786   3.586   3.125   6.145  1.2598  0.5996 -1.8203
 3384SOL     OW21787   1.676   0.597  15.712 -0.1146 -0.0745  0.4055
 3384SOL    HW121788   1.747   0.556  15.761  0.6897 -0.2937 -0.9712
 3384SOL    HW221789   1.728   0.644  15.647 -1.1151 -1.2855 -1.2633
 3385SOL     OW21790   1.822   2.766  16.487 -0.6252 -0.3752 -0.6284
 3385SOL    HW121791   1.774   2.712  16.550 -2.0694  2.8640  1.0478
 3385SOL    HW221792   1.907   2.722  16.494 -0.3588  0.3266  0.3533
 3386SOL     OW21793   4.514   4.695   3.551 -0.1039  0.0555  0.0877
 3386SOL    HW121794   4.578   4.637   3.594  0.6644  1.6930  1.1448
 3386SOL    HW221795   4.509   4.654   3.465  0.8737 -2.2076  1.0780
 3387SOL     OW21796   4.422   3.120   0.930  0.3489  0.4034  0.1401
 3387SOL    HW121797   4.397   3.030   0.907  2.6644 -0.4210  0.9086
 3387SOL    HW221798   4.426   3.114   1.025  1.1952 -1.9213 -0.0288
 3388SOL     OW21799   3.648   0.769   1.192 -0.5764  0.0130  0.4593
 3388SOL    HW121800   3.564   0.793   1.153 -1.1602  1.6546  2.7566
 3388SOL    HW221801   3.709   0.831   1.151  0.8426 -0.7358  1.4472
 3389SOL     OW21802   3.111   1.403   1.366 -0.5681 -0.0102  0.3857
 3389SOL    HW121803   3.022   1.437   1.360  0.3558  1.6790 -3.2073
 3389SOL    HW221804   3.108   1.355   1.284 -0.1432  2.8618 -1.3229
 3390SOL     OW21805   1.310   0.749   6.684  0.0236  0.2003  0.4809
 3390SOL    HW121806   1.228   0.700   6.684  1.4481 -2.1662 -0.6592
 3390SOL    HW221807   1.320   0.767   6.591 -0.7002  1.2254  0.5982
 3391SOL     OW21808   0.216   0.811  14.781  0.6000  0.0208 -0.2889
 3391SOL    HW121809   0.295   0.864  14.767  0.5567  0.1330 -0.0937
 3391SOL    HW221810   0.154   0.851  14.721 -0.8533  0.9915  1.8812
 3392SOL     OW21811   0.318   1.568  12.110  0.1022 -0.2502  0.5408
 3392SOL    HW121812   0.256   1.505  12.074 -0.2271 -0.1078  0.8615
 3392SOL    HW221813   0.361   1.602  12.031 -1.2899 -1.0900 -0.5954
 3393SOL     OW21814   2.464   3.988  14.812  0.5918  0.2645  0.3318
 3393SOL    HW121815   2.447   4.004  14.904 -1.7833  0.3928 -0.1370
 3393SOL    HW221816   2.467   3.893  14.808  0.2374  0.3053 -1.0223
 3394SOL     OW21817   0.785   4.157   4.538  0.1042 -0.1686 -0.1479
 3394SOL    HW121818   0.725   4.211   4.487  1.4108  2.4391  1.1203
 3394SOL    HW221819   0.721   4.112   4.593 -0.0889  0.4402  0.1196
 3395SOL     OW21820   1.463   0.866  11.996  0.2158  0.2887 -0.8305
 3395SOL    HW121821   1.434   0.789  12.044  1.2933 -1.3227 -2.8050
 3395SOL    HW221822   1.473   0.822  11.912 -0.1201 -1.0046 -0.1914
 3396SOL     OW21823   3.977   1.571   1.567 -0.1242 -0.0800 -0.0241
 3396SOL    HW121824   3.965   1.487   1.611  0.5802 -0.4534 -0.5407
 3396SOL    HW221825   3.930   1.548   1.487 -2.2443  0.6467  0.9924
 3397SOL     OW21826   2.520   3.064   9.109 -0.3921  0.0157  0.1274
 3397SOL    HW121827   2.604   3.021   9.128  1.5359  4.5724  1.9509
 3397SOL    HW221828   2.515   3.124   9.183  2.1672 -0.9860  1.1136
 3398SOL     OW21829   1.302   2.127   8.102  0.1843  0.0349 -0.7940
 3398SOL    HW121830   1.332   2.111   8.191  1.7017 -1.5767 -1.6064
 3398SOL    HW221831   1.256   2.048   8.074 -0.5512  0.4959 -0.9053
 3399SOL     OW21832   2.555   4.301   1.910 -0.1918 -0.0983 -0.1767
 3399SOL    HW121833   2.613   4.368   1.875 -1.7268  1.6068  0.5288
 3399SOL    HW221834   2.615   4.257   1.970  1.7131  0.7270 -1.5100
 3400SOL     OW21835   0.017   3.237   8.501  0.0932  0.0719  0.7705
 3400SOL    HW121836   0.024   3.171   8.433 -0.3278  0.2598  0.5455
 3400SOL    HW221837   0.090   3.290   8.470 -1.0076  0.8534 -0.4663
 3401SOL     OW21838   2.591   2.743   8.059  0.5401  0.0851 -0.5906
 3401SOL    HW121839   2.606   2.681   8.130  0.9833  0.3784 -0.4308
 3401SOL    HW221840   2.668   2.732   8.004 -0.2076  0.3824 -1.6868
 3402SOL     OW21841   3.767   4.185   0.796 -0.1685 -0.1083  0.6207
 3402SOL    HW121842   3.856   4.168   0.766 -0.9837 -0.3622 -1.7331
 3402SOL    HW221843   3.724   4.180   0.710  1.2552 -0.2341 -0.0880
 3403SOL     OW21844   1.906   2.448  10.029 -0.4156  0.3729 -0.5089
 3403SOL    HW121845   1.854   2.377   9.990 -0.9419 -0.4648  1.7351
 3403SOL    HW221846   1.994   2.410  10.022 -1.3841 -1.9227 -0.3123
 3404SOL     OW21847   1.899   3.512  11.757  0.1761 -0.1632  0.3403
 3404SOL    HW121848   1.861   3.547  11.677  1.4169  1.2243  0.3494
 3404SOL    HW221849   1.923   3.593  11.803 -1.9406  1.4642 -1.4287
 3405SOL     OW21850   2.817   0.575   2.463 -0.1058 -0.1441 -0.7084
 3405SOL    HW121851   2.855   0.656   2.431  1.5938 -0.3306  0.8062
 3405SOL    HW221852   2.900   0.530   2.478  0.0683  0.0870 -0.9865
 3406SOL     OW21853   1.109   4.551  16.935 -0.2623 -0.7210  0.1292
 3406SOL    HW121854   1.196   4.591  16.926 -0.9271  0.6049 -0.3789
 3406SOL    HW221855   1.120   4.511  17.022  0.0623 -1.3258 -0.1838
 3407SOL     OW21856   2.257   1.880  16.871 -0.2278 -0.4105 -0.4640
 3407SOL    HW121857   2.330   1.937  16.852  0.3324 -1.0965 -0.3665
 3407SOL    HW221858   2.258   1.833  16.788 -0.8265 -2.5915  0.7441
 3408SOL     OW21859   2.209   3.291  14.842 -0.3148 -0.1849 -0.1046
 3408SOL    HW121860   2.262   3.357  14.887 -0.3989  0.2375 -0.6142
 3408SOL    HW221861   2.139   3.346  14.806 -0.2990 -1.8343 -2.6497
 3409SOL     OW21862   4.263   3.478   7.297 -0.3309  0.4901  0.2392
 3409SOL    HW121863   4.202   3.450   7.365  0.5688 -0.1893  0.7462
 3409SOL    HW221864   4.291   3.564   7.326  1.1838 -0.0711  0.3907
 3410SOL     OW21865   4.563   4.281   1.486 -0.7131 -0.2377  0.0711
 3410SOL    HW121866   4.496   4.273   1.418 -3.4885 -1.2084  2.9129
 3410SOL    HW221867   4.605   4.195   1.478 -0.3078 -0.0730  0.3966
 3411SOL     OW21868   2.693   3.947   1.881 -0.1085 -1.2352  0.1834
 3411SOL    HW121869   2.730   4.020   1.831 -1.7040  0.1409  0.9860
 3411SOL    HW221870   2.671   3.986   1.966 -0.2502  0.2580 -0.5253
 3412SOL     OW21871   1.393   0.323   6.265  0.2034 -0.0267 -0.1204
 3412SOL    HW121872   1.392   0.228   6.256 -1.7297 -0.1126  0.8902
 3412SOL    HW221873   1.340   0.352   6.191 -0.7888 -1.2356  0.1128
 3413SOL     OW21874   2.443   3.330  11.668 -0.5243  0.4136 -0.2419
 3413SOL    HW121875   2.504   3.326  11.594 -1.8021 -0.4133 -1.2562
 3413SOL    HW221876   2.500   3.290  11.735 -1.6007  1.0138  1.0229
 3414SOL     OW21877   2.109   2.035   8.025  0.2781 -0.0403 -0.4748
 3414SOL    HW121878   2.100   1.941   8.011  0.6394  0.0177 -1.1435
 3414SOL    HW221879   2.097   2.045   8.119 -0.4553  0.4919 -0.6257
 3415SOL     OW21880   3.822   2.209   7.956  0.0772 -0.1375 -0.1287
 3415SOL    HW121881   3.910   2.215   7.918 -0.1568 -0.3436 -0.7176
 3415SOL    HW221882   3.768   2.181   7.881  1.2284  0.7659 -1.2799
 3416SOL     OW21883   1.458   2.414   5.581 -0.3966 -0.1590 -0.1736
 3416SOL    HW121884   1.406   2.410   5.501  2.3700  1.9545 -2.0691
 3416SOL    HW221885   1.402   2.391   5.656  0.9110 -0.2740  0.7665
 3417SOL     OW21886   0.155   4.382   3.644  0.1210 -0.3722  0.0908
 3417SOL    HW121887   0.167   4.391   3.549  2.2971 -1.7848  0.2238
 3417SOL    HW221888   0.246   4.393   3.671  0.0893  1.0747 -0.4028
 3418SOL     OW21889   4.485   4.453   5.367 -0.0329 -0.0976 -0.0976
 3418SOL    HW121890   4.454   4.398   5.438 -0.6256  0.2889 -0.0491
 3418SOL    HW221891   4.404   4.481   5.323 -0.0052 -1.7938 -1.2086
 3419SOL     OW21892   0.822   0.257  12.506 -0.3563  0.6146  0.4191
 3419SOL    HW121893   0.752   0.235  12.444  0.4145 -1.7620  0.4131
 3419SOL    HW221894   0.802   0.224  12.593 -1.1029 -2.5262 -0.9593
 3420SOL     OW21895   2.030   1.304   8.195 -0.0636  0.3469  0.3227
 3420SOL    HW121896   2.052   1.223   8.241  1.5478  1.6263  1.8195
 3420SOL    HW221897   1.944   1.280   8.161 -0.3408 -1.1314  2.1016
 3421SOL     OW21898   0.137   3.086   3.177  0.4210 -0.2726  0.3472
 3421SOL    HW121899   0.081   3.053   3.248 -0.0214 -1.9110 -0.7752
 3421SOL    HW221900   0.082   3.152   3.137  1.6489  1.5823  1.7186
 3422SOL     OW21901   4.020   0.199   3.162  0.0140 -0.0328 -0.0362
 3422SOL    HW121902   4.084   0.248   3.214  2.5979 -1.9799 -1.3696
 3422SOL    HW221903   3.941   0.252   3.172  0.6924  1.0779 -0.5824
 3423SOL     OW21904   3.480   1.265  17.466 -0.5714 -0.0351  0.0647
 3423SOL    HW121905   3.438   1.218  17.537  0.6673 -0.2348  0.6671
 3423SOL    HW221906   3.433   1.349  17.471  1.2636  1.0165 -0.1840
 3424SOL     OW21907   1.047   3.489  14.084 -0.1570 -0.1385 -0.7388
 3424SOL    HW121908   1.088   3.524  14.163 -3.0803 -1.7565  1.5079
 3424SOL    HW221909   1.039   3.396  14.104 -1.7108 -0.3218 -2.1562
 3425SOL     OW21910   4.583   1.841   7.982 -0.7997 -0.4663 -0.0674
 3425SOL    HW121911   4.647   1.908   7.957 -1.0842 -0.5140 -0.9280
 3425SOL    HW221912   4.573   1.846   8.077 -1.7048 -1.6031 -0.1000
 3426SOL     OW21913   1.225   2.653   7.771 -0.1168  0.3534  0.2519
 3426SOL    HW121914   1.197   2.744   7.760  0.2892  0.3277 -1.0287
 3426SOL    HW221915   1.297   2.641   7.709 -1.4032  2.6980 -1.7123
 3427SOL     OW21916   0.864   1.330  15.388 -0.0953  0.0681  0.0605
 3427SOL    HW121917   0.937   1.321  15.449 -0.9588 -1.1336  0.9211
 3427SOL    HW221918   0.852   1.425  15.397  0.0866 -0.1181  2.2222
 3428SOL     OW21919   0.130   1.485   0.425 -0.3007 -0.2248 -0.4408
 3428SOL    HW121920   0.039   1.487   0.398 -0.7656  0.2910  1.1989
 3428SOL    HW221921   0.137   1.391   0.441 -1.9381 -0.7068 -2.4794
 3429SOL     OW21922   4.397   2.710   2.310 -0.8420 -1.0176 -0.5186
 3429SOL    HW121923   4.480   2.745   2.343 -2.9443  1.6659  1.9168
 3429SOL    HW221924   4.384   2.771   2.237  3.4982 -0.2954 -0.7089
 3430SOL     OW21925   0.325   1.237   8.941  0.2051 -0.2248  0.3025
 3430SOL    HW121926   0.414   1.205   8.929  0.8918  1.9423 -0.3986
 3430SOL    HW221927   0.324   1.233   9.036  2.1404  0.2158  0.3323
 3431SOL     OW21928   3.265   0.993   6.395 -0.3786 -0.1395  0.0920
 3431SOL    HW121929   3.354   0.994   6.430 -0.8924  0.3875  1.3815
 3431SOL    HW221930   3.229   0.926   6.453  0.1102 -0.4071  0.0842
 3432SOL     OW21931   3.631   0.660  11.436 -0.1931  0.0903  0.4293
 3432SOL    HW121932   3.571   0.729  11.407 -2.8843 -2.4257  0.0448
 3432SOL    HW221933   3.578   0.582  11.423  0.3001  0.0247 -1.1064
 3433SOL     OW21934   2.284   1.510   9.952  0.3259  0.1604  0.7432
 3433SOL    HW121935   2.225   1.582   9.974 -1.1277 -0.3145 -1.6253
 3433SOL    HW221936   2.232   1.442   9.995 -0.9361  0.5258 -0.2196
 3434SOL     OW21937   3.564   4.052   5.486 -0.2543 -0.1672  0.4565
 3434SOL    HW121938   3.626   3.999   5.536 -0.9987 -0.8015  0.6940
 3434SOL    HW221939   3.575   4.139   5.524  0.4567  0.4496 -1.1639
 3435SOL     OW21940   3.437   4.485   9.641  0.3633  0.2429 -1.0579
 3435SOL    HW121941   3.427   4.527   9.726  1.0549 -1.6784 -0.0112
 3435SOL    HW221942   3.362   4.426   9.644  0.5803  0.0290  0.2259
 3436SOL     OW21943   0.608   2.409   8.131 -0.8065 -0.0769  0.1903
 3436SOL    HW121944   0.612   2.472   8.059  0.0259  0.2572  0.5367
 3436SOL    HW221945   0.627   2.470   8.202  2.1930 -1.3148  0.4337
 3437SOL     OW21946   0.600   0.350  14.777 -0.1744 -0.4140  0.3439
 3437SOL    HW121947   0.597   0.441  14.749 -2.1547  0.2838  2.9144
 3437SOL    HW221948   0.692   0.335  14.754 -0.2359 -1.5879  0.8800
 3438SOL     OW21949   2.589   4.213  15.011  0.5522 -0.4737 -0.5609
 3438SOL    HW121950   2.639   4.182  15.087  0.9413  1.7907  0.1350
 3438SOL    HW221951   2.657   4.184  14.950  1.5133 -2.7638  1.6074
 3439SOL     OW21952   3.175   1.897   1.370  0.6599 -0.0014 -0.0316
 3439SOL    HW121953   3.181   1.814   1.324  1.3473 -1.1513  2.1132
 3439SOL    HW221954   3.232   1.953   1.318  0.5980  0.5565  0.4970
 3440SOL     OW21955   2.503   4.007  15.261  0.3406 -0.3022 -0.4698
 3440SOL    HW121956   2.595   4.033  15.268 -0.0470  0.7230  0.7297
 3440SOL    HW221957   2.491   3.979  15.352 -1.1905  0.4566 -0.4397
 3441SOL     OW21958   1.100   3.378   7.625  0.0303  0.2972  0.2263
 3441SOL    HW121959   1.110   3.470   7.647  0.5558  0.1675  0.5355
 3441SOL    HW221960   1.187   3.342   7.641  0.5190  0.4429 -2.1153
 3442SOL     OW21961   0.030   4.125   3.525  0.0959 -0.0181  0.3568
 3442SOL    HW121962   0.054   4.213   3.553 -0.1471 -0.3097  1.5033
 3442SOL    HW221963   4.693   4.109   3.584  0.3749  1.1746  1.0216
 3443SOL     OW21964   2.289   0.512   2.347  0.1444  0.3133 -0.3520
 3443SOL    HW121965   2.383   0.526   2.357 -0.0276 -0.0301  1.8297
 3443SOL    HW221966   2.250   0.599   2.347  1.7956  1.0562 -2.1394
 3444SOL     OW21967   4.110   4.058  11.957  0.1462  0.3928  0.1597
 3444SOL    HW121968   4.064   3.974  11.953  1.9362 -0.7073  2.6183
 3444SOL    HW221969   4.044   4.119  11.987 -0.6976 -0.4250 -0.0446
 3445SOL     OW21970   1.888   4.124   4.076  0.1859  0.5480 -0.5379
 3445SOL    HW121971   1.963   4.108   4.018  0.1302  1.5553 -0.8983
 3445SOL    HW221972   1.843   4.193   4.027 -0.1785  1.0460  0.5018
 3446SOL     OW21973   3.072   1.118  17.542 -0.1160 -0.5633 -0.0887
 3446SOL    HW121974   3.120   1.060  17.601  1.3405  0.8731  0.1371
 3446SOL    HW221975   3.024   1.181  17.596 -0.4120 -0.4045 -0.5309
 3447SOL     OW21976   4.267   3.673   5.270  0.7276 -0.1222 -0.2247
 3447SOL    HW121977   4.234   3.660   5.182  0.2014 -2.3895  0.3014
 3447SOL    HW221978   4.306   3.760   5.272  1.5578 -0.5314  1.3673
 3448SOL     OW21979   4.685   1.668   5.185 -0.2708 -0.6910 -0.6967
 3448SOL    HW121980   4.607   1.637   5.231  0.2520  0.4690  0.9869
 3448SOL    HW221981   4.657   1.656   5.095 -0.5513 -1.3987 -0.5168
 3449SOL     OW21982   1.894   0.422   7.555 -0.0213  0.2748  0.1946
 3449SOL    HW121983   1.980   0.400   7.589  0.3661  0.6470 -0.5558
 3449SOL    HW221984   1.905   0.411   7.461  3.1586  2.3993  0.3369
 3450SOL     OW21985   2.862   3.924   8.131 -0.3159 -0.0033 -0.1632
 3450SOL    HW121986   2.921   3.979   8.182 -0.1399 -0.1821 -0.1709
 3450SOL    HW221987   2.864   3.838   8.173 -2.8006 -0.4605 -1.0131
 3451SOL     OW21988   3.532   3.488  12.641  0.8931  0.7725 -0.5602
 3451SOL    HW121989   3.503   3.538  12.718  0.9862  1.4719 -0.9861
 3451SOL    HW221990   3.579   3.558  12.597  1.3332  1.1818  0.5452
 3452SOL     OW21991   1.585   2.830  11.547  0.0213  0.0635 -0.3684
 3452SOL    HW121992   1.544   2.781  11.476 -1.7348 -0.1067  0.7786
 3452SOL    HW221993   1.548   2.918  11.541  1.1748  0.6144  0.6890
 3453SOL     OW21994   1.610   2.175   5.538 -0.0739  0.1123  0.3782
 3453SOL    HW121995   1.598   2.153   5.445  0.3480  2.1192 -0.1415
 3453SOL    HW221996   1.555   2.250   5.556  0.8428  0.9051 -0.1507
 3454SOL     OW21997   3.130   4.343   4.980 -0.3021  0.2251  0.3611
 3454SOL    HW121998   3.218   4.346   5.018  0.2596 -0.4590 -0.8948
 3454SOL    HW221999   3.080   4.332   5.061 -0.3933 -2.3874 -0.0312
 3455SOL     OW22000   1.003   1.396  11.331 -0.5587  0.1179  0.1705
 3455SOL    HW122001   0.939   1.466  11.343 -1.5570 -0.9395  0.8626
 3455SOL    HW222002   1.024   1.406  11.238 -1.2806  1.1720  0.1175
 3456SOL     OW22003   0.405   1.283   0.683 -0.2192 -0.1578 -0.0950
 3456SOL    HW122004   0.456   1.207   0.712 -0.1363 -0.6441 -1.5253
 3456SOL    HW222005   0.465   1.357   0.686 -0.2422 -0.1834  1.2565
 3457SOL     OW22006   2.548   1.391  15.176  0.2049  0.1518 -0.0313
 3457SOL    HW122007   2.545   1.417  15.084  2.2674 -0.5722 -0.3063
 3457SOL    HW222008   2.484   1.320  15.175 -0.5109  0.7858  0.5670
 3458SOL     OW22009   3.362   1.522   1.776 -0.3442 -0.2401 -0.3215
 3458SOL    HW122010   3.434   1.458   1.781  0.6447  1.0094  1.3264
 3458SOL    HW222011   3.306   1.489   1.705  1.1309 -0.6487 -1.3088
 3459SOL     OW22012   2.163   4.110   5.444  0.2322 -0.5785  0.7810
 3459SOL    HW122013   2.180   4.173   5.514  2.7978  0.5226 -0.8211
 3459SOL    HW222014   2.241   4.123   5.389  0.7287 -2.2505  1.1032
 3460SOL     OW22015   1.983   4.418  15.733 -0.2121 -0.4952  0.4355
 3460SOL    HW122016   1.904   4.456  15.772  0.0848 -0.8872  1.4362
 3460SOL    HW222017   2.036   4.406  15.812 -0.5971 -3.5642  0.2376
 3461SOL     OW22018   3.110   0.006  13.299  0.7459  0.5349  0.8205
 3461SOL    HW122019   3.118   4.686  13.222 -0.8458  0.4181  0.7421
 3461SOL    HW222020   3.202   0.017  13.322  1.4635 -1.2978 -1.0960
 3462SOL     OW22021   4.213   1.676   6.240  0.3121 -0.6088 -0.2347
 3462SOL    HW122022   4.163   1.741   6.192 -0.7724  0.2561  2.1166
 3462SOL    HW222023   4.157   1.639   6.309  0.0518  1.3157  0.5751
 3463SOL     OW22024   2.222   1.378  10.288  0.0970  0.5473  0.0361
 3463SOL    HW122025   2.317   1.383  10.282  0.1495  0.7695  1.0461
 3463SOL    HW222026   2.224   1.326  10.368 -2.6494  0.3412 -0.0278
 3464SOL     OW22027   1.464   3.547   7.509 -0.3869 -0.1352  0.0989
 3464SOL    HW122028   1.523   3.543   7.434 -0.9246  0.0545 -0.3250
 3464SOL    HW222029   1.441   3.640   7.505  3.1744  0.7208 -0.5821
 3465SOL     OW22030   4.064   0.693   2.294 -0.7072  0.0775 -0.1317
 3465SOL    HW122031   3.991   0.688   2.232 -1.6836 -3.0971  1.2666
 3465SOL    HW222032   4.037   0.766   2.349 -1.6482  0.5628 -1.2245
 3466SOL     OW22033   2.273   1.156   4.784 -0.7361  0.0465 -0.7040
 3466SOL    HW122034   2.306   1.245   4.773  0.2715 -0.0303  1.6389
 3466SOL    HW222035   2.351   1.112   4.820 -0.1097  0.9444 -0.9694
 3467SOL     OW22036   0.352   3.018   8.780  0.1359  0.2733  0.0172
 3467SOL    HW122037   0.447   3.021   8.775  0.2046 -0.9835  0.4224
 3467SOL    HW222038   0.357   2.946   8.843  2.8605 -0.1264 -0.6852
 3468SOL     OW22039   3.422   3.658  12.871  0.0029 -0.3363 -0.2056
 3468SOL    HW122040   3.405   3.594  12.940 -0.5782 -0.5037 -0.4943
 3468SOL    HW222041   3.469   3.717  12.930  0.2185 -1.9126  1.1746
 3469SOL     OW22042   3.181   0.431   4.428  0.0496  0.3480 -0.0877
 3469SOL    HW122043   3.181   0.512   4.479 -0.9746  0.7000 -0.6444
 3469SOL    HW222044   3.264   0.434   4.379  0.5130  1.4283  0.7593
 3470SOL     OW22045   4.260   1.342   5.703 -0.1757  0.2557  0.2512
 3470SOL    HW122046   4.205   1.413   5.737  4.1569  2.8984  1.6637
 3470SOL    HW222047   4.281   1.292   5.783 -1.1234 -0.6988 -0.0892
 3471SOL     OW22048   2.739   0.032  16.960 -0.5821  0.6961 -0.3492
 3471SOL    HW122049   2.728   0.091  16.885  1.6622  1.6156  0.0243
 3471SOL    HW222050   2.696   0.074  17.034  1.7078  1.2242  0.6939
 3472SOL     OW22051   3.300   4.291  16.213 -0.2357  0.2450  0.5863
 3472SOL    HW122052   3.325   4.360  16.274  0.4078  0.8149 -0.3217
 3472SOL    HW222053   3.387   4.264  16.186 -1.0370 -2.0542  0.3394
 3473SOL     OW22054   4.314   3.819   1.782  0.3217 -0.5940  0.2148
 3473SOL    HW122055   4.284   3.746   1.728 -0.0422 -0.4847  0.2726
 3473SOL    HW222056   4.318   3.779   1.869  1.7229  1.3993  1.0554
 3474SOL     OW22057   3.546   4.277  12.160 -0.4670 -0.3928  0.4203
 3474SOL    HW122058   3.597   4.357  12.175  0.6424 -1.2996  1.3744
 3474SOL    HW222059   3.503   4.260  12.244 -1.0037 -1.9168 -0.1685
 3475SOL     OW22060   2.654   2.250  10.374 -0.0448  0.5982 -0.3878
 3475SOL    HW122061   2.625   2.213  10.458 -2.4699  2.4756 -0.3879
 3475SOL    HW222062   2.607   2.184  10.324 -1.6857  0.6615  1.0539
 3476SOL     OW22063   2.324   0.452   4.331  0.2548  0.4439  0.5211
 3476SOL    HW122064   2.306   0.470   4.424  2.7380 -0.0652  1.1090
 3476SOL    HW222065   2.399   0.510   4.317  0.5439 -0.1425 -0.3348
 3477SOL     OW22066   2.991   2.038   1.540  0.2739 -0.6718  0.5680
 3477SOL    HW122067   3.043   1.975   1.489  0.8099 -0.0965  0.3948
 3477SOL    HW222068   3.038   2.119   1.517 -2.1639  0.5465 -0.0916
 3478SOL     OW22069   3.412   3.259   2.307  0.1964 -0.6891  0.0504
 3478SOL    HW122070   3.386   3.188   2.366  0.6390 -0.2253  0.8080
 3478SOL    HW222071   3.330   3.263   2.259 -0.6170  0.0723  1.5189
 3479SOL     OW22072   1.903   1.380  14.349  0.5822  0.5058 -0.7637
 3479SOL    HW122073   1.860   1.411  14.269 -1.6036 -2.3349 -0.6947
 3479SOL    HW222074   1.829   1.364  14.408  0.3300  0.8683 -0.9806
 3480SOL     OW22075   2.078   3.588   5.797 -0.0458  0.0636  0.4382
 3480SOL    HW122076   2.112   3.578   5.886  1.8210  1.2038 -0.1416
 3480SOL    HW222077   2.076   3.684   5.792 -0.5476 -0.1684 -3.5891
 3481SOL     OW22078   0.771   0.323   6.201 -0.2348  0.1357 -0.0018
 3481SOL    HW122079   0.844   0.281   6.155 -1.8965 -3.8567  1.0457
 3481SOL    HW222080   0.802   0.414   6.207  1.6156 -0.4869 -0.2420
 3482SOL     OW22081   4.634   2.951   3.318  0.0055 -0.3954 -0.0707
 3482SOL    HW122082   4.611   2.953   3.225 -0.3616  1.2852  0.0631
 3482SOL    HW222083   4.623   2.860   3.348  1.7632 -0.7251 -0.4375
 3483SOL     OW22084   0.053   2.793   4.032  0.0638 -0.0128  0.2453
 3483SOL    HW122085   0.138   2.787   4.076  0.0981  2.2737  0.5279
 3483SOL    HW222086   0.010   2.866   4.077 -0.4684 -0.8081  1.0353
 3484SOL     OW22087   1.135   1.090   1.714  0.1662 -0.3708 -0.2204
 3484SOL    HW122088   1.185   1.024   1.665 -0.0490  1.0324 -2.3312
 3484SOL    HW222089   1.169   1.071   1.802  1.1524  0.0656 -0.5084
 3485SOL     OW22090   0.941   4.317   5.534 -0.2409 -0.1150 -0.3068
 3485SOL    HW122091   0.895   4.396   5.561 -2.2580 -1.1601 -0.6936
 3485SOL    HW222092   0.901   4.259   5.598  0.6983  1.1532  1.4282
 3486SOL     OW22093   2.661   3.631   8.190  0.2367 -0.2503  0.0169
 3486SOL    HW122094   2.686   3.680   8.112  2.8778  1.9171  2.2184
 3486SOL    HW222095   2.746   3.638   8.233 -0.3369  2.2173  0.7625
 3487SOL     OW22096   1.687   4.291  13.827  0.3058 -0.2636 -0.8594
 3487SOL    HW122097   1.659   4.381  13.808 -1.4712 -0.4675  0.6846
 3487SOL    HW222098   1.724   4.306  13.914 -1.0366 -0.3252 -0.2758
 3488SOL     OW22099   2.784   3.034   6.858 -0.3767 -0.3789  0.0821
 3488SOL    HW122100   2.831   3.112   6.889 -2.6111  0.4913  1.2894
 3488SOL    HW222101   2.770   2.995   6.944 -0.4535 -0.6712 -0.0649
 3489SOL     OW22102   0.448   4.220  10.152 -0.3898  0.2023 -0.2474
 3489SOL    HW122103   0.532   4.219  10.106 -1.1598  1.3475 -1.6784
 3489SOL    HW222104   0.398   4.171  10.087 -1.3331  0.3973  0.3413
 3490SOL     OW22105   1.814   1.989   7.282  0.0624 -0.0152  0.2597
 3490SOL    HW122106   1.741   1.943   7.323  0.0292 -0.2586 -0.0764
 3490SOL    HW222107   1.860   1.918   7.237 -0.7744 -0.1950 -0.3203
 3491SOL     OW22108   4.456   1.233   6.518  0.6765 -0.2530 -0.1585
 3491SOL    HW122109   4.481   1.323   6.497  0.3417 -0.4000 -1.1754
 3491SOL    HW222110   4.418   1.242   6.605  0.1422  1.1191 -0.5321
 3492SOL     OW22111   0.544   0.183   9.972 -0.1102 -0.1510  0.2062
 3492SOL    HW122112   0.597   0.206  10.049  1.0387  0.5708 -0.8007
 3492SOL    HW222113   0.490   0.262   9.962 -0.9309 -0.6795  0.5219
 3493SOL     OW22114   2.520   2.986   3.060  0.0760 -0.1854  0.4480
 3493SOL    HW122115   2.543   3.055   3.122 -0.7122 -0.4467  1.0369
 3493SOL    HW222116   2.539   2.921   3.128  1.6346 -1.5339 -1.2778
 3494SOL     OW22117   0.689   3.695   1.539  0.3012 -0.7593 -0.5642
 3494SOL    HW122118   0.597   3.708   1.565  0.3600 -0.6812 -0.3930
 3494SOL    HW222119   0.683   3.766   1.475  0.1902 -1.4499 -1.3104
 3495SOL     OW22120   0.628   3.355  12.709  0.1864  0.4016  0.0588
 3495SOL    HW122121   0.590   3.303  12.637 -0.3722  0.1979  0.4969
 3495SOL    HW222122   0.706   3.385  12.663 -1.1154  2.8650 -0.5354
 3496SOL     OW22123   4.110   2.457   5.404 -0.2788  0.0645 -0.1658
 3496SOL    HW122124   4.175   2.465   5.473 -1.8094  0.7734  1.2096
 3496SOL    HW222125   4.139   2.372   5.369  0.8284  1.0910 -1.7310
 3497SOL     OW22126   2.294   4.259   3.887 -0.2772  0.5598  0.1395
 3497SOL    HW122127   2.229   4.203   3.929  0.2564 -0.7432 -0.7773
 3497SOL    HW222128   2.255   4.262   3.800 -1.2264 -0.9490  0.5210
 3498SOL     OW22129   2.303   1.511   4.222 -0.3706 -0.0980  0.2545
 3498SOL    HW122130   2.356   1.463   4.285 -0.3613 -0.0387  0.2921
 3498SOL    HW222131   2.267   1.443   4.165 -2.1391  0.6923  0.4154
 3499SOL     OW22132   2.097   0.028   7.531 -0.6595 -0.0992  0.0195
 3499SOL    HW122133   2.013   0.071   7.518  1.1972  2.1844 -4.2612
 3499SOL    HW222134   2.129   0.018   7.442 -0.4347  2.0382 -0.1409
 3500SOL     OW22135   0.209   3.387   9.635  0.2884 -0.4769 -0.2358
 3500SOL    HW122136   0.256   3.402   9.553  0.6264 -2.1776 -0.3515
 3500SOL    HW222137   0.149   3.460   9.641 -0.2276 -0.8272 -1.1764
 3501SOL     OW22138   4.073   4.707   3.073  0.0679 -0.1769  0.1126
 3501SOL    HW122139   4.043   0.055   3.104  2.1252  1.8028 -3.3343
 3501SOL    HW222140   4.153   4.692   3.123 -0.8569 -0.8509  1.3823
 3502SOL     OW22141   0.398   3.874   7.822  0.1753  0.4095  0.7214
 3502SOL    HW122142   0.436   3.945   7.874  1.5591  1.1404 -1.2496
 3502SOL    HW222143   0.426   3.801   7.877 -1.4363 -0.1555  0.7742
 3503SOL     OW22144   0.156   3.080   5.661  0.1741 -0.1220 -0.0444
 3503SOL    HW122145   0.200   3.050   5.581 -1.2279 -2.1280 -0.0647
 3503SOL    HW222146   0.221   3.078   5.731  0.8998 -2.1688 -0.7789
 3504SOL     OW22147   4.187   2.004  13.715  0.4931  0.0511  0.1029
 3504SOL    HW122148   4.234   1.967  13.640 -0.3008 -0.0513 -0.3483
 3504SOL    HW222149   4.256   2.031  13.776  0.7236  0.9421 -0.5487
 3505SOL     OW22150   4.254   4.052   2.752  0.0820 -0.4826 -0.5815
 3505SOL    HW122151   4.343   4.033   2.781  0.0667  1.4791  0.7308
 3505SOL    HW222152   4.273   4.088   2.665 -1.5270  0.6062 -0.4609
 3506SOL     OW22153   2.590   0.197   6.219  0.0642  0.2270  0.1583
 3506SOL    HW122154   2.642   0.215   6.298  0.9864  1.7034 -0.7937
 3506SOL    HW222155   2.512   0.241   6.254  0.3922  1.3739 -0.5449
 3507SOL     OW22156   2.816   2.021   2.159 -0.3825 -0.2097  0.2969
 3507SOL    HW122157   2.792   2.062   2.076 -0.0466  1.2257  0.9177
 3507SOL    HW222158   2.868   1.946   2.131  0.5322 -0.2471  2.0728
 3508SOL     OW22159   0.032   2.560  15.651 -0.0469 -0.2449  0.2347
 3508SOL    HW122160   0.041   2.631  15.714 -2.8547  0.8627 -0.6193
 3508SOL    HW222161   4.725   2.501  15.712 -0.6454  0.6440  0.6689
 3509SOL     OW22162   3.265   2.248  15.337 -0.4502 -0.2565  0.3053
 3509SOL    HW122163   3.256   2.188  15.263 -1.6246  1.2459 -0.7795
 3509SOL    HW222164   3.359   2.260  15.348 -0.1872 -1.2520 -0.8619
 3510SOL     OW22165   1.424   4.105   1.065 -0.7930 -0.2576  0.0425
 3510SOL    HW122166   1.518   4.106   1.046 -1.0766 -2.2924 -1.5228
 3510SOL    HW222167   1.391   4.078   0.980 -0.8116  2.2418 -0.7380
 3511SOL     OW22168   1.262   1.960   9.933 -0.2506  0.1147 -0.2056
 3511SOL    HW122169   1.303   2.029   9.882 -0.3585  0.7263  0.5295
 3511SOL    HW222170   1.282   2.006  10.014  0.7444  1.4881 -1.2425
 3512SOL     OW22171   1.733   3.980  10.176  0.2485  0.0941 -0.2309
 3512SOL    HW122172   1.704   3.888  10.176 -1.0745  0.5150  0.3942
 3512SOL    HW222173   1.656   4.008  10.127 -0.2247  2.5790  1.9246
 3513SOL     OW22174   3.297   1.198   9.087 -0.1106  0.2861  0.3529
 3513SOL    HW122175   3.311   1.292   9.100  0.9697 -0.0761  1.7502
 3513SOL    HW222176   3.269   1.192   8.995 -2.1587  2.1964  0.8417
 3514SOL     OW22177   1.843   3.799   2.836 -0.5041  0.0713 -0.3263
 3514SOL    HW122178   1.914   3.734   2.834 -0.1449  0.4736 -0.6293
 3514SOL    HW222179   1.874   3.852   2.909  1.3715  1.5140 -2.1849
 3515SOL     OW22180   1.113   1.591   4.915  0.0307 -0.0676 -0.0941
 3515SOL    HW122181   1.106   1.496   4.910 -0.5591  0.0477 -1.3321
 3515SOL    HW222182   1.049   1.624   4.852 -0.5439  0.1540  0.6055
 3516SOL     OW22183   0.025   2.381   8.633  0.0571  0.1157  0.1897
 3516SOL    HW122184   0.038   2.384   8.727  0.4546  1.8009  0.0708
 3516SOL    HW222185   0.108   2.346   8.601  1.2174  2.9548  0.0716
 3517SOL     OW22186   2.233   2.057  16.625 -0.1719 -0.5999  0.0845
 3517SOL    HW122187   2.247   1.963  16.638 -1.2162 -0.5546  1.6115
 3517SOL    HW222188   2.151   2.054  16.676 -1.1192  2.2401 -1.3034
 3518SOL     OW22189   4.037   0.005  15.876  0.6453 -0.3736 -0.1719
 3518SOL    HW122190   3.994   4.724  15.792 -2.7274 -0.3211  1.5210
 3518SOL    HW222191   3.959   4.729  15.931 -0.0829 -0.6874 -1.2746
 3519SOL     OW22192   3.843   1.349  15.111  0.3504 -0.0289 -0.2404
 3519SOL    HW122193   3.861   1.327  15.020 -1.1140  2.8008 -1.2164
 3519SOL    HW222194   3.782   1.282  15.141  1.4132 -0.9557 -0.1555
 3520SOL     OW22195   3.107   1.980   5.278  0.3966 -0.0410 -1.2910
 3520SOL    HW122196   3.047   2.019   5.215  2.6775  2.3871 -1.9559
 3520SOL    HW222197   3.120   2.036   5.355 -0.3771 -1.0680 -0.4039
 3521SOL     OW22198   2.084   4.695   8.823  0.4944 -0.0548  0.7720
 3521SOL    HW122199   2.068   4.611   8.866  1.5852 -0.3065  0.6895
 3521SOL    HW222200   2.034   0.018   8.878 -0.0413  1.3610 -1.2570
 3522SOL     OW22201   1.252   2.874   9.231  0.5654 -0.1851  0.0568
 3522SOL    HW122202   1.326   2.815   9.242  0.3163 -0.5772 -0.3747
 3522SOL    HW222203   1.238   2.900   9.322  0.2697 -1.1268  0.2788
 3523SOL     OW22204   0.347   3.804  13.631  0.3610 -0.7000  0.2171
 3523SOL    HW122205   0.438   3.832  13.641  0.1783 -0.1769  0.4069
 3523SOL    HW222206   0.365   3.744  13.558 -0.1107 -1.0596  0.3950
 3524SOL     OW22207   0.561   1.547   8.227  0.5375 -0.1954  0.2840
 3524SOL    HW122208   0.568   1.594   8.310  0.7458 -0.5876  0.4893
 3524SOL    HW222209   0.644   1.576   8.189 -0.3056 -2.4634 -3.2725
 3525SOL     OW22210   1.223   1.926   7.799  0.3486 -0.2881  0.1917
 3525SOL    HW122211   1.183   1.899   7.882 -1.3673 -0.5748 -0.7230
 3525SOL    HW222212   1.145   1.942   7.746 -0.9472  0.8408  2.4647
 3526SOL     OW22213   2.064   2.911   3.364  0.4797  0.0988  0.5227
 3526SOL    HW122214   2.014   2.973   3.417 -1.3690 -0.3843 -0.6600
 3526SOL    HW222215   2.142   2.891   3.417  0.9606 -0.5471 -0.4253
 3527SOL     OW22216   0.829   3.653   4.448  0.2125  0.0171 -0.0303
 3527SOL    HW122217   0.867   3.680   4.532  0.7478 -0.4413 -0.1220
 3527SOL    HW222218   0.741   3.625   4.469  0.6333 -0.0549  1.5917
 3528SOL     OW22219   1.637   2.809   2.863  0.5588  0.3241 -0.1655
 3528SOL    HW122220   1.635   2.861   2.783  0.8181  1.4283  0.5315
 3528SOL    HW222221   1.595   2.730   2.830  0.6624 -0.1100  0.7376
 3529SOL     OW22222   3.349   3.821   6.189 -0.1875 -0.9281  0.0400
 3529SOL    HW122223   3.324   3.768   6.114  1.9295 -0.0250 -1.3009
 3529SOL    HW222224   3.288   3.893   6.172  0.8342 -0.3154 -1.0651
 3530SOL     OW22225   4.679   2.671  10.551 -0.2739  0.2969 -0.0077
 3530SOL    HW122226   4.709   2.676  10.642 -1.5276  0.8258  0.3741
 3530SOL    HW222227   4.612   2.738  10.563 -3.0401 -2.5641  0.5131
 3531SOL     OW22228   1.536   4.028   6.536  0.4085  0.2265 -0.5980
 3531SOL    HW122229   1.627   4.056   6.549  0.1359  1.1864 -0.7091
 3531SOL    HW222230   1.543   3.982   6.452 -1.5086  0.5637 -0.9392
 3532SOL     OW22231   0.893   3.834   4.250 -0.4182  0.5060 -0.1849
 3532SOL    HW122232   0.878   3.784   4.330  1.5139 -1.4087 -1.0276
 3532SOL    HW222233   0.913   3.918   4.292  0.8479  0.3245 -0.4132
 3533SOL     OW22234   3.729   3.905   6.902  0.2958  0.0173 -0.2222
 3533SOL    HW122235   3.686   3.916   6.817  3.4283  1.7527 -1.5611
 3533SOL    HW222236   3.702   3.983   6.950 -0.4569 -0.4984  0.2057
 3534SOL     OW22237   1.362   1.472  17.096 -0.3248 -0.0177  0.0020
 3534SOL    HW122238   1.272   1.464  17.065 -0.3751 -1.0806  0.4301
 3534SOL    HW222239   1.406   1.417  17.031  0.9635 -1.5989  2.2227
 3535SOL     OW22240   2.628   2.374   1.557  0.2466 -0.2852 -0.4654
 3535SOL    HW122241   2.538   2.352   1.582  0.6891 -0.2700  1.1391
 3535SOL    HW222242   2.666   2.286   1.557  0.1097 -0.3479  0.7498
 3536SOL     OW22243   2.972   4.244  16.885  0.1669 -0.8268  0.0668
 3536SOL    HW122244   2.967   4.321  16.828  0.6554  0.8572  2.2766
 3536SOL    HW222245   2.878   4.225  16.893  0.1254 -0.2645  0.8641
 3537SOL     OW22246   4.554   1.488   6.756  0.0328  0.1462  0.7612
 3537SOL    HW122247   4.614   1.504   6.684  0.7363 -0.9939  1.1073
 3537SOL    HW222248   4.591   1.539   6.828  0.9368 -0.7845  0.9372
 3538SOL     OW22249   2.937   2.702   6.293  0.2067 -0.4650  0.1653
 3538SOL    HW122250   3.018   2.670   6.332 -0.7634 -1.8782  1.0087
 3538SOL    HW222251   2.876   2.630   6.310  0.4456 -0.4135  1.2410
 3539SOL     OW22252   4.718   1.076   4.036 -0.0653 -0.2859  0.1340
 3539SOL    HW122253   0.071   1.093   4.009  0.4281  0.1264  2.0495
 3539SOL    HW222254   4.683   1.024   3.964  2.2953  0.3140 -1.4771
 3540SOL     OW22255   0.134   3.903  15.282  0.1041 -0.4243 -0.1485
 3540SOL    HW122256   0.099   3.821  15.250 -1.4257  0.1819 -0.0144
 3540SOL    HW222257   0.156   3.890  15.375 -1.6919  1.3726  0.5348
 3541SOL     OW22258   4.697   2.572  15.317  0.3281 -0.1364  0.5406
 3541SOL    HW122259   4.636   2.616  15.377  1.4101  1.1939  0.6661
 3541SOL    HW222260   4.705   2.485  15.354 -1.8920 -0.6047 -0.0433
 3542SOL     OW22261   4.165   1.582   5.824 -0.6397 -0.1317  0.1655
 3542SOL    HW122262   4.146   1.665   5.780  0.6416  0.0732  0.0101
 3542SOL    HW222263   4.228   1.616   5.888 -1.1826  0.1371  0.5603
 3543SOL     OW22264   4.436   4.524  11.450  0.6954 -0.7261 -0.9602
 3543SOL    HW122265   4.461   4.506  11.541 -0.3453 -2.0045 -0.9307
 3543SOL    HW222266   4.450   4.619  11.444  0.5528 -0.6604 -0.2333
 3544SOL     OW22267   0.374   2.720  15.177 -0.2545 -0.3686 -0.3027
 3544SOL    HW122268   0.413   2.703  15.091  2.3901  0.7308  0.6580
 3544SOL    HW222269   0.322   2.641  15.180  0.7929 -1.0711 -0.5988
 3545SOL     OW22270   1.074   0.421   2.702 -0.5423 -0.0957 -0.2356
 3545SOL    HW122271   1.062   0.493   2.640  0.0256  0.6549  0.5272
 3545SOL    HW222272   0.985   0.397   2.728 -0.1061  0.7941  2.0075
 3546SOL     OW22273   3.383   4.026  11.445 -0.0487  0.0740 -1.2822
 3546SOL    HW122274   3.432   4.106  11.465  0.4862 -1.0090  1.8794
 3546SOL    HW222275   3.431   3.990  11.371 -0.1680 -2.7293 -0.0023
 3547SOL     OW22276   2.409   2.312   6.517 -0.2992  0.1419  0.6706
 3547SOL    HW122277   2.407   2.233   6.463 -1.4451 -0.4916  1.6595
 3547SOL    HW222278   2.352   2.304   6.593 -1.2731  4.1510  0.4071
 3548SOL     OW22279   0.393   3.645  12.431  0.0378  0.3988 -0.3402
 3548SOL    HW122280   0.471   3.590  12.425  0.1941  0.4837  0.8531
 3548SOL    HW222281   0.388   3.656  12.336  1.3448 -0.7475 -0.5466
 3549SOL     OW22282   0.731   3.001  12.259 -0.4951 -0.0942  0.0568
 3549SOL    HW122283   0.655   2.968  12.210 -0.1379  0.0641 -0.6036
 3549SOL    HW222284   0.766   2.916  12.284  0.6744  0.1339 -0.8005
 3550SOL     OW22285   3.987   0.721   9.213 -0.9181  0.1298 -0.2667
 3550SOL    HW122286   3.906   0.719   9.262 -0.9105  0.2191 -0.2517
 3550SOL    HW222287   4.024   0.635   9.235 -2.2426 -0.1112  0.9892
 3551SOL     OW22288   3.212   1.026   1.593 -0.0789  0.0777  0.3034
 3551SOL    HW122289   3.164   1.109   1.593  1.5863  1.0255 -0.0228
 3551SOL    HW222290   3.263   1.038   1.673 -0.5603  1.5593  0.4010
 3552SOL     OW22291   1.320   1.907   1.354  0.0666 -0.2558  0.2194
 3552SOL    HW122292   1.350   1.907   1.445  0.9453  0.6897 -0.0837
 3552SOL    HW222293   1.243   1.849   1.360  1.1352 -1.5534  1.5161
 3553SOL     OW22294   2.034   3.401   0.171  0.0745  0.1075 -0.1935
 3553SOL    HW122295   2.072   3.339   0.234  0.9859  1.8502  0.9744
 3553SOL    HW222296   2.074   3.369   0.091  0.6124  1.3623 -0.4162
 3554SOL     OW22297   0.144   1.173   8.751 -0.1635  0.1454  0.6924
 3554SOL    HW122298   0.164   1.241   8.687  0.8800  0.4650  1.3575
 3554SOL    HW222299   0.208   1.205   8.815  1.7791 -1.7238 -0.3033
 3555SOL     OW22300   3.830   1.916   7.502 -0.0175 -0.6847  0.7007
 3555SOL    HW122301   3.754   1.893   7.556 -0.8158 -0.9783 -0.5540
 3555SOL    HW222302   3.913   1.875   7.527  0.8965  1.3903  1.0920
 3556SOL     OW22303   2.848   2.395   6.966  0.0743  0.2452  0.1837
 3556SOL    HW122304   2.840   2.332   6.894 -1.7646  1.1447 -0.4013
 3556SOL    HW222305   2.803   2.471   6.929  0.8075  0.7077  0.2333
 3557SOL     OW22306   4.296   4.285   8.551 -0.6320 -0.1256 -0.2362
 3557SOL    HW122307   4.288   4.208   8.493  0.4755 -0.7794  0.4794
 3557SOL    HW222308   4.385   4.320   8.546 -1.3748  1.7463 -0.3472
 3558SOL     OW22309   4.004   3.567  11.133  0.2826  0.8493 -0.2946
 3558SOL    HW122310   4.071   3.607  11.077 -0.0450 -0.4810 -1.6524
 3558SOL    HW222311   3.943   3.552  11.060  2.2280 -1.2979 -1.4579
 3559SOL     OW22312   1.094   0.499   8.848 -0.4866 -0.3235 -0.2111
 3559SOL    HW122313   1.173   0.545   8.821 -0.4700  0.6071  1.3679
 3559SOL    HW222314   1.038   0.568   8.886  0.5565 -0.0265  0.8017
 3560SOL     OW22315   3.158   0.573  13.087  0.3057  0.0202 -0.3493
 3560SOL    HW122316   3.192   0.516  13.018 -2.7454  2.2857 -3.7406
 3560SOL    HW222317   3.114   0.645  13.041  1.6992  0.6560 -0.6963
 3561SOL     OW22318   1.336   3.185   7.372  0.2744 -0.1036 -0.7740
 3561SOL    HW122319   1.411   3.222   7.325  0.2896 -0.3465 -0.9411
 3561SOL    HW222320   1.261   3.225   7.327 -1.1044 -2.8591 -0.9168
 3562SOL     OW22321   3.747   3.700   8.111 -0.6131  0.2884  0.4027
 3562SOL    HW122322   3.695   3.745   8.045  0.5051  0.3974 -0.4135
 3562SOL    HW222323   3.807   3.661   8.047 -0.3420 -0.0890  0.8858
 3563SOL     OW22324   2.175   2.219   4.224 -0.0134  0.0862  0.0833
 3563SOL    HW122325   2.220   2.231   4.141  0.8634  0.9841  0.6891
 3563SOL    HW222326   2.234   2.158   4.268 -4.2137 -2.3432  2.3855
 3564SOL     OW22327   3.700   2.802   1.044 -0.1451 -0.2121 -0.2798
 3564SOL    HW122328   3.785   2.770   1.014 -0.3634  1.2864 -2.4906
 3564SOL    HW222329   3.719   2.887   1.082 -2.1370 -1.9792  4.6108
 3565SOL     OW22330   0.286   1.807   8.316 -0.1109  0.1383  0.0882
 3565SOL    HW122331   0.282   1.822   8.221 -3.8049  1.2831  0.4329
 3565SOL    HW222332   0.192   1.794   8.327  0.3488 -1.2520  2.3027
 3566SOL     OW22333   2.818   3.590   3.750 -0.2666  0.3233 -0.2506
 3566SOL    HW122334   2.882   3.600   3.680 -1.9259  3.0139 -1.3961
 3566SOL    HW222335   2.780   3.677   3.742 -1.3783 -0.2253 -0.8988
 3567SOL     OW22336   3.652   1.705   0.027 -0.4979 -0.2938  0.0826
 3567SOL    HW122337   3.557   1.702   0.012 -0.4620 -0.6511 -0.0852
 3567SOL    HW222338   3.663   1.645   0.100 -0.0001  2.1368  1.9964
 3568SOL     OW22339   3.068   1.319   3.320 -0.2581 -0.7712 -0.9547
 3568SOL    HW122340   3.020   1.344   3.399  0.7738 -0.9794 -0.2693
 3568SOL    HW222341   3.151   1.302   3.364 -0.5192  0.9062  0.2245
 3569SOL     OW22342   4.534   4.110   0.866 -0.0460 -0.0834 -0.3154
 3569SOL    HW122343   4.560   4.147   0.950  0.7525 -0.2831 -0.4779
 3569SOL    HW222344   4.606   4.139   0.811  0.7609 -1.2686  0.1075
 3570SOL     OW22345   4.495   0.963   5.165 -0.0870 -0.6710  0.4284
 3570SOL    HW122346   4.455   0.923   5.242  2.4355  0.8090  2.4907
 3570SOL    HW222347   4.514   0.887   5.109 -2.7692 -1.4965  0.6659
 3571SOL     OW22348   3.521   0.981   6.520 -0.1131  0.0640  0.4486
 3571SOL    HW122349   3.533   1.035   6.598 -1.2427  0.6521  0.2049
 3571SOL    HW222350   3.597   1.019   6.476 -1.3746  2.0919  0.0637
 3572SOL     OW22351   3.151   1.485   1.607 -0.5777  0.6536 -0.3238
 3572SOL    HW122352   3.160   1.468   1.513  0.1233  0.9007 -0.3031
 3572SOL    HW222353   3.080   1.549   1.609 -0.3418  0.9235 -0.4202
 3573SOL     OW22354   2.723   0.457  10.045  0.0616 -0.1219  0.6363
 3573SOL    HW122355   2.643   0.481  10.092 -0.8097 -1.0041 -0.3897
 3573SOL    HW222356   2.772   0.539  10.039  0.1947 -0.2067  0.5610
 3574SOL     OW22357   0.023   1.734   3.851 -0.8575 -0.1344 -0.1284
 3574SOL    HW122358   4.704   1.709   3.924  0.5905 -0.2652  0.9507
 3574SOL    HW222359   0.087   1.793   3.892  1.6208 -0.8925 -2.8802
 3575SOL     OW22360   1.556   2.637   8.095  0.0769  0.0765  0.0898
 3575SOL    HW122361   1.549   2.661   8.003  0.1146  4.0011  1.1300
 3575SOL    HW222362   1.466   2.649   8.126  0.9273  2.3961  1.6482
 3576SOL     OW22363   0.824   3.655   8.123  0.1649 -0.5381  0.1402
 3576SOL    HW122364   0.920   3.650   8.121  0.1562 -0.2857 -1.2399
 3576SOL    HW222365   0.809   3.661   8.217 -1.0098 -0.0111 -0.0873
 3577SOL     OW22366   4.084   0.410   9.775  0.0609  0.1047  0.3332
 3577SOL    HW122367   4.023   0.336   9.770 -0.4640  0.5637 -0.0335
 3577SOL    HW222368   4.164   0.359   9.788 -0.1497 -0.1730  0.5321
 3578SOL     OW22369   3.521   0.864   8.514  0.1506  0.1747  0.0406
 3578SOL    HW122370   3.546   0.777   8.544 -1.4536 -0.1571  0.4310
 3578SOL    HW222371   3.448   0.844   8.455  0.0342 -0.0633  0.2658
 3579SOL     OW22372   4.553   3.244   0.170 -1.0050 -0.4368  0.2732
 3579SOL    HW122373   4.546   3.307   0.241 -2.0256 -0.0284 -0.1901
 3579SOL    HW222374   4.562   3.163   0.220 -0.2216 -0.0233  0.8073
 3580SOL     OW22375   1.612   4.309   6.735 -0.0436 -0.0104 -0.0374
 3580SOL    HW122376   1.655   4.331   6.818  0.2658 -2.7496  0.5208
 3580SOL    HW222377   1.617   4.379   6.669 -1.4603  0.0732 -0.0434
 3581SOL     OW22378   4.345   0.927  11.460 -0.1425  0.2009 -0.1096
 3581SOL    HW122379   4.363   0.855  11.400 -1.1231  0.1271 -0.3041
 3581SOL    HW222380   4.362   1.000  11.400 -2.3627  1.1254  0.4032
 3582SOL     OW22381   2.539   1.384   2.905  0.7800 -0.2530  0.2308
 3582SOL    HW122382   2.630   1.361   2.925  0.9370 -1.8197 -2.3840
 3582SOL    HW222383   2.543   1.458   2.844 -0.4848 -0.5815 -0.2492
 3583SOL     OW22384   1.714   1.399  10.710 -0.5804  0.3847  0.3473
 3583SOL    HW122385   1.638   1.354  10.745  1.2227 -3.1546 -0.3381
 3583SOL    HW222386   1.770   1.413  10.786  0.9437 -1.3757 -0.4570
 3584SOL     OW22387   0.409   1.453   4.765  0.2840 -0.2135 -0.5256
 3584SOL    HW122388   0.381   1.433   4.676 -3.0550 -1.8405  0.8918
 3584SOL    HW222389   0.323   1.467   4.807 -0.4300 -1.2778 -1.6491
 3585SOL     OW22390   4.146   4.356   9.872 -0.0056 -0.3519 -0.0541
 3585SOL    HW122391   4.100   4.439   9.886  1.2592  0.2545  0.4464
 3585SOL    HW222392   4.208   4.374   9.943 -0.1317  0.3351 -0.1107
 3586SOL     OW22393   2.164   1.229   3.735  0.2181 -0.6800  0.1939
 3586SOL    HW122394   2.223   1.299   3.766  1.0332 -1.9273  1.4421
 3586SOL    HW222395   2.131   1.269   3.654 -0.6709  2.2294  2.0051
 3587SOL     OW22396   3.276   1.343   0.193 -0.3662  0.2292  0.3675
 3587SOL    HW122397   3.227   1.268   0.227 -1.7318  1.2381  0.6409
 3587SOL    HW222398   3.223   1.412   0.234  0.9842  0.0824  2.3843
 3588SOL     OW22399   3.673   1.227   2.455 -0.8742 -0.2427  0.3412
 3588SOL    HW122400   3.615   1.167   2.502 -1.5854 -1.3945 -2.0020
 3588SOL    HW222401   3.661   1.195   2.366 -0.3194  2.7026 -0.7917
 3589SOL     OW22402   2.048   2.518   7.230  0.3582 -0.3050  0.0578
 3589SOL    HW122403   1.957   2.492   7.216 -0.4312  0.4747  3.8511
 3589SOL    HW222404   2.086   2.491   7.146  1.1594  0.7990  0.0687
 3590SOL     OW22405   4.484   2.433   2.271  0.2062  0.5340  0.5682
 3590SOL    HW122406   4.419   2.392   2.329 -1.9010  1.7654 -0.9204
 3590SOL    HW222407   4.455   2.523   2.284  2.5873  1.7825 -2.7901
 3591SOL     OW22408   4.473   2.459   5.239 -0.0626 -0.2892  0.5592
 3591SOL    HW122409   4.546   2.519   5.253 -0.1353 -0.2790  0.8815
 3591SOL    HW222410   4.421   2.498   5.168  0.2747  0.2420  0.6068
 3592SOL     OW22411   4.287   2.031   0.826  0.4448  0.4534  0.3381
 3592SOL    HW122412   4.351   1.960   0.827  1.1347  1.1038  2.8184
 3592SOL    HW222413   4.281   2.053   0.733 -0.0994  1.4619  0.6141
 3593SOL     OW22414   0.214   3.104   2.292  0.2998 -0.2143  0.1300
 3593SOL    HW122415   0.279   3.103   2.222  0.0642  4.5283 -0.1322
 3593SOL    HW222416   0.185   3.195   2.299  3.0419  0.7930 -1.3400
 3594SOL     OW22417   3.556   0.390  13.316 -0.3616  0.1700 -0.1873
 3594SOL    HW122418   3.603   0.321  13.269  0.1974 -0.7323  1.6903
 3594SOL    HW222419   3.464   0.376  13.291 -0.3757  0.7297 -0.4415
 3595SOL     OW22420   3.454   4.201   9.131 -0.6152 -0.1675  0.3442
 3595SOL    HW122421   3.416   4.280   9.094  0.9967 -0.9731 -2.9656
 3595SOL    HW222422   3.406   4.200   9.214 -2.6909 -0.1738 -0.8472
 3596SOL     OW22423   2.893   1.452   6.333  0.2392 -0.5353  0.3813
 3596SOL    HW122424   2.976   1.413   6.361  0.8207  0.2224 -0.2948
 3596SOL    HW222425   2.835   1.379   6.309  0.5515 -0.8711  0.6575
 3597SOL     OW22426   3.549   1.344   1.859 -0.0837  0.0373  0.1445
 3597SOL    HW122427   3.576   1.413   1.919  0.4807  0.1071 -0.1932
 3597SOL    HW222428   3.628   1.292   1.844  0.5436  1.1216 -0.2533
 3598SOL     OW22429   0.452   2.986  12.356 -0.1634  0.3820  0.8762
 3598SOL    HW122430   0.496   3.019  12.434  1.7429 -1.5555  0.6351
 3598SOL    HW222431   0.418   2.901  12.384 -1.6150  1.0529  1.1379
 3599SOL     OW22432   3.911   2.823   1.519  0.4318  0.6261 -0.0297
 3599SOL    HW122433   3.817   2.812   1.531  0.3621 -1.0541 -2.0845
 3599SOL    HW222434   3.918   2.910   1.479  1.8714  1.0332  1.1248
 3600SOL     OW22435   3.505   0.556   0.166 -0.0573 -0.3830 -0.1976
 3600SOL    HW122436   3.531   0.619   0.234  0.0772 -0.0587 -0.5488
 3600SOL    HW222437   3.441   0.613   0.122 -1.5313 -1.4658  0.5616
 3601SOL     OW22438   2.196   3.501   8.153 -0.9473 -0.1833 -0.5865
 3601SOL    HW122439   2.203   3.536   8.242 -0.1674 -0.2518 -0.6268
 3601SOL    HW222440   2.286   3.491   8.123 -0.6194 -1.2524  0.7429
 3602SOL     OW22441   1.448   4.532   4.147 -0.4721 -0.0276 -0.7494
 3602SOL    HW122442   1.465   4.438   4.140 -0.3325 -0.2421  2.3493
 3602SOL    HW222443   1.353   4.537   4.155 -0.3909 -1.0066  0.9653
 3603SOL     OW22444   2.446   2.380  11.742 -0.1701  0.0733  0.1037
 3603SOL    HW122445   2.471   2.427  11.822  1.5789 -1.7418  0.5978
 3603SOL    HW222446   2.361   2.345  11.769 -0.2932  0.3313  0.0490
 3604SOL     OW22447   3.073   2.299   5.237 -0.0142 -0.0888  0.1104
 3604SOL    HW122448   3.111   2.246   5.307  0.9204 -0.5203 -0.7275
 3604SOL    HW222449   3.082   2.387   5.275 -0.6448 -0.2125  0.5341
 3605SOL     OW22450   1.819   1.234   7.189 -0.5291  0.1611 -0.0420
 3605SOL    HW122451   1.837   1.160   7.247 -0.1391  0.0336 -0.3289
 3605SOL    HW222452   1.883   1.212   7.122  0.6682 -0.0033  1.1479
 3606SOL     OW22453   0.147   4.342   1.597  0.2849 -0.0785 -0.6153
 3606SOL    HW122454   0.139   4.359   1.503  0.2957 -3.0765 -1.1363
 3606SOL    HW222455   0.201   4.416   1.628 -0.2893  0.6533 -1.3769
 3607SOL     OW22456   1.631   4.172   0.705 -0.1204 -0.2140 -0.2611
 3607SOL    HW122457   1.625   4.103   0.639 -1.4227  1.0181 -1.4411
 3607SOL    HW222458   1.726   4.182   0.702 -0.1693  0.4976  0.5063
 3608SOL     OW22459   0.478   4.048   4.185  0.2940 -0.2301 -0.3380
 3608SOL    HW122460   0.387   4.026   4.204  0.2775  0.2111  0.1032
 3608SOL    HW222461   0.482   4.007   4.099 -3.2614 -0.8493 -0.2156
 3609SOL     OW22462   2.836   4.465   0.264 -0.1971 -0.0104 -0.2887
 3609SOL    HW122463   2.831   4.393   0.327  0.0592  1.7193  1.6804
 3609SOL    HW222464   2.746   4.463   0.231  0.0467  0.3730 -0.9782
 3610SOL     OW22465   1.372   0.937   8.629  0.6371 -0.2294  0.2543
 3610SOL    HW122466   1.298   0.885   8.660  0.3910 -1.9294 -3.2004
 3610SOL    HW222467   1.433   0.863   8.619  1.1455  0.3054 -0.6055
 3611SOL     OW22468   0.924   4.655   4.333  0.3449 -0.2381 -0.1305
 3611SOL    HW122469   0.931   4.722   4.265  1.5003 -1.5061 -1.2505
 3611SOL    HW222470   0.851   4.693   4.383  2.1481 -0.6829  2.8860
 3612SOL     OW22471   2.649   0.143   4.106 -0.1080  0.2712  0.2469
 3612SOL    HW122472   2.643   0.238   4.117  1.8194  0.4641 -0.4446
 3612SOL    HW222473   2.563   0.117   4.140  0.5614 -0.0358  1.7130
 3613SOL     OW22474   3.426   2.038   2.832 -0.4231  0.0537 -0.6571
 3613SOL    HW122475   3.510   2.085   2.840 -0.6175  1.0246 -4.5269
 3613SOL    HW222476   3.397   2.036   2.923 -0.4940  1.5656 -0.6432
 3614SOL     OW22477   2.171   2.192   5.291  0.2173 -0.7920 -0.7462
 3614SOL    HW122478   2.124   2.166   5.371 -0.1619 -0.7948 -0.9663
 3614SOL    HW222479   2.255   2.151   5.311 -1.0278 -1.9297  2.2574
 3615SOL     OW22480   2.321   0.771   9.185  0.2897 -0.1514  0.4541
 3615SOL    HW122481   2.335   0.703   9.251  3.4691 -2.1628 -2.2881
 3615SOL    HW222482   2.409   0.810   9.182 -0.3571  1.3489  0.6893
 3616SOL     OW22483   4.244   1.171  15.124 -0.3698 -0.1660  0.0221
 3616SOL    HW122484   4.280   1.118  15.194  2.0363 -1.0125 -1.8487
 3616SOL    HW222485   4.171   1.212  15.171  0.7907  0.8412  0.9314
 3617SOL     OW22486   1.632   3.522   7.294 -0.1549 -0.2859  0.4199
 3617SOL    HW122487   1.563   3.522   7.227  0.4740 -1.4402 -0.2088
 3617SOL    HW222488   1.707   3.561   7.250 -0.9828 -0.1609 -0.9154
 3618SOL     OW22489   0.777   3.178   1.337  0.1635  0.0553  0.1228
 3618SOL    HW122490   0.766   3.268   1.366 -2.8016 -0.3908  0.4085
 3618SOL    HW222491   0.868   3.182   1.309 -0.4204 -1.8471 -2.0498
 3619SOL     OW22492   1.735   3.251   2.544 -0.0051 -0.3440 -0.7339
 3619SOL    HW122493   1.714   3.273   2.454  0.0202 -0.2524 -0.7170
 3619SOL    HW222494   1.817   3.204   2.529  0.7277  0.4423  0.7353
 3620SOL     OW22495   0.849   4.563   3.298  0.2089  0.4036  0.7317
 3620SOL    HW122496   0.895   4.636   3.339  0.4341  1.3682 -1.2620
 3620SOL    HW222497   0.907   4.541   3.225  0.6089 -2.3870  1.8719
 3621SOL     OW22498   0.251   2.090   7.359 -0.2890 -0.4179 -0.0779
 3621SOL    HW122499   0.298   2.048   7.287 -0.0640 -2.5371  1.2728
 3621SOL    HW222500   0.164   2.090   7.320  0.4151 -1.5610 -1.6434
 3622SOL     OW22501   4.319   4.594  12.970 -0.0856 -0.0863  0.2590
 3622SOL    HW122502   4.339   4.529  13.037  1.2096  0.0694  0.0250
 3622SOL    HW222503   4.355   4.671  13.015 -1.6532 -1.0826  3.2023
 3623SOL     OW22504   2.593   1.543   2.672  0.5489  0.0430  0.1061
 3623SOL    HW122505   2.511   1.564   2.627  0.1254 -2.0361 -0.0962
 3623SOL    HW222506   2.629   1.475   2.614 -0.3088  2.1359 -2.8450
 3624SOL     OW22507   2.667   3.863   4.314  0.0705  0.7526  0.2031
 3624SOL    HW122508   2.749   3.885   4.270 -0.3309  0.0255 -0.9344
 3624SOL    HW222509   2.609   3.885   4.240  0.7185 -0.7993 -0.7689
 3625SOL     OW22510   1.035   3.382  17.534  0.6438 -0.3478  0.4528
 3625SOL    HW122511   0.952   3.419  17.503  1.2169  0.9162  0.4158
 3625SOL    HW222512   1.100   3.439  17.493  0.2227  0.5867  1.0827
 3626SOL     OW22513   3.926   4.521   5.478  0.2539  0.2108  0.0996
 3626SOL    HW122514   3.898   4.439   5.437  0.4730  0.6065 -0.8473
 3626SOL    HW222515   3.907   4.574   5.400  0.5972  0.1348 -0.0334
 3627SOL     OW22516   2.093   4.254   6.451  0.1329  0.2514 -0.3214
 3627SOL    HW122517   2.152   4.184   6.422  0.6568  0.7818 -0.5318
 3627SOL    HW222518   2.010   4.213   6.425 -0.7382  0.9206  1.3825
 3628SOL     OW22519   3.499   2.432  10.668  0.5240  0.0210 -0.0550
 3628SOL    HW122520   3.585   2.393  10.650  0.6593  0.1183  0.3788
 3628SOL    HW222521   3.495   2.504  10.605  1.1614  0.0950 -0.0067
 3629SOL     OW22522   4.107   3.366  15.320  0.2882  0.2551  0.0512
 3629SOL    HW122523   4.035   3.387  15.379 -0.5877  3.2971 -2.0915
 3629SOL    HW222524   4.089   3.273  15.311 -0.4969  0.7681 -3.8720
 3630SOL     OW22525   3.542   1.639   5.976 -0.0044  0.0651  0.6862
 3630SOL    HW122526   3.491   1.562   6.003  1.1301 -1.4610 -1.5612
 3630SOL    HW222527   3.612   1.639   6.042  2.9906  2.0897 -2.5179
 3631SOL     OW22528   4.681   0.517   0.243  0.2674  0.5837  0.2396
 3631SOL    HW122529   4.716   0.557   0.163  1.6303 -0.6618  0.2080
 3631SOL    HW222530   4.733   0.575   0.298  2.2637  0.3101 -1.3333
 3632SOL     OW22531   3.677   3.248   5.221 -0.3205  0.2477  0.1500
 3632SOL    HW122532   3.695   3.216   5.309  0.1013  1.0798  0.3670
 3632SOL    HW222533   3.767   3.253   5.190 -0.2261  1.7959  0.6546
 3633SOL     OW22534   3.308   1.976   5.566 -0.3526  0.5845 -0.0784
 3633SOL    HW122535   3.395   1.995   5.529 -1.8285  0.4529 -3.5975
 3633SOL    HW222536   3.333   1.943   5.652 -3.2354  0.6450  0.7751
 3634SOL     OW22537   1.546   3.062   5.252 -0.3890 -0.4225 -0.0829
 3634SOL    HW122538   1.465   3.091   5.294  0.2867 -0.6130  1.3648
 3634SOL    HW222539   1.599   3.029   5.325 -0.5787  2.3849  1.3313
 3635SOL     OW22540   0.194   0.124  12.760 -0.2332  0.2224  0.2191
 3635SOL    HW122541   0.214   0.086  12.674 -2.1871  1.4949 -0.8118
 3635SOL    HW222542   0.169   0.211  12.726  0.2150 -0.2846 -1.4092
 3636SOL     OW22543   2.894   2.412   4.526 -0.7936  0.4058 -0.3552
 3636SOL    HW122544   2.897   2.484   4.463 -0.4298 -0.2071 -1.0293
 3636SOL    HW222545   2.802   2.414   4.551 -0.7145 -0.7055  0.0502
 3637SOL     OW22546   0.194   2.634   8.795 -0.3276  0.4126 -0.0027
 3637SOL    HW122547   0.231   2.722   8.800  1.1089 -0.0487 -2.5966
 3637SOL    HW222548   0.268   2.591   8.752 -0.7448  0.1254 -0.4241
 3638SOL     OW22549   2.052   3.209   4.819 -0.7601  0.5202  0.0210
 3638SOL    HW122550   2.099   3.273   4.766  1.0378 -1.4992 -0.8485
 3638SOL    HW222551   2.080   3.238   4.907  0.5268 -4.2343  1.1816
 3639SOL     OW22552   1.883   0.494   4.530 -0.5073  0.8450  0.2047
 3639SOL    HW122553   1.855   0.548   4.603  3.0188  1.8625  0.7710
 3639SOL    HW222554   1.887   0.409   4.573 -1.2300  0.0234 -1.3279
 3640SOL     OW22555   3.958   2.959   3.277 -0.0916 -0.3166  0.2143
 3640SOL    HW122556   4.020   3.004   3.335 -0.1933 -0.7723  0.6718
 3640SOL    HW222557   3.873   3.002   3.270 -0.1879 -0.7279 -1.1310
 3641SOL     OW22558   3.026   1.169  10.742 -0.3944  0.6518  0.3842
 3641SOL    HW122559   3.094   1.199  10.801 -0.5805 -1.8013  1.8390
 3641SOL    HW222560   2.995   1.246  10.695  0.4370  0.1094 -1.0475
 3642SOL     OW22561   2.176   0.821   5.492 -0.1031 -0.2364 -0.4449
 3642SOL    HW122562   2.215   0.781   5.414  0.9067  0.1501 -0.1368
 3642SOL    HW222563   2.185   0.751   5.556 -0.7552  0.4669  0.4330
 3643SOL     OW22564   2.827   2.816   4.159  0.5266  0.6356 -0.3103
 3643SOL    HW122565   2.829   2.812   4.064  0.2052 -2.0266 -0.2028
 3643SOL    HW222566   2.900   2.879   4.161 -1.2569  2.6824 -0.3886
 3644SOL     OW22567   3.114   0.382   2.122  0.2826 -0.6423  0.2234
 3644SOL    HW122568   3.096   0.438   2.198  1.1707 -1.5246  1.0818
 3644SOL    HW222569   3.183   0.424   2.070  0.7707 -0.7596  0.7819
 3645SOL     OW22570   0.252   2.850   6.928 -0.1609  0.0538 -0.2564
 3645SOL    HW122571   0.328   2.908   6.938  1.0005 -1.2914 -1.1416
 3645SOL    HW222572   0.227   2.839   6.836  0.4235  0.3395 -0.4535
 3646SOL     OW22573   2.353   2.224  14.046  0.4398  0.1515 -0.6013
 3646SOL    HW122574   2.418   2.153  14.044  0.5435  0.2049  1.0856
 3646SOL    HW222575   2.415   2.296  14.029  1.3338  0.0910  2.4186
 3647SOL     OW22576   0.186   4.394  15.394 -0.1572  0.1842 -0.0221
 3647SOL    HW122577   0.277   4.377  15.371  0.2728  1.1522  0.9758
 3647SOL    HW222578   0.144   4.336  15.330  0.2046  0.9530 -0.9592
 3648SOL     OW22579   0.608   1.548  12.417  0.2500  0.6589 -0.4005
 3648SOL    HW122580   0.645   1.619  12.364 -0.4178  0.8853 -0.5614
 3648SOL    HW222581   0.524   1.571  12.457  1.0953  1.1766  1.1098
 3649SOL     OW22582   1.080   1.152  17.331  0.1099 -0.3539 -0.0007
 3649SOL    HW122583   1.110   1.093  17.263  0.1523 -0.4359  0.0885
 3649SOL    HW222584   1.156   1.209  17.341 -0.1184  0.1069 -0.8576
 3650SOL     OW22585   4.374   4.479  14.421 -0.1262 -0.3715  0.2521
 3650SOL    HW122586   4.322   4.484  14.340  1.5952 -1.1030 -0.9017
 3650SOL    HW222587   4.379   4.572  14.445  1.5917 -0.7108  1.1786
 3651SOL     OW22588   2.267   2.303   2.116 -0.1258 -0.5784 -0.2249
 3651SOL    HW122589   2.334   2.254   2.163  1.7708  1.9360 -0.3311
 3651SOL    HW222590   2.195   2.294   2.179 -0.3128  0.3139 -0.3220
 3652SOL     OW22591   2.059   2.814   9.453  0.0166 -0.5572  0.2058
 3652SOL    HW122592   2.090   2.859   9.374  2.3455 -1.3810  0.6662
 3652SOL    HW222593   2.107   2.866   9.517 -0.6331  0.1417  0.1297
 3653SOL     OW22594   3.116   0.866  16.620  0.4018 -0.1302 -0.4469
 3653SOL    HW122595   3.165   0.784  16.624  1.1832  0.3294 -0.6140
 3653SOL    HW222596   3.041   0.846  16.676 -0.0952  1.4423 -0.5534
 3654SOL     OW22597   1.003   0.441   8.599 -0.3227  0.0375  0.3120
 3654SOL    HW122598   1.026   0.455   8.691 -3.0656  0.0910  0.9863
 3654SOL    HW222599   0.911   0.466   8.604 -0.2043  0.1983  1.5717
 3655SOL     OW22600   1.957   3.243   3.749  0.4734 -0.4870 -0.5385
 3655SOL    HW122601   1.949   3.338   3.741  0.8008 -0.2901  1.6214
 3655SOL    HW222602   2.028   3.232   3.812  0.5036 -0.6690 -0.6033
 3656SOL     OW22603   0.390   3.207   6.768 -0.3639 -0.5777 -0.6765
 3656SOL    HW122604   0.410   3.291   6.809 -1.5182 -1.3944  1.5604
 3656SOL    HW222605   0.376   3.232   6.676  0.1959 -0.3533 -0.6970
 3657SOL     OW22606   0.788   3.446   1.410 -0.3692 -0.3569  0.1272
 3657SOL    HW122607   0.757   3.524   1.456  0.1014 -0.7192  1.0546
 3657SOL    HW222608   0.874   3.449   1.453 -0.0909  0.0123 -0.4556
 3658SOL     OW22609   3.856   3.438   6.785  0.3704 -0.0945 -0.0813
 3658SOL    HW122610   3.941   3.408   6.752 -0.2246 -0.5410 -1.2095
 3658SOL    HW222611   3.864   3.532   6.768 -3.0784  0.0795 -0.7185
 3659SOL     OW22612   1.983   3.822  15.674  0.1022  0.1766 -0.1681
 3659SOL    HW122613   1.938   3.739  15.684  2.4754 -0.9071  1.3056
 3659SOL    HW222614   1.959   3.851  15.586 -0.4571  1.5919  0.4465
 3660SOL     OW22615   2.377   1.580   6.894  0.1395 -0.0817 -0.0657
 3660SOL    HW122616   2.330   1.661   6.870 -0.8263 -0.5819  0.1270
 3660SOL    HW222617   2.417   1.606   6.976  0.2050 -0.6416  0.0745
 3661SOL     OW22618   2.029   0.420   2.931  0.2617 -0.4556 -0.6484
 3661SOL    HW122619   2.044   0.497   2.985  1.0952 -0.3407 -1.0575
 3661SOL    HW222620   2.082   0.348   2.965  0.3830 -0.3755 -0.6685
 3662SOL     OW22621   1.909   2.617   2.610  0.8053 -0.6644 -0.3666
 3662SOL    HW122622   1.924   2.526   2.633  1.5823 -0.3651  0.3572
 3662SOL    HW222623   1.854   2.644   2.683  1.9143 -2.8336  1.2615
 3663SOL     OW22624   4.605   4.164   2.372 -0.1203 -0.0209  0.2470
 3663SOL    HW122625   4.677   4.199   2.425  0.5630  0.0575 -0.7213
 3663SOL    HW222626   4.634   4.182   2.283 -0.6161 -0.6544 -0.0398
 3664SOL     OW22627   1.520   4.215   2.740  0.4238 -0.1322 -0.7095
 3664SOL    HW122628   1.564   4.132   2.757 -0.1978 -0.0324  1.4398
 3664SOL    HW222629   1.599   4.268   2.731 -0.4469  1.2720 -0.1527
 3665SOL     OW22630   2.721   0.052   2.492  0.8501  0.0968 -0.0464
 3665SOL    HW122631   2.751   0.108   2.420 -2.1031  0.2215 -1.1853
 3665SOL    HW222632   2.807   0.019   2.517  0.5888 -0.4075  0.1892
 3666SOL     OW22633   2.072   2.532   3.183 -0.1475 -0.4357 -0.4424
 3666SOL    HW122634   2.157   2.563   3.214 -0.7205 -0.4998  1.2083
 3666SOL    HW222635   2.027   2.615   3.167 -0.8149 -0.8341 -0.6383
 3667SOL     OW22636   1.402   1.141   3.093 -0.0076 -0.4937 -0.0347
 3667SOL    HW122637   1.357   1.119   3.012 -0.3424  1.8652 -0.4937
 3667SOL    HW222638   1.440   1.227   3.074  0.0911 -0.5524 -0.1042
 3668SOL     OW22639   1.627   4.597   3.209 -0.2725 -0.0231 -0.2501
 3668SOL    HW122640   1.552   4.551   3.174 -0.3302 -0.0595 -0.0790
 3668SOL    HW222641   1.690   4.584   3.138 -1.8859 -1.1824 -1.4665
 3669SOL     OW22642   0.928   4.253   9.781 -0.1803  0.6900  0.1719
 3669SOL    HW122643   1.012   4.270   9.824  1.0222 -0.8049 -1.5913
 3669SOL    HW222644   0.952   4.202   9.704  0.3164  3.1887 -1.3275
 3670SOL     OW22645   1.120   3.560   2.137  0.7619 -0.4134 -0.0681
 3670SOL    HW122646   1.087   3.480   2.096  1.3277  0.0017 -1.3295
 3670SOL    HW222647   1.058   3.563   2.210 -0.8979  0.8625 -1.5719
 3671SOL     OW22648   2.011   1.934   4.252 -0.4087  0.0967 -0.3869
 3671SOL    HW122649   2.090   1.896   4.214 -1.4209  1.4402 -3.8239
 3671SOL    HW222650   1.953   1.943   4.176 -0.9231  0.2016  0.0163
 3672SOL     OW22651   2.522   4.292  12.799 -0.6363  0.1683  0.1723
 3672SOL    HW122652   2.434   4.318  12.825 -1.0525 -3.2291  2.1464
 3672SOL    HW222653   2.521   4.196  12.801  0.1591  0.2180  3.2588
 3673SOL     OW22654   2.963   4.505  13.691 -0.3930  0.0205 -0.2508
 3673SOL    HW122655   2.889   4.562  13.712 -0.2482  0.9057 -2.1370
 3673SOL    HW222656   2.979   4.450  13.767  3.6765  0.1952 -0.9941
 3674SOL     OW22657   1.827   0.977   7.013 -0.0218  0.1025 -0.8138
 3674SOL    HW122658   1.824   0.950   6.921  1.0018  1.2314 -1.1697
 3674SOL    HW222659   1.902   0.922   7.036  0.1605  0.0912 -1.4414
 3675SOL     OW22660   4.133   0.385  10.920  0.3131  0.3338 -0.1853
 3675SOL    HW122661   4.107   0.469  10.883 -1.7027 -0.8786 -1.5650
 3675SOL    HW222662   4.058   0.359  10.974  2.3123  0.1319  2.5004
 3676SOL     OW22663   3.707   3.995  12.802 -0.3554 -0.3559 -0.4876
 3676SOL    HW122664   3.631   3.977  12.746  1.2602  0.1488 -2.8264
 3676SOL    HW222665   3.729   3.905  12.826  2.3059 -0.6966 -4.3322
 3677SOL     OW22666   2.040   1.145   6.377  0.8984 -0.0648  0.6074
 3677SOL    HW122667   2.134   1.154   6.385  0.7532 -0.0556  2.1797
 3677SOL    HW222668   2.027   1.050   6.381 -2.2040  0.2724 -1.2468
 3678SOL     OW22669   3.414   0.172   7.866 -0.5592 -0.6609  0.1275
 3678SOL    HW122670   3.437   0.172   7.959 -0.0196 -0.5424 -0.0071
 3678SOL    HW222671   3.497   0.148   7.826 -0.7662 -0.4341 -0.4358
 3679SOL     OW22672   4.507   1.689  12.757  0.2455 -0.4247 -0.0075
 3679SOL    HW122673   4.489   1.595  12.769  0.9773 -0.6178 -0.4195
 3679SOL    HW222674   4.437   1.721  12.700  0.0750 -0.3794  0.2305
 3680SOL     OW22675   2.968   2.280  15.345 -0.1993 -0.4053 -0.7294
 3680SOL    HW122676   2.921   2.313  15.269 -2.8771  0.1544  1.1731
 3680SOL    HW222677   2.997   2.192  15.320  0.1101 -0.3075 -0.7205
 3681SOL     OW22678   0.220   3.252  10.762 -0.5599 -0.1429  0.1427
 3681SOL    HW122679   0.288   3.192  10.794 -0.0237  0.0148 -0.6878
 3681SOL    HW222680   0.194   3.201  10.685 -1.1656  2.2871 -1.2381
 3682SOL     OW22681   3.016   3.082   7.221 -0.4237  0.4751 -0.6681
 3682SOL    HW122682   3.063   3.053   7.300 -1.5090 -1.2587 -0.6572
 3682SOL    HW222683   2.925   3.086   7.251  0.1322 -1.1952  1.2983
 3683SOL     OW22684   4.710   0.430   7.648  0.1209 -0.1975 -0.0619
 3683SOL    HW122685   4.688   0.478   7.728 -1.1389  1.1000 -1.2084
 3683SOL    HW222686   0.033   0.361   7.676  0.4691 -0.7653 -2.2273
 3684SOL     OW22687   2.616   4.281  16.288  0.1392  0.2477  0.1234
 3684SOL    HW122688   2.670   4.316  16.218  0.5890  0.5181  0.6027
 3684SOL    HW222689   2.542   4.342  16.284 -1.8853 -2.2854 -0.6575
 3685SOL     OW22690   3.323   4.417   7.036  0.0438 -0.1516  0.2924
 3685SOL    HW122691   3.350   4.326   7.048  2.0125  0.3387 -0.3872
 3685SOL    HW222692   3.230   4.400   7.016  0.9099 -1.0912 -2.9974
 3686SOL     OW22693   0.667   2.768   5.597  0.0042 -0.0322 -0.2976
 3686SOL    HW122694   0.713   2.851   5.587 -0.0657  0.2150  1.4683
 3686SOL    HW222695   0.623   2.752   5.514  0.2452 -2.2092 -0.0126
 3687SOL     OW22696   0.419   0.336  10.440 -0.0170  0.2480  0.2696
 3687SOL    HW122697   0.378   0.274  10.379 -0.5295  0.9357 -0.0796
 3687SOL    HW222698   0.477   0.384  10.380  1.2452 -1.0960  0.3856
 3688SOL     OW22699   4.719   0.831   0.952 -0.0059  0.5053  0.0575
 3688SOL    HW122700   0.033   0.772   1.007  0.8207  1.3069  0.1607
 3688SOL    HW222701   4.631   0.818   0.987 -0.3068  0.3621 -0.7484
 3689SOL     OW22702   3.701   0.640   6.936 -1.0150  0.0877 -0.0903
 3689SOL    HW122703   3.624   0.668   6.887 -1.4366 -0.5118  0.2368
 3689SOL    HW222704   3.669   0.639   7.026  4.0937  0.0476  1.7447
 3690SOL     OW22705   1.053   4.390   3.736  0.2653  0.4291 -0.1527
 3690SOL    HW122706   1.135   4.394   3.785  0.6003 -1.6036 -0.5409
 3690SOL    HW222707   1.039   4.296   3.721 -1.7910  0.3877  2.1132
 3691SOL     OW22708   1.055   4.445   0.026  0.5991 -0.2169 -0.6558
 3691SOL    HW122709   1.002   4.470   0.102  3.4527 -0.0610  1.2783
 3691SOL    HW222710   1.126   4.507   0.044  0.1416  0.2224 -0.3712
 3692SOL     OW22711   0.915   0.687  14.713 -0.6097 -0.0658 -0.1975
 3692SOL    HW122712   0.984   0.647  14.766  2.7927  2.2311 -2.8648
 3692SOL    HW222713   0.848   0.620  14.711 -1.0707  0.3242  2.6576
 3693SOL     OW22714   1.000   2.204   4.586  0.3376 -0.4937  0.5511
 3693SOL    HW122715   0.988   2.122   4.538 -2.4736  1.8836 -2.7805
 3693SOL    HW222716   1.008   2.178   4.678  0.1380 -0.3254  0.6178
 3694SOL     OW22717   0.980   4.729   8.859  0.7492 -0.0262  0.2072
 3694SOL    HW122718   0.921   0.042   8.803  1.7670  3.2123  2.0071
 3694SOL    HW222719   0.996   4.648   8.812 -1.2262  0.7613 -1.8354
 3695SOL     OW22720   3.724   1.679   6.160 -0.2232  0.7421 -0.1551
 3695SOL    HW122721   3.687   1.678   6.249  2.0132  2.9768  0.7864
 3695SOL    HW222722   3.785   1.608   6.177 -0.3557  0.4908 -0.7402
 3696SOL     OW22723   0.650   2.476   8.935  0.1177 -0.1032  0.1010
 3696SOL    HW122724   0.651   2.464   9.030  0.1298  0.3773  0.1608
 3696SOL    HW222725   0.642   2.385   8.906 -2.1861  0.3769 -0.8258
 3697SOL     OW22726   2.576   4.251   3.198  0.1961  0.0705  0.0576
 3697SOL    HW122727   2.490   4.271   3.162 -0.5927 -1.1739  1.2747
 3697SOL    HW222728   2.591   4.329   3.252 -1.8101 -0.6566  1.6493
 3698SOL     OW22729   3.986   1.297   8.874  0.0364 -0.0565 -0.4069
 3698SOL    HW122730   3.894   1.269   8.874  0.2215 -0.6677  0.7682
 3698SOL    HW222731   4.041   1.219   8.877  2.5704  1.7376 -0.6220
 3699SOL     OW22732   1.195   1.254   9.053 -0.0674  0.1991  0.3271
 3699SOL    HW122733   1.107   1.282   9.027  0.2833  2.5182  1.5843
 3699SOL    HW222734   1.247   1.261   8.973 -1.3644 -1.0198 -0.6178
 3700SOL     OW22735   2.150   1.131   7.235  0.3420 -0.1167 -0.2821
 3700SOL    HW122736   2.124   1.170   7.151  0.7541 -2.2425 -1.3873
 3700SOL    HW222737   2.187   1.048   7.205  0.5452 -0.0713 -0.1543
 3701SOL     OW22738   0.507   4.370   3.911 -0.1665 -0.9018  0.1698
 3701SOL    HW122739   0.550   4.320   3.981 -0.4731 -1.6037 -0.1435
 3701SOL    HW222740   0.421   4.393   3.946 -0.5364 -1.4198 -0.4116
 3702SOL     OW22741   2.286   4.015  11.283  0.1885  0.4205  0.1037
 3702SOL    HW122742   2.210   3.959  11.299  0.4887  0.7288  2.5947
 3702SOL    HW222743   2.333   3.969  11.213 -1.1960  0.7204 -1.0304
 3703SOL     OW22744   3.571   2.991   2.173  0.2067 -0.0862  0.4067
 3703SOL    HW122745   3.499   3.030   2.224 -0.0449  0.1813 -0.1540
 3703SOL    HW222746   3.617   3.068   2.141 -1.0489 -0.4328 -2.1931
 3704SOL     OW22747   1.838   1.253   3.290 -1.1606  0.1428  0.0429
 3704SOL    HW122748   1.920   1.237   3.243 -1.7176 -0.9663 -0.5685
 3704SOL    HW222749   1.803   1.164   3.280 -0.2419 -0.5038  2.4026
 3705SOL     OW22750   0.054   2.175   2.757  0.8652  0.4560 -0.3687
 3705SOL    HW122751   0.107   2.096   2.746  1.6797  0.7693  1.3045
 3705SOL    HW222752   0.022   2.157   2.845  0.4570  2.6112 -0.0721
 3706SOL     OW22753   0.001   3.501   5.284 -0.1402 -0.1488 -0.1568
 3706SOL    HW122754   4.659   3.447   5.289  1.2651 -2.3187 -0.9043
 3706SOL    HW222755   0.011   3.513   5.189 -0.9477 -1.5036 -0.4195
 3707SOL     OW22756   0.359   1.688   1.677 -0.0078 -0.3591 -0.4019
 3707SOL    HW122757   0.317   1.606   1.653 -0.1937 -0.6042  0.7212
 3707SOL    HW222758   0.314   1.749   1.619 -0.8084 -0.6157 -0.0548
 3708SOL     OW22759   0.838   0.115  12.756  1.1059 -0.5254  0.4006
 3708SOL    HW122760   0.929   0.143  12.752  0.9063  0.1452  0.4564
 3708SOL    HW222761   0.825   0.154  12.843 -2.4704 -2.5635  0.7734
 3709SOL     OW22762   2.236   3.931  12.714 -0.1378  0.1072  0.0822
 3709SOL    HW122763   2.196   3.989  12.649 -0.9427 -1.3246 -0.6994
 3709SOL    HW222764   2.195   3.976  12.788 -1.5870  0.2803 -0.8282
 3710SOL     OW22765   1.776   2.939   6.040  0.5400 -0.2109 -0.7875
 3710SOL    HW122766   1.762   2.957   5.947 -1.5270  0.7409 -0.2712
 3710SOL    HW222767   1.692   2.964   6.078 -0.4520 -0.2441 -2.9682
 3711SOL     OW22768   4.726   2.650   7.743  0.0399  0.8976 -1.1507
 3711SOL    HW122769   0.024   2.713   7.680  0.9640 -1.2231 -2.7872
 3711SOL    HW222770   4.705   2.581   7.680  1.9743  0.7086 -1.5890
 3712SOL     OW22771   0.199   3.810  12.172  0.3439  0.4654 -0.4920
 3712SOL    HW122772   0.119   3.758  12.168  2.1019 -2.2190 -0.6739
 3712SOL    HW222773   0.179   3.856  12.254  1.6278  0.2630 -0.0562
 3713SOL     OW22774   2.188   2.050   5.638 -0.3271  0.1205 -0.4659
 3713SOL    HW122775   2.259   2.062   5.575 -0.9683 -3.5724 -1.9244
 3713SOL    HW222776   2.171   1.956   5.631 -0.7872  0.1485  0.2957
 3714SOL     OW22777   1.474   2.699   5.610  0.2993 -0.3416 -0.5343
 3714SOL    HW122778   1.472   2.604   5.615 -1.9812 -0.4913 -4.1011
 3714SOL    HW222779   1.562   2.724   5.637 -0.2190  0.3403  0.5201
 3715SOL     OW22780   4.359   0.943  13.179 -0.1481  0.1954  0.7719
 3715SOL    HW122781   4.368   0.849  13.194  1.6017 -0.0119 -1.4967
 3715SOL    HW222782   4.275   0.960  13.220 -0.9088 -2.8914  0.4809
 3716SOL     OW22783   3.675   1.119  13.761  0.4460  0.1956 -0.4559
 3716SOL    HW122784   3.645   1.201  13.800  1.5912 -0.5334  1.9120
 3716SOL    HW222785   3.762   1.145  13.730  0.4357 -0.4360 -1.0231
 3717SOL     OW22786   3.734   3.244   3.975  0.1304 -0.4969 -0.4892
 3717SOL    HW122787   3.760   3.324   3.930  1.7121 -1.9379 -2.1508
 3717SOL    HW222788   3.764   3.177   3.913  0.3300  0.9548 -1.9494
 3718SOL     OW22789   4.212   0.569   1.083 -0.1667  0.1582 -0.1190
 3718SOL    HW122790   4.203   0.498   1.147 -1.0767 -0.4311 -0.9012
 3718SOL    HW222791   4.257   0.525   1.011  1.9668  1.6655  0.2924
 3719SOL     OW22792   1.536   1.257   9.544  0.4757 -0.0456  0.0995
 3719SOL    HW122793   1.617   1.254   9.595  0.1324  0.7941  0.7106
 3719SOL    HW222794   1.474   1.257   9.618  0.2701  1.7409 -0.0837
 3720SOL     OW22795   4.719   3.298   4.325 -0.5008  0.1931  0.2716
 3720SOL    HW122796   0.073   3.295   4.296 -0.9337 -1.3051 -0.9647
 3720SOL    HW222797   4.725   3.261   4.413  0.3918 -0.4103 -0.0379
 3721SOL     OW22798   3.579   4.735   2.153 -0.0488 -0.4296  0.5620
 3721SOL    HW122799   3.532   0.027   2.075 -0.6276  0.0501  1.0942
 3721SOL    HW222800   3.665   4.721   2.113  1.0653  1.8163  2.1905
 3722SOL     OW22801   2.644   0.236   9.626 -0.1847  0.1996 -0.2381
 3722SOL    HW122802   2.630   0.328   9.651 -0.9817  0.0846 -0.2569
 3722SOL    HW222803   2.588   0.183   9.683  1.0125 -0.1037  0.6459
 3723SOL     OW22804   3.738   2.927   7.862 -0.4589  0.2475 -0.6375
 3723SOL    HW122805   3.802   2.922   7.933  0.7114 -1.7446 -1.8405
 3723SOL    HW222806   3.664   2.875   7.895 -1.2853  2.2190  0.6584
 3724SOL     OW22807   1.530   1.796  14.465 -0.4168 -0.4415 -0.6831
 3724SOL    HW122808   1.587   1.866  14.432  1.4701 -2.5326 -1.8067
 3724SOL    HW222809   1.576   1.769  14.544 -3.6476  0.5784  1.5700
 3725SOL     OW22810   2.850   0.887   0.501  0.0678  0.3713  0.3670
 3725SOL    HW122811   2.827   0.913   0.590 -1.5482  0.2727 -0.0215
 3725SOL    HW222812   2.766   0.875   0.457  0.0402 -2.3861  1.1957
 3726SOL     OW22813   4.066   0.957  10.946 -0.4233  0.2885  0.6329
 3726SOL    HW122814   4.133   1.025  10.936  3.4230 -3.4540  0.6364
 3726SOL    HW222815   4.038   0.946  10.855 -0.7453  1.3989  0.6043
 3727SOL     OW22816   4.351   2.382  15.844  0.8512  0.0325  0.2966
 3727SOL    HW122817   4.320   2.294  15.824  1.7686 -0.0117 -0.8646
 3727SOL    HW222818   4.404   2.410  15.770  2.1663 -0.3480  1.0920
 3728SOL     OW22819   3.532   3.292  16.879 -0.0363  0.0050 -0.2148
 3728SOL    HW122820   3.501   3.295  16.789 -2.0028 -1.9390  0.3982
 3728SOL    HW222821   3.580   3.210  16.885  0.4336  0.2942  0.0106
 3729SOL     OW22822   1.540   3.111  11.531  0.6209  0.2879  0.5158
 3729SOL    HW122823   1.524   3.183  11.470 -0.5010 -0.3648  0.0219
 3729SOL    HW222824   1.602   3.148  11.593 -0.0373 -0.2952  1.5213
 3730SOL     OW22825   1.998   2.309   0.895 -0.1262  0.3848  0.0505
 3730SOL    HW122826   1.984   2.351   0.810  0.1572 -1.5794 -0.9701
 3730SOL    HW222827   2.009   2.384   0.953  1.1863  0.3779 -0.1816
 3731SOL     OW22828   3.000   0.770  12.948 -0.7055  0.8725 -0.0057
 3731SOL    HW122829   2.968   0.769  13.038  2.5264 -3.2036  1.1223
 3731SOL    HW222830   2.919   0.792  12.902  0.1074  0.1663 -1.7993
 3732SOL     OW22831   3.112   1.133  17.286 -0.5276  0.6935  0.1481
 3732SOL    HW122832   3.088   1.047  17.250 -1.4933  0.4889  1.2624
 3732SOL    HW222833   3.101   1.114  17.379 -0.8284 -2.7843 -0.5884
 3733SOL     OW22834   3.176   1.504   3.977  0.4235  0.0249 -0.5247
 3733SOL    HW122835   3.197   1.429   3.921  0.0806 -0.3757 -0.1124
 3733SOL    HW222836   3.253   1.555   3.951  0.6146  0.0970  0.1784
 3734SOL     OW22837   0.685   0.885   5.498  0.4142 -0.2088 -0.3475
 3734SOL    HW122838   0.742   0.908   5.571  0.6887 -1.4288 -0.1743
 3734SOL    HW222839   0.619   0.822   5.531 -1.4275  1.4871 -0.8049
 3735SOL     OW22840   1.638   1.874   2.025 -0.3517 -0.6462 -0.0021
 3735SOL    HW122841   1.716   1.906   1.980  0.1002  0.7609  1.7793
 3735SOL    HW222842   1.613   1.799   1.971 -1.8648 -0.1398 -0.0157
 3736SOL     OW22843   0.098   1.286   1.113 -0.0029 -0.1381  0.0453
 3736SOL    HW122844   0.145   1.359   1.073 -0.1399 -0.2144 -0.2493
 3736SOL    HW222845   0.097   1.216   1.047 -0.6291  0.7831 -0.9027
 3737SOL     OW22846   2.224   1.099   4.209 -0.2193  0.4177 -0.4011
 3737SOL    HW122847   2.171   1.120   4.286  1.0021 -0.4399  0.6698
 3737SOL    HW222848   2.202   1.173   4.152 -0.2134  2.8908  2.8074
 3738SOL     OW22849   0.107   3.678   3.568 -1.1955 -0.1123 -0.3607
 3738SOL    HW122850   0.183   3.630   3.598 -1.3840  0.6723  1.3816
 3738SOL    HW222851   0.156   3.758   3.549  1.5199 -1.8011 -0.3814
 3739SOL     OW22852   2.106   2.484   4.895 -0.3780 -0.1733  0.3991
 3739SOL    HW122853   2.160   2.553   4.934  0.7795 -1.2331  0.6850
 3739SOL    HW222854   2.133   2.408   4.947  0.5859 -1.1297 -1.5324
 3740SOL     OW22855   0.390   4.471   1.646 -0.2870  0.1925 -1.1845
 3740SOL    HW122856   0.395   4.383   1.683  0.4899 -0.2005 -2.2314
 3740SOL    HW222857   0.475   4.515   1.656 -1.6151  1.5277  4.3070
 3741SOL     OW22858   2.704   4.737   7.002  0.2374  0.7718  0.0138
 3741SOL    HW122859   2.700   0.062   7.075 -0.8863  1.4375 -0.6160
 3741SOL    HW222860   2.784   4.689   7.020  0.9722  2.8518  2.3090
 3742SOL     OW22861   4.555   2.985   5.353  0.1248 -0.1692 -0.0235
 3742SOL    HW122862   4.504   2.938   5.419 -2.1592  1.2336 -0.7934
 3742SOL    HW222863   4.490   2.965   5.285  2.8259 -5.6646 -1.0148
 3743SOL     OW22864   3.236   4.499   8.178  0.4124  0.4750 -0.2565
 3743SOL    HW122865   3.317   4.463   8.214  0.3773 -0.2182 -0.8605
 3743SOL    HW222866   3.262   4.561   8.110  1.1696 -0.8897 -1.2266
 3744SOL     OW22867   2.512   2.360   7.821 -0.5375 -0.5285  0.0384
 3744SOL    HW122868   2.445   2.297   7.849 -1.2081  0.5398  0.8495
 3744SOL    HW222869   2.464   2.438   7.849  1.5053  0.5150  0.6076
 3745SOL     OW22870   1.784   4.160   8.355 -0.1724 -0.1885  0.9913
 3745SOL    HW122871   1.860   4.151   8.297 -1.3015  1.1782 -0.7015
 3745SOL    HW222872   1.767   4.249   8.323 -1.3320 -0.7926 -0.0659
 3746SOL     OW22873   1.471   3.178   2.590  0.4782  0.2123 -0.1445
 3746SOL    HW122874   1.565   3.197   2.582 -0.1413  3.7451  0.7716
 3746SOL    HW222875   1.474   3.087   2.619  0.9564  0.8761  1.8496
 3747SOL     OW22876   3.715   4.047   8.401  0.1519  0.1586  0.4983
 3747SOL    HW122877   3.741   4.134   8.370 -2.2665  0.3330 -1.0293
 3747SOL    HW222878   3.645   4.028   8.338  1.0150 -0.3414 -0.3182
 3748SOL     OW22879   0.359   1.156  11.972  0.7505  0.0987  0.5685
 3748SOL    HW122880   0.451   1.181  11.982 -0.0619  3.0773  0.7261
 3748SOL    HW222881   0.372   1.079  11.916  0.6135  1.2171 -1.0283
 3749SOL     OW22882   4.669   2.323  15.098 -0.1230 -0.4086 -0.0951
 3749SOL    HW122883   0.014   2.303  15.143 -0.0228  0.6849  0.2251
 3749SOL    HW222884   4.630   2.236  15.104  1.7673 -1.3800 -1.7583
 3750SOL     OW22885   3.276   1.535  10.796  0.2798 -0.1888  0.3227
 3750SOL    HW122886   3.354   1.485  10.819 -0.0486 -0.3320  1.1414
 3750SOL    HW222887   3.269   1.497  10.709 -0.2612 -1.1074  0.7689
 3751SOL     OW22888   0.291   3.075   4.291  0.4792  0.2933 -0.0497
 3751SOL    HW122889   0.326   3.139   4.229  3.3110 -0.2860  0.9601
 3751SOL    HW222890   0.292   3.134   4.367 -0.6152 -0.8399  0.8338
 3752SOL     OW22891   3.906   1.287   7.407  0.3420 -0.0711 -1.0387
 3752SOL    HW122892   3.835   1.351   7.401 -0.4068 -0.9394 -1.5503
 3752SOL    HW222893   3.889   1.249   7.493 -0.1719  1.8905 -0.2694
 3753SOL     OW22894   4.402   1.236   7.717 -0.3455 -0.3278 -0.6405
 3753SOL    HW122895   4.492   1.221   7.744  0.1895 -0.5400 -2.5267
 3753SOL    HW222896   4.401   1.170   7.648  0.6267  1.2114 -2.1060
 3754SOL     OW22897   4.476   0.081  15.646  0.3244  0.1554  0.0223
 3754SOL    HW122898   4.448   0.142  15.579  2.5553  1.6109  0.3795
 3754SOL    HW222899   4.405   0.101  15.706  0.2665  0.5514 -0.1842
 3755SOL     OW22900   3.560   0.853   9.651 -0.1093 -0.3738  0.2124
 3755SOL    HW122901   3.655   0.862   9.645  0.0495 -2.3854 -0.3801
 3755SOL    HW222902   3.525   0.844   9.562  0.2950 -1.4441  0.1631
 3756SOL     OW22903   0.673   4.051   6.106 -0.2151  0.3222 -0.6654
 3756SOL    HW122904   0.716   4.037   6.190 -0.8711 -1.3993 -0.6344
 3756SOL    HW222905   0.714   4.126   6.062  0.7724  0.3057  0.2480
 3757SOL     OW22906   2.569   1.146  14.269 -0.4902 -0.1297 -0.6582
 3757SOL    HW122907   2.555   1.051  14.269 -1.9356  0.0846  0.3282
 3757SOL    HW222908   2.515   1.179  14.197 -0.5371 -0.7804 -0.9167
 3758SOL     OW22909   2.362   4.429  11.838 -0.5221 -0.0837  0.0588
 3758SOL    HW122910   2.406   4.358  11.791 -1.4658  0.2461 -1.3268
 3758SOL    HW222911   2.337   4.384  11.919  0.9968 -0.4288  0.3373
 3759SOL     OW22912   1.055   1.336  12.966 -0.0883  0.6072 -0.1229
 3759SOL    HW122913   1.097   1.419  12.944  0.3799  1.0656  2.4998
 3759SOL    HW222914   0.972   1.371  12.999 -0.2765  0.8375 -0.8439
 3760SOL     OW22915   2.798   0.830  13.465 -0.4492  0.4845  0.0638
 3760SOL    HW122916   2.751   0.844  13.547 -0.9248 -0.1679 -0.0988
 3760SOL    HW222917   2.742   0.757  13.440 -1.3980  1.0565  0.5137
 3761SOL     OW22918   0.876   3.751  17.591  0.2922  0.5137 -0.5058
 3761SOL    HW122919   0.820   3.750  17.669 -0.0911  0.7700 -0.7777
 3761SOL    HW222920   0.850   3.673  17.541  2.2722 -1.1927  1.1400
 3762SOL     OW22921   3.444   4.471  13.737 -0.2382  0.2809 -0.0858
 3762SOL    HW122922   3.467   4.549  13.686 -0.3496  0.2684 -0.1537
 3762SOL    HW222923   3.433   4.406  13.668 -1.6086  2.2104 -1.6968
 3763SOL     OW22924   3.266   1.552   5.513 -0.5074 -0.1104  0.3188
 3763SOL    HW122925   3.219   1.602   5.580  0.2871  1.1918 -0.0925
 3763SOL    HW222926   3.210   1.575   5.439 -0.9649 -1.4149  0.2558
 3764SOL     OW22927   1.501   3.360  11.378  0.4910 -0.1104  0.0247
 3764SOL    HW122928   1.415   3.377  11.340  0.0264 -1.0543  0.6428
 3764SOL    HW222929   1.523   3.453  11.385  0.1498  0.2729 -4.0307
 3765SOL     OW22930   2.466   4.248   8.831 -0.1613 -0.6096 -0.5921
 3765SOL    HW122931   2.442   4.325   8.883 -0.0965 -2.1184  1.6625
 3765SOL    HW222932   2.448   4.282   8.743 -1.9678  0.2752  0.1101
 3766SOL     OW22933   3.373   1.692  12.443 -0.1604  0.0037  0.3252
 3766SOL    HW122934   3.449   1.635  12.429  0.0879 -0.2385  2.6079
 3766SOL    HW222935   3.410   1.762  12.497 -1.2111 -1.2812  2.6988
 3767SOL     OW22936   3.404   4.312   8.443  0.1219  0.0986 -0.0201
 3767SOL    HW122937   3.337   4.243   8.445  0.3384 -0.1165 -0.2011
 3767SOL    HW222938   3.473   4.266   8.395  0.3208  0.8215 -0.4186
 3768SOL     OW22939   2.269   4.236   2.435 -0.2032  0.5139  0.3263
 3768SOL    HW122940   2.182   4.203   2.456 -0.2876 -0.0263 -0.8472
 3768SOL    HW222941   2.285   4.288   2.513 -0.6973  0.7096  0.2933
 3769SOL     OW22942   0.657   1.859   7.260  0.2528 -0.2213  0.0930
 3769SOL    HW122943   0.676   1.926   7.195 -0.5266 -1.0414 -0.9881
 3769SOL    HW222944   0.738   1.809   7.263  0.1085 -0.5264 -1.0691
 3770SOL     OW22945   2.946   2.711   7.121  0.2402  0.4133  0.0509
 3770SOL    HW122946   2.964   2.620   7.098  0.3260 -0.4297  3.4385
 3770SOL    HW222947   3.030   2.728   7.164 -0.2359  2.0642  0.3554
 3771SOL     OW22948   0.116   4.504   4.650 -0.3510  0.2886 -0.7601
 3771SOL    HW122949   0.106   4.554   4.570  1.8299 -0.9004 -1.7905
 3771SOL    HW222950   0.025   4.506   4.679 -0.1354  1.1450 -0.1531
 3772SOL     OW22951   2.398   3.899   2.026 -0.4919  0.1184  0.1508
 3772SOL    HW122952   2.397   3.899   1.931  1.9919  0.5354  0.1126
 3772SOL    HW222953   2.486   3.862   2.037  0.1553  1.5911  0.0175
 3773SOL     OW22954   4.681   4.650  17.173  0.3615 -0.1149 -0.5153
 3773SOL    HW122955   4.697   4.555  17.178  1.0429  0.0405  0.2888
 3773SOL    HW222956   4.619   4.662  17.244 -2.9230 -1.2848 -3.1954
 3774SOL     OW22957   0.118   3.027  12.151  0.1120  0.1617  0.2629
 3774SOL    HW122958   0.057   3.025  12.224  1.0582  0.3326  1.0444
 3774SOL    HW222959   0.099   2.939  12.118 -0.9575  0.9882 -1.3510
 3775SOL     OW22960   3.186   1.890   1.951 -0.2381  0.0930  0.0394
 3775SOL    HW122961   3.263   1.833   1.954 -2.2446 -2.6869 -0.9706
 3775SOL    HW222962   3.150   1.856   1.870  1.5813 -0.7329 -0.4191
 3776SOL     OW22963   3.869   0.316   7.781  0.0054  0.6012 -0.0102
 3776SOL    HW122964   3.960   0.286   7.778 -1.2627 -3.3941  1.6753
 3776SOL    HW222965   3.877   0.363   7.864  2.5190  2.1271 -1.1141
 3777SOL     OW22966   0.939   1.119   4.740  0.0136  0.5239 -0.0825
 3777SOL    HW122967   0.982   1.126   4.655  0.7972 -1.3212  0.1662
 3777SOL    HW222968   0.925   1.025   4.745 -1.5680  0.7411 -0.2357
 3778SOL     OW22969   1.593   1.256   4.819 -0.4031 -0.8031  0.1686
 3778SOL    HW122970   1.499   1.263   4.837 -0.1188  3.2173 -0.0174
 3778SOL    HW222971   1.625   1.324   4.878  0.6738 -0.3155 -0.9679
 3779SOL     OW22972   1.507   3.451   9.058  0.4958  0.2636  0.4710
 3779SOL    HW122973   1.531   3.366   9.020  0.7411  0.2871  0.5748
 3779SOL    HW222974   1.539   3.509   8.989 -0.4841 -1.8077 -1.7614
 3780SOL     OW22975   0.206   0.692   7.689 -0.7937  0.1945 -0.2068
 3780SOL    HW122976   0.156   0.666   7.767  1.4938 -1.9088  0.5667
 3780SOL    HW222977   0.244   0.612   7.653  0.2034  0.2744  0.6603
 3781SOL     OW22978   3.440   2.825   8.572  0.0170 -0.3626 -0.2399
 3781SOL    HW122979   3.519   2.771   8.574  1.2142  1.3744 -1.1695
 3781SOL    HW222980   3.422   2.832   8.479 -0.1395  1.7880 -0.0336
 3782SOL     OW22981   0.627   3.245   8.903 -0.1645 -0.0386 -0.3980
 3782SOL    HW122982   0.634   3.257   8.997 -1.9995 -0.5244 -0.2025
 3782SOL    HW222983   0.656   3.331   8.874 -0.8126 -0.1370 -1.3264
 3783SOL     OW22984   0.477   1.618   2.417  0.3139  0.0620 -0.0452
 3783SOL    HW122985   0.537   1.608   2.343  1.1659 -0.0341  0.6696
 3783SOL    HW222986   0.403   1.646   2.363 -0.0350 -1.1582 -0.1936
 3784SOL     OW22987   2.605   0.521   3.226 -0.4038 -0.4553 -0.2344
 3784SOL    HW122988   2.669   0.513   3.155  0.6277  1.0350  0.5303
 3784SOL    HW222989   2.661   0.551   3.297 -1.3559  2.0514 -0.5311
 3785SOL     OW22990   0.161   0.639   2.106 -0.1276 -0.1558 -0.3028
 3785SOL    HW122991   0.113   0.718   2.082 -1.6124 -1.5862 -2.0271
 3785SOL    HW222992   0.247   0.670   2.137 -0.4242  0.6581 -0.3028
 3786SOL     OW22993   2.767   1.024   5.714  0.2045 -0.2246 -0.7248
 3786SOL    HW122994   2.794   0.935   5.737  0.7057  0.3705  1.0357
 3786SOL    HW222995   2.682   0.998   5.678  0.5987  0.8852 -2.4409
 3787SOL     OW22996   4.712   4.605   8.457  0.6093  0.0310  0.3807
 3787SOL    HW122997   4.616   4.606   8.455  0.6165 -0.7598 -0.6398
 3787SOL    HW222998   4.721   4.510   8.445 -1.0495  0.0630 -1.2392
 3788SOL     OW22999   2.063   0.346   5.159  0.6502  0.5586  0.0801
 3788SOL    HW123000   2.091   0.281   5.223 -4.0030  0.4623  2.0658
 3788SOL    HW223001   2.147   0.381   5.131  1.3896 -1.1181  0.2540
 3789SOL     OW23002   4.168   3.401   5.649  0.2382 -0.0042 -0.1021
 3789SOL    HW123003   4.108   3.476   5.637  0.7510  0.2178 -1.2636
 3789SOL    HW223004   4.242   3.423   5.706 -0.2729  1.6854 -0.0813
 3790SOL     OW23005   4.514   1.637   1.013 -0.0375  0.7742 -0.4891
 3790SOL    HW123006   4.483   1.680   1.093  1.3097 -2.3169  1.6748
 3790SOL    HW223007   4.536   1.548   1.039 -2.9365  0.0627 -0.5880
 3791SOL     OW23008   4.381   0.422   6.125 -0.2146 -0.0541  0.1592
 3791SOL    HW123009   4.335   0.339   6.134 -1.7048  0.6758 -0.6451
 3791SOL    HW223010   4.316   0.483   6.162  1.4212  0.7875  1.6233
 3792SOL     OW23011   2.093   4.508   6.507 -0.3596  0.3079  0.1997
 3792SOL    HW123012   2.176   4.553   6.494 -0.1458 -0.3832 -0.7551
 3792SOL    HW223013   2.106   4.420   6.473  0.7455  0.7258 -0.4344
 3793SOL     OW23014   0.251   1.082   6.881  0.3886  0.2514 -0.6547
 3793SOL    HW123015   0.340   1.083   6.915 -0.0357  1.0143  0.4319
 3793SOL    HW223016   0.210   1.162   6.914  0.8549 -0.8351  2.5188
 3794SOL     OW23017   2.026   2.936   2.720  0.1450 -0.2449 -0.1961
 3794SOL    HW123018   2.045   2.853   2.765 -0.3298  0.5609  1.5111
 3794SOL    HW223019   2.022   2.911   2.628  0.6620 -2.3581  0.3418
 3795SOL     OW23020   2.437   3.714   5.567  0.6763  0.0107 -1.0160
 3795SOL    HW123021   2.486   3.792   5.590 -0.8976  0.5739  0.4693
 3795SOL    HW223022   2.412   3.733   5.477  0.1782 -0.0358 -0.8912
 3796SOL     OW23023   1.034   2.308   4.241 -0.0957 -0.2935 -0.1604
 3796SOL    HW123024   1.073   2.387   4.276  0.1814  0.7878 -2.8998
 3796SOL    HW223025   1.081   2.235   4.281 -0.4192 -0.5290 -0.2079
 3797SOL     OW23026   0.934   0.488  14.968 -1.4784 -0.0104  0.3001
 3797SOL    HW123027   0.887   0.431  14.907  0.4445 -0.6716 -0.5496
 3797SOL    HW223028   0.906   0.445  15.049  1.0841 -2.1217  0.0488
 3798SOL     OW23029   3.062   1.722  13.044 -0.7908 -0.0102  0.0900
 3798SOL    HW123030   3.094   1.653  13.102 -3.4457 -2.1804 -1.0292
 3798SOL    HW223031   3.001   1.759  13.107 -2.6697 -1.4434 -0.8931
 3799SOL     OW23032   0.744   0.526   8.690 -0.1975  0.4402  0.1414
 3799SOL    HW123033   0.707   0.440   8.708 -0.6108  0.9209  1.5651
 3799SOL    HW223034   0.671   0.569   8.645 -0.7627 -0.0497  0.6058
 3800SOL     OW23035   1.137   1.030   3.357 -0.2809  0.1798 -0.5472
 3800SOL    HW123036   1.089   1.057   3.279  2.1996  1.6539 -1.5873
 3800SOL    HW223037   1.074   1.060   3.422 -0.4646 -1.7020  0.1537
 3801SOL     OW23038   4.444   4.558   5.884  0.4784 -0.0701  0.5194
 3801SOL    HW123039   4.415   4.609   5.808  0.6333  0.5810  0.8965
 3801SOL    HW223040   4.433   4.469   5.851  0.6028  0.5892 -1.3104
 3802SOL     OW23041   4.222   1.926  16.447 -0.0727 -0.0468 -0.1007
 3802SOL    HW123042   4.186   2.012  16.470  2.7182  0.8674  0.9080
 3802SOL    HW223043   4.160   1.860  16.477 -0.6759  0.2058 -0.7862
 3803SOL     OW23044   3.038   3.209   8.257  0.5222  0.8866 -0.3653
 3803SOL    HW123045   3.032   3.298   8.223  0.8642  0.3724 -1.7505
 3803SOL    HW223046   3.028   3.156   8.178  2.2277 -0.6813  0.4764
 3804SOL     OW23047   3.972   3.311   1.595 -0.3713 -0.1511  0.2771
 3804SOL    HW123048   4.031   3.237   1.581 -1.9974 -1.2571 -0.5809
 3804SOL    HW223049   4.013   3.372   1.534 -2.5260  1.0926  0.0657
 3805SOL     OW23050   2.473   0.971   7.984 -0.4191  0.0235 -0.4404
 3805SOL    HW123051   2.379   0.961   7.999 -0.1577 -2.0853 -0.2584
 3805SOL    HW223052   2.512   0.992   8.069 -1.2264 -0.1578 -0.0335
 3806SOL     OW23053   3.346   3.856   5.836  0.5439 -0.7450 -0.7283
 3806SOL    HW123054   3.398   3.922   5.882 -1.0988 -0.5856  0.8588
 3806SOL    HW223055   3.315   3.905   5.760 -0.1501 -0.6887 -0.4046
 3807SOL     OW23056   2.508   0.598   6.859  0.1114  0.3343  0.0989
 3807SOL    HW123057   2.469   0.608   6.772  0.3201  0.3354  0.0062
 3807SOL    HW223058   2.534   0.686   6.885  1.0434 -0.3435  1.4934
 3808SOL     OW23059   3.465   2.595  10.453  0.5243 -0.0404 -0.1927
 3808SOL    HW123060   3.433   2.550  10.375 -1.4956  1.7367 -0.3678
 3808SOL    HW223061   3.397   2.658  10.476  2.5148  1.5208  1.4348
 3809SOL     OW23062   2.739   1.309   3.609 -0.2881  0.4856  0.1432
 3809SOL    HW123063   2.766   1.318   3.700 -1.2026  1.6757  0.2879
 3809SOL    HW223064   2.740   1.397   3.573  0.0937  0.6538  0.5767
 3810SOL     OW23065   4.093   3.965  16.443 -0.0460  0.1551 -0.3879
 3810SOL    HW123066   4.181   3.992  16.417  0.6884 -2.2140 -0.3383
 3810SOL    HW223067   4.063   4.050  16.477 -0.9306 -0.0517 -0.6534
 3811SOL     OW23068   4.321   4.233   2.556  0.1102  0.3339 -0.3248
 3811SOL    HW123069   4.299   4.325   2.540 -0.7712  0.2987  0.6797
 3811SOL    HW223070   4.308   4.194   2.470 -1.3078 -2.8821  1.3586
 3812SOL     OW23071   2.512   0.509  11.919 -0.4853 -0.4119 -0.0290
 3812SOL    HW123072   2.583   0.573  11.908  0.9231 -1.9196  0.3803
 3812SOL    HW223073   2.526   0.452  11.995 -0.8646  2.9214  2.5454
 3813SOL     OW23074   0.896   0.979   7.183  0.0365  0.8861 -0.2209
 3813SOL    HW123075   0.846   1.025   7.250 -3.0043  1.1319 -2.6768
 3813SOL    HW223076   0.987   0.981   7.214 -0.2178 -1.5620  0.6708
 3814SOL     OW23077   2.501   0.574   8.248  0.1913 -0.2100 -0.4262
 3814SOL    HW123078   2.427   0.575   8.187 -0.4350  3.9688  0.4155
 3814SOL    HW223079   2.509   0.479   8.254  0.8564 -0.1563 -0.4085
 3815SOL     OW23080   3.039   2.453  10.507  0.3303 -0.2301  0.4153
 3815SOL    HW123081   3.038   2.549  10.511 -0.6999 -0.1035 -3.7705
 3815SOL    HW223082   3.063   2.442  10.415  1.6844 -0.2531  0.7698
 3816SOL     OW23083   2.776   1.905   1.825 -0.0397 -0.0014  0.2222
 3816SOL    HW123084   2.688   1.874   1.845  0.4954 -0.6462  1.6579
 3816SOL    HW223085   2.830   1.847   1.879 -0.7234 -1.5203 -0.7253
 3817SOL     OW23086   2.735   2.288   5.686  0.2266 -0.6500 -0.4991
 3817SOL    HW123087   2.657   2.233   5.700 -0.3134 -0.1403 -1.5717
 3817SOL    HW223088   2.708   2.357   5.747 -1.3825 -1.9889  0.3204
 3818SOL     OW23089   4.419   4.199   9.048 -0.3709 -0.5414  0.1414
 3818SOL    HW123090   4.345   4.157   9.091  0.1257  1.5084  3.0059
 3818SOL    HW223091   4.462   4.126   9.004  0.8325 -0.0042  0.4086
 3819SOL     OW23092   1.305   2.026   6.149  0.0406  0.1384 -0.5970
 3819SOL    HW123093   1.354   2.082   6.088  0.4016 -0.2613 -0.6715
 3819SOL    HW223094   1.252   2.089   6.198 -1.0726  0.6159 -2.3975
 3820SOL     OW23095   4.722   2.156   1.896 -0.4296  0.1392  0.3815
 3820SOL    HW123096   4.655   2.146   1.963  0.4730  0.6938  1.3725
 3820SOL    HW223097   4.677   2.198   1.823 -0.8930 -0.9832  0.0135
 3821SOL     OW23098   2.715   2.040   8.661  0.0775  0.4639  0.2858
 3821SOL    HW123099   2.697   1.952   8.694  0.3248 -0.7103 -2.6862
 3821SOL    HW223100   2.641   2.096   8.684 -1.4496 -1.3743 -0.1428
 3822SOL     OW23101   2.680   1.332   0.338  0.0519 -0.0435  0.0741
 3822SOL    HW123102   2.652   1.305   0.251  1.2712 -0.0515 -0.3085
 3822SOL    HW223103   2.730   1.254   0.361 -0.8450 -0.8730 -0.7915
 3823SOL     OW23104   1.574   0.271   7.527 -0.0652  0.4961  0.3929
 3823SOL    HW123105   1.515   0.274   7.603  0.0934 -2.1168  0.6309
 3823SOL    HW223106   1.588   0.177   7.514 -0.8929  0.4407 -0.0925
 3824SOL     OW23107   4.354   2.842   0.937  0.0494 -0.4904 -0.2061
 3824SOL    HW123108   4.372   2.769   0.878 -1.7524 -2.0560  1.1593
 3824SOL    HW223109   4.386   2.795   1.014  0.8531  0.6039  0.1203
 3825SOL     OW23110   2.488   0.932   1.484 -0.5051 -0.3940  0.1457
 3825SOL    HW123111   2.413   0.875   1.468  0.9353 -2.3493  0.3544
 3825SOL    HW223112   2.458   1.022   1.494 -1.9291 -0.7389 -0.9443
 3826SOL     OW23113   3.145   4.135   2.834 -0.8598 -0.1834 -0.1556
 3826SOL    HW123114   3.057   4.156   2.865 -0.9463  0.4424 -0.8256
 3826SOL    HW223115   3.123   4.046   2.807  1.3125 -0.2553 -1.6748
 3827SOL     OW23116   0.238   3.503   8.256 -0.5182  0.0025  1.2706
 3827SOL    HW123117   0.172   3.520   8.189 -0.3140 -1.2384  0.7569
 3827SOL    HW223118   0.229   3.414   8.290 -0.8430 -0.1311  0.8335
 3828SOL     OW23119   3.563   2.575   5.529  0.2379  1.1284 -0.1458
 3828SOL    HW123120   3.548   2.570   5.623 -0.9802  0.1547 -0.3969
 3828SOL    HW223121   3.487   2.615   5.487 -0.2023  2.2544  1.7267
 3829SOL     OW23122   3.653   0.064  12.241 -0.1457  0.1432  0.4445
 3829SOL    HW123123   3.651   4.706  12.232  2.8460 -0.0560  2.0662
 3829SOL    HW223124   3.580   0.082  12.299  0.4804  0.0703  1.2475
 3830SOL     OW23125   2.768   4.533   6.157 -0.4755  0.3400  0.3293
 3830SOL    HW123126   2.732   4.483   6.231  0.4400  0.8321  1.1073
 3830SOL    HW223127   2.799   4.462   6.101  2.0838  1.8998 -0.2225
 3831SOL     OW23128   2.585   1.629  16.324  0.0413  0.2308 -0.5620
 3831SOL    HW123129   2.530   1.614  16.247  1.2146 -0.7150 -1.1996
 3831SOL    HW223130   2.582   1.724  16.318 -1.8498  0.1690 -0.6126
 3832SOL     OW23131   1.741   0.077  15.883 -0.0979  0.4870  0.5380
 3832SOL    HW123132   1.701   0.155  15.843 -0.4065  0.9053  1.6405
 3832SOL    HW223133   1.711   0.090  15.973  0.4995 -1.1998  0.9683
 3833SOL     OW23134   1.718   1.172   5.561 -0.6144  0.1979  0.4743
 3833SOL    HW123135   1.800   1.197   5.519 -0.4571  0.2737  0.8254
 3833SOL    HW223136   1.693   1.261   5.588  2.0795  1.6333 -1.7926
 3834SOL     OW23137   2.378   4.428   8.148  0.5544  0.4183  0.3914
 3834SOL    HW123138   2.309   4.402   8.209  1.3937 -2.5359  0.0765
 3834SOL    HW223139   2.327   4.480   8.085  1.1850 -0.1426 -0.5802
 3835SOL     OW23140   1.939   0.301   2.481 -0.1042 -0.7452 -0.3246
 3835SOL    HW123141   1.940   0.230   2.546 -0.5176 -1.5946 -1.2486
 3835SOL    HW223142   1.902   0.368   2.538 -0.5719 -2.8933  1.9010
 3836SOL     OW23143   0.616   1.194   8.676  0.2899 -0.6523  0.1730
 3836SOL    HW123144   0.581   1.242   8.601 -0.4481 -2.0356 -0.3735
 3836SOL    HW223145   0.708   1.184   8.652  0.5437 -0.8434  1.2352
 3837SOL     OW23146   1.918   2.763   6.641 -0.1623 -0.0321  0.0974
 3837SOL    HW123147   1.858   2.692   6.663  2.1720 -1.7648  0.9090
 3837SOL    HW223148   1.975   2.751   6.718 -1.2939 -1.0320  0.7725
 3838SOL     OW23149   0.161   1.487   1.645  0.2420  0.1882  0.2309
 3838SOL    HW123150   0.139   1.394   1.635 -0.5650  0.2986  1.0180
 3838SOL    HW223151   0.106   1.518   1.573  0.9597  0.7898 -0.0616
 3839SOL     OW23152   4.434   4.485  11.175 -0.0739  0.1170 -0.2452
 3839SOL    HW123153   4.419   4.482  11.269 -1.1935 -2.0333 -0.4899
 3839SOL    HW223154   4.463   4.576  11.168  0.2027  0.0522  0.0597
 3840SOL     OW23155   0.635   1.088   6.080 -0.6254  0.1639 -0.3046
 3840SOL    HW123156   0.725   1.064   6.101 -1.0100 -1.9488 -1.0029
 3840SOL    HW223157   0.622   1.008   6.028 -0.2883 -0.8898  1.2470
 3841SOL     OW23158   1.875   2.593   3.778  0.3473  0.2871 -0.1747
 3841SOL    HW123159   1.966   2.564   3.780  1.1226  2.6529 -0.5348
 3841SOL    HW223160   1.864   2.624   3.688  1.4016  1.2098  0.0119
 3842SOL     OW23161   2.876   3.522   8.966  0.1444 -0.1503 -0.4023
 3842SOL    HW123162   2.955   3.470   8.980  0.4478  0.9177  1.8876
 3842SOL    HW223163   2.838   3.475   8.892 -1.1183  0.4422 -0.1358
 3843SOL     OW23164   0.124   3.152   6.631  0.1683 -0.5133 -0.0859
 3843SOL    HW123165   0.171   3.128   6.551 -0.0441 -0.0182 -0.3590
 3843SOL    HW223166   0.198   3.142   6.690 -0.1910  0.3131  0.4977
 3844SOL     OW23167   1.426   3.961  16.317 -0.3183  0.1088  0.5838
 3844SOL    HW123168   1.467   3.891  16.265  0.4896 -0.2846  1.7448
 3844SOL    HW223169   1.499   3.984  16.375  0.2139 -0.8628  0.3059
 3845SOL     OW23170   4.194   4.368   6.927 -0.0612  0.2156  0.5418
 3845SOL    HW123171   4.220   4.394   7.016 -0.0443  1.3729  0.2014
 3845SOL    HW223172   4.101   4.388   6.940 -0.5573 -2.5851  1.3894
 3846SOL     OW23173   1.465   4.412   5.725  0.1963 -0.0429  0.4044
 3846SOL    HW123174   1.485   4.466   5.801 -2.0813  0.8903  0.3610
 3846SOL    HW223175   1.538   4.351   5.716 -0.6555 -0.9052 -0.6712
 3847SOL     OW23176   2.693   4.126   9.631  0.1820  0.4374  0.2578
 3847SOL    HW123177   2.737   4.164   9.555  1.7232 -0.3268  0.7626
 3847SOL    HW223178   2.770   4.111   9.686  0.3349 -0.6654 -0.2475
 3848SOL     OW23179   2.119   0.334  15.290 -0.1074 -0.3811  0.4327
 3848SOL    HW123180   2.076   0.394  15.350  1.2874  0.9837  0.0647
 3848SOL    HW223181   2.210   0.349  15.318 -0.4006  0.5726  0.8541
 3849SOL     OW23182   1.046   3.794   8.659  0.6601 -0.4278 -0.0033
 3849SOL    HW123183   0.987   3.830   8.593  1.1578 -0.1852 -0.3143
 3849SOL    HW223184   0.977   3.788   8.725  0.2705  0.6560 -0.3180
 3850SOL     OW23185   4.311   3.855   2.382 -0.4273  0.6114  0.4351
 3850SOL    HW123186   4.315   3.788   2.314 -0.4379  1.0979 -0.0390
 3850SOL    HW223187   4.333   3.800   2.458  0.1455  0.2745  0.0230
 3851SOL     OW23188   2.050   2.248  17.593 -0.4958 -0.1079  0.0667
 3851SOL    HW123189   2.088   2.216  17.674  0.9367 -0.8922 -0.9161
 3851SOL    HW223190   1.961   2.218  17.611 -0.6145  0.2823  0.1357
 3852SOL     OW23191   2.225   2.182   6.741  0.0616  0.7069  0.0046
 3852SOL    HW123192   2.154   2.135   6.697  1.3645 -0.2958 -1.0290
 3852SOL    HW223193   2.218   2.152   6.831 -2.2345 -0.7878 -0.6545
 3853SOL     OW23194   2.671   4.250   2.412  0.0324 -0.2456  0.1377
 3853SOL    HW123195   2.669   4.187   2.484 -1.0266 -0.7810 -0.3583
 3853SOL    HW223196   2.588   4.236   2.366  0.8609 -0.0115 -1.4196
 3854SOL     OW23197   4.438   0.401   6.970  0.5385 -0.1539  0.2953
 3854SOL    HW123198   4.424   0.313   7.004  0.4389  0.1405  1.0078
 3854SOL    HW223199   4.381   0.451   7.029  0.6517  0.2168  0.0932
 3855SOL     OW23200   1.587   2.405   5.968  0.2673  0.3091 -0.4454
 3855SOL    HW123201   1.661   2.460   5.941 -0.6442  1.0580 -1.4163
 3855SOL    HW223202   1.509   2.458   5.954  0.6374  0.1762 -3.0063
 3856SOL     OW23203   3.975   3.725   2.150  0.4256 -0.5089 -0.5103
 3856SOL    HW123204   3.909   3.678   2.100 -2.7313  0.3944  2.8766
 3856SOL    HW223205   3.915   3.752   2.219  1.4372  0.3992  0.0263
 3857SOL     OW23206   1.730   3.263  14.556  0.2801  0.3880 -0.0034
 3857SOL    HW123207   1.810   3.255  14.608 -1.6805 -0.9819  2.8528
 3857SOL    HW223208   1.727   3.357  14.538  1.1439  0.3088 -0.5233
 3858SOL     OW23209   2.382   0.352  15.370  0.7806  0.2069 -0.0575
 3858SOL    HW123210   2.460   0.351  15.313  0.5067 -2.1493 -0.3570
 3858SOL    HW223211   2.413   0.292  15.437  1.7486  0.5875 -0.1509
 3859SOL     OW23212   0.399   1.417  13.061  0.6922  0.1725 -0.1985
 3859SOL    HW123213   0.405   1.487  13.125 -1.8130  0.7858 -0.6610
 3859SOL    HW223214   0.411   1.334  13.107 -2.5530 -0.7611 -1.0533
 3860SOL     OW23215   1.610   0.601   7.740  0.2494  0.6149  0.2365
 3860SOL    HW123216   1.545   0.530   7.742  0.9410 -0.0229  0.1149
 3860SOL    HW223217   1.657   0.592   7.657 -0.6151  0.3705 -0.2246
 3861SOL     OW23218   2.868   1.285   5.292 -0.6060  0.1879  0.3132
 3861SOL    HW123219   2.838   1.195   5.302  0.9984 -0.2932  0.7366
 3861SOL    HW223220   2.853   1.326   5.377  1.2436 -2.6956  2.0360
 3862SOL     OW23221   0.806   1.029   2.595 -0.2196  0.1628  0.3424
 3862SOL    HW123222   0.777   1.120   2.585 -0.0337  0.2977  1.0538
 3862SOL    HW223223   0.760   1.002   2.674  0.4288  1.0653  1.0320
 3863SOL     OW23224   1.070   1.234  12.720  0.0104 -0.0868 -0.5939
 3863SOL    HW123225   1.166   1.243  12.719 -0.0475  0.6118  0.3359
 3863SOL    HW223226   1.046   1.268  12.806  0.2440 -0.0505 -0.5435
 3864SOL     OW23227   1.925   2.034   4.973 -0.1409 -0.7102  0.1573
 3864SOL    HW123228   1.870   2.046   4.895 -1.3045 -0.8352  0.9753
 3864SOL    HW223229   1.914   1.942   4.997 -1.6835 -0.9189 -1.3324
 3865SOL     OW23230   0.388   0.745   4.422 -0.2596 -0.5006 -0.7607
 3865SOL    HW123231   0.405   0.658   4.387 -1.1864  0.1505 -2.8206
 3865SOL    HW223232   0.468   0.797   4.409 -2.6361  3.0223 -1.3569
 3866SOL     OW23233   2.473   2.074   8.754  0.1159 -0.1751  0.4188
 3866SOL    HW123234   2.460   2.116   8.840  1.0379 -1.0532  0.9871
 3866SOL    HW223235   2.434   1.992   8.784  1.9793 -0.6745  1.4566
 3867SOL     OW23236   1.337   0.891   8.355 -0.2978 -0.2043  0.1054
 3867SOL    HW123237   1.320   0.863   8.445  1.3333 -0.8284  0.2330
 3867SOL    HW223238   1.433   0.894   8.361 -0.2968  0.4228 -0.2205
 3868SOL     OW23239   1.176   1.036   9.195 -0.3063  0.3923  0.1503
 3868SOL    HW123240   1.254   1.063   9.245 -0.3979 -1.5805  1.3773
 3868SOL    HW223241   1.168   1.115   9.143  0.0831  0.8804  0.8322
 3869SOL     OW23242   1.421   1.320   8.136  0.7568 -0.0989 -0.5569
 3869SOL    HW123243   1.452   1.286   8.053 -0.3958  0.0851 -1.0597
 3869SOL    HW223244   1.369   1.397   8.110  0.9359 -0.1748 -1.1381
 3870SOL     OW23245   3.827   0.845   6.252  0.2318 -0.8651  0.2366
 3870SOL    HW123246   3.918   0.860   6.275  0.2142 -0.4242  0.0180
 3870SOL    HW223247   3.814   0.752   6.270 -1.2352 -0.8679 -0.7835
 3871SOL     OW23248   1.728   3.736  16.664 -0.8820 -0.3668  0.2936
 3871SOL    HW123249   1.786   3.706  16.734  2.9374 -1.6459 -3.4373
 3871SOL    HW223250   1.754   3.686  16.587  0.0350 -0.2824  0.5490
 3872SOL     OW23251   4.590   4.070   3.740  0.0715 -0.3243 -0.4930
 3872SOL    HW123252   4.606   3.993   3.795  0.4032  2.0729  2.7602
 3872SOL    HW223253   4.569   4.136   3.806  0.3813 -0.1702 -0.5531
 3873SOL     OW23254   3.178   0.121  10.640  0.9849  0.1322  0.2344
 3873SOL    HW123255   3.235   0.107  10.715  1.0049 -1.6180 -0.0906
 3873SOL    HW223256   3.203   0.212  10.629 -1.6245  0.8794  0.5885
 3874SOL     OW23257   4.524   0.282   3.468 -0.2638  0.3461  0.0128
 3874SOL    HW123258   4.590   0.326   3.522 -0.7250  0.6701  0.3120
 3874SOL    HW223259   4.482   0.218   3.526  1.6888 -0.7412  0.2029
 3875SOL     OW23260   3.976   1.008   6.643 -0.0298  0.1640  0.6039
 3875SOL    HW123261   3.996   1.100   6.657 -0.1072  0.0972  1.1483
 3875SOL    HW223262   3.890   1.010   6.601 -0.3343  0.0202  1.2112
 3876SOL     OW23263   1.539   0.770  12.380  0.2474  0.7286  0.0223
 3876SOL    HW123264   1.501   0.765  12.468 -1.1208  0.9768 -0.5516
 3876SOL    HW223265   1.463   0.798  12.328  0.7946 -1.2891 -1.8326
 3877SOL     OW23266   4.410   1.167   0.920 -0.0710 -0.0587  0.1526
 3877SOL    HW123267   4.489   1.140   0.873 -1.4096 -1.6575 -1.1698
 3877SOL    HW223268   4.376   1.238   0.866 -3.1286 -0.8692  1.0420
 3878SOL     OW23269   1.051   3.189   3.498 -0.1983 -0.3954 -0.6107
 3878SOL    HW123270   1.025   3.219   3.411  1.4139 -1.2066 -1.3887
 3878SOL    HW223271   1.137   3.151   3.477  0.5874  0.3754  1.2125
 3879SOL     OW23272   3.193   0.934   7.733  0.3897 -0.3690  0.8588
 3879SOL    HW123273   3.251   1.010   7.728  0.9989 -0.9270 -0.4748
 3879SOL    HW223274   3.110   0.972   7.706  0.7609 -1.0870 -1.2943
 3880SOL     OW23275   0.785   2.405   0.224 -0.1048  0.1194 -0.0852
 3880SOL    HW123276   0.833   2.464   0.166  0.9438 -0.1121  0.5413
 3880SOL    HW223277   0.718   2.373   0.164  0.9815 -1.8513 -0.2437
 3881SOL     OW23278   3.579   0.597   8.938  0.7366 -0.1279  0.1713
 3881SOL    HW123279   3.601   0.529   9.002 -0.6282  0.4696  1.2636
 3881SOL    HW223280   3.607   0.675   8.986 -2.8671  0.1257  1.8991
 3882SOL     OW23281   1.125   4.090  13.124  0.5311 -0.1832  0.2126
 3882SOL    HW123282   1.182   4.018  13.098 -0.0546 -1.3670  2.2023
 3882SOL    HW223283   1.054   4.033  13.153 -0.2135 -0.7667 -2.7654
 3883SOL     OW23284   1.411   2.595   6.605  0.2777  0.1917  0.4263
 3883SOL    HW123285   1.323   2.627   6.586  0.5059  0.5549 -0.0462
 3883SOL    HW223286   1.427   2.622   6.695  0.5937 -0.3705  0.5358
 3884SOL     OW23287   0.625   2.239   4.929  0.0081 -0.2235  0.1208
 3884SOL    HW123288   0.588   2.157   4.963  0.5795 -0.6910 -0.3834
 3884SOL    HW223289   0.543   2.288   4.919 -0.3538 -0.7831  0.3207
 3885SOL     OW23290   0.500   2.371   8.458 -0.4882 -0.2124  0.0383
 3885SOL    HW123291   0.466   2.372   8.369 -0.6079 -2.3887  0.0532
 3885SOL    HW223292   0.577   2.427   8.447 -2.4664  2.5199  0.3122
 3886SOL     OW23293   1.256   2.855  14.266  0.3188 -0.0053 -0.4308
 3886SOL    HW123294   1.292   2.943  14.272 -0.3325  0.1031  1.8410
 3886SOL    HW223295   1.173   2.879  14.307  1.6262  2.1389  0.9179
 3887SOL     OW23296   2.524   0.647  12.198  0.0303 -0.2651 -0.2037
 3887SOL    HW123297   2.484   0.709  12.137  1.3427  1.0477  0.2437
 3887SOL    HW223298   2.463   0.574  12.195  1.2248 -1.3083  0.9991
 3888SOL     OW23299   0.504   0.475  10.236 -0.3913  0.4949 -0.2809
 3888SOL    HW123300   0.423   0.523  10.218 -0.9351 -0.5358 -0.5210
 3888SOL    HW223301   0.560   0.551  10.254  1.6584 -0.9969 -0.3068
 3889SOL     OW23302   0.465   3.552   4.039 -0.1338 -0.1704  0.8616
 3889SOL    HW123303   0.494   3.587   3.955 -0.7507 -0.2557  0.6127
 3889SOL    HW223304   0.548   3.557   4.086 -0.2857 -0.4777  1.1663
 3890SOL     OW23305   2.852   4.323   7.286  0.3475  0.2708  0.0109
 3890SOL    HW123306   2.843   4.244   7.233 -1.8654  0.6469 -0.2013
 3890SOL    HW223307   2.925   4.291   7.339  1.3157 -0.7573 -1.9531
 3891SOL     OW23308   0.010   3.571   3.981  0.0287  0.1341  0.1651
 3891SOL    HW123309   4.703   3.656   3.978 -3.7402 -1.8799 -2.2075
 3891SOL    HW223310   4.687   3.523   4.037 -0.0035  0.6436  0.5649
 3892SOL     OW23311   1.217   2.166   9.063 -0.3129  0.5035  0.5113
 3892SOL    HW123312   1.208   2.224   9.139  1.2621  0.9413  0.3606
 3892SOL    HW223313   1.299   2.127   9.092 -0.4510 -1.2182 -1.4409
 3893SOL     OW23314   1.189   3.955   0.626 -0.0632 -0.1013 -0.0288
 3893SOL    HW123315   1.222   3.866   0.617 -1.5973 -0.6006 -0.6945
 3893SOL    HW223316   1.160   3.978   0.538 -1.2525 -0.0835  0.3745
 3894SOL     OW23317   3.378   4.516  13.300 -0.5353 -0.5456  0.1713
 3894SOL    HW123318   3.304   4.456  13.299  1.4330 -2.9847  0.5374
 3894SOL    HW223319   3.404   4.524  13.392 -0.7357  2.1095  0.0086
 3895SOL     OW23320   1.581   3.146   7.133 -0.0068 -0.0010 -0.1588
 3895SOL    HW123321   1.642   3.072   7.127 -1.7376 -1.3367 -1.2030
 3895SOL    HW223322   1.509   3.116   7.078  0.1645  1.2197 -1.0454
 3896SOL     OW23323   4.565   2.485  17.534 -0.3110  0.5949  0.2781
 3896SOL    HW123324   4.502   2.534  17.482 -2.2024 -2.9172 -0.6945
 3896SOL    HW223325   4.545   2.528  17.618  1.0049 -0.9512  1.3792
 3897SOL     OW23326   2.596   4.526   0.176  0.0491  0.1123 -0.1844
 3897SOL    HW123327   2.543   4.534   0.097  0.1742  2.5845 -0.0445
 3897SOL    HW223328   2.590   4.617   0.205  2.1545  0.6522 -1.4106
 3898SOL     OW23329   3.932   1.818  13.919 -0.1585  0.5367 -0.4299
 3898SOL    HW123330   3.876   1.818  13.997  1.6273  1.6892  0.8402
 3898SOL    HW223331   3.972   1.905  13.915  1.0151  0.1019  2.5944
 3899SOL     OW23332   0.101   3.429   7.989  0.4056  0.5797  0.0883
 3899SOL    HW123333   0.007   3.422   7.977  0.3102  0.0653  1.1285
 3899SOL    HW223334   0.111   3.354   8.048  0.9854  1.4055  1.0567
 3900SOL     OW23335   1.166   2.850   2.551  0.2625 -0.3105 -0.3350
 3900SOL    HW123336   1.113   2.785   2.598 -1.1989  2.1480  1.4859
 3900SOL    HW223337   1.246   2.801   2.534  0.8259  0.7506 -0.7173
 3901SOL     OW23338   0.605   1.666  13.533 -0.4696  0.4800  0.3309
 3901SOL    HW123339   0.611   1.728  13.461 -0.2548  0.8476  0.6633
 3901SOL    HW223340   0.510   1.654  13.533 -0.0482 -3.1280  1.8929
 3902SOL     OW23341   3.926   4.649   2.770  0.1687  0.4438 -0.0370
 3902SOL    HW123342   3.875   4.688   2.841 -1.2706  1.6600 -1.7446
 3902SOL    HW223343   3.858   4.593   2.733 -0.9503  1.1615  0.9356
 3903SOL     OW23344   1.240   3.443  12.069 -0.0407 -0.0130  0.1810
 3903SOL    HW123345   1.172   3.410  12.009  1.5214  0.5997 -1.9217
 3903SOL    HW223346   1.193   3.450  12.152 -0.4265 -0.3182 -0.0122
 3904SOL     OW23347   4.281   3.722   4.224  0.3802 -0.3820 -0.7652
 3904SOL    HW123348   4.195   3.679   4.224  0.0623  0.2585  0.8147
 3904SOL    HW223349   4.336   3.660   4.272  0.6788  0.7566  0.3687
 3905SOL     OW23350   0.414   3.702   7.424  0.7200 -0.0181  0.0732
 3905SOL    HW123351   0.431   3.624   7.478 -0.9417 -0.6072 -0.2511
 3905SOL    HW223352   0.363   3.662   7.354  1.8931 -0.1999 -0.6661
 3906SOL     OW23353   2.224   1.765   1.530  0.2110 -0.0845  0.5717
 3906SOL    HW123354   2.181   1.747   1.447 -0.3469  0.1085  0.8196
 3906SOL    HW223355   2.178   1.840   1.568 -0.3284  0.6955 -1.6134
 3907SOL     OW23356   1.683   4.368   1.850 -0.0194  0.2603  0.1941
 3907SOL    HW123357   1.767   4.321   1.858 -2.2342 -3.8402 -0.5928
 3907SOL    HW223358   1.626   4.325   1.913  0.5107  0.0827  0.5550
 3908SOL     OW23359   0.250   3.126   2.593  0.2256  0.2331  0.6288
 3908SOL    HW123360   0.225   3.108   2.502  1.7671 -0.5751  0.3657
 3908SOL    HW223361   0.343   3.126   2.571 -0.3916 -2.3939 -2.0013
 3909SOL     OW23362   1.209   2.164   8.653 -0.2817  0.0538  0.3099
 3909SOL    HW123363   1.161   2.082   8.644  1.3260 -1.0393  1.5160
 3909SOL    HW223364   1.269   2.148   8.726 -3.4274  1.4756  3.1657
 3910SOL     OW23365   2.694   1.038   1.888  0.3006  0.2085  0.3224
 3910SOL    HW123366   2.777   1.087   1.890  0.0136  0.7478 -1.1012
 3910SOL    HW223367   2.642   1.088   1.951 -0.6232 -0.0986 -0.2120
 3911SOL     OW23368   1.576   3.173   2.898 -0.1407  0.3304 -0.3830
 3911SOL    HW123369   1.592   3.265   2.877 -0.7307  1.0307  2.1872
 3911SOL    HW223370   1.649   3.142   2.953  0.9811  0.3842 -1.8398
 3912SOL     OW23371   1.012   0.631   3.779 -0.0363  0.4671 -0.2449
 3912SOL    HW123372   1.105   0.618   3.763 -0.1435  0.3995 -0.7876
 3912SOL    HW223373   1.007   0.726   3.770 -0.5636  0.2267 -2.4056
 3913SOL     OW23374   1.115   0.156   7.821 -0.4920 -0.2444 -0.4184
 3913SOL    HW123375   1.148   0.205   7.896 -0.7725 -1.3366  0.4147
 3913SOL    HW223376   1.062   0.215   7.767  0.2960  0.9024  0.0607
 3914SOL     OW23377   0.019   0.833   7.972  0.3734  0.0079 -0.7941
 3914SOL    HW123378   4.685   0.848   8.034  0.1256 -1.1780 -0.7932
 3914SOL    HW223379   0.075   0.908   7.990 -0.8254  0.2283  2.1438
 3915SOL     OW23380   2.965   4.725   2.524  0.0822  0.3204 -0.3468
 3915SOL    HW123381   3.025   0.045   2.476  0.0039  0.9949  0.3565
 3915SOL    HW223382   3.026   4.667   2.571  0.5029  1.5861  0.6548
 3916SOL     OW23383   0.883   4.081   3.328  0.5206  0.1294 -0.1550
 3916SOL    HW123384   0.824   4.068   3.254  0.0756 -0.5360  0.3116
 3916SOL    HW223385   0.863   4.173   3.341 -0.0960  0.2723 -2.1800
 3917SOL     OW23386   2.505   0.736   2.523  0.4459 -0.6916  0.7943
 3917SOL    HW123387   2.421   0.711   2.562  1.2674 -2.3830  1.4587
 3917SOL    HW223388   2.519   0.823   2.559  2.5742 -1.0979  0.9358
 3918SOL     OW23389   4.649   0.495   6.587  0.2649  0.1211 -0.9646
 3918SOL    HW123390   4.683   0.569   6.638  0.8995 -1.4591  0.8772
 3918SOL    HW223391   4.660   0.535   6.500 -0.5989  1.2441 -0.5572
 3919SOL     OW23392   4.672   4.520   1.094 -0.3010  0.0016  0.1457
 3919SOL    HW123393   4.621   4.570   1.157 -2.1907 -2.1573  0.3380
 3919SOL    HW223394   4.706   4.593   1.043 -0.8434 -1.5987 -2.5213
 3920SOL     OW23395   0.938   0.926  14.823 -0.1678  0.5079 -0.4077
 3920SOL    HW123396   0.884   0.849  14.805 -0.2413  0.0915  1.5594
 3920SOL    HW223397   1.020   0.884  14.799  0.8668  2.2431  0.0334
 3921SOL     OW23398   1.154   1.035   6.819  0.0026 -0.4925 -0.1114
 3921SOL    HW123399   1.195   1.110   6.776  0.1936 -0.8708 -0.5733
 3921SOL    HW223400   1.197   0.969   6.766  0.2468 -0.2185 -0.2567
 3922SOL     OW23401   3.187   3.920   2.494  0.2071 -0.7135  0.6345
 3922SOL    HW123402   3.208   4.009   2.466  1.1648 -1.2170 -0.2768
 3922SOL    HW223403   3.150   3.930   2.582  1.1196 -0.5741  1.0041
 3923SOL     OW23404   1.398   3.314   6.505  0.4380  0.3896 -0.7463
 3923SOL    HW123405   1.487   3.333   6.535  0.2558  1.2686 -0.7484
 3923SOL    HW223406   1.384   3.383   6.440 -0.5902 -1.5484 -2.5939
 3924SOL     OW23407   0.319   2.251   3.660  0.4402  0.2304  0.1232
 3924SOL    HW123408   0.318   2.280   3.751 -0.4289 -1.3186  0.6066
 3924SOL    HW223409   0.245   2.191   3.650  0.9416 -0.6149  1.6118
 3925SOL     OW23410   3.501   4.608   6.126 -0.3596  0.0690 -0.4086
 3925SOL    HW123411   3.581   4.575   6.085 -0.6735 -0.1238 -0.8671
 3925SOL    HW223412   3.475   4.667   6.056  2.3809  3.6410  1.6014
 3926SOL     OW23413   3.559   0.043   9.130 -0.2891  0.2394  0.6373
 3926SOL    HW123414   3.562   4.705   9.189 -1.5061  0.2483  0.6963
 3926SOL    HW223415   3.529   0.007   9.046  1.0989 -0.1014  0.2842
 3927SOL     OW23416   0.066   0.267   1.718 -0.0872  0.0872  0.1685
 3927SOL    HW123417   0.090   0.222   1.637  1.7656  0.6335  0.4018
 3927SOL    HW223418   0.104   0.352   1.695 -1.7940  0.4301 -1.3369
 3928SOL     OW23419   3.914   3.162   3.496  0.6515  0.4166  0.0684
 3928SOL    HW123420   3.865   3.225   3.443  0.1696  0.3020  0.3778
 3928SOL    HW223421   3.983   3.220   3.528 -0.6935  1.8490  0.3972
 3929SOL     OW23422   2.578   2.607   2.082  1.0776  0.7385  0.6442
 3929SOL    HW123423   2.615   2.521   2.101  0.9876  0.5166 -0.1540
 3929SOL    HW223424   2.636   2.618   2.006  1.9024 -1.4620  0.9595
 3930SOL     OW23425   4.701   2.192  12.575 -0.1176  0.0478  0.2137
 3930SOL    HW123426   0.030   2.167  12.511  1.4361  3.1087  0.6340
 3930SOL    HW223427   4.624   2.182  12.518 -0.0967  2.2532 -0.1906
 3931SOL     OW23428   3.425   4.078   7.613  0.0828 -0.1717 -0.3155
 3931SOL    HW123429   3.503   4.042   7.570 -0.4880 -0.1840 -1.3468
 3931SOL    HW223430   3.353   4.043   7.562 -1.1781  0.9858  0.6569
 3932SOL     OW23431   3.536   0.822  13.954  0.3929 -0.6043 -0.3280
 3932SOL    HW123432   3.619   0.850  13.914 -0.5659  1.4142 -0.9218
 3932SOL    HW223433   3.489   0.896  13.992 -0.0753 -0.6881 -0.7543
 3933SOL     OW23434   4.339   4.143  15.415 -0.2564  0.0861 -0.4322
 3933SOL    HW123435   4.420   4.093  15.425 -0.1837  0.4895  0.9695
 3933SOL    HW223436   4.333   4.134  15.320  1.8427 -1.6685 -0.4164
 3934SOL     OW23437   4.308   3.072   4.675 -0.1802 -0.1146 -0.4165
 3934SOL    HW123438   4.261   3.000   4.717 -1.4738  1.2995  0.5544
 3934SOL    HW223439   4.332   3.029   4.593  1.4144  0.1689 -0.0955
 3935SOL     OW23440   1.535   0.943  16.647  0.3043  0.5929  0.1202
 3935SOL    HW123441   1.508   0.871  16.591  1.3825 -1.1416  1.7977
 3935SOL    HW223442   1.623   0.946  16.609 -0.5201 -1.0925 -1.9065
 3936SOL     OW23443   1.298   3.919   6.804 -0.8200  0.0819 -0.1546
 3936SOL    HW123444   1.203   3.931   6.799 -0.9721 -1.1004 -0.2838
 3936SOL    HW223445   1.320   4.012   6.803 -0.0740 -0.0716  2.3328
 3937SOL     OW23446   2.363   2.308  16.842 -0.0352 -0.0494  0.7552
 3937SOL    HW123447   2.291   2.303  16.906  0.2576  0.2817  1.1127
 3937SOL    HW223448   2.418   2.372  16.886 -0.7101  0.0832  1.4200
 3938SOL     OW23449   2.776   0.134  17.378  0.3233  0.0352 -0.1297
 3938SOL    HW123450   2.697   0.157  17.427  1.1447  1.5834  0.4335
 3938SOL    HW223451   2.736   0.079  17.310 -0.2992 -0.9941  1.0530
 3939SOL     OW23452   0.323   4.627   4.971 -0.3624 -0.1597 -0.0161
 3939SOL    HW123453   0.327   4.679   4.891 -3.9197 -0.2705 -0.2932
 3939SOL    HW223454   0.230   4.605   4.973 -0.1111 -1.3243 -1.4214
 3940SOL     OW23455   4.178   2.273   6.585 -0.0359 -0.2661 -0.4232
 3940SOL    HW123456   4.128   2.255   6.664  0.9683  0.7497  0.4460
 3940SOL    HW223457   4.144   2.360   6.563 -0.5548 -0.0463  1.2782
 3941SOL     OW23458   1.716   3.364  11.949  0.0426  0.6932  0.4762
 3941SOL    HW123459   1.648   3.423  11.980 -1.3658 -0.0081 -1.2618
 3941SOL    HW223460   1.790   3.416  11.918  0.1032  2.3503  3.4552
 3942SOL     OW23461   0.230   1.134  10.027  0.3748 -0.2464 -0.2488
 3942SOL    HW123462   0.219   1.092   9.942  1.5901 -0.7251 -0.1732
 3942SOL    HW223463   0.144   1.112  10.062  1.5080 -0.9232  2.1641
 3943SOL     OW23464   4.408   0.195  16.194 -0.3663 -0.6597  0.1678
 3943SOL    HW123465   4.468   0.244  16.250  0.1441  0.4680 -1.3474
 3943SOL    HW223466   4.476   0.192  16.126 -0.8539  1.9215 -0.4147
 3944SOL     OW23467   1.507   1.348   6.700  0.0251  0.1911  0.5654
 3944SOL    HW123468   1.550   1.335   6.784  3.1844  4.5234 -0.3958
 3944SOL    HW223469   1.496   1.443   6.699  0.0483  0.1815 -1.9731
 3945SOL     OW23470   2.255   4.034   7.628 -0.4153 -0.7519  0.3592
 3945SOL    HW123471   2.181   4.079   7.587  0.1906 -1.2503 -1.3023
 3945SOL    HW223472   2.291   4.100   7.688 -0.2365  1.2364 -1.9406
 3946SOL     OW23473   0.613   4.635   3.585 -0.1102  0.4032  0.3333
 3946SOL    HW123474   0.688   4.586   3.620  1.2816  1.8656 -0.6331
 3946SOL    HW223475   0.595   4.690   3.661 -1.1362 -0.0542  0.4312
 3947SOL     OW23476   4.498   3.481  14.983  0.6114  0.0545  0.3789
 3947SOL    HW123477   4.431   3.441  15.037  1.0931 -1.9190 -0.4838
 3947SOL    HW223478   4.574   3.424  14.996 -1.1710 -2.3556  0.3054
 3948SOL     OW23479   0.966   3.050   1.929 -0.4164 -0.0890  0.2068
 3948SOL    HW123480   0.878   3.035   1.963 -0.1828 -1.5182  0.2001
 3948SOL    HW223481   0.985   2.961   1.900  0.8920  0.7671 -1.5576
 3949SOL     OW23482   0.110   2.601  13.329  0.2191  0.7412 -0.6995
 3949SOL    HW123483   0.158   2.561  13.256  1.0778  0.4667  0.0192
 3949SOL    HW223484   0.168   2.666  13.368 -0.8682  1.3063 -0.0336
 3950SOL     OW23485   2.147   0.641   6.388  0.3674  0.1613  0.5861
 3950SOL    HW123486   2.146   0.551   6.353 -1.2494  0.8755 -1.1811
 3950SOL    HW223487   2.181   0.626   6.476 -0.9710  3.3538  1.6213
 3951SOL     OW23488   3.637   3.873   9.350  0.3085  0.4215  0.2493
 3951SOL    HW123489   3.711   3.813   9.366 -0.5156 -1.0715 -1.6435
 3951SOL    HW223490   3.640   3.930   9.427 -0.0637  1.0841 -0.2359
 3952SOL     OW23491   4.253   0.138   3.375  0.3312 -0.1644  0.5386
 3952SOL    HW123492   4.328   0.183   3.336 -0.5532 -0.4731 -1.5386
 3952SOL    HW223493   4.277   0.057   3.329 -0.6651 -1.0681  1.6288
 3953SOL     OW23494   4.589   4.212   1.105  0.0540  0.0632 -0.4199
 3953SOL    HW123495   4.553   4.204   1.194 -0.0306 -0.0299 -0.4630
 3953SOL    HW223496   4.609   4.304   1.089  1.3730 -0.5036 -2.0407
 3954SOL     OW23497   3.974   2.330  13.240  0.1028  0.1913  0.0233
 3954SOL    HW123498   3.987   2.347  13.147 -0.7937  3.4763  0.5043
 3954SOL    HW223499   3.878   2.327  13.244  0.2691 -3.8084  1.2037
 3955SOL     OW23500   1.889   3.036  11.356 -0.4931  0.0943  0.3824
 3955SOL    HW123501   1.881   3.097  11.282 -1.0555 -1.4020 -0.7805
 3955SOL    HW223502   1.902   3.086  11.437  3.3892 -1.2696  0.6238
 3956SOL     OW23503   4.280   3.584  13.797  0.0046  0.0210  0.4747
 3956SOL    HW123504   4.203   3.547  13.753  0.4033 -0.2858  0.0297
 3956SOL    HW223505   4.255   3.676  13.802  1.6107  0.3299  2.7888
 3957SOL     OW23506   3.642   2.590  10.089  0.2013  0.2736 -0.0683
 3957SOL    HW123507   3.632   2.536  10.011  2.2478 -0.6781  0.3207
 3957SOL    HW223508   3.557   2.580  10.131  0.2161  1.2456  0.1812
 3958SOL     OW23509   2.915   1.621  13.506  0.1062  0.5493 -0.3014
 3958SOL    HW123510   2.938   1.544  13.558  0.7346  0.3959 -0.8072
 3958SOL    HW223511   2.998   1.652  13.469 -0.2069  0.6924 -0.8815
 3959SOL     OW23512   2.928   1.298   2.704 -0.0091  0.4977 -0.8792
 3959SOL    HW123513   2.979   1.374   2.674 -0.3650  1.5297  1.1192
 3959SOL    HW223514   2.860   1.294   2.637 -0.1849  2.9686 -0.8691
 3960SOL     OW23515   3.163   4.614  13.046  0.2694  0.4306  0.0044
 3960SOL    HW123516   3.202   4.618  12.958 -1.6618  1.9692 -0.7737
 3960SOL    HW223517   3.075   4.599  13.011 -0.1419  0.4699  1.0224
 3961SOL     OW23518   3.791   0.734   2.186 -0.2135  0.2544 -0.1627
 3961SOL    HW123519   3.721   0.702   2.130  0.0816  1.7783 -1.3923
 3961SOL    HW223520   3.741   0.735   2.268 -0.4989  0.1876 -0.3351
 3962SOL     OW23521   4.613   0.890   8.636 -0.0018 -0.4797  0.1048
 3962SOL    HW123522   4.522   0.892   8.667 -0.5946 -0.5165 -1.6206
 3962SOL    HW223523   4.662   0.912   8.716  0.1210 -1.1836  0.2235
 3963SOL     OW23524   3.231   1.983   4.865  0.1065 -0.4362 -0.5712
 3963SOL    HW123525   3.226   2.020   4.777  2.3539 -0.3925 -0.6871
 3963SOL    HW223526   3.231   2.065   4.913  1.2295  0.1279 -1.5338
 3964SOL     OW23527   4.269   1.759   3.919  0.3401  0.3106  0.0802
 3964SOL    HW123528   4.224   1.818   3.980 -1.2284 -1.1115  0.2995
 3964SOL    HW223529   4.232   1.677   3.952  1.0534  0.4507  1.2405
 3965SOL     OW23530   2.951   1.818   2.071 -0.1298  0.1166  0.0293
 3965SOL    HW123531   3.025   1.867   2.037 -0.4990  1.1455  0.7332
 3965SOL    HW223532   2.981   1.729   2.092  0.9055 -0.0737 -2.1768
 3966SOL     OW23533   3.749   1.307   0.426 -0.0746  0.0483 -0.0505
 3966SOL    HW123534   3.779   1.238   0.485  1.4480  1.0470  0.3365
 3966SOL    HW223535   3.685   1.266   0.368 -0.6823  0.3460  0.4102
 3967SOL     OW23536   1.553   4.651   5.559  0.4814  0.0609 -0.1177
 3967SOL    HW123537   1.491   4.706   5.606  0.8995 -1.0727  1.7544
 3967SOL    HW223538   1.506   4.567   5.557  2.2498 -0.9105 -0.7864
 3968SOL     OW23539   1.385   1.773   2.704 -0.0561 -0.1197 -0.2753
 3968SOL    HW123540   1.439   1.719   2.646 -0.4534 -0.8082 -0.0091
 3968SOL    HW223541   1.321   1.804   2.639 -1.8280  0.9953  2.0057
 3969SOL     OW23542   1.971   3.156  13.681 -0.3059 -0.0703  0.2235
 3969SOL    HW123543   1.998   3.122  13.766 -1.3657 -0.9902  0.1812
 3969SOL    HW223544   2.051   3.202  13.656  0.3059 -2.0106 -1.3347
 3970SOL     OW23545   4.717   1.010   9.231  0.6762  0.1440 -0.4540
 3970SOL    HW123546   4.715   1.072   9.158 -0.2545  1.1795  0.4456
 3970SOL    HW223547   4.628   0.976   9.225  0.9448 -0.5505 -0.5337
 3971SOL     OW23548   0.505   2.114  17.391 -0.0241  0.2225 -0.6668
 3971SOL    HW123549   0.474   2.024  17.387  0.5311  0.0503 -1.0639
 3971SOL    HW223550   0.594   2.104  17.425 -0.4918 -1.5832  0.0059
 3972SOL     OW23551   3.424   4.243   3.726  0.1488 -0.0997 -0.3431
 3972SOL    HW123552   3.345   4.214   3.681  0.9687 -1.3483 -0.9614
 3972SOL    HW223553   3.418   4.198   3.810  0.1523 -2.7781 -1.7727
 3973SOL     OW23554   3.089   1.757   6.859 -0.1286  0.4050 -0.0264
 3973SOL    HW123555   3.062   1.750   6.950 -1.3222  0.1052 -0.3948
 3973SOL    HW223556   3.103   1.852   6.852 -2.8787  0.9560  1.8139
 3974SOL     OW23557   2.067   3.056  15.844 -0.5109 -0.3096  0.3349
 3974SOL    HW123558   2.136   3.025  15.786  0.4566  0.4437  1.0790
 3974SOL    HW223559   2.091   3.149  15.852 -1.0310 -0.1269 -0.1968
 3975SOL     OW23560   2.800   0.245  15.306  0.3332 -0.5296  0.2230
 3975SOL    HW123561   2.804   0.268  15.399 -0.4505  0.7148 -0.0540
 3975SOL    HW223562   2.813   0.150  15.309  1.2186 -0.4201 -0.2204
 3976SOL     OW23563   1.198   1.869   4.713  0.3204  0.0592  0.0605
 3976SOL    HW123564   1.160   1.954   4.691 -2.7698 -1.1546  0.5865
 3976SOL    HW223565   1.220   1.884   4.805  0.5382  1.6835 -0.2579
 3977SOL     OW23566   0.821   2.696   2.533 -0.3469  0.3954 -0.2829
 3977SOL    HW123567   0.857   2.631   2.593 -0.9051 -0.3145 -0.7251
 3977SOL    HW223568   0.831   2.772   2.591  0.0614 -0.7828  1.2026
 3978SOL     OW23569   1.708   2.534   1.738  0.4855  0.5519  0.4464
 3978SOL    HW123570   1.644   2.463   1.737 -0.1900  1.1578  0.7233
 3978SOL    HW223571   1.657   2.613   1.720 -0.2901  0.0977  0.6542
 3979SOL     OW23572   2.977   4.303   2.586 -0.7422  0.3678  0.5735
 3979SOL    HW123573   3.030   4.348   2.652 -0.6827  0.0228  0.7605
 3979SOL    HW223574   2.903   4.361   2.567  0.4082  1.4112 -0.7217
 3980SOL     OW23575   2.527   0.333   5.878 -0.2580  0.5262 -0.1712
 3980SOL    HW123576   2.530   0.368   5.789  2.4950  1.6350  0.3479
 3980SOL    HW223577   2.621   0.334   5.896 -0.0287 -2.1808 -1.1042
 3981SOL     OW23578   2.493   2.160   2.185 -0.4472 -0.7599 -0.1986
 3981SOL    HW123579   2.548   2.177   2.261 -2.4036  1.3331  0.7485
 3981SOL    HW223580   2.494   2.064   2.185  0.6897 -0.7359 -3.5795
 3982SOL     OW23581   1.837   4.567   9.239  0.1957  0.2279  0.3231
 3982SOL    HW123582   1.865   4.548   9.329 -0.2846 -1.8478  0.0385
 3982SOL    HW223583   1.742   4.559   9.239  0.2087  0.0370 -0.8318
 3983SOL     OW23584   4.713   3.700  15.117  0.0626  0.5178  0.4540
 3983SOL    HW123585   4.716   3.661  15.204 -0.1395  1.8735  1.0693
 3983SOL    HW223586   0.021   3.630  15.070 -1.7803  1.1728 -2.2875
 3984SOL     OW23587   4.029   0.221   3.631  0.0228  0.2332 -0.6177
 3984SOL    HW123588   4.122   0.218   3.608 -0.2439 -0.8298 -1.5432
 3984SOL    HW223589   4.029   0.137   3.677  2.6662  0.9421  0.7196
 3985SOL     OW23590   3.825   2.908  15.008  0.6199  0.1605  0.1717
 3985SOL    HW123591   3.747   2.957  14.982  1.0694  1.0853  0.5712
 3985SOL    HW223592   3.802   2.816  14.993  0.2537  0.0461  1.4313
 3986SOL     OW23593   3.776   3.283   4.867  0.4737  0.4415  0.3163
 3986SOL    HW123594   3.707   3.220   4.848  0.2653  0.8127 -0.1732
 3986SOL    HW223595   3.722   3.360   4.845  1.0233  2.3046  5.5108
 3987SOL     OW23596   4.386   1.421   1.566 -0.6412  0.1402  0.1763
 3987SOL    HW123597   4.446   1.477   1.616  0.7018  0.4157 -1.7461
 3987SOL    HW223598   4.384   1.478   1.489  0.6031 -0.8342 -0.5783
 3988SOL     OW23599   3.303   3.692   7.712 -0.4446 -0.1534 -0.3612
 3988SOL    HW123600   3.277   3.754   7.780  0.8321 -0.4132  0.3596
 3988SOL    HW223601   3.348   3.747   7.648  2.0417 -1.4104  0.3000
 3989SOL     OW23602   3.707   3.684   3.969 -0.2104 -0.0388 -0.1957
 3989SOL    HW123603   3.666   3.769   3.983 -0.5930 -0.3551  0.5963
 3989SOL    HW223604   3.640   3.651   3.909 -0.3577 -0.9246  0.4713
 3990SOL     OW23605   3.888   1.331   3.817 -0.3010  0.3934 -0.4589
 3990SOL    HW123606   3.965   1.379   3.787 -0.7630  0.8678 -0.8948
 3990SOL    HW223607   3.864   1.386   3.892  2.0027  3.1469 -1.7500
 3991SOL     OW23608   1.146   0.608   8.399 -0.3611 -0.4090  0.5046
 3991SOL    HW123609   1.146   0.540   8.466  0.3137 -0.9794 -0.0746
 3991SOL    HW223610   1.164   0.689   8.447 -2.3092 -0.7768  1.8462
 3992SOL     OW23611   1.777   2.076   7.879  0.3714  0.1062  0.2635
 3992SOL    HW123612   1.747   2.166   7.894 -0.5734 -0.5075  2.0888
 3992SOL    HW223613   1.871   2.095   7.869  0.3432  0.4966  0.6914
 3993SOL     OW23614   1.376   3.567  14.162  0.4266 -0.0381  0.1035
 3993SOL    HW123615   1.436   3.512  14.213 -0.6458  0.0557  1.4719
 3993SOL    HW223616   1.299   3.553  14.217  0.6449  1.2509  0.7313
 3994SOL     OW23617   3.257   1.660   2.458  0.1131  0.1534  0.5514
 3994SOL    HW123618   3.201   1.736   2.441  0.2374  0.2707  0.6576
 3994SOL    HW223619   3.290   1.695   2.542  1.0756  1.4725 -0.3777
 3995SOL     OW23620   3.163   0.485   6.546  0.3114  0.0419 -0.1883
 3995SOL    HW123621   3.258   0.487   6.551  0.4374 -0.7135 -2.0685
 3995SOL    HW223622   3.139   0.466   6.636  2.3235  1.9559  0.7461
 3996SOL     OW23623   3.286   3.447  16.884 -0.4630  0.1622 -0.1701
 3996SOL    HW123624   3.335   3.528  16.870 -1.4815  0.8829  0.4882
 3996SOL    HW223625   3.324   3.396  16.812 -0.2302  0.7562 -0.4661
 3997SOL     OW23626   2.395   2.871   5.934  0.2486  0.7426  0.0064
 3997SOL    HW123627   2.345   2.892   6.013  0.9447 -0.0293  0.6534
 3997SOL    HW223628   2.451   2.949   5.937  1.7517 -0.3954  1.2814
 3998SOL     OW23629   3.867   3.748   6.729 -0.0236  0.3361 -0.1746
 3998SOL    HW123630   3.776   3.763   6.703 -0.2389  0.4826  0.6499
 3998SOL    HW223631   3.873   3.793   6.813 -2.0785  0.6811 -0.1964
 3999SOL     OW23632   1.556   2.079  16.253  0.0579  0.7280 -0.0537
 3999SOL    HW123633   1.626   2.141  16.236  0.5372 -0.9399 -4.1213
 3999SOL    HW223634   1.475   2.131  16.251  0.0334  0.7126  0.7643
 4000SOL     OW23635   1.845   3.234  13.363  0.3781  0.5189  0.3890
 4000SOL    HW123636   1.894   3.316  13.364  0.7043  0.3268  0.0964
 4000SOL    HW223637   1.916   3.176  13.336  0.0614 -0.6068  1.9967
 4001SOL     OW23638   0.652   2.532   5.753  0.3645  0.6753  0.1202
 4001SOL    HW123639   0.651   2.625   5.730 -0.5859  0.6821  0.1718
 4001SOL    HW223640   0.558   2.517   5.744  0.4795 -0.2654  0.5119
 4002SOL     OW23641   0.944   3.814   4.638 -0.7817  0.2511 -0.1135
 4002SOL    HW123642   0.934   3.889   4.697  2.0871  2.0055 -1.8057
 4002SOL    HW223643   1.033   3.781   4.648 -0.7246 -0.0162 -1.4651
 4003SOL     OW23644   1.811   1.919   1.035 -0.8319  0.0490 -0.3577
 4003SOL    HW123645   1.724   1.889   1.010 -0.8067 -0.6325  0.3751
 4003SOL    HW223646   1.871   1.851   1.002  0.3727  0.1215  1.7188
 4004SOL     OW23647   1.056   3.921   5.774 -0.6472  0.3218 -0.3170
 4004SOL    HW123648   1.028   4.008   5.803  0.1199  0.3537  0.3327
 4004SOL    HW223649   1.125   3.904   5.837 -2.2255  0.0804  1.3398
 4005SOL     OW23650   4.453   1.161   6.196 -0.4119  0.3453 -0.4874
 4005SOL    HW123651   4.380   1.192   6.249  0.0046  2.0220 -0.8948
 4005SOL    HW223652   4.443   1.068   6.216  0.2743  0.6500  1.2952
 4006SOL     OW23653   0.694   2.962   2.009 -0.0352  0.5849 -0.0971
 4006SOL    HW123654   0.640   2.985   2.085  1.4923  1.2239  0.8017
 4006SOL    HW223655   0.622   2.954   1.946  0.7489 -1.4072 -0.7419
 4007SOL     OW23656   4.221   2.485  11.241 -0.0595  0.1028  0.5468
 4007SOL    HW123657   4.298   2.526  11.201  0.0488 -0.4818  0.1615
 4007SOL    HW223658   4.162   2.559  11.227  1.8202  1.6108  0.4273
 4008SOL     OW23659   3.368   3.395   3.668  0.1038  0.1335  0.2495
 4008SOL    HW123660   3.397   3.305   3.686 -3.2002 -0.8897  0.4623
 4008SOL    HW223661   3.388   3.396   3.574 -0.2453  0.4067  0.1817
 4009SOL     OW23662   4.373   0.945   4.268  0.3772  0.7151  0.1891
 4009SOL    HW123663   4.301   0.964   4.328 -0.0096 -0.1708  0.0145
 4009SOL    HW223664   4.443   0.914   4.326  0.8048 -0.4914 -0.9837
 4010SOL     OW23665   0.759   1.137   7.368  0.1619  0.0223  0.0035
 4010SOL    HW123666   0.714   1.220   7.355 -1.5742 -0.6593  1.6484
 4010SOL    HW223667   0.735   1.111   7.458 -0.8603  0.7006 -0.0779
 4011SOL     OW23668   4.622   0.260   6.437 -0.2848 -0.6444  0.6362
 4011SOL    HW123669   4.582   0.233   6.520 -0.9954 -0.8955  0.2088
 4011SOL    HW223670   4.618   0.352   6.460 -2.7651 -0.6038 -0.0275
 4012SOL     OW23671   0.118   0.626   4.784 -0.0827  0.0738  0.0563
 4012SOL    HW123672   0.126   0.719   4.803  3.8097  0.1159 -1.7147
 4012SOL    HW223673   0.046   0.592   4.837 -1.7581 -0.7036 -2.7430
 4013SOL     OW23674   2.224   4.021  16.687  0.1199 -0.3167 -0.6328
 4013SOL    HW123675   2.273   3.938  16.687  0.7359  0.0455  0.5813
 4013SOL    HW223676   2.203   4.025  16.594 -1.1312  0.0718 -0.3270
 4014SOL     OW23677   1.226   4.276   9.859  0.0146  0.3910  0.1893
 4014SOL    HW123678   1.312   4.309   9.835  0.6877 -1.3976  0.1160
 4014SOL    HW223679   1.193   4.346   9.916  0.8502  1.0472 -0.1414
 4015SOL     OW23680   0.960   0.990   2.009  0.3701  0.0658 -0.0639
 4015SOL    HW123681   0.891   1.012   2.072  2.4743 -0.5275  2.4516
 4015SOL    HW223682   0.929   0.907   1.972 -1.0569  0.4638  0.2449
 4016SOL     OW23683   1.986   1.537  10.261 -0.4991 -0.1190  0.3291
 4016SOL    HW123684   2.071   1.495  10.272  0.0761  0.9464 -0.0849
 4016SOL    HW223685   1.944   1.455  10.235  0.8364 -0.6110 -0.2399
 4017SOL     OW23686   3.527   4.597   0.423 -0.7093  0.1704 -0.2391
 4017SOL    HW123687   3.507   4.508   0.393 -1.0502 -0.1853  1.0524
 4017SOL    HW223688   3.567   4.642   0.348 -1.0214 -0.2473 -0.6613
 4018SOL     OW23689   3.177   3.126   6.819 -0.4204 -0.6169  0.3533
 4018SOL    HW123690   3.125   3.152   6.744  2.9856  1.5535 -1.2863
 4018SOL    HW223691   3.123   3.157   6.892 -2.4802 -0.3738 -1.2960
 4019SOL     OW23692   1.443   3.412   2.356  0.0146 -0.3645 -0.2235
 4019SOL    HW123693   1.441   3.323   2.389  3.7373 -0.1759  0.4838
 4019SOL    HW223694   1.518   3.419   2.297 -0.1040  0.2635 -0.3092
 4020SOL     OW23695   2.315   0.933   6.583  0.1995 -0.5863 -0.1824
 4020SOL    HW123696   2.318   0.954   6.490 -1.8608  0.3709 -0.0263
 4020SOL    HW223697   2.355   1.008   6.627 -0.4973 -0.2684 -0.0935
 4021SOL     OW23698   0.238   0.439   3.069 -0.3571  0.4112  0.5070
 4021SOL    HW123699   0.269   0.393   2.991 -0.7154 -1.1339  1.2757
 4021SOL    HW223700   0.170   0.497   3.034  0.1140  1.9569  2.1872
 4022SOL     OW23701   2.183   3.333   2.762 -0.0633  0.3089  0.1059
 4022SOL    HW123702   2.230   3.330   2.678 -0.7821 -0.1175 -0.2793
 4022SOL    HW223703   2.252   3.305   2.823 -0.5862 -0.6647  0.2550
 4023SOL     OW23704   3.108   0.732   3.386 -1.0668 -0.8947 -0.0641
 4023SOL    HW123705   3.113   0.642   3.419  2.0493 -0.7513 -0.1598
 4023SOL    HW223706   3.028   0.755   3.433  1.0633  1.6706  2.3313
 4024SOL     OW23707   0.519   1.096   6.972 -0.8109  0.2583  0.0652
 4024SOL    HW123708   0.506   1.003   6.952  1.0542  0.2168 -0.8741
 4024SOL    HW223709   0.474   1.105   7.056 -0.0809  0.6576  0.4155
 4025SOL     OW23710   0.458   0.748   5.604  0.4104 -0.1342 -0.0513
 4025SOL    HW123711   0.415   0.808   5.665  0.8030  0.0762  0.0207
 4025SOL    HW223712   0.434   0.666   5.647 -1.5450 -0.3194 -1.4902
 4026SOL     OW23713   0.123   0.883  14.351  0.3453 -0.6409 -0.1052
 4026SOL    HW123714   0.077   0.965  14.333  0.9608 -0.2163  0.2472
 4026SOL    HW223715   0.061   0.847  14.415 -1.4205 -1.2337 -2.1440
 4027SOL     OW23716   4.525   2.485   1.469 -0.5878  0.1609  0.6592
 4027SOL    HW123717   4.473   2.521   1.542 -0.0496 -1.4377  1.8357
 4027SOL    HW223718   4.477   2.522   1.396  0.9980  2.1652  0.6186
 4028SOL     OW23719   1.726   3.460   4.426 -0.2604  0.1423 -0.4359
 4028SOL    HW123720   1.700   3.423   4.341 -0.6256 -0.5471 -0.0287
 4028SOL    HW223721   1.818   3.473   4.403 -0.6347 -2.0385 -3.1945
 4029SOL     OW23722   3.423   1.977   3.340 -0.0294  0.0490  0.7154
 4029SOL    HW123723   3.447   1.889   3.368  0.3983 -0.3273 -0.8660
 4029SOL    HW223724   3.463   2.022   3.415  0.5216 -1.6212  1.4099
 4030SOL     OW23725   1.854   4.151  16.021  0.2814  1.5256 -0.3529
 4030SOL    HW123726   1.812   4.071  16.051  0.3385  1.4738 -0.4104
 4030SOL    HW223727   1.900   4.115  15.945  0.2995  0.1720  0.2994
 4031SOL     OW23728   3.367   2.525  11.429  0.4534  0.2376  0.0903
 4031SOL    HW123729   3.384   2.433  11.409 -1.2005  0.3867 -2.0047
 4031SOL    HW223730   3.410   2.534  11.514 -0.6149 -0.3059  0.6925
 4032SOL     OW23731   3.608   4.585  15.957  0.2407 -0.6158  0.0027
 4032SOL    HW123732   3.535   4.600  16.016  0.2059 -1.3697  0.1606
 4032SOL    HW223733   3.557   4.545  15.886 -1.8675  0.3392  0.9982
 4033SOL     OW23734   0.395   3.089  12.109  0.3819  0.0450 -0.4644
 4033SOL    HW123735   0.412   3.040  12.190 -2.5527  0.9858  0.7390
 4033SOL    HW223736   0.300   3.076  12.107 -0.2073  4.0264  1.4115
 4034SOL     OW23737   4.261   0.178   6.057 -0.2815 -0.8227  0.3341
 4034SOL    HW123738   4.355   0.161   6.053  0.5415  3.0330  2.9540
 4034SOL    HW223739   4.221   0.099   6.092 -1.7653  1.2217  3.2546
 4035SOL     OW23740   2.139   2.492   3.877 -0.0936 -0.5826  0.1800
 4035SOL    HW123741   2.104   2.544   3.949 -2.2961 -1.0917 -0.5335
 4035SOL    HW223742   2.168   2.407   3.912 -0.6762 -0.2468  1.4593
 4036SOL     OW23743   2.416   2.251   6.174 -0.3678 -0.0504  0.7246
 4036SOL    HW123744   2.395   2.206   6.092  2.6647 -0.3834  0.1461
 4036SOL    HW223745   2.421   2.177   6.235  1.6796 -0.4443  0.0687
 4037SOL     OW23746   1.492   0.584   1.119 -0.0622  0.1882  0.2565
 4037SOL    HW123747   1.483   0.678   1.138 -1.0290  0.2451 -0.4522
 4037SOL    HW223748   1.558   0.584   1.049  1.2126  1.8179  1.4530
 4038SOL     OW23749   1.336   1.184   8.394 -0.0908 -0.0159 -0.1976
 4038SOL    HW123750   1.274   1.111   8.383  2.0856 -2.3839  3.1787
 4038SOL    HW223751   1.390   1.168   8.317  3.0780  0.1536  2.0105
 4039SOL     OW23752   3.807   0.911  13.881 -0.1228 -0.3275  0.0233
 4039SOL    HW123753   3.753   0.980  13.843 -1.1446 -0.4360  1.2960
 4039SOL    HW223754   3.856   0.879  13.805  0.6174  0.1223  0.3041
 4040SOL     OW23755   4.270   4.568   2.039 -0.6145  0.1014  0.5045
 4040SOL    HW123756   4.278   4.562   2.135 -3.0613  1.6478  0.7956
 4040SOL    HW223757   4.364   4.577   2.020 -0.9447 -1.5833 -1.8748
 4041SOL     OW23758   0.153   1.855  17.007 -0.2854 -0.0390 -0.0491
 4041SOL    HW123759   0.059   1.842  17.020 -0.1707 -0.1233  0.6899
 4041SOL    HW223760   0.179   1.937  17.048  3.9911 -1.7770  0.6888
 4042SOL     OW23761   0.812   2.682   6.816  0.2517  0.0249  0.1287
 4042SOL    HW123762   0.811   2.742   6.891  1.5246  1.8451 -1.3090
 4042SOL    HW223763   0.718   2.667   6.813 -0.1537  2.4887  0.6603
 4043SOL     OW23764   1.479   1.614   6.830  0.3736 -0.2948 -0.5080
 4043SOL    HW123765   1.534   1.613   6.908  1.3344  2.9391 -1.1379
 4043SOL    HW223766   1.393   1.634   6.865 -0.0624 -0.3550 -1.5328
 4044SOL     OW23767   1.656   1.535   4.187  0.1568  0.1550 -0.2610
 4044SOL    HW123768   1.726   1.534   4.122 -0.0362 -1.1786 -0.4480
 4044SOL    HW223769   1.647   1.628   4.205 -3.2521 -0.0816 -0.8145
 4045SOL     OW23770   3.438   0.362   8.860  0.3447  0.3446 -0.4057
 4045SOL    HW123771   3.487   0.401   8.932 -1.5514  1.0643  0.5167
 4045SOL    HW223772   3.359   0.332   8.905  1.2119  0.1736  1.0055
 4046SOL     OW23773   2.176   4.040  15.304  0.4451  0.0714 -0.0425
 4046SOL    HW123774   2.206   3.991  15.381  0.6166  3.0696  1.7830
 4046SOL    HW223775   2.179   4.134  15.316  2.7425 -0.1096  0.8251
 4047SOL     OW23776   4.153   1.576   7.120  0.1084  0.2108  0.2609
 4047SOL    HW123777   4.132   1.487   7.149 -0.6142  0.3313  0.1238
 4047SOL    HW223778   4.247   1.575   7.105  0.0697 -0.4032  0.0484
 4048SOL     OW23779   1.276   1.579   4.280 -0.2928 -0.5628  0.4129
 4048SOL    HW123780   1.335   1.524   4.330 -0.7461 -0.9704  0.4971
 4048SOL    HW223781   1.293   1.540   4.194 -2.4338  1.9089 -1.1828
 4049SOL     OW23782   3.961   2.312   2.622  1.0046  0.1327  0.2064
 4049SOL    HW123783   3.968   2.223   2.657 -2.2241 -0.3970 -0.4927
 4049SOL    HW223784   3.934   2.291   2.533  0.3673  1.9101 -0.0164
 4050SOL     OW23785   0.795   3.963   9.974  0.3430 -0.2267  0.6131
 4050SOL    HW123786   0.829   3.919   9.896  0.1714 -0.4534  0.6637
 4050SOL    HW223787   0.773   3.887  10.028  0.2245  0.2529  1.2441
 4051SOL     OW23788   3.663   1.352   4.523 -0.8768 -0.5395  0.0552
 4051SOL    HW123789   3.699   1.275   4.568  1.3662  0.4485 -0.0423
 4051SOL    HW223790   3.578   1.370   4.562  0.0123  1.6208  0.9798
 4052SOL     OW23791   3.147   3.789   3.743  0.0433 -0.2211  0.5977
 4052SOL    HW123792   3.113   3.699   3.743 -0.3542 -0.0588 -0.9088
 4052SOL    HW223793   3.107   3.817   3.661  0.6858 -0.7124  0.1178
 4053SOL     OW23794   0.509   1.902   6.431 -0.3247 -0.8347  0.3793
 4053SOL    HW123795   0.502   1.993   6.457  1.2063 -0.6838  0.3049
 4053SOL    HW223796   0.507   1.864   6.519  0.2432 -0.3981  0.5785
 4054SOL     OW23797   1.972   2.066  16.770  0.1525  0.5488 -0.4933
 4054SOL    HW123798   1.907   2.015  16.722 -0.7693  1.0945  0.1719
 4054SOL    HW223799   1.964   2.043  16.863 -0.0530  0.7309 -0.4670
 4055SOL     OW23800   2.035   3.737   2.008 -0.5224 -0.6946  0.0053
 4055SOL    HW123801   2.089   3.769   1.936 -1.0127  0.1705  0.0205
 4055SOL    HW223802   2.008   3.647   1.987  1.7436 -1.6180  1.1053
 4056SOL     OW23803   1.227   0.012  12.418 -0.1656  0.5181  0.3802
 4056SOL    HW123804   1.154   4.699  12.455 -3.1837  3.1594 -2.0595
 4056SOL    HW223805   1.237   0.072  12.492  0.1468  1.6013 -0.5422
 4057SOL     OW23806   0.586   4.254   6.895 -0.1329 -0.2297 -0.1431
 4057SOL    HW123807   0.543   4.297   6.821 -0.0086 -2.8658 -1.7554
 4057SOL    HW223808   0.603   4.321   6.962 -2.6475  1.3525 -1.0595
 4058SOL     OW23809   3.525   1.348   7.588  0.6410 -0.7190 -0.4590
 4058SOL    HW123810   3.449   1.405   7.580  1.0576 -0.0320  0.4848
 4058SOL    HW223811   3.593   1.382   7.530  1.1792  1.9058  1.7072
 4059SOL     OW23812   0.159   3.178   3.564 -0.3331 -0.2358  0.1773
 4059SOL    HW123813   0.253   3.165   3.550 -0.2410 -1.1065  1.5472
 4059SOL    HW223814   0.148   3.106   3.627  1.4101  0.6545  1.5087
 4060SOL     OW23815   4.634   3.164   3.478  0.0478 -0.2486 -0.0701
 4060SOL    HW123816   4.721   3.150   3.516  0.0737  1.4529  0.4614
 4060SOL    HW223817   4.643   3.104   3.404  2.7326  1.0074 -0.7666
 4061SOL     OW23818   0.402   3.005   3.232  0.2586  0.3713  0.2513
 4061SOL    HW123819   0.307   3.019   3.237 -0.1747 -2.4661  0.2041
 4061SOL    HW223820   0.414   2.911   3.246  3.0391  0.7949  0.8046
 4062SOL     OW23821   0.022   4.115   1.332  0.1560  0.0508 -0.1366
 4062SOL    HW123822   0.033   4.097   1.239 -2.1206 -0.4158 -0.2951
 4062SOL    HW223823   0.052   4.206   1.333  0.6838 -0.1055 -1.7326
 4063SOL     OW23824   0.323   2.132   8.773 -0.0620 -0.2988 -0.3475
 4063SOL    HW123825   0.246   2.075   8.773 -0.8133  0.7102  0.6993
 4063SOL    HW223826   0.309   2.177   8.856  0.3317 -1.1172  0.1707
 4064SOL     OW23827   1.104   0.787  16.647 -0.2041 -0.4611 -0.1540
 4064SOL    HW123828   1.019   0.812  16.611  0.9232  2.3904 -0.8333
 4064SOL    HW223829   1.101   0.827  16.733  2.5433  2.1481 -1.2817
 4065SOL     OW23830   2.450   4.627   1.944 -0.6997  0.2471  0.2262
 4065SOL    HW123831   2.512   4.658   2.010  1.4506  0.2284 -1.7722
 4065SOL    HW223832   2.512   4.571   1.896  0.6800  1.3240  0.7434
 4066SOL     OW23833   1.916   2.842   4.507  0.4793 -0.4320  0.1155
 4066SOL    HW123834   1.930   2.871   4.597  0.6098  0.1765 -0.1001
 4066SOL    HW223835   1.855   2.910   4.479  0.8937 -0.0788  0.0541
 4067SOL     OW23836   2.182   3.370   4.642  0.1613 -0.0359  0.1267
 4067SOL    HW123837   2.251   3.436   4.634  1.4039 -1.2832  0.6999
 4067SOL    HW223838   2.220   3.288   4.611 -0.2799  0.1018 -0.8092
 4068SOL     OW23839   4.091   2.699   8.515 -0.4225 -0.0360 -0.4571
 4068SOL    HW123840   4.141   2.653   8.583 -1.9947 -0.8183  0.1714
 4068SOL    HW223841   4.070   2.784   8.553 -0.2119  0.2473 -0.9719
 4069SOL     OW23842   0.367   1.585   3.143  0.3634 -0.0661 -0.4522
 4069SOL    HW123843   0.380   1.619   3.055  1.3494  0.8436  0.0381
 4069SOL    HW223844   0.336   1.659   3.196 -1.9906 -2.3944  1.4765
 4070SOL     OW23845   0.879   0.106  13.402 -0.5753 -0.3716 -0.0045
 4070SOL    HW123846   0.828   0.067  13.473 -2.4277 -0.0475 -1.1335
 4070SOL    HW223847   0.826   0.183  13.381 -0.4569  0.4986  2.9274
 4071SOL     OW23848   2.081   4.057  12.939 -0.1617  0.1064 -0.1240
 4071SOL    HW123849   1.998   4.105  12.945  1.2360  2.3814  1.0664
 4071SOL    HW223850   2.059   3.974  12.981 -0.4791 -0.6179 -1.7137
 4072SOL     OW23851   2.765   2.107   3.177 -0.3954  0.2924  0.2372
 4072SOL    HW123852   2.747   2.034   3.236  0.3622  0.9567  1.3067
 4072SOL    HW223853   2.680   2.148   3.160 -0.5747  0.0080  0.4435
 4073SOL     OW23854   3.983   1.446   1.079  0.5836  0.6590 -0.7913
 4073SOL    HW123855   3.949   1.502   1.009 -1.1826  1.8675  1.0354
 4073SOL    HW223856   3.907   1.389   1.080 -1.0167  2.8560  2.5657
 4074SOL     OW23857   3.157   1.342   2.437  0.2176  0.5406 -0.3508
 4074SOL    HW123858   3.197   1.412   2.490 -0.2414 -0.3879  1.2270
 4074SOL    HW223859   3.224   1.332   2.370  0.7707  0.5145  0.1958
 4075SOL     OW23860   1.327   3.294   3.671  0.1885 -0.7978  0.2847
 4075SOL    HW123861   1.272   3.254   3.739 -1.3165 -0.2232 -0.5855
 4075SOL    HW223862   1.337   3.220   3.611 -4.0374  0.6556 -2.2228
 4076SOL     OW23863   4.043   4.360   1.912  0.3091  0.3685 -0.4004
 4076SOL    HW123864   4.017   4.451   1.927 -1.0466  0.1417 -1.3066
 4076SOL    HW223865   4.087   4.340   1.994  1.0853 -1.8769 -1.3675
 4077SOL     OW23866   3.812   0.763   8.063 -0.1333 -0.4499  0.2248
 4077SOL    HW123867   3.843   0.739   7.976 -0.1714 -0.5067  0.2271
 4077SOL    HW223868   3.892   0.767   8.116 -0.1987  2.9819  0.0919
 4078SOL     OW23869   1.531   0.343  17.193  0.3362 -0.0474 -0.4992
 4078SOL    HW123870   1.564   0.254  17.191  1.3399  0.2827  1.5484
 4078SOL    HW223871   1.439   0.331  17.169  0.6669 -2.4734 -0.5364
 4079SOL     OW23872   2.384   2.158   8.476  0.7969 -0.3590  0.1794
 4079SOL    HW123873   2.309   2.115   8.518  0.2205  0.9093  0.4399
 4079SOL    HW223874   2.458   2.116   8.520  0.6999 -1.5252 -0.7707
 4080SOL     OW23875   0.900   4.518   6.608  0.5724  0.4678  0.2928
 4080SOL    HW123876   0.848   4.495   6.532 -0.5969 -0.6437  1.4223
 4080SOL    HW223877   0.914   4.427   6.633 -0.1931  0.4875  0.7903
 4081SOL     OW23878   0.539   3.667   8.728  0.4598  0.5293 -0.0636
 4081SOL    HW123879   0.515   3.614   8.804  1.5312  1.5712  0.9998
 4081SOL    HW223880   0.564   3.607   8.658  0.3615 -0.8245  1.0444
 4082SOL     OW23881   0.247   0.175   5.837 -0.0933  1.0039  0.3729
 4082SOL    HW123882   0.218   0.257   5.877  1.2844  2.2520 -1.2364
 4082SOL    HW223883   0.188   0.173   5.762 -0.3729 -1.8559  0.6576
 4083SOL     OW23884   4.596   2.355  12.978  0.3257 -0.0817 -0.4067
 4083SOL    HW123885   4.574   2.293  13.047 -1.6356 -0.0452 -1.0016
 4083SOL    HW223886   4.553   2.317  12.901 -0.3734  1.4929 -0.7876
 4084SOL     OW23887   4.582   2.128   3.226  0.4275  0.0759 -0.1303
 4084SOL    HW123888   4.570   2.052   3.283  4.0613 -1.7589 -1.8203
 4084SOL    HW223889   4.670   2.154   3.252  0.5864 -3.1879  2.6102
 4085SOL     OW23890   1.845   0.774  15.596  0.3892  0.3733 -0.3126
 4085SOL    HW123891   1.939   0.791  15.603  0.1500  2.0499 -1.2179
 4085SOL    HW223892   1.822   0.832  15.524 -0.4048 -1.9120 -1.8929
 4086SOL     OW23893   4.180   4.335   6.035 -0.6465  0.1325  0.1833
 4086SOL    HW123894   4.251   4.376   6.084  2.6580 -0.9809 -3.6623
 4086SOL    HW223895   4.152   4.255   6.080 -0.5202 -1.3340 -2.3488
 4087SOL     OW23896   0.983   0.003   8.102  0.7272 -0.3569 -0.4952
 4087SOL    HW123897   1.013   0.092   8.081 -1.7275  0.5592 -0.0092
 4087SOL    HW223898   0.961   4.692   8.022  2.7708 -0.8033 -0.8019
 4088SOL     OW23899   0.357   1.192   7.160  0.4615 -0.4549  0.0115
 4088SOL    HW123900   0.292   1.235   7.215  0.4589  1.7963 -1.7319
 4088SOL    HW223901   0.396   1.139   7.229  1.9049  1.3531  0.5747
 4089SOL     OW23902   0.312   1.517   5.986 -0.4569 -0.1265 -0.6072
 4089SOL    HW123903   0.292   1.582   5.919  1.1751  2.1664  1.1160
 4089SOL    HW223904   0.226   1.477   5.999 -0.5110  0.4220  0.7679
 4090SOL     OW23905   1.398   3.557   5.990  0.0003  0.0517  0.4160
 4090SOL    HW123906   1.462   3.626   5.971  0.1348 -0.0457  0.5199
 4090SOL    HW223907   1.393   3.517   5.903  0.7493 -1.0431  0.8797
 4091SOL     OW23908   4.678   1.172   1.525  0.3487 -0.5182 -0.2938
 4091SOL    HW123909   0.013   1.197   1.583  0.4322 -2.0564  0.2716
 4091SOL    HW223910   4.697   1.227   1.449  1.0547 -0.7528 -0.2938
 4092SOL     OW23911   4.629   3.228   0.774  0.2579 -0.1296  0.0008
 4092SOL    HW123912   4.600   3.307   0.729  0.9539  0.2118  0.1435
 4092SOL    HW223913   4.558   3.207   0.834  1.7255 -0.7116  1.5686
 4093SOL     OW23914   2.528   0.618   6.259  0.2738 -0.1719 -0.0837
 4093SOL    HW123915   2.439   0.587   6.242 -0.2836  0.1286  2.4305
 4093SOL    HW223916   2.570   0.537   6.289 -0.7216 -0.3891  0.7120
 4094SOL     OW23917   1.193   4.004   1.226 -0.4791  0.2859  0.0897
 4094SOL    HW123918   1.276   4.031   1.186 -0.2200  1.2713  1.3056
 4094SOL    HW223919   1.219   3.912   1.218 -0.5107  0.4266 -1.6479
 4095SOL     OW23920   0.773   0.632   4.846  0.1781 -0.2669  0.4219
 4095SOL    HW123921   0.830   0.566   4.886  4.5375  1.4650 -2.9946
 4095SOL    HW223922   0.756   0.599   4.758 -1.6991 -0.9943  1.0410
 4096SOL     OW23923   0.208   2.303   7.616  0.1311  0.1798  0.1446
 4096SOL    HW123924   0.214   2.345   7.531  2.0070  0.3056  0.3340
 4096SOL    HW223925   0.212   2.215   7.580 -1.6651 -0.2260  0.9025
 4097SOL     OW23926   3.734   1.851   7.128  0.2716  0.4357 -0.3506
 4097SOL    HW123927   3.810   1.816   7.175 -0.3076  0.0967  0.3246
 4097SOL    HW223928   3.722   1.939   7.163  0.7506  0.3639 -0.0103
 4098SOL     OW23929   3.882   4.360   6.879  0.0651 -0.4305 -0.1522
 4098SOL    HW123930   3.803   4.340   6.829 -0.4271  0.7143  0.1668
 4098SOL    HW223931   3.939   4.285   6.862 -1.5717 -1.9905  1.3152
 4099SOL     OW23932   4.545   0.750   1.978 -0.1942  1.0075  0.2595
 4099SOL    HW123933   4.547   0.733   2.072  2.2551 -0.2170 -0.0160
 4099SOL    HW223934   4.471   0.811   1.978  0.2189  1.5073 -0.5327
 4100SOL     OW23935   0.397   1.386   8.435  0.0053  0.0778 -0.0643
 4100SOL    HW123936   0.425   1.298   8.411 -1.5513  0.1367 -2.0786
 4100SOL    HW223937   0.351   1.406   8.354 -1.2614  1.3485  0.9553
 4101SOL     OW23938   3.056   0.353  10.338  0.3780  0.1252  0.3374
 4101SOL    HW123939   3.038   0.447  10.346 -2.5054 -0.1744 -2.2696
 4101SOL    HW223940   3.137   0.349  10.387  2.1910  1.6770 -2.4815
 4102SOL     OW23941   3.849   4.667  16.050  0.0842  0.5138  0.3203
 4102SOL    HW123942   3.865   4.577  16.078  0.1682 -0.2860 -2.2216
 4102SOL    HW223943   3.760   4.650  16.019  1.5416 -2.2917 -2.3702
 4103SOL     OW23944   0.585   1.517   5.918 -0.1701 -0.4857  0.2934
 4103SOL    HW123945   0.578   1.533   5.824  1.1223  2.3710  0.6997
 4103SOL    HW223946   0.491   1.503   5.931 -0.4390  1.3764  0.3532
 4104SOL     OW23947   2.575   1.887  12.890 -0.4911  0.1709  0.1057
 4104SOL    HW123948   2.496   1.890  12.944  0.4263  0.5530  1.4393
 4104SOL    HW223949   2.647   1.886  12.953  0.8128  0.6808 -1.3850
 4105SOL     OW23950   2.498   1.533   8.210 -0.5554 -0.1804  0.4253
 4105SOL    HW123951   2.461   1.504   8.293 -0.3866 -3.0459 -0.5020
 4105SOL    HW223952   2.569   1.469   8.198 -0.3791  0.5401 -2.4395
 4106SOL     OW23953   4.388   0.672   9.467  0.0489 -0.3153 -0.2591
 4106SOL    HW123954   4.411   0.700   9.378 -1.6810  1.5517 -0.1340
 4106SOL    HW223955   4.470   0.639   9.503 -0.7137 -1.6641  0.2480
 4107SOL     OW23956   4.313   4.656   8.630  0.4912  0.2586  0.6323
 4107SOL    HW123957   4.385   4.642   8.567 -0.4033 -0.8653 -0.1398
 4107SOL    HW223958   4.368   4.654   8.708  1.3752  0.9673  0.0295
 4108SOL     OW23959   0.695   4.232  10.012  0.4595 -0.2037 -0.1291
 4108SOL    HW123960   0.770   4.274   9.969  0.0803  1.1071  0.4660
 4108SOL    HW223961   0.726   4.142  10.015  0.1526 -0.3080 -0.0563
 4109SOL     OW23962   3.337   0.443   1.655 -0.1883 -0.1941 -0.0096
 4109SOL    HW123963   3.386   0.497   1.593 -0.3117  0.9102  0.8647
 4109SOL    HW223964   3.248   0.463   1.628 -0.6688  0.7526  2.2364
 4110SOL     OW23965   2.141   3.240   3.945 -0.7984 -0.3106  0.0179
 4110SOL    HW123966   2.090   3.320   3.941  2.3075  1.6831  0.3521
 4110SOL    HW223967   2.104   3.195   4.021  2.7758 -2.1279  0.6795
 4111SOL     OW23968   3.444   4.352   8.095  0.3983 -0.4552 -0.4915
 4111SOL    HW123969   3.517   4.300   8.062  0.0977 -1.4713  0.4724
 4111SOL    HW223970   3.464   4.430   8.043 -0.6820  1.0365  1.3177
 4112SOL     OW23971   1.586   2.002   4.443 -0.1803 -0.4249  0.1152
 4112SOL    HW123972   1.526   1.937   4.479  0.3479 -1.0082 -0.0594
 4112SOL    HW223973   1.643   2.013   4.519 -0.5400 -0.1933  0.3528
 4113SOL     OW23974   4.122   1.871   0.564  0.1285 -0.3456 -0.0116
 4113SOL    HW123975   4.097   1.940   0.502 -0.1981  0.1668  0.7001
 4113SOL    HW223976   4.082   1.795   0.521 -2.2003  1.5760 -1.2203
 4114SOL     OW23977   3.407   1.630   6.587 -0.0925 -0.4754  0.1355
 4114SOL    HW123978   3.422   1.536   6.575  0.0906 -0.3478 -0.6048
 4114SOL    HW223979   3.313   1.625   6.599 -0.1199  0.0922  0.1406
 4115SOL     OW23980   1.056   4.226   1.298 -0.2141  0.0029 -0.3088
 4115SOL    HW123981   1.063   4.206   1.391  1.4628  0.8959 -0.2410
 4115SOL    HW223982   1.094   4.147   1.261  0.1105  1.3893 -2.9376
 4116SOL     OW23983   4.526   0.313   0.160  0.4796 -0.8452 -0.2881
 4116SOL    HW123984   4.544   0.243   0.222 -1.8126 -1.0269  0.1606
 4116SOL    HW223985   4.575   0.387   0.196  0.1884 -0.0602 -1.5118
 4117SOL     OW23986   2.513   0.662   4.401 -0.4338 -0.2527  0.3280
 4117SOL    HW123987   2.508   0.634   4.493 -0.6365 -0.6957  0.1823
 4117SOL    HW223988   2.484   0.752   4.415 -0.1914 -0.1128 -0.0886
 4118SOL     OW23989   3.227   3.087   0.236  0.3617  0.5966 -0.2239
 4118SOL    HW123990   3.259   3.177   0.243  0.2835  0.7571 -1.9799
 4118SOL    HW223991   3.166   3.085   0.311 -0.5639  2.1108 -0.9281
 4119SOL     OW23992   2.391   1.414   1.963 -0.8276 -0.0662 -0.1313
 4119SOL    HW123993   2.472   1.368   1.988 -0.0152  2.9446  2.7458
 4119SOL    HW223994   2.418   1.446   1.877 -0.9564  0.1017 -0.1078
 4120SOL     OW23995   4.717   1.432   5.717  0.2961 -0.0309 -0.1059
 4120SOL    HW123996   4.699   1.394   5.631  1.3698 -0.3131 -0.1976
 4120SOL    HW223997   4.641   1.490   5.724 -0.0613 -0.3391 -1.4373
 4121SOL     OW23998   1.150   4.118   4.726  0.2566 -0.5954  0.1811
 4121SOL    HW123999   1.146   4.074   4.811 -1.5142  0.8424  0.8724
 4121SOL    HW224000   1.187   4.046   4.676  1.3880  0.0254  0.1270
 4122SOL     OW24001   2.215   2.926   8.466 -0.2205  0.1179 -0.2150
 4122SOL    HW124002   2.241   2.993   8.530  1.9709  0.6717 -1.7006
 4122SOL    HW224003   2.283   2.864   8.493  1.2804  0.4708 -3.1375
 4123SOL     OW24004   4.732   0.914  10.923 -0.0132 -0.0529  0.4786
 4123SOL    HW124005   4.681   0.872  10.854  2.0108  1.5196 -1.9741
 4123SOL    HW224006   4.675   0.972  10.974  1.0621  0.5258  1.0326
 4124SOL     OW24007   0.627   0.196   5.241  0.4161 -0.4675  0.1990
 4124SOL    HW124008   0.622   0.175   5.148  1.6344 -0.3067  0.0973
 4124SOL    HW224009   0.570   0.130   5.282  1.3063  0.2304  2.5807
 4125SOL     OW24010   1.738   2.154   5.767  0.3990  0.1663  0.4260
 4125SOL    HW124011   1.705   2.174   5.680  1.0158  0.7164  0.3200
 4125SOL    HW224012   1.808   2.220   5.765 -0.3428  0.9167 -0.5759
 4126SOL     OW24013   2.832   2.049   9.434  0.6312 -0.7309 -0.5136
 4126SOL    HW124014   2.806   2.085   9.519  2.8040 -1.0632  0.2992
 4126SOL    HW224015   2.853   1.962   9.470 -1.2384  0.3079  3.0323
 4127SOL     OW24016   3.001   2.139  14.595 -0.0281  0.9391 -0.7907
 4127SOL    HW124017   2.948   2.162  14.671 -0.1771 -0.1793 -0.5654
 4127SOL    HW224018   2.998   2.220  14.544  0.6478  0.7548 -1.1192
 4128SOL     OW24019   2.896   4.182   3.979 -0.4337 -0.5651  0.3083
 4128SOL    HW124020   2.815   4.155   4.023  1.0436 -1.5995  2.3795
 4128SOL    HW224021   2.884   4.277   3.979  0.3781 -0.4651  0.3953
 4129SOL     OW24022   0.779   2.050   3.717 -0.3575 -0.6056 -0.1390
 4129SOL    HW124023   0.832   2.094   3.783 -1.1637  0.0883  0.0477
 4129SOL    HW224024   0.765   2.127   3.661  0.3542 -1.3554 -1.3443
 4130SOL     OW24025   0.450   1.133   1.251  0.4808 -0.1810 -0.1880
 4130SOL    HW124026   0.385   1.071   1.282  1.6467 -1.8366 -1.0827
 4130SOL    HW224027   0.413   1.217   1.278  2.8842  0.4381  1.2627
 4131SOL     OW24028   3.649   0.501   9.318 -0.2457  0.8155 -0.6083
 4131SOL    HW124029   3.629   0.429   9.259 -0.8050 -0.9376  1.7482
 4131SOL    HW224030   3.563   0.514   9.360 -0.6777  0.1421 -1.2842
 4132SOL     OW24031   1.201   1.611   2.847  0.2451 -0.8263 -0.3544
 4132SOL    HW124032   1.171   1.585   2.760 -0.9784 -0.8730  0.0788
 4132SOL    HW224033   1.261   1.684   2.831  0.2322 -0.7214  0.0673
 4133SOL     OW24034   3.688   3.888   1.959 -0.2164  0.2738 -0.5833
 4133SOL    HW124035   3.660   3.942   2.034 -0.4516  0.5970 -0.9014
 4133SOL    HW224036   3.607   3.892   1.909 -0.3760  1.7640 -0.2162
 4134SOL     OW24037   1.893   1.375   4.725  0.8631 -0.2840 -0.1122
 4134SOL    HW124038   1.874   1.320   4.801 -0.0723  0.1656 -0.0085
 4134SOL    HW224039   1.919   1.458   4.766  0.6096 -0.1582 -0.2004
 4135SOL     OW24040   1.162   3.602  14.988 -0.3957  0.6188 -0.5589
 4135SOL    HW124041   1.129   3.578  15.075  0.4560 -0.4581 -0.5252
 4135SOL    HW224042   1.166   3.512  14.955  0.4306  0.2934  0.4100
 4136SOL     OW24043   2.288   2.956   3.860  0.2634  0.2416 -0.5729
 4136SOL    HW124044   2.211   2.924   3.814 -0.1413  0.9333 -0.3602
 4136SOL    HW224045   2.247   2.974   3.944  0.4792  0.4056 -0.5009
 4137SOL     OW24046   1.334   3.013   2.980  0.1437  0.3962  0.5358
 4137SOL    HW124047   1.418   3.048   2.948 -0.6077  0.5871 -1.2347
 4137SOL    HW224048   1.270   3.082   2.961  0.1542  0.2036 -0.2007
 4138SOL     OW24049   4.511   3.765   9.074 -0.1905 -0.1245  0.2568
 4138SOL    HW124050   4.543   3.704   9.008 -0.5980  2.1593 -2.0592
 4138SOL    HW224051   4.590   3.819   9.079 -0.1488 -0.2813  1.3457
 4139SOL     OW24052   3.466   3.719  16.148  0.6373  0.0503 -0.1119
 4139SOL    HW124053   3.489   3.812  16.144 -0.8627  0.3834 -0.6522
 4139SOL    HW224054   3.371   3.716  16.140  0.6998  1.2517 -1.3106
 4140SOL     OW24055   2.490   1.788  16.548 -0.0380  0.2994  0.3948
 4140SOL    HW124056   2.552   1.726  16.587 -1.9158 -1.3556  0.7246
 4140SOL    HW224057   2.411   1.754  16.589 -0.1096  0.5166  0.4324
 4141SOL     OW24058   3.413   4.608  16.149 -0.7343 -0.3947 -0.3559
 4141SOL    HW124059   3.438   4.572  16.234  0.9557 -0.6538 -0.9492
 4141SOL    HW224060   3.394   4.698  16.176 -0.7800 -0.3189 -0.6440
 4142SOL     OW24061   4.074   0.782  12.502  0.4197 -0.1931  0.0109
 4142SOL    HW124062   3.980   0.800  12.494  0.5441  0.4748  0.0557
 4142SOL    HW224063   4.106   0.843  12.436  1.3196 -0.7810 -0.0921
 4143SOL     OW24064   2.780   1.563   7.228 -0.6149 -0.0252 -0.1988
 4143SOL    HW124065   2.799   1.617   7.150 -2.7075  0.4701 -0.3715
 4143SOL    HW224066   2.850   1.592   7.285  0.1861 -0.3677 -0.9987
 4144SOL     OW24067   4.359   1.539   6.050 -0.0227  0.1965  0.0631
 4144SOL    HW124068   4.427   1.589   6.005  0.6056  0.1109  0.9191
 4144SOL    HW224069   4.324   1.591   6.123 -0.0278  1.7603 -1.0454
 4145SOL     OW24070   3.425   3.838  11.704  0.4283 -0.0326 -0.0817
 4145SOL    HW124071   3.427   3.926  11.666  0.6770 -0.2559 -0.5880
 4145SOL    HW224072   3.370   3.846  11.782  1.3286  0.7269  0.4593
 4146SOL     OW24073   3.091   1.910   9.655  0.1121 -0.1955  0.4857
 4146SOL    HW124074   3.063   1.996   9.686  0.6923 -0.4380  1.6480
 4146SOL    HW224075   3.173   1.931   9.611 -1.0996  0.8372 -1.2785
 4147SOL     OW24076   3.150   0.823   9.463  0.1625 -0.1451 -0.1770
 4147SOL    HW124077   3.218   0.861   9.408  0.0355  1.1018  0.5153
 4147SOL    HW224078   3.085   0.785   9.405 -2.7252  0.1694  2.8350
 4148SOL     OW24079   0.038   1.668  10.762  0.4089 -0.0432  0.8280
 4148SOL    HW124080   0.089   1.726  10.706 -1.2757  1.0518  0.4294
 4148SOL    HW224081   0.079   1.582  10.748 -3.0761 -1.1661 -2.4736
 4149SOL     OW24082   4.104   4.561   3.539 -0.4166 -0.3619  0.3053
 4149SOL    HW124083   4.064   4.637   3.497  1.5175  0.3161 -0.2967
 4149SOL    HW224084   4.131   4.593   3.625  1.0620  3.4001 -1.5682
 4150SOL     OW24085   4.218   2.095   3.487 -0.1174 -0.0822  0.1888
 4150SOL    HW124086   4.258   2.008   3.489  1.1285  0.4777 -1.2822
 4150SOL    HW224087   4.179   2.112   3.574  1.5690 -1.5441  1.2219
 4151SOL     OW24088   4.606   3.323   1.929  0.0925 -0.0606  0.1461
 4151SOL    HW124089   4.579   3.355   2.014  1.3221 -0.4237  0.6694
 4151SOL    HW224090   4.626   3.407   1.888  1.8872  0.0844  1.3343
 4152SOL     OW24091   4.727   1.945   4.532  0.3379  0.0699 -0.4975
 4152SOL    HW124092   4.693   2.034   4.536 -3.0634 -1.3645  3.1557
 4152SOL    HW224093   4.725   1.920   4.625 -1.5145 -1.1446 -0.8608
 4153SOL     OW24094   4.622   0.700   3.187 -0.3577 -0.3297 -0.2147
 4153SOL    HW124095   4.556   0.759   3.151 -1.2328 -0.4032  1.2639
 4153SOL    HW224096   4.586   0.612   3.173  0.2141 -0.2990 -1.8862
 4154SOL     OW24097   2.211   4.467   4.965  0.2550 -0.7591 -0.0658
 4154SOL    HW124098   2.294   4.501   4.930  0.0081 -1.8287 -1.6360
 4154SOL    HW224099   2.184   4.429   4.882  0.6914  1.3655 -1.1926
 4155SOL     OW24100   1.351   2.786  16.472  0.0389 -0.9159 -0.0778
 4155SOL    HW124101   1.391   2.700  16.488 -0.3084 -0.7866  1.4850
 4155SOL    HW224102   1.408   2.827  16.407  1.8554  0.6071  2.4721
 4156SOL     OW24103   3.090   0.479   2.407  0.1759 -0.1725 -0.1742
 4156SOL    HW124104   3.107   0.428   2.486 -1.7208 -1.2762 -0.4768
 4156SOL    HW224105   3.160   0.543   2.418 -0.7569  0.9121 -0.4703
 4157SOL     OW24106   2.072   0.494   7.033 -0.0051 -0.6187 -0.0619
 4157SOL    HW124107   2.135   0.440   6.985  0.6048  0.7818 -0.8456
 4157SOL    HW224108   2.003   0.512   6.969 -1.0621 -1.0514  0.9648
 4158SOL     OW24109   1.348   1.797   8.809 -0.5366  0.8803 -0.9154
 4158SOL    HW124110   1.270   1.766   8.855  1.2356 -0.1518  1.4450
 4158SOL    HW224111   1.393   1.713   8.820  1.9096  2.0579 -1.8891
 4159SOL     OW24112   1.359   1.807   1.611 -0.0720 -0.7568  0.3571
 4159SOL    HW124113   1.439   1.850   1.640  0.1864 -0.1514 -1.2624
 4159SOL    HW224114   1.298   1.861   1.662  0.8916 -1.4964  2.3043
 4160SOL     OW24115   4.460   3.469   7.582  0.2470  0.2077  0.5409
 4160SOL    HW124116   4.387   3.459   7.520  0.7648 -0.8905  0.0995
 4160SOL    HW224117   4.417   3.453   7.665 -1.0488 -0.2495 -0.2180
 4161SOL     OW24118   0.284   3.202   5.131  0.2645 -0.2978 -0.1382
 4161SOL    HW124119   0.284   3.254   5.211 -0.0671 -0.1998 -0.2002
 4161SOL    HW224120   0.294   3.114   5.168  1.5633 -0.4731 -0.9291
 4162SOL     OW24121   1.488   1.139   3.351 -0.2091 -0.4606 -0.4630
 4162SOL    HW124122   1.401   1.112   3.380  0.0099 -0.7697 -0.0836
 4162SOL    HW224123   1.492   1.134   3.256  0.1837 -0.4755 -0.4479
 4163SOL     OW24124   2.529   3.607   2.537 -0.1029  0.1736  0.0014
 4163SOL    HW124125   2.467   3.648   2.477 -2.2276 -0.7342  1.6113
 4163SOL    HW224126   2.607   3.662   2.531  0.9005 -1.0783  1.6152
 4164SOL     OW24127   1.606   3.080  13.422 -0.0522 -0.7238 -0.5118
 4164SOL    HW124128   1.689   3.123  13.402  0.0342 -0.0874  1.2498
 4164SOL    HW224129   1.623   2.987  13.402  3.2847  0.0112 -1.1201
 4165SOL     OW24130   3.366   4.445   9.087 -0.5048  0.3243  0.9841
 4165SOL    HW124131   3.280   4.423   9.052 -0.1746  1.9733 -0.8550
 4165SOL    HW224132   3.348   4.537   9.110 -1.1485  0.9720 -2.1096
 4166SOL     OW24133   0.214   1.977   7.771 -0.0026 -0.3590 -1.0469
 4166SOL    HW124134   0.296   2.018   7.743 -1.5539  2.0892 -1.9117
 4166SOL    HW224135   0.199   1.906   7.708 -0.6008  0.0711 -1.3857
 4167SOL     OW24136   4.161   2.854   4.807 -0.5848  0.2677 -0.2545
 4167SOL    HW124137   4.068   2.871   4.821 -0.6822 -0.6061  0.1461
 4167SOL    HW224138   4.199   2.885   4.888  0.2434 -1.1687 -0.0907
 4168SOL     OW24139   0.633   4.225   8.213 -0.4047 -0.0633  0.0974
 4168SOL    HW124140   0.689   4.302   8.208  0.6138 -0.8789 -1.1018
 4168SOL    HW224141   0.669   4.188   8.294 -2.7280 -1.2087  0.6142
 4169SOL     OW24142   4.085   1.908   2.487  0.0265  0.1994  0.1607
 4169SOL    HW124143   4.020   1.895   2.418 -0.8394 -2.1129  1.4095
 4169SOL    HW224144   4.111   1.820   2.514  1.4210  0.3980 -0.4908
 4170SOL     OW24145   0.996   4.079   5.998  0.1531  0.8807 -0.3836
 4170SOL    HW124146   1.087   4.097   6.022  0.5322 -0.4585 -0.8600
 4170SOL    HW224147   0.947   4.161   5.988 -1.5483  0.0560  1.0162
 4171SOL     OW24148   4.372   1.364   5.452  0.1204  0.5034  0.2196
 4171SOL    HW124149   4.329   1.364   5.538  1.5885 -0.3606  0.9677
 4171SOL    HW224150   4.299   1.327   5.402  0.1505  1.1618 -0.3012
 4172SOL     OW24151   1.339   2.995   6.696  0.0737 -0.6280  0.3403
 4172SOL    HW124152   1.364   2.908   6.729  0.3269 -1.2094 -1.3706
 4172SOL    HW224153   1.396   3.005   6.620 -1.3142 -1.6524 -0.8404
 4173SOL     OW24154   0.282   2.815   2.257  0.1208  0.1552 -0.8853
 4173SOL    HW124155   0.324   2.833   2.341  0.4383 -0.9981 -0.7970
 4173SOL    HW224156   0.235   2.898   2.252  1.5130  1.1182  2.3194
 4174SOL     OW24157   3.707   0.767   9.263 -0.4729 -0.0275 -0.7455
 4174SOL    HW124158   3.693   0.672   9.262  1.0678 -0.2544 -2.0071
 4174SOL    HW224159   3.640   0.784   9.198  0.5268 -0.6203 -1.9394
 4175SOL     OW24160   4.723   1.162   3.161  0.2852  0.0974  0.2592
 4175SOL    HW124161   4.712   1.080   3.210 -0.4644 -0.3796 -0.6987
 4175SOL    HW224162   0.021   1.217   3.231 -1.8013  1.9922 -0.1648
 4176SOL     OW24163   2.711   2.553   3.390 -0.2481 -0.0618 -0.3144
 4176SOL    HW124164   2.797   2.524   3.360 -0.0235 -1.0312  1.2622
 4176SOL    HW224165   2.650   2.500   3.340 -2.0136  1.7237 -0.0329
 4177SOL     OW24166   1.792   2.759   9.410  0.0942 -1.0529  0.1373
 4177SOL    HW124167   1.830   2.671   9.407 -2.0868 -1.9966  0.0667
 4177SOL    HW224168   1.866   2.815   9.385 -0.5964 -0.5973 -0.8948
 4178SOL     OW24169   3.611   3.744   6.073 -0.8633  0.0890 -0.7843
 4178SOL    HW124170   3.624   3.670   6.133  0.4155 -0.5048 -1.7941
 4178SOL    HW224171   3.530   3.777   6.111  0.1919  1.3261  0.3931
 4179SOL     OW24172   1.960   2.636   7.622 -0.2525 -0.0575 -0.4412
 4179SOL    HW124173   2.017   2.660   7.695 -1.0641  3.8955 -1.1114
 4179SOL    HW224174   1.978   2.542   7.619 -0.2683 -0.0402 -1.3103
 4180SOL     OW24175   2.879   0.616   5.260 -0.1819  0.2914 -0.1586
 4180SOL    HW124176   2.826   0.579   5.189  0.2281  1.1355 -0.8946
 4180SOL    HW224177   2.963   0.600   5.217 -0.0664 -1.8030  0.8498
 4181SOL     OW24178   1.236   2.337  12.061  0.0083 -0.1811 -0.3630
 4181SOL    HW124179   1.262   2.291  12.141  1.8045  2.4544  0.5813
 4181SOL    HW224180   1.145   2.352  12.083  0.2657  1.6974 -0.5512
 4182SOL     OW24181   3.933   3.383   5.898 -0.4155  0.0920  0.1266
 4182SOL    HW124182   3.969   3.469   5.876  0.2190 -0.2589 -0.2368
 4182SOL    HW224183   3.941   3.383   5.993  0.5686 -1.4534  0.0508
 4183SOL     OW24184   1.897   2.688   5.431  0.5696  0.0428  0.4052
 4183SOL    HW124185   1.935   2.669   5.517  1.2332  0.2753  0.1657
 4183SOL    HW224186   1.850   2.605   5.426 -0.1514  0.5487 -1.1426
 4184SOL     OW24187   3.870   1.969   0.174  0.9180  0.2758  0.1972
 4184SOL    HW124188   3.875   1.883   0.131 -0.3965  0.9106 -1.2289
 4184SOL    HW224189   3.956   1.978   0.215  1.0028  0.0897  0.0611
 4185SOL     OW24190   2.531   3.741   8.499  0.0582  0.0737  0.7040
 4185SOL    HW124191   2.570   3.794   8.429  1.3045 -2.1456 -0.2590
 4185SOL    HW224192   2.492   3.804   8.560 -2.2864 -1.0393  0.3680
 4186SOL     OW24193   3.275   0.063   3.986 -0.6657 -0.1916  0.4402
 4186SOL    HW124194   3.267   0.021   4.072 -2.0292  0.6357  0.7210
 4186SOL    HW224195   3.227   0.002   3.931 -0.0415  0.8354 -1.2508
 4187SOL     OW24196   0.709   2.304   3.093  0.4006  0.1784  0.2049
 4187SOL    HW124197   0.695   2.236   3.159 -2.6458  1.8158  1.2360
 4187SOL    HW224198   0.781   2.268   3.040 -1.2051 -2.0325 -0.4851
 4188SOL     OW24199   1.757   4.519   7.664 -0.0304 -0.5417  0.1832
 4188SOL    HW124200   1.725   4.429   7.653 -1.7734  0.5891 -4.1011
 4188SOL    HW224201   1.821   4.512   7.594  0.0041 -0.8225  0.2439
 4189SOL     OW24202   2.669   3.324   5.104  0.3144 -0.1915  0.0913
 4189SOL    HW124203   2.735   3.377   5.148 -0.9029  0.3422  1.2629
 4189SOL    HW224204   2.594   3.384   5.105  1.2259  0.9239  0.4038
 4190SOL     OW24205   0.657   3.808   2.550  0.0003 -0.9342 -0.2376
 4190SOL    HW124206   0.629   3.868   2.481 -1.0101 -1.9918 -0.7479
 4190SOL    HW224207   0.627   3.848   2.632 -0.4607 -0.7450 -0.4959
 4191SOL     OW24208   4.318   3.778  14.713  0.3062 -0.1694  0.6611
 4191SOL    HW124209   4.412   3.789  14.700  0.3028 -0.7860  0.0879
 4191SOL    HW224210   4.308   3.683  14.722 -2.3775  0.1809  1.4430
 4192SOL     OW24211   2.809   1.512   9.424 -0.3031 -0.4612  0.1758
 4192SOL    HW124212   2.767   1.512   9.338  2.0324  0.7074 -0.9752
 4192SOL    HW224213   2.787   1.421   9.446 -1.0776  0.0392  1.4900
 4193SOL     OW24214   2.466   3.084  11.371 -0.0595  0.4297  0.1649
 4193SOL    HW124215   2.523   3.151  11.409 -0.0816  0.8708 -0.5740
 4193SOL    HW224216   2.525   3.009  11.371  0.5685  0.9265  0.5153
 4194SOL     OW24217   2.873   4.708   7.649 -0.1284  0.7860  0.3071
 4194SOL    HW124218   2.792   4.684   7.694 -0.9954 -0.4968 -1.9185
 4194SOL    HW224219   2.852   0.063   7.639 -1.6622  0.2294 -1.5101
 4195SOL     OW24220   3.056   2.998   5.986  0.2512 -0.0922 -0.0482
 4195SOL    HW124221   3.123   3.045   6.035  0.4288 -0.5708  0.1706
 4195SOL    HW224222   3.088   3.023   5.899 -0.0539  0.7188  0.0800
 4196SOL     OW24223   2.672   4.157   3.588 -0.4930 -0.1856 -0.2966
 4196SOL    HW124224   2.609   4.141   3.657 -1.9591  1.7085 -1.1898
 4196SOL    HW224225   2.636   4.239   3.555  1.1507  0.9767  0.7782
 4197SOL     OW24226   3.105   2.466   2.355 -0.3374 -0.0847 -0.4772
 4197SOL    HW124227   3.129   2.528   2.287  1.2645  0.9502  1.0268
 4197SOL    HW224228   3.147   2.387   2.321 -0.7062 -1.2837  1.8303
 4198SOL     OW24229   3.366   4.056   5.006  0.8257 -0.4044  0.4045
 4198SOL    HW124230   3.412   4.139   4.996 -0.6792  0.5688  1.5068
 4198SOL    HW224231   3.401   4.016   5.086  2.5377 -0.8895 -0.5875
 4199SOL     OW24232   4.670   0.232  12.067 -0.3361  0.3144  0.1644
 4199SOL    HW124233   4.726   0.182  12.127  0.8091  1.5785  0.1620
 4199SOL    HW224234   4.668   0.163  12.001  1.2405  0.3601  0.0562
 4200SOL     OW24235   2.633   2.067   7.018 -0.1779  0.3158 -0.0907
 4200SOL    HW124236   2.592   2.034   6.938  0.2159  0.6103 -0.4158
 4200SOL    HW224237   2.710   2.009   7.019 -1.9908 -2.0886 -0.5319
 4201SOL     OW24238   0.055   1.395   5.969  0.1901 -0.2727  0.3807
 4201SOL    HW124239   0.018   1.410   5.882  0.2103 -1.7772  0.1247
 4201SOL    HW224240   4.716   1.411   6.024  1.0635  1.2058  1.1766
 4202SOL     OW24241   1.893   0.691  11.108 -0.0958 -0.1493  0.3135
 4202SOL    HW124242   1.909   0.642  11.027 -1.1039  0.9782 -0.5735
 4202SOL    HW224243   1.876   0.620  11.170  1.9895 -1.2474 -0.3853
 4203SOL     OW24244   0.928   2.894   9.338 -0.1156  0.7538  0.3580
 4203SOL    HW124245   0.942   2.875   9.245 -0.0168  4.0405 -0.2976
 4203SOL    HW224246   0.834   2.882   9.347 -0.3261  1.8820 -0.3770
 4204SOL     OW24247   1.407   1.649   5.043  0.2701 -0.0354  0.2745
 4204SOL    HW124248   1.331   1.703   5.063  0.2157  0.8884 -2.3501
 4204SOL    HW224249   1.392   1.581   5.109  0.2315  1.9536  2.2920
 4205SOL     OW24250   2.740   0.078   0.438 -0.1781 -0.4857  0.8218
 4205SOL    HW124251   2.763   0.063   0.347 -1.9492  0.7905  0.1428
 4205SOL    HW224252   2.768   4.731   0.473 -0.0920 -0.9804 -0.4382
 4206SOL     OW24253   4.064   2.379  15.966 -0.7904 -0.0548  0.1215
 4206SOL    HW124254   4.070   2.283  15.964  0.6950  0.0731 -1.6949
 4206SOL    HW224255   3.994   2.405  15.906 -1.3136 -2.7724 -0.4689
 4207SOL     OW24256   1.725   0.701   4.310 -0.1969 -0.3750 -0.4200
 4207SOL    HW124257   1.675   0.638   4.362  0.0436  2.0243  2.7082
 4207SOL    HW224258   1.717   0.665   4.222  2.9978  0.5452 -1.0962
 4208SOL     OW24259   4.420   1.591   5.278  0.2590  0.7117  0.3809
 4208SOL    HW124260   4.404   1.527   5.347  0.3252  1.4711  1.0970
 4208SOL    HW224261   4.347   1.587   5.216 -0.1244  2.0605  0.7520
 4209SOL     OW24262   3.944   1.164   2.489  0.2772 -0.0009 -0.4345
 4209SOL    HW124263   3.855   1.194   2.475 -0.1932 -0.2639  1.9813
 4209SOL    HW224264   3.938   1.125   2.576  2.1519  0.5287 -0.0498
 4210SOL     OW24265   0.145   1.304   2.470  0.1325 -0.1823 -0.4447
 4210SOL    HW124266   0.188   1.300   2.556 -2.5625  1.3920  0.9806
 4210SOL    HW224267   0.164   1.392   2.436  0.2868 -0.5933 -1.4315
 4211SOL     OW24268   0.452   0.072  14.467  0.1963  0.3757 -0.5960
 4211SOL    HW124269   0.440   0.138  14.535  0.1340 -1.7419  1.4778
 4211SOL    HW224270   0.524   0.107  14.416 -0.4222  3.2432  0.5135
 4212SOL     OW24271   4.642   4.736  16.375  0.5187  0.3326  0.0718
 4212SOL    HW124272   4.598   0.083  16.380 -0.9909 -0.3840 -1.0558
 4212SOL    HW224273   4.676   4.729  16.464  0.2246  1.2256  0.2511
 4213SOL     OW24274   4.308   3.802   6.477  0.0062  0.5137  0.4588
 4213SOL    HW124275   4.348   3.787   6.563 -1.1678  0.8490  1.0560
 4213SOL    HW224276   4.241   3.865   6.503  1.0394  1.6128  0.5126
 4214SOL     OW24277   2.957   2.232   8.553 -0.2232  0.7200 -0.3089
 4214SOL    HW124278   2.932   2.141   8.566 -3.3613  1.6745  0.2197
 4214SOL    HW224279   3.035   2.240   8.609  0.2714  0.0221 -0.8973
 4215SOL     OW24280   1.923   3.467  13.042  0.1066  0.3839  0.3167
 4215SOL    HW124281   1.983   3.506  13.106 -2.0026  0.5240  2.1943
 4215SOL    HW224282   1.890   3.540  12.989  2.1006 -0.2422 -1.7897
 4216SOL     OW24283   1.006   4.084   7.571 -0.3881  0.3443  0.9488
 4216SOL    HW124284   0.947   4.156   7.549 -0.2102  0.4281  0.7402
 4216SOL    HW224285   0.947   4.022   7.614  0.3212  0.5478  2.2155
 4217SOL     OW24286   0.673   3.656  16.248  0.5954 -0.0374 -0.4197
 4217SOL    HW124287   0.695   3.565  16.266 -1.4528 -0.2494  1.0350
 4217SOL    HW224288   0.654   3.657  16.154  1.1691 -0.2273 -0.5370
 4218SOL     OW24289   3.612   1.219   7.248 -0.2211 -0.2147 -0.2852
 4218SOL    HW124290   3.619   1.313   7.265 -0.6442 -0.1912 -0.2442
 4218SOL    HW224291   3.596   1.196   7.339 -1.9183 -0.3612 -0.6090
 4219SOL     OW24292   1.740   1.925   8.574 -0.5703  0.5698  0.0701
 4219SOL    HW124293   1.751   1.998   8.513  0.8604 -1.6413 -2.2877
 4219SOL    HW224294   1.661   1.960   8.615  0.4387  1.2976  1.4007
 4220SOL     OW24295   3.554   2.316   3.971  0.2965 -0.1997  0.5531
 4220SOL    HW124296   3.513   2.397   3.941  1.9532  0.0300 -1.1372
 4220SOL    HW224297   3.595   2.340   4.054 -2.1092  0.1937  1.6290
 4221SOL     OW24298   4.377   4.515   4.368 -0.1576 -0.3355  0.2617
 4221SOL    HW124299   4.436   4.456   4.322 -1.0989 -0.4875 -0.7489
 4221SOL    HW224300   4.392   4.480   4.456  1.2087 -0.6647 -0.1093
 4222SOL     OW24301   3.206   1.398  17.682 -0.3659  0.4526  0.0693
 4222SOL    HW124302   3.116   1.366  17.682 -0.3147  0.3099 -0.2208
 4222SOL    HW224303   3.235   1.374   0.023 -0.8898  2.4057  0.7725
 4223SOL     OW24304   2.369   1.284   7.862  0.0162 -0.5872  0.0225
 4223SOL    HW124305   2.362   1.232   7.942  1.1101 -0.4143  0.2362
 4223SOL    HW224306   2.328   1.363   7.897  2.3100 -0.2774  2.0483
 4224SOL     OW24307   2.046   3.575   5.322 -0.4224 -0.1708  0.2392
 4224SOL    HW124308   2.067   3.525   5.243 -2.3119 -1.4273  0.5216
 4224SOL    HW224309   2.102   3.651   5.308  0.5645 -0.8111  0.6487
 4225SOL     OW24310   4.678   2.999   4.881  0.2470  0.0527 -0.7390
 4225SOL    HW124311   4.719   3.076   4.920  0.2499  0.1395 -0.9170
 4225SOL    HW224312   4.605   3.044   4.840 -2.2610 -2.9875  0.4453
 4226SOL     OW24313   0.711   0.442  16.111  0.1248  0.0769  0.2420
 4226SOL    HW124314   0.763   0.459  16.032 -0.6791 -0.5747 -0.4294
 4226SOL    HW224315   0.645   0.505  16.084 -1.7580 -1.4982  1.1597
 4227SOL     OW24316   1.028   0.002   1.510  0.6395  0.0235  0.5921
 4227SOL    HW124317   1.048   4.646   1.505 -1.9686 -0.4316 -1.2452
 4227SOL    HW224318   1.008   0.016   1.602  1.0462 -0.5312  0.7652
 4228SOL     OW24319   1.527   0.414   5.102 -0.5498  0.2935 -0.1361
 4228SOL    HW124320   1.557   0.359   5.174 -1.7456 -1.9939 -1.3858
 4228SOL    HW224321   1.598   0.401   5.039  0.1561  1.8838  0.3364
 4229SOL     OW24322   2.355   2.793   9.266  0.0770 -0.6320  0.5166
 4229SOL    HW124323   2.354   2.804   9.171 -2.7039  2.4090  0.9051
 4229SOL    HW224324   2.328   2.883   9.283  1.1964 -0.1738 -0.1245
 4230SOL     OW24325   1.698   0.514   7.090 -0.0959  0.1545  0.0562
 4230SOL    HW124326   1.634   0.578   7.060  0.8194  0.4058 -1.3470
 4230SOL    HW224327   1.671   0.518   7.182  0.6322 -0.6678  0.3011
 4231SOL     OW24328   0.806   4.487  15.840 -0.6896  0.3285  0.0272
 4231SOL    HW124329   0.862   4.491  15.918 -1.2199  2.1275  0.3143
 4231SOL    HW224330   0.830   4.567  15.794 -0.0161 -0.4366 -0.9601
 4232SOL     OW24331   2.482   1.250  10.605  0.3855 -0.4285 -0.1550
 4232SOL    HW124332   2.410   1.204  10.562  0.1840  0.7281 -1.0230
 4232SOL    HW224333   2.457   1.236  10.697  0.6994 -3.0104 -0.4417
 4233SOL     OW24334   3.782   0.624  13.676 -0.0295  0.2983  0.4365
 4233SOL    HW124335   3.725   0.560  13.634  0.7529 -0.3755  0.4132
 4233SOL    HW224336   3.773   0.620  13.772  0.3038  0.6194  0.4835
 4234SOL     OW24337   0.800   0.940   8.479  0.1643  0.5027  1.2044
 4234SOL    HW124338   0.821   0.848   8.498 -0.6547  0.1757  0.5173
 4234SOL    HW224339   0.710   0.928   8.449  0.7784  0.7232 -0.6959
 4235SOL     OW24340   0.917   0.703  13.078 -0.2269 -0.2280 -0.0529
 4235SOL    HW124341   0.911   0.799  13.083 -2.6431 -0.4919  1.9056
 4235SOL    HW224342   0.984   0.683  13.143  0.2163  2.4730  0.3220
 4236SOL     OW24343   0.169   2.519  15.142  0.2771 -0.0074  0.5105
 4236SOL    HW124344   0.201   2.430  15.154 -0.0103 -0.2799 -0.7177
 4236SOL    HW224345   0.083   2.506  15.181  0.1116 -0.8678 -0.1377
 4237SOL     OW24346   0.580   3.297   9.185  0.1879 -0.0115  0.1361
 4237SOL    HW124347   0.649   3.331   9.242  1.1346 -1.7602  0.0246
 4237SOL    HW224348   0.543   3.381   9.156  0.7653 -0.0217 -0.6405
 4238SOL     OW24349   3.509   2.894   5.052 -0.1259  0.1840 -0.7048
 4238SOL    HW124350   3.521   2.831   5.122  0.0238  0.6861 -0.2821
 4238SOL    HW224351   3.547   2.857   4.973  1.2484  0.9672 -0.4103
 4239SOL     OW24352   3.915   2.003   1.721  0.2883 -0.2898  0.2300
 4239SOL    HW124353   3.907   2.071   1.787  0.5528  1.2439 -1.3330
 4239SOL    HW224354   3.823   1.978   1.728 -0.1287  1.8323  2.1881
 4240SOL     OW24355   4.439   1.999  11.012 -0.2129  0.0047 -0.3880
 4240SOL    HW124356   4.353   1.983  11.051  0.4232  0.3231  1.1438
 4240SOL    HW224357   4.489   1.929  11.054  0.6750  1.2638  0.6581
 4241SOL     OW24358   2.640   2.368   4.667 -0.2188 -0.1069 -0.2093
 4241SOL    HW124359   2.592   2.355   4.585  3.3907 -1.1273 -2.1692
 4241SOL    HW224360   2.569   2.351   4.729 -0.9691 -2.6721 -1.7752
 4242SOL     OW24361   4.404   0.113   0.996  0.3025 -0.4469  0.3554
 4242SOL    HW124362   4.445   0.175   1.056 -1.0727  0.8998 -0.0970
 4242SOL    HW224363   4.377   0.043   1.055 -1.1635 -1.7507 -1.8519
 4243SOL     OW24364   0.223   3.724   4.115  0.3281  0.4987  0.5199
 4243SOL    HW124365   0.145   3.678   4.085  0.3602  0.3689  0.6351
 4243SOL    HW224366   0.283   3.681   4.054 -1.5780 -0.3860 -0.7235
 4244SOL     OW24367   3.503   1.072   7.717 -0.0987 -0.3103 -0.5450
 4244SOL    HW124368   3.556   1.147   7.689 -0.4153 -0.0075 -0.3453
 4244SOL    HW224369   3.458   1.069   7.632 -2.0100 -1.2071  0.5010
 4245SOL     OW24370   3.683   0.067   7.246 -0.1581 -0.1095  0.3528
 4245SOL    HW124371   3.672   4.715   7.213 -0.4947 -0.5800  1.7628
 4245SOL    HW224372   3.757   0.063   7.307  0.7234  0.2723 -0.6853
 4246SOL     OW24373   3.965   0.570   1.369 -0.5054  0.3793 -0.4385
 4246SOL    HW124374   3.873   0.592   1.377 -0.5176 -0.4564  1.6427
 4246SOL    HW224375   3.994   0.575   1.460  1.2232 -2.7058 -0.8152
 4247SOL     OW24376   0.831   0.153   5.671  0.6082  0.4440  0.3638
 4247SOL    HW124377   0.790   0.100   5.603 -0.4027  1.1295  0.4184
 4247SOL    HW224378   0.915   0.189   5.645 -0.2045  0.8411 -1.6859
 4248SOL     OW24379   3.006   2.480   8.094  0.2410 -0.1091  0.3156
 4248SOL    HW124380   2.915   2.509   8.096 -0.6342 -2.8301  0.2034
 4248SOL    HW224381   3.009   2.421   8.170  0.4003  0.3582  0.6738
 4249SOL     OW24382   2.274   4.379   1.968 -0.1009  0.4121  0.2627
 4249SOL    HW124383   2.363   4.352   1.946 -0.8971 -0.5628 -1.7758
 4249SOL    HW224384   2.218   4.312   1.929 -0.3457 -1.1480  3.2419
 4250SOL     OW24385   3.970   1.441   0.427 -0.0169  0.0200  0.2794
 4250SOL    HW124386   3.887   1.401   0.400  0.4843 -0.5511 -0.4136
 4250SOL    HW224387   4.023   1.384   0.372 -0.6626 -0.0515 -0.2734
 4251SOL     OW24388   1.329   0.713   2.408 -0.5950 -0.4994  0.2758
 4251SOL    HW124389   1.423   0.699   2.396 -1.0649 -1.5720 -2.1142
 4251SOL    HW224390   1.335   0.788   2.467 -1.3955 -0.9556  0.9342
 4252SOL     OW24391   3.016   2.741  10.490  0.5229 -0.5516 -0.5746
 4252SOL    HW124392   3.063   2.762  10.410 -1.2995  1.5732 -1.0930
 4252SOL    HW224393   3.090   2.738  10.551  0.4100  1.4179 -0.3200
 4253SOL     OW24394   3.553   0.449   0.556 -0.3352  0.1504 -0.3939
 4253SOL    HW124395   3.535   0.437   0.649  2.0637  1.8964  0.3035
 4253SOL    HW224396   3.649   0.451   0.565 -0.2945 -0.8894 -0.6046
 4254SOL     OW24397   1.634   3.400   7.717  0.0558 -0.1521 -0.1250
 4254SOL    HW124398   1.601   3.489   7.709 -0.5026 -0.3039  0.4970
 4254SOL    HW224399   1.575   3.339   7.673 -0.0483 -0.1139 -0.0377
 4255SOL     OW24400   3.457   0.438   2.194 -0.2995 -0.1328  0.0854
 4255SOL    HW124401   3.547   0.408   2.181 -0.9719 -2.7442  1.4029
 4255SOL    HW224402   3.433   0.453   2.102  1.7907 -1.3943 -0.6559
 4256SOL     OW24403   4.232   3.757   7.057  0.1833  0.6373 -0.5486
 4256SOL    HW124404   4.144   3.722   7.071  0.2480  1.0159  0.8224
 4256SOL    HW224405   4.279   3.720   7.132  1.7279  1.3973 -1.1545
 4257SOL     OW24406   1.634   4.621  15.479  0.0678 -0.1837  0.1393
 4257SOL    HW124407   1.609   4.679  15.407  0.7465 -1.3611 -1.0483
 4257SOL    HW224408   1.726   4.645  15.486 -0.1811  1.1173 -1.2506
 4258SOL     OW24409   1.387   4.455   7.869  0.1725 -0.1222 -0.4442
 4258SOL    HW124410   1.369   4.549   7.873 -0.5536 -0.2799 -0.1366
 4258SOL    HW224411   1.333   4.424   7.796 -0.1919 -3.4787  1.2720
 4259SOL     OW24412   3.360   2.230   7.802  0.3153 -0.0943  0.6787
 4259SOL    HW124413   3.323   2.149   7.768  1.7810 -1.0308  1.2696
 4259SOL    HW224414   3.317   2.292   7.744 -0.7526 -2.3218 -0.8944
 4260SOL     OW24415   2.831   2.547   7.363  0.1820 -0.3403  0.0386
 4260SOL    HW124416   2.868   2.552   7.451  1.8058  3.9622 -0.8779
 4260SOL    HW224417   2.818   2.640   7.344  0.6579  0.0940  1.8999
 4261SOL     OW24418   2.975   2.519   9.473 -0.3404  0.3439 -0.2511
 4261SOL    HW124419   2.899   2.497   9.527 -0.4118  0.6010 -0.2456
 4261SOL    HW224420   2.953   2.465   9.398 -0.1123 -1.3615  0.9156
 4262SOL     OW24421   3.242   1.144  10.432  0.4021  1.1767 -0.2281
 4262SOL    HW124422   3.163   1.097  10.456  1.3481  1.4073  3.4240
 4262SOL    HW224423   3.230   1.138  10.337  2.1273  0.3063 -0.3854
 4263SOL     OW24424   4.519   0.349   7.453 -0.2014 -0.0568  0.2590
 4263SOL    HW124425   4.597   0.377   7.501 -0.3965 -3.0591  2.3006
 4263SOL    HW224426   4.461   0.340   7.528 -1.0826  1.1885 -0.2909
 4264SOL     OW24427   1.944   4.053  10.786 -0.0433  0.3805  0.7008
 4264SOL    HW124428   2.007   3.997  10.830 -0.2479 -0.3811  0.0277
 4264SOL    HW224429   1.998   4.125  10.753  0.7515 -0.7842 -0.5358
 4265SOL     OW24430   2.662   3.566   5.336 -0.0443  0.1857  0.1437
 4265SOL    HW124431   2.751   3.586   5.305  0.0614  3.3722  2.5446
 4265SOL    HW224432   2.618   3.651   5.330  1.3250  0.9035  0.1519
 4266SOL     OW24433   1.073   1.431  11.075  0.0835  0.3437 -0.5735
 4266SOL    HW124434   1.025   1.458  10.996  0.3374 -2.9522 -1.8392
 4266SOL    HW224435   1.154   1.482  11.066 -0.5456  1.5908  0.7336
 4267SOL     OW24436   4.355   2.473   7.214 -0.2287 -0.3086 -0.1539
 4267SOL    HW124437   4.277   2.483   7.269 -0.3876 -3.4964  0.1537
 4267SOL    HW224438   4.411   2.547   7.239 -1.2162  0.7141 -0.9385
 4268SOL     OW24439   0.663   1.628   4.500  0.3782 -0.0582  0.1426
 4268SOL    HW124440   0.750   1.645   4.465  0.0052  1.0907 -0.2349
 4268SOL    HW224441   0.615   1.708   4.477 -0.5188 -0.1659  1.6636
 4269SOL     OW24442   0.248   1.068  12.731  0.0980  0.3304 -0.3293
 4269SOL    HW124443   0.299   1.019  12.667 -0.0101 -0.5548  0.2566
 4269SOL    HW224444   0.156   1.054  12.708 -0.2145  0.9094  0.5489
 4270SOL     OW24445   4.017   3.464   3.559 -0.2874  0.2885 -0.3340
 4270SOL    HW124446   4.099   3.417   3.573  0.2973  1.3867 -0.0741
 4270SOL    HW224447   4.046   3.555   3.558 -1.6443  0.7146 -1.0158
 4271SOL     OW24448   0.378   0.904   2.554 -0.3122 -0.3953 -0.1939
 4271SOL    HW124449   0.299   0.912   2.606 -0.3871  0.6954 -0.4774
 4271SOL    HW224450   0.438   0.873   2.621 -0.1310  0.5193  0.0681
 4272SOL     OW24451   4.411   0.290   8.486 -0.3608 -0.1024  0.5257
 4272SOL    HW124452   4.429   0.380   8.459 -1.5144 -0.6741 -2.1808
 4272SOL    HW224453   4.370   0.299   8.572  2.3118 -0.1755  1.8111
 4273SOL     OW24454   3.796   3.626   1.313 -0.8847 -0.2483 -0.1206
 4273SOL    HW124455   3.742   3.551   1.337 -2.0140  1.1309  1.6815
 4273SOL    HW224456   3.857   3.637   1.386  0.5059  0.7454 -1.4326
 4274SOL     OW24457   3.648   3.502   4.765  0.0953  0.1399  0.0489
 4274SOL    HW124458   3.580   3.480   4.702  0.3338 -0.7588  0.1024
 4274SOL    HW224459   3.602   3.538   4.841 -0.4852 -0.6155  0.0480
 4275SOL     OW24460   4.535   0.373   0.564  0.1710 -0.4324 -0.5155
 4275SOL    HW124461   4.586   0.433   0.618  2.5108  0.1047 -3.3159
 4275SOL    HW224462   4.602   0.331   0.511  1.9939 -1.0146  2.2579
 4276SOL     OW24463   0.999   2.233   7.188 -0.3899  0.0734  0.0899
 4276SOL    HW124464   1.006   2.213   7.095 -0.8625  0.5252 -0.0439
 4276SOL    HW224465   0.918   2.283   7.188  0.5967  1.6923  1.0469
 4277SOL     OW24466   4.298   0.293   8.739  0.0019  0.2520  0.1603
 4277SOL    HW124467   4.295   0.377   8.785  1.5982  0.8741 -0.8457
 4277SOL    HW224468   4.373   0.245   8.775 -0.8835  1.5565  3.7391
 4278SOL     OW24469   4.310   0.761   0.397  0.0739 -0.1086  0.3860
 4278SOL    HW124470   4.330   0.695   0.330 -0.7444 -0.6139  0.6453
 4278SOL    HW224471   4.402   0.785   0.410  0.4420 -1.2212 -0.1776
 4279SOL     OW24472   4.496   4.607   1.910  0.2527 -0.5994  0.2690
 4279SOL    HW124473   4.547   4.560   1.844  0.1803  0.6429 -0.6734
 4279SOL    HW224474   4.529   4.697   1.908 -1.5387  0.0549  0.5961
 4280SOL     OW24475   0.348   4.441   4.309  0.0987 -0.1406  0.2373
 4280SOL    HW124476   0.289   4.492   4.364 -0.9186 -0.3966 -0.6110
 4280SOL    HW224477   0.367   4.510   4.246 -0.3044  0.6789  1.0260
 4281SOL     OW24478   1.559   2.554  13.437 -0.0420  0.1950 -0.1437
 4281SOL    HW124479   1.613   2.475  13.434 -0.3607  0.0136 -1.2301
 4281SOL    HW224480   1.534   2.564  13.344  0.6908 -0.3273 -0.3936
 4282SOL     OW24481   3.365   3.380   5.999 -0.1983 -0.0660  0.3084
 4282SOL    HW124482   3.329   3.440   6.065 -1.2717 -1.3168  0.8727
 4282SOL    HW224483   3.427   3.324   6.046 -1.1338 -1.3860 -0.0368
 4283SOL     OW24484   1.176   0.409  10.347  0.3971  0.1523  0.1853
 4283SOL    HW124485   1.229   0.378  10.421  0.6531 -0.3395 -0.1993
 4283SOL    HW224486   1.098   0.353  10.351  0.4599 -0.0501 -1.3656
 4284SOL     OW24487   3.939   3.635   1.539 -0.0818 -0.4620 -0.1161
 4284SOL    HW124488   3.876   3.628   1.611  0.0488  0.6476  0.1071
 4284SOL    HW224489   3.988   3.717   1.544 -2.3941  0.7918  2.0193
 4285SOL     OW24490   2.665   1.785   4.753 -0.2796  0.0440  0.2285
 4285SOL    HW124491   2.749   1.789   4.800 -0.3089 -1.1861  0.3925
 4285SOL    HW224492   2.603   1.829   4.811 -1.4889  0.7634 -1.6208
 4286SOL     OW24493   2.903   3.181   8.497 -0.2830  0.2469  0.0084
 4286SOL    HW124494   2.938   3.110   8.551 -0.2021  0.8811  0.7869
 4286SOL    HW224495   2.964   3.184   8.424 -0.8701 -0.2949 -0.5058
 4287SOL     OW24496   1.232   0.521   4.821 -0.2608 -0.5464 -0.0611
 4287SOL    HW124497   1.284   0.582   4.768 -2.2142 -0.6701 -2.0665
 4287SOL    HW224498   1.295   0.449   4.818  0.0922 -0.3373  1.8736
 4288SOL     OW24499   0.605   2.344   7.501  0.0533 -0.3740  0.2181
 4288SOL    HW124500   0.571   2.387   7.579  1.8002  0.2449  0.6270
 4288SOL    HW224501   0.584   2.407   7.431  1.2834  1.3977  1.4310
 4289SOL     OW24502   4.069   3.396   3.916  0.0936  0.2043 -0.2302
 4289SOL    HW124503   4.068   3.303   3.939 -2.4915  0.3716  0.2715
 4289SOL    HW224504   3.978   3.415   3.896 -0.6969 -1.2823  1.9571
 4290SOL     OW24505   0.363   1.966   5.187  0.2493  0.1407 -0.0555
 4290SOL    HW124506   0.284   2.004   5.148  0.3690 -0.3369 -0.7479
 4290SOL    HW224507   0.330   1.879   5.207  0.3488 -0.3108 -1.9128
 4291SOL     OW24508   4.062   3.996   7.548 -0.1101 -0.5609 -0.0667
 4291SOL    HW124509   4.035   3.905   7.549 -0.2202 -0.5244  0.2181
 4291SOL    HW224510   4.019   4.022   7.629 -0.8563 -1.4902 -0.1740
 4292SOL     OW24511   2.976   1.448   0.563 -0.3493  0.1410 -0.0749
 4292SOL    HW124512   2.939   1.535   0.548 -3.5397 -0.9418  1.7463
 4292SOL    HW224513   3.068   1.470   0.547 -0.7560  1.4639 -0.6261
 4293SOL     OW24514   0.681   1.830   2.608  0.1503 -1.1466 -0.2462
 4293SOL    HW124515   0.663   1.831   2.514 -0.6296 -1.1728 -0.0992
 4293SOL    HW224516   0.769   1.862   2.590 -0.6445 -0.5829 -3.0169
 4294SOL     OW24517   2.325   2.518   5.885 -0.9500 -0.1123  0.0105
 4294SOL    HW124518   2.382   2.517   5.808 -0.3038 -1.3819  0.5178
 4294SOL    HW224519   2.380   2.518   5.963 -1.2139  1.2750  0.2055
 4295SOL     OW24520   3.803   2.076   6.551  1.0027 -0.7880  0.4203
 4295SOL    HW124521   3.839   2.055   6.465 -3.2737 -0.1687 -1.5201
 4295SOL    HW224522   3.719   2.033   6.535 -1.0095  2.9525  0.8720
 4296SOL     OW24523   1.971   2.392   6.115  0.7156 -0.7265 -0.6471
 4296SOL    HW124524   1.938   2.303   6.133  0.9622 -0.8291 -0.7036
 4296SOL    HW224525   2.027   2.406   6.191  0.6782  2.6553 -1.2441
 4297SOL     OW24526   1.394   0.385   2.665 -0.6103 -0.1517  0.5520
 4297SOL    HW124527   1.305   0.420   2.675 -1.0774 -1.4451  0.9236
 4297SOL    HW224528   1.443   0.461   2.697  0.4727 -0.2544 -0.8491
 4298SOL     OW24529   0.261   4.570   1.409  0.2385 -0.0519 -0.1294
 4298SOL    HW124530   0.320   4.523   1.468  0.9712 -0.9020 -1.5515
 4298SOL    HW224531   0.320   4.596   1.339 -0.1944 -3.6194 -1.8508
 4299SOL     OW24532   1.564   2.532  11.339 -0.1560 -0.1861 -0.0082
 4299SOL    HW124533   1.537   2.445  11.367 -0.2142  0.0762  0.7845
 4299SOL    HW224534   1.659   2.538  11.342 -0.1996 -1.0230  3.2645
 4300SOL     OW24535   0.397   1.750   6.927 -0.3227 -0.0149 -0.3060
 4300SOL    HW124536   0.396   1.698   7.007  1.6677 -0.1498 -0.3613
 4300SOL    HW224537   0.304   1.766   6.913 -0.2079  0.0099 -1.0842
 4301SOL     OW24538   2.096   0.869  11.901 -0.1786  0.6765  0.4078
 4301SOL    HW124539   2.063   0.843  11.987 -0.1033 -1.0570 -0.0766
 4301SOL    HW224540   2.081   0.782  11.864 -2.3234  1.8456 -1.4209
 4302SOL     OW24541   3.951   2.122   6.317 -0.0811 -0.3800 -0.3282
 4302SOL    HW124542   3.867   2.161   6.295 -0.0566  0.5713  1.2705
 4302SOL    HW224543   3.996   2.189   6.368 -1.1196 -0.9166  1.3046
 4303SOL     OW24544   0.334   1.122   3.237 -0.3191  0.2355 -0.4963
 4303SOL    HW124545   0.344   1.183   3.310  1.1821 -0.6304  0.0188
 4303SOL    HW224546   0.280   1.056   3.281  0.6494  0.1593  0.5681
 4304SOL     OW24547   4.353   0.945   1.160 -0.1074  0.6499 -0.3680
 4304SOL    HW124548   4.375   1.019   1.103 -1.4337  1.8488  0.6572
 4304SOL    HW224549   4.386   0.873   1.107 -0.2948 -0.3855  0.9281
 4305SOL     OW24550   2.311   3.493   4.255  0.2459  0.3288  0.4577
 4305SOL    HW124551   2.392   3.544   4.261  1.4381 -1.5016 -0.2198
 4305SOL    HW224552   2.297   3.501   4.161 -2.7432 -2.6359  0.6528
 4306SOL     OW24553   0.426   1.499  10.404 -0.4957  0.3263  0.3073
 4306SOL    HW124554   0.476   1.460  10.475  0.1207  1.5973  0.5768
 4306SOL    HW224555   0.477   1.579  10.391 -1.3453  0.3757 -2.7906
 4307SOL     OW24556   3.870   1.820  14.634  0.4201 -0.3874  0.3337
 4307SOL    HW124557   3.901   1.874  14.706  1.2430 -0.2527 -0.1267
 4307SOL    HW224558   3.794   1.778  14.674  0.7186 -0.3897  0.8946
 4308SOL     OW24559   1.432   2.103   3.706 -0.6770 -0.4299  0.0032
 4308SOL    HW124560   1.411   2.011   3.723  0.3025 -0.8954 -1.3664
 4308SOL    HW224561   1.485   2.089   3.628 -0.0242 -0.0529  0.3809
 4309SOL     OW24562   1.217   2.368   4.915 -0.4230  0.0900 -0.0568
 4309SOL    HW124563   1.308   2.380   4.887 -0.7373 -0.6411 -1.4241
 4309SOL    HW224564   1.169   2.401   4.838  2.4800  0.7362 -1.5957
 4310SOL     OW24565   3.823   2.561  15.461  0.0391  0.4590 -0.6297
 4310SOL    HW124566   3.810   2.539  15.368 -0.8924  2.5180 -0.9819
 4310SOL    HW224567   3.886   2.632  15.449  0.5158  0.1479  0.0534
 4311SOL     OW24568   1.331   1.304  17.317 -0.1338  0.0932  0.3546
 4311SOL    HW124569   1.353   1.371  17.253  1.5988 -3.4269 -2.7791
 4311SOL    HW224570   1.335   1.227  17.260  1.5584  0.0784  0.4810
 4312SOL     OW24571   4.042   0.700   4.053 -0.3600  0.4576  0.3271
 4312SOL    HW124572   3.999   0.648   4.120  2.2946 -2.8002 -0.4613
 4312SOL    HW224573   4.130   0.692   4.088 -0.2263  1.2088  0.1630
 4313SOL     OW24574   4.458   2.855   8.704 -0.4936 -0.8007 -0.3244
 4313SOL    HW124575   4.523   2.815   8.760 -1.0525 -0.4953  0.5450
 4313SOL    HW224576   4.436   2.927   8.763  2.1007 -0.5948  0.3472
 4314SOL     OW24577   3.717   3.712  13.888 -0.1362  0.2627 -0.0254
 4314SOL    HW124578   3.712   3.692  13.981  0.1553 -0.5948 -0.1942
 4314SOL    HW224579   3.807   3.689  13.864 -0.1545 -1.2537  1.3352
 4315SOL     OW24580   2.090   3.838   2.273 -0.1157  0.4338  0.7578
 4315SOL    HW124581   2.055   3.798   2.193 -0.2422  0.6024  0.7274
 4315SOL    HW224582   2.023   3.902   2.300  2.0970  3.4247 -0.7978
 4316SOL     OW24583   3.120   0.871   5.131 -0.3452 -0.4157  0.0910
 4316SOL    HW124584   3.124   0.934   5.203  0.0402  0.4939 -0.7358
 4316SOL    HW224585   3.061   0.914   5.069  2.2006  1.2861 -1.1456
 4317SOL     OW24586   4.330   4.155  10.719  0.0097  0.0969 -0.5163
 4317SOL    HW124587   4.421   4.134  10.740  0.5715  2.2969 -0.7681
 4317SOL    HW224588   4.298   4.084  10.662 -1.0154 -1.2937  1.8002
 4318SOL     OW24589   2.992   1.192   5.769 -0.0764 -0.0464 -0.2536
 4318SOL    HW124590   3.023   1.237   5.691  1.7052  0.6447  0.8671
 4318SOL    HW224591   2.909   1.166   5.730  0.1365 -1.4346  0.1914
 4319SOL     OW24592   1.432   2.949  16.229 -0.2406 -0.0353 -0.3238
 4319SOL    HW124593   1.414   3.043  16.218 -2.3965 -0.3828  0.2494
 4319SOL    HW224594   1.351   2.916  16.191 -0.6771 -0.0364  0.6325
 4320SOL     OW24595   0.927   3.303   0.315  0.8825  1.1170  0.3386
 4320SOL    HW124596   0.990   3.231   0.317  0.4237  0.7434  1.8041
 4320SOL    HW224597   0.934   3.341   0.228 -0.0800  1.7609  0.5456
 4321SOL     OW24598   0.568   4.056   0.070  0.1340  0.7550  0.1903
 4321SOL    HW124599   0.487   4.013   0.041 -0.8059  0.1030  3.6812
 4321SOL    HW224600   0.636   3.989   0.065  0.6271  1.0981  2.1374
 4322SOL     OW24601   4.313   3.015   6.502  0.4963 -0.2222  0.4545
 4322SOL    HW124602   4.230   3.043   6.463  0.3613 -1.0143  0.1636
 4322SOL    HW224603   4.371   3.084   6.469  0.7280 -0.8808 -0.5171
 4323SOL     OW24604   1.261   4.019  14.069  0.0271  0.0478  0.0866
 4323SOL    HW124605   1.230   4.061  13.989  0.9987  0.8171  0.1165
 4323SOL    HW224606   1.342   4.056  14.105 -1.4469  2.1026  1.3250
 4324SOL     OW24607   3.035   2.169   3.728 -0.1862  0.4706  0.5981
 4324SOL    HW124608   2.966   2.133   3.671 -0.7866  4.2065 -1.0493
 4324SOL    HW224609   3.092   2.093   3.727 -1.8541 -0.7896  1.0338
 4325SOL     OW24610   1.219   3.738   6.125 -0.0148 -0.4629  0.4727
 4325SOL    HW124611   1.295   3.682   6.112  1.4205  1.6104 -0.1093
 4325SOL    HW224612   1.241   3.791   6.048 -0.9110 -1.0261 -0.1635
 4326SOL     OW24613   0.012   3.614   5.059 -0.2151 -0.0422 -0.2345
 4326SOL    HW124614   0.097   3.615   5.015  1.2235  0.2933  2.5074
 4326SOL    HW224615   0.007   3.707   5.082 -0.1524 -0.0135 -0.3375
 4327SOL     OW24616   4.365   1.935   7.823  0.0994 -0.0236 -0.1619
 4327SOL    HW124617   4.416   1.890   7.890  1.8125  1.2933 -0.5706
 4327SOL    HW224618   4.338   2.002   7.885  0.8714 -1.0652  1.2951
 4328SOL     OW24619   0.623   3.385  10.944 -0.0259  0.3549 -0.6045
 4328SOL    HW124620   0.640   3.432  10.862 -0.6064  2.9870  0.7588
 4328SOL    HW224621   0.607   3.300  10.903  1.1573 -0.1022 -0.1098
 4329SOL     OW24622   3.543   2.702   2.211  0.0530  0.0040 -0.4092
 4329SOL    HW124623   3.494   2.690   2.293 -0.4656 -1.3592 -0.9203
 4329SOL    HW224624   3.555   2.797   2.207 -0.1585  0.0631  0.4613
 4330SOL     OW24625   4.302   0.353   1.512  0.2546  0.0087  0.0691
 4330SOL    HW124626   4.353   0.429   1.481  0.8987  0.6966  2.7829
 4330SOL    HW224627   4.255   0.336   1.430  2.1059 -0.7117 -0.8421
 4331SOL     OW24628   4.594   3.229   6.854  0.7704 -0.2919 -0.2067
 4331SOL    HW124629   4.503   3.260   6.858  1.2936  1.1979  0.4341
 4331SOL    HW224630   4.627   3.285   6.784 -2.1539  0.4529 -0.9990
 4332SOL     OW24631   2.206   0.900   3.327  0.2314 -0.0607 -0.2056
 4332SOL    HW124632   2.206   0.882   3.421  1.4057  1.6459  0.1129
 4332SOL    HW224633   2.268   0.835   3.295 -0.0825 -0.5120  0.1000
 4333SOL     OW24634   1.361   2.005  10.818  0.4636  0.3141 -0.1745
 4333SOL    HW124635   1.439   2.043  10.859  0.7930 -1.8622  1.2216
 4333SOL    HW224636   1.319   2.077  10.771  1.1255  2.4611  2.4846
 4334SOL     OW24637   1.642   1.390   6.443  0.2432 -0.2604  0.4490
 4334SOL    HW124638   1.578   1.372   6.512  1.2149 -1.2490  1.0927
 4334SOL    HW224639   1.581   1.448   6.398  0.9385  0.0764 -0.0608
 4335SOL     OW24640   1.947   1.141   2.482 -0.0342  0.6537  0.0336
 4335SOL    HW124641   2.005   1.190   2.541  2.1068 -1.1654 -0.5477
 4335SOL    HW224642   1.861   1.176   2.504 -0.3545 -1.1135  1.6128
 4336SOL     OW24643   3.959   0.062  12.075 -0.1072  0.2014 -0.0100
 4336SOL    HW124644   3.891   0.054  12.008 -0.9478  0.1072  0.8574
 4336SOL    HW224645   3.915   0.049  12.159 -2.0743  0.3508 -1.0326
 4337SOL     OW24646   2.011   3.629   7.495  0.2497  0.4228  0.3669
 4337SOL    HW124647   1.940   3.566   7.485  1.6763 -0.6428 -2.8392
 4337SOL    HW224648   2.015   3.637   7.591 -1.2833 -1.8369  0.6171
 4338SOL     OW24649   0.581   0.816   1.682  0.0913  0.7578  0.1980
 4338SOL    HW124650   0.583   0.768   1.600 -0.9961  2.5993 -0.8930
 4338SOL    HW224651   0.491   0.834   1.709 -0.4456  0.7026 -1.6168
 4339SOL     OW24652   0.991   1.673   4.466  0.1324  0.7380 -0.3542
 4339SOL    HW124653   0.998   1.582   4.495  1.0897  1.3769  1.4419
 4339SOL    HW224654   1.065   1.669   4.404  1.1197 -0.0615  0.8757
 4340SOL     OW24655   3.072   2.502  10.256 -0.3175 -0.0849 -0.3874
 4340SOL    HW124656   3.070   2.473  10.165  0.5437 -2.4827  0.3450
 4340SOL    HW224657   3.100   2.593  10.259 -0.6287  0.0238 -0.8181
 4341SOL     OW24658   1.522   3.540   8.361  0.1158 -0.0652 -0.3591
 4341SOL    HW124659   1.464   3.585   8.422  0.1619  0.5373 -0.7656
 4341SOL    HW224660   1.473   3.457   8.361 -0.2906  0.1745  0.2711
 4342SOL     OW24661   0.130   1.662  16.051  0.3958 -0.2958 -0.0411
 4342SOL    HW124662   0.096   1.679  16.139  0.1315  0.7946 -0.3601
 4342SOL    HW224663   0.054   1.659  15.993  2.0014 -0.9451 -2.1215
 4343SOL     OW24664   1.164   3.329   8.009  0.1557  0.5996 -0.3586
 4343SOL    HW124665   1.172   3.292   8.097 -1.2747 -0.6431 -0.7593
 4343SOL    HW224666   1.137   3.420   8.025  2.7892  1.3052  0.1588
 4344SOL     OW24667   1.504   1.433  10.200 -0.3632  0.0764  0.2475
 4344SOL    HW124668   1.530   1.500  10.138 -2.5619  1.0016  0.3321
 4344SOL    HW224669   1.538   1.461  10.285  0.2416 -3.7326  1.2921
 4345SOL     OW24670   0.955   3.901   3.786  0.1211  0.4703  0.2647
 4345SOL    HW124671   0.876   3.921   3.836 -0.5237  1.9608 -1.3442
 4345SOL    HW224672   0.917   3.854   3.712  0.1664 -0.0747  0.5871
 4346SOL     OW24673   3.528   0.785   2.849  0.3945 -0.3124 -0.3845
 4346SOL    HW124674   3.557   0.868   2.811  1.1814 -1.0412 -1.3825
 4346SOL    HW224675   3.508   0.815   2.938  2.2679  0.7494 -0.3162
 4347SOL     OW24676   2.268   0.100   0.154 -0.3824 -0.6437  0.0287
 4347SOL    HW124677   2.299   0.059   0.073  1.1677  0.1263  0.2376
 4347SOL    HW224678   2.340   0.073   0.211 -0.3886  0.4923  0.5724
 4348SOL     OW24679   0.701   3.910  16.575  0.7276  0.1441  0.0778
 4348SOL    HW124680   0.635   3.978  16.586  0.4660 -0.0164 -0.4935
 4348SOL    HW224681   0.718   3.919  16.481 -1.1257  0.0845 -0.2673
 4349SOL     OW24682   3.727   2.710   2.758 -0.2994 -0.1136 -0.2114
 4349SOL    HW124683   3.697   2.678   2.672 -1.2672  1.0224 -0.2858
 4349SOL    HW224684   3.823   2.701   2.755 -0.2112  0.6254  0.4426
 4350SOL     OW24685   0.971   0.741   1.408 -0.4925 -0.2696  0.1074
 4350SOL    HW124686   0.968   0.835   1.390 -0.3331 -0.5205 -1.2394
 4350SOL    HW224687   0.955   0.707   1.320 -0.8248  0.5435 -0.1437
 4351SOL     OW24688   3.232   3.845   4.504  0.0369 -0.6343 -0.8727
 4351SOL    HW124689   3.229   3.876   4.595 -1.9311 -1.0711 -0.7967
 4351SOL    HW224690   3.184   3.910   4.453 -1.2387 -0.8816 -0.0070
 4352SOL     OW24691   1.026   4.004   6.859  0.3623 -0.3468 -0.1541
 4352SOL    HW124692   0.979   3.921   6.862  1.1827 -0.8053  0.1073
 4352SOL    HW224693   0.952   4.062   6.877  2.0828  1.0081  2.6756
 4353SOL     OW24694   1.863   2.151   1.997 -0.2292  0.8350  0.0727
 4353SOL    HW124695   1.943   2.196   1.970  1.3428 -0.8684  1.8231
 4353SOL    HW224696   1.873   2.077   1.937  1.5455  2.3054 -1.4439
 4354SOL     OW24697   4.124   1.202  17.037  0.7714  0.1209  0.0333
 4354SOL    HW124698   4.065   1.269  17.001  0.5702  0.6404  1.3170
 4354SOL    HW224699   4.198   1.257  17.012  0.6792  0.8714  1.3900
 4355SOL     OW24700   3.649   4.458   3.564  0.4777 -0.3654  0.4398
 4355SOL    HW124701   3.666   4.399   3.638  0.4084 -0.8362  0.0806
 4355SOL    HW224702   3.674   4.541   3.605  1.2314 -0.7559  0.7702
 4356SOL     OW24703   2.218   3.188   2.396  0.2702 -0.1370  0.3004
 4356SOL    HW124704   2.253   3.272   2.369 -0.0732 -0.6792 -1.8002
 4356SOL    HW224705   2.299   3.157   2.437  1.6245  0.6829 -1.7530
 4357SOL     OW24706   0.176   1.047  12.282  0.0338  0.5233 -0.0230
 4357SOL    HW124707   0.147   1.010  12.365 -1.7268 -0.8800 -1.2827
 4357SOL    HW224708   0.220   1.129  12.306  1.5968 -0.4732  0.5227
 4358SOL     OW24709   0.939   2.288  12.485  0.3091  0.1266 -0.0453
 4358SOL    HW124710   0.879   2.214  12.483  0.6652 -0.2125  1.3944
 4358SOL    HW224711   1.011   2.259  12.541 -0.1019  0.0766  0.4533
 4359SOL     OW24712   1.462   3.022   3.895  0.0562  0.1700  0.0809
 4359SOL    HW124713   1.500   2.945   3.852  2.3209  0.1004  2.1994
 4359SOL    HW224714   1.504   3.096   3.851  0.2375  0.5783  0.9315
 4360SOL     OW24715   1.926   0.493  15.820 -0.5074 -0.2037  0.6008
 4360SOL    HW124716   1.926   0.399  15.801 -0.1976 -0.4953  1.9977
 4360SOL    HW224717   2.006   0.516  15.773 -0.3491  2.7355  2.3499
 4361SOL     OW24718   2.466   2.669  12.399 -0.5373 -0.0841 -0.3641
 4361SOL    HW124719   2.487   2.736  12.463  0.2343 -1.6616  1.0492
 4361SOL    HW224720   2.547   2.648  12.352 -0.5734 -2.9186  0.8462
 4362SOL     OW24721   3.658   4.197   0.506 -0.0854 -0.3086 -0.0674
 4362SOL    HW124722   3.625   4.285   0.490 -0.8175 -0.0638  2.8616
 4362SOL    HW224723   3.603   4.141   0.451 -0.2235 -1.4535  1.2265
 4363SOL     OW24724   1.845   2.592  10.481  0.3483 -0.2490  0.5535
 4363SOL    HW124725   1.923   2.647  10.489 -0.0937  0.2902  1.1652
 4363SOL    HW224726   1.856   2.534  10.556 -1.2325 -1.2192  0.0197
 4364SOL     OW24727   0.928   3.595   2.348  0.0483 -0.2062  0.4714
 4364SOL    HW124728   0.838   3.609   2.375 -0.0351 -0.1037  0.1475
 4364SOL    HW224729   0.971   3.664   2.398  1.9144 -0.0464 -1.3048
 4365SOL     OW24730   2.694   1.600   4.550  0.4840  0.1195 -0.1912
 4365SOL    HW124731   2.665   1.671   4.607 -0.6239  0.2605 -0.9272
 4365SOL    HW224732   2.749   1.552   4.612 -0.0864 -1.0448 -0.5911
 4366SOL     OW24733   0.241   4.234   8.633  0.5513 -0.4059 -0.2034
 4366SOL    HW124734   0.239   4.307   8.571 -0.4150  0.4698  0.8557
 4366SOL    HW224735   0.329   4.208   8.607  0.1306 -1.8180 -0.2284
 4367SOL     OW24736   4.175   2.620   6.826 -0.2568 -0.1226 -0.1302
 4367SOL    HW124737   4.210   2.546   6.876 -0.9534 -0.3578  0.0026
 4367SOL    HW224738   4.262   2.658   6.810  0.0910  0.0864  2.3476
 4368SOL     OW24739   0.950   3.702  17.282  0.1102  0.3802 -0.2171
 4368SOL    HW124740   0.886   3.707  17.211 -1.6089  3.1576  1.5211
 4368SOL    HW224741   0.890   3.693  17.357  0.2628 -0.9747 -0.2493
 4369SOL     OW24742   2.147   2.146   8.651  0.0580  0.2575 -0.1572
 4369SOL    HW124743   2.090   2.069   8.657 -0.7675  0.9849  1.4811
 4369SOL    HW224744   2.106   2.208   8.712  1.6077  1.2891 -0.1688
 4370SOL     OW24745   2.139   3.286   7.634  0.1874  0.0694 -0.0051
 4370SOL    HW124746   2.048   3.312   7.651 -0.0214 -0.0562 -0.8795
 4370SOL    HW224747   2.189   3.343   7.692 -1.9605  0.4552  1.4885
 4371SOL     OW24748   2.769   1.767   7.771  0.3001  0.3785  0.3358
 4371SOL    HW124749   2.725   1.778   7.687  0.8107  1.0210  0.1530
 4371SOL    HW224750   2.713   1.698   7.807 -1.0269  1.1084 -0.3346
 4372SOL     OW24751   3.999   3.519   8.373  0.3815  0.3760 -0.0328
 4372SOL    HW124752   4.019   3.467   8.296  2.7045  2.1798 -0.6309
 4372SOL    HW224753   3.991   3.604   8.330 -2.7215  0.4073  0.6128
 4373SOL     OW24754   3.966   4.147  11.060 -0.0140  0.0260  0.1457
 4373SOL    HW124755   4.020   4.068  11.054 -1.3833 -1.0284  1.7737
 4373SOL    HW224756   4.019   4.193  11.125  0.1308  0.7601 -0.4865
 4374SOL     OW24757   1.260   3.864   8.931  0.4113  0.3450 -0.0472
 4374SOL    HW124758   1.236   3.949   8.895 -0.0503 -0.3313 -1.3427
 4374SOL    HW224759   1.225   3.810   8.860  0.8957  1.6497 -1.2709
 4375SOL     OW24760   2.013   3.377   7.221  0.3510  0.4526  0.2813
 4375SOL    HW124761   2.080   3.393   7.287  0.6111  2.4314 -0.4632
 4375SOL    HW224762   1.970   3.303   7.265  1.9099 -1.2523 -1.0703
 4376SOL     OW24763   2.943   3.110   4.402 -0.2870 -0.1445  0.3352
 4376SOL    HW124764   2.880   3.157   4.347  0.7572 -1.1669 -1.7073
 4376SOL    HW224765   2.886   3.090   4.476  0.3249  0.0093  0.8536
 4377SOL     OW24766   2.135   2.345   6.348 -0.0711  0.2081  0.3591
 4377SOL    HW124767   2.153   2.428   6.391 -0.0612  0.0282  0.6974
 4377SOL    HW224768   2.221   2.319   6.316 -0.8423 -0.1857 -1.4355
 4378SOL     OW24769   4.521   3.434   9.100 -0.4697  0.7125 -0.4632
 4378SOL    HW124770   4.450   3.429   9.036  1.5761 -0.8828 -2.5975
 4378SOL    HW224771   4.581   3.367   9.068 -1.5778 -0.1334 -0.7800
 4379SOL     OW24772   0.620   2.145   6.745  1.1211  0.3531 -0.6130
 4379SOL    HW124773   0.709   2.110   6.758  0.6513  0.2507  2.4830
 4379SOL    HW224774   0.630   2.225   6.798  0.1033  0.1622 -0.1456
 4380SOL     OW24775   2.288   2.688   8.620  0.1530  0.1173  0.3776
 4380SOL    HW124776   2.276   2.593   8.609 -0.2447  0.2090  0.0524
 4380SOL    HW224777   2.308   2.698   8.713 -1.3507  2.0301  0.4806
 4381SOL     OW24778   2.572   3.548   6.920  0.3907  0.0992  0.2696
 4381SOL    HW124779   2.492   3.599   6.916  0.4457  0.0901 -0.9737
 4381SOL    HW224780   2.560   3.498   7.001  1.0428  1.4661  1.2012
 4382SOL     OW24781   3.988   2.190   2.355 -0.2074 -0.1856 -0.0962
 4382SOL    HW124782   3.928   2.124   2.319 -1.5185  0.6132  0.6063
 4382SOL    HW224783   3.978   2.260   2.291  1.0717 -2.1628 -2.4383
 4383SOL     OW24784   0.066   0.451   0.603 -0.0375  0.0008  0.2118
 4383SOL    HW124785   0.050   0.367   0.646  0.7386 -0.5631 -0.6269
 4383SOL    HW224786   0.019   0.514   0.658  0.2173  2.3558 -2.2587
 4384SOL     OW24787   3.797   2.247  11.422  0.0712  0.4111 -0.0144
 4384SOL    HW124788   3.869   2.206  11.375  0.3914 -2.2823  2.7850
 4384SOL    HW224789   3.752   2.291  11.350 -3.6250 -0.8781  1.5029
 4385SOL     OW24790   1.596   2.824   8.530 -0.2583 -0.0709  0.6275
 4385SOL    HW124791   1.622   2.800   8.441 -2.5183 -0.5429  0.0881
 4385SOL    HW224792   1.674   2.878   8.539 -0.4636  0.3991 -0.3956
 4386SOL     OW24793   0.879   3.216   4.980  0.0301 -0.1593  0.1058
 4386SOL    HW124794   0.961   3.262   4.961  0.4931 -0.4283  1.5048
 4386SOL    HW224795   0.832   3.296   5.007 -0.2524 -0.3724  0.2414
 4387SOL     OW24796   3.223   2.576   7.939  0.3189  0.2593 -0.1616
 4387SOL    HW124797   3.189   2.548   7.853 -0.2793  1.4313 -0.3069
 4387SOL    HW224798   3.154   2.546   7.998 -0.4439 -1.1943 -1.7588
 4388SOL     OW24799   1.789   4.107  17.199 -0.3796 -0.2006  0.7706
 4388SOL    HW124800   1.724   4.061  17.145  1.6401 -2.5397  0.3752
 4388SOL    HW224801   1.867   4.062  17.168 -0.8833 -0.3116 -0.3394
 4389SOL     OW24802   1.100   1.932   8.688  0.2236  0.3302 -0.2416
 4389SOL    HW124803   1.010   1.963   8.682 -0.3777 -1.2968  0.5700
 4389SOL    HW224804   1.084   1.838   8.691  1.7537  0.0705 -0.0399
 4390SOL     OW24805   2.750   3.635   5.803  0.2308 -0.3616 -0.5581
 4390SOL    HW124806   2.810   3.676   5.741  0.9015  0.5822  0.7287
 4390SOL    HW224807   2.734   3.555   5.752 -2.1131  1.7044 -3.0418
 4391SOL     OW24808   3.688   2.531   6.867  0.0426  0.6813 -0.1121
 4391SOL    HW124809   3.680   2.443   6.832 -0.2039  0.7172 -0.1459
 4391SOL    HW224810   3.774   2.561   6.837  0.2464  0.5368  0.3269
 4392SOL     OW24811   3.072   4.071   4.386 -0.3037 -0.1716 -0.6754
 4392SOL    HW124812   3.072   4.166   4.373  5.9587 -0.2333 -1.4658
 4392SOL    HW224813   2.987   4.041   4.354  0.3917 -0.9420 -1.8095
 4393SOL     OW24814   0.319   0.995  13.914  0.0438 -0.1271  0.2353
 4393SOL    HW124815   0.327   0.981  13.820  1.5431  1.9645  0.0414
 4393SOL    HW224816   0.303   0.912  13.959  0.9223  0.3087  1.3531
 4394SOL     OW24817   2.456   4.110   2.281  0.0967  0.1182  0.8457
 4394SOL    HW124818   2.383   4.155   2.322  1.8618  3.1796  0.5832
 4394SOL    HW224819   2.420   4.119   2.193 -1.2648 -1.2482  1.2695
 4395SOL     OW24820   4.127   2.687   4.233  0.2498 -0.3085  0.4661
 4395SOL    HW124821   4.197   2.621   4.242  1.7332  1.1081 -0.6325
 4395SOL    HW224822   4.177   2.768   4.226 -1.6024  0.7804 -0.0356
 4396SOL     OW24823   1.952   1.166   7.729  0.3485 -0.2776 -0.0056
 4396SOL    HW124824   1.930   1.259   7.720  0.3065 -0.1067  1.8654
 4396SOL    HW224825   1.867   1.131   7.756  0.2289  0.5904  0.7587
 4397SOL     OW24826   1.292   4.188   2.870  0.2781 -0.0383  0.8376
 4397SOL    HW124827   1.375   4.177   2.822 -0.7420  2.3231 -1.4637
 4397SOL    HW224828   1.238   4.117   2.836 -0.8817  1.6225 -0.7971
 4398SOL     OW24829   1.705   0.493   5.841  0.2193 -0.3967 -0.6669
 4398SOL    HW124830   1.798   0.482   5.862  0.3637 -1.0721 -1.6780
 4398SOL    HW224831   1.673   0.519   5.927  4.4064  0.1907  0.7410
 4399SOL     OW24832   4.477   2.629   9.982 -0.3697 -0.4601 -0.5917
 4399SOL    HW124833   4.495   2.723   9.981 -0.3315 -0.4791 -2.2696
 4399SOL    HW224834   4.526   2.602   9.904  0.3730 -0.1674 -0.2235
 4400SOL     OW24835   4.458   1.654   2.176  0.2658  0.9691  0.6246
 4400SOL    HW124836   4.424   1.744   2.171 -0.6700  0.4405 -1.8680
 4400SOL    HW224837   4.548   1.669   2.148  0.1497 -1.8524 -1.1519
 4401SOL     OW24838   0.730   3.015   3.269 -0.5224  0.4210 -0.2868
 4401SOL    HW124839   0.639   3.034   3.249 -0.1772  2.2346 -0.1491
 4401SOL    HW224840   0.729   2.920   3.281  3.4067  0.1856 -1.7845
 4402SOL     OW24841   0.716   1.711   7.745 -0.2240  0.0294 -0.2128
 4402SOL    HW124842   0.716   1.801   7.777  1.0905 -0.5818  1.4797
 4402SOL    HW224843   0.807   1.686   7.759 -0.4213 -1.1920 -1.0646
 4403SOL     OW24844   2.383   4.264   6.582 -0.0672  0.6687 -0.2108
 4403SOL    HW124845   2.301   4.220   6.557  0.1033  0.7821 -0.9680
 4403SOL    HW224846   2.447   4.202   6.548 -0.4529  0.9805 -1.5006
 4404SOL     OW24847   0.556   3.593   5.388 -0.1786 -0.7882  0.4544
 4404SOL    HW124848   0.474   3.604   5.340 -0.4306 -0.9265  0.8577
 4404SOL    HW224849   0.564   3.499   5.400 -0.1905 -0.8396  0.0609
 4405SOL     OW24850   2.439   0.799  17.594 -0.5693  0.2180  0.1024
 4405SOL    HW124851   2.374   0.864  17.568 -1.0071  0.2585  1.3084
 4405SOL    HW224852   2.522   0.831  17.558  0.4009 -1.3239  0.9483
 4406SOL     OW24853   2.547   2.878   3.829  0.1289 -0.2003  0.2127
 4406SOL    HW124854   2.575   2.803   3.882  0.6391  0.7945  1.3805
 4406SOL    HW224855   2.452   2.884   3.832  0.1873  0.6021  0.4433
 4407SOL     OW24856   3.154   1.064   5.425  0.1545  0.3026  0.0639
 4407SOL    HW124857   3.123   1.149   5.455 -0.5150 -0.2972  1.0379
 4407SOL    HW224858   3.154   1.010   5.503 -0.0211  1.0381  0.5678
 4408SOL     OW24859   1.477   1.157   4.569 -0.9987 -0.0185 -0.2091
 4408SOL    HW124860   1.564   1.188   4.540 -0.8972 -1.4586 -1.4360
 4408SOL    HW224861   1.478   1.177   4.662 -0.3120 -1.1011  0.0218
 4409SOL     OW24862   2.784   1.504   6.091  0.9259  0.4939 -0.3332
 4409SOL    HW124863   2.839   1.505   6.013  1.5044  2.0306  0.0891
 4409SOL    HW224864   2.843   1.476   6.160 -0.2680 -0.7688  0.1833
 4410SOL     OW24865   3.727   4.369  16.481 -0.1936 -0.4012  0.0190
 4410SOL    HW124866   3.802   4.389  16.425  1.4834 -2.2235  1.6168
 4410SOL    HW224867   3.751   4.429  16.552  2.6249 -0.5184 -0.8738
 4411SOL     OW24868   4.360   3.944   5.286  0.0498  0.1511  0.2251
 4411SOL    HW124869   4.317   4.009   5.341 -0.8317  0.1282 -0.4432
 4411SOL    HW224870   4.355   3.980   5.197  1.6043 -2.8881 -1.0892
 4412SOL     OW24871   2.308   0.821   0.548  0.0109 -0.1257 -0.1626
 4412SOL    HW124872   2.301   0.909   0.586 -1.2895 -0.2644 -0.0598
 4412SOL    HW224873   2.221   0.808   0.509  0.1112 -0.9463 -0.1058
 4413SOL     OW24874   3.920   2.775   5.031  0.0502  0.2271 -0.2409
 4413SOL    HW124875   3.967   2.727   5.100 -0.5963  1.2337  0.8997
 4413SOL    HW224876   3.906   2.859   5.074  1.3236  0.1825  0.2534
 4414SOL     OW24877   0.668   2.743   2.282 -0.7179 -0.1055 -0.1470
 4414SOL    HW124878   0.721   2.741   2.362  1.0061 -1.8272 -1.3193
 4414SOL    HW224879   0.610   2.667   2.288  2.0754 -2.1870  0.5076
 4415SOL     OW24880   0.473   0.246   4.051 -0.2610  0.2114  0.3272
 4415SOL    HW124881   0.488   0.278   4.140  0.6832  0.7672 -0.0304
 4415SOL    HW224882   0.402   0.309   4.036  0.9235  0.9179 -2.4515
 4416SOL     OW24883   4.335   4.326  16.137 -0.3519  0.1642 -0.2413
 4416SOL    HW124884   4.391   4.400  16.163  0.9210  0.8042 -4.7211
 4416SOL    HW224885   4.302   4.279  16.213 -2.5055 -1.0152 -1.9046
 4417SOL     OW24886   3.735   1.592   3.411  0.2313  0.2412 -0.5473
 4417SOL    HW124887   3.679   1.524   3.450 -0.4377  0.0182 -1.8868
 4417SOL    HW224888   3.676   1.667   3.417  0.1122  0.1056 -0.0224
 4418SOL     OW24889   1.944   3.366   2.900  0.6515 -0.3521  0.2688
 4418SOL    HW124890   2.009   3.362   2.830  1.6375  1.5628  1.0733
 4418SOL    HW224891   1.876   3.307   2.867  2.7538 -1.3591 -2.2389
 4419SOL     OW24892   4.175   0.329   4.534  0.3465  0.4524 -0.3607
 4419SOL    HW124893   4.099   0.297   4.582  0.2168  2.4515  0.7811
 4419SOL    HW224894   4.226   0.257   4.572 -1.5812  0.6413  2.5741
 4420SOL     OW24895   0.500   3.912   8.856 -0.0613 -0.3075  0.0958
 4420SOL    HW124896   0.407   3.931   8.859  0.3859  1.5291  2.5843
 4420SOL    HW224897   0.499   3.827   8.811 -0.9351 -0.8979  1.2139
 4421SOL     OW24898   0.276   1.074   5.004  0.2105  0.5076  0.4367
 4421SOL    HW124899   0.362   1.073   4.962 -0.9994 -0.1050 -1.9808
 4421SOL    HW224900   0.272   1.165   5.032  1.6340  0.6233  0.2600
 4422SOL     OW24901   3.272   1.050  14.610  0.1985  0.3143  0.2020
 4422SOL    HW124902   3.249   1.082  14.697  0.5242  1.4643 -0.1347
 4422SOL    HW224903   3.190   1.053  14.561  0.5924  1.5017 -0.3927
 4423SOL     OW24904   3.304   1.668  16.923  0.3211  0.2736 -0.3014
 4423SOL    HW124905   3.295   1.621  17.006  0.9336 -0.8315 -0.8569
 4423SOL    HW224906   3.395   1.648  16.902  0.1480 -1.6047  0.6860
 4424SOL     OW24907   0.902   3.386   8.667  0.1731  0.0893  0.2123
 4424SOL    HW124908   0.929   3.414   8.754 -1.6482  2.4943 -0.0243
 4424SOL    HW224909   0.974   3.322   8.660  0.1715  0.0612  0.4535
 4425SOL     OW24910   0.209   1.062  10.808  0.2331  0.3745  0.4842
 4425SOL    HW124911   0.128   1.024  10.842  0.0842 -0.5680 -0.9195
 4425SOL    HW224912   0.182   1.154  10.806  0.7079  0.4734 -2.1903
 4426SOL     OW24913   0.955   1.770   6.275 -0.0308  0.2567  0.4792
 4426SOL    HW124914   0.925   1.814   6.354  2.5263  3.5707 -0.3938
 4426SOL    HW224915   1.030   1.825   6.251  1.0169 -1.4687 -0.1632
 4427SOL     OW24916   1.157   3.285   1.646  0.2100 -0.1443 -0.4110
 4427SOL    HW124917   1.165   3.209   1.588  0.5901  2.1783 -3.4215
 4427SOL    HW224918   1.064   3.304   1.648 -0.6030 -4.2032 -0.1352
 4428SOL     OW24919   4.167   3.341   1.367  0.5273 -0.9113 -0.3473
 4428SOL    HW124920   4.081   3.335   1.325  0.3468  2.0123 -0.4039
 4428SOL    HW224921   4.194   3.431   1.352 -0.0809 -0.4706  1.2604
 4429SOL     OW24922   0.125   1.838  12.506  0.5412  0.1531  0.3853
 4429SOL    HW124923   0.095   1.923  12.472 -1.3702 -0.5985  0.2129
 4429SOL    HW224924   0.052   1.780  12.486 -0.5707  1.1029  1.6253
 4430SOL     OW24925   1.095   3.182   8.680  0.5230  0.9334 -0.6305
 4430SOL    HW124926   1.045   3.103   8.700 -1.0731  2.0796 -0.1268
 4430SOL    HW224927   1.176   3.154   8.722 -0.9662 -2.1670  0.1640
 4431SOL     OW24928   0.089   0.397   2.175 -0.6052 -0.4706 -0.3020
 4431SOL    HW124929   0.115   0.484   2.145  1.1043 -0.6130  0.7159
 4431SOL    HW224930   4.732   0.396   2.160 -0.5194  1.0108 -0.9033
 4432SOL     OW24931   0.947   0.646   2.077  0.7497  0.0658 -0.1308
 4432SOL    HW124932   0.879   0.685   2.131  1.7752  1.0567  0.4565
 4432SOL    HW224933   0.954   0.717   2.014  1.5283 -1.6230 -1.9408
 4433SOL     OW24934   1.839   2.515  14.725 -0.5235 -0.2004 -0.4519
 4433SOL    HW124935   1.763   2.470  14.762 -0.7566  2.1635  1.8618
 4433SOL    HW224936   1.868   2.445  14.666  0.6012 -1.5448  1.7105
 4434SOL     OW24937   0.785   0.628   6.275  0.3785 -0.4986  0.1368
 4434SOL    HW124938   0.791   0.679   6.194  0.6096 -0.7772 -0.0218
 4434SOL    HW224939   0.872   0.592   6.290  1.4037  1.8792 -0.0732
 4435SOL     OW24940   1.967   4.211   2.836  0.1317  0.1564  1.4261
 4435SOL    HW124941   1.881   4.190   2.801 -0.2005 -1.4163  3.1989
 4435SOL    HW224942   1.937   4.260   2.912  0.3444 -0.0077  1.6152
 4436SOL     OW24943   4.325   0.669   4.749 -0.1294  0.1824  0.0732
 4436SOL    HW124944   4.315   0.597   4.812  0.4834  0.3181  0.3222
 4436SOL    HW224945   4.350   0.742   4.805  0.9445  0.2494 -0.5048
 4437SOL     OW24946   2.915   3.445   8.171 -0.7591  0.2608  0.6083
 4437SOL    HW124947   2.877   3.402   8.095 -0.9785 -0.1022  0.9231
 4437SOL    HW224948   2.865   3.404   8.242 -0.7526 -0.6635  0.0699
 4438SOL     OW24949   1.453   0.045   2.304  0.3752  0.2143 -0.0850
 4438SOL    HW124950   1.518   4.713   2.290  1.6602  1.4282 -0.1528
 4438SOL    HW224951   1.506   0.124   2.314  1.6662 -0.4548 -1.6853
 4439SOL     OW24952   2.687   0.736   6.531 -0.2179  0.5899 -0.6072
 4439SOL    HW124953   2.767   0.700   6.493  0.4282  0.9268  0.4348
 4439SOL    HW224954   2.685   0.812   6.473 -0.0034 -1.3060 -3.1395
 4440SOL     OW24955   2.594   3.094  16.921 -0.4331 -0.4353 -0.1329
 4440SOL    HW124956   2.540   3.048  16.985  0.6591 -3.2316 -1.2174
 4440SOL    HW224957   2.577   3.183  16.954 -0.4043 -0.3689 -0.2969
 4441SOL     OW24958   0.695   3.425   0.391  0.0673  0.0809  0.0878
 4441SOL    HW124959   0.785   3.396   0.374  0.1192 -1.3778  2.8241
 4441SOL    HW224960   0.672   3.346   0.441  0.6633  0.1505  0.4671
 4442SOL     OW24961   1.112   2.615   5.832  0.1298  0.1144 -0.0599
 4442SOL    HW124962   1.158   2.695   5.857  0.5785 -0.1008 -0.1935
 4442SOL    HW224963   1.147   2.605   5.744  1.3192  1.2595  0.2730
 4443SOL     OW24964   3.116   2.835   2.099  0.2309  0.0496  0.7336
 4443SOL    HW124965   3.164   2.917   2.110  0.1327  0.3235 -0.8250
 4443SOL    HW224966   3.027   2.859   2.124  0.3667  0.7055  0.5742
 4444SOL     OW24967   0.439   3.851   1.603  0.0536 -0.2590  0.3651
 4444SOL    HW124968   0.390   3.862   1.684 -2.7427  1.0220 -1.5288
 4444SOL    HW224969   0.375   3.887   1.541 -1.7344 -0.2731  2.2153
 4445SOL     OW24970   3.006   3.006   2.685  0.0949 -0.4778 -0.3453
 4445SOL    HW124971   2.956   2.941   2.734  2.4698 -1.5415  0.6907
 4445SOL    HW224972   3.098   2.990   2.705  0.0926  2.5698  2.1976
 4446SOL     OW24973   2.615   4.581   6.500  1.0718 -0.2722  0.3377
 4446SOL    HW124974   2.601   4.586   6.594 -1.8171  2.4686 -0.2365
 4446SOL    HW224975   2.689   4.641   6.486  0.0401  0.6431 -1.2507
 4447SOL     OW24976   1.118   3.735   4.142 -0.0759 -0.1586  0.0679
 4447SOL    HW124977   1.036   3.775   4.172  0.0968 -0.0463  0.4013
 4447SOL    HW224978   1.084   3.648   4.121  1.2192 -0.4388 -0.8375
 4448SOL     OW24979   0.824   2.633  16.095  0.1779 -0.4370  0.0199
 4448SOL    HW124980   0.853   2.725  16.094 -0.2071 -0.3215 -0.4602
 4448SOL    HW224981   0.813   2.608  16.187 -1.3023 -0.2967 -0.1234
 4449SOL     OW24982   3.267   2.646   3.352  0.1750 -0.1702  0.6361
 4449SOL    HW124983   3.177   2.652   3.383 -0.3584 -0.3044 -0.8653
 4449SOL    HW224984   3.277   2.719   3.291 -0.1737 -0.7757 -0.1383
 4450SOL     OW24985   4.393   1.307  15.416  0.0150  0.2056 -0.1230
 4450SOL    HW124986   4.389   1.395  15.380 -0.2850 -0.0858 -0.8102
 4450SOL    HW224987   4.464   1.319  15.479 -0.3035 -0.1553  0.3050
 4451SOL     OW24988   2.853   3.717   2.245 -0.0533  0.1786  0.2332
 4451SOL    HW124989   2.854   3.747   2.335 -0.6622  1.9406 -0.3472
 4451SOL    HW224990   2.865   3.803   2.203 -0.0604  0.4416  0.7725
 4452SOL     OW24991   2.210   2.127  10.071 -0.2905  0.3634  0.0085
 4452SOL    HW124992   2.265   2.052  10.049 -1.2263  0.4224 -2.5313
 4452SOL    HW224993   2.285   2.187  10.077  1.2040 -1.5806  0.5144
 4453SOL     OW24994   3.508   0.936   5.314  0.1617  0.0438  0.3953
 4453SOL    HW124995   3.492   0.844   5.333 -3.2408  0.1627 -1.9380
 4453SOL    HW224996   3.603   0.927   5.326 -0.1298 -2.1166  1.0901
 4454SOL     OW24997   0.012   1.795  16.299  0.2009  0.7394 -0.2013
 4454SOL    HW124998   4.715   1.845  16.373  2.1098 -0.8919  1.8112
 4454SOL    HW224999   4.725   1.847  16.222  2.3053  2.9817  0.6266
 4455SOL     OW25000   3.911   4.210  12.052 -0.3496  0.4447  0.4339
 4455SOL    HW125001   3.832   4.179  12.007 -0.1382 -0.0116  0.3733
 4455SOL    HW225002   3.886   4.216  12.144  0.8188  0.9818  0.7163
 4456SOL     OW25003   1.252   2.299   7.099  0.0754 -0.2595 -0.1331
 4456SOL    HW125004   1.294   2.219   7.068  1.2753  0.3345 -0.0380
 4456SOL    HW225005   1.178   2.260   7.146  0.4609  1.6086  2.0117
 4457SOL     OW25006   2.246   3.063  16.498 -0.2771 -0.0333  0.0031
 4457SOL    HW125007   2.206   3.134  16.448 -0.8046 -0.4495 -0.1697
 4457SOL    HW225008   2.282   3.102  16.577 -1.1497  1.9778 -0.5850
 4458SOL     OW25009   3.503   0.420  15.664 -0.1923 -0.5932  0.1719
 4458SOL    HW125010   3.514   0.345  15.606  0.5022  0.5741 -1.2044
 4458SOL    HW225011   3.441   0.478  15.619  1.1138  1.8376  1.4845
 4459SOL     OW25012   1.264   4.586   0.126 -0.1000  0.1222 -0.2685
 4459SOL    HW125013   1.341   4.531   0.141 -0.0152  0.4423  0.4542
 4459SOL    HW225014   1.304   4.670   0.103  1.5355 -1.0005 -1.5067
 4460SOL     OW25015   2.748   1.649   8.357  0.4022 -0.0917 -0.2366
 4460SOL    HW125016   2.660   1.625   8.386  0.6957 -0.6811  0.1717
 4460SOL    HW225017   2.791   1.620   8.438 -0.0982  1.1746  0.4841
 4461SOL     OW25018   2.721   2.484   8.008 -0.0782 -0.1070 -0.1165
 4461SOL    HW125019   2.719   2.420   7.936 -1.4430  1.2336 -1.2734
 4461SOL    HW225020   2.637   2.463   8.050 -0.7321  2.3068 -0.2107
 4462SOL     OW25021   1.218   3.007   9.487 -0.4321 -0.3130 -0.2304
 4462SOL    HW125022   1.309   3.033   9.501 -0.3677 -0.1131 -0.9915
 4462SOL    HW225023   1.172   3.088   9.465  1.0362  0.4037 -0.6833
 4463SOL     OW25024   1.817   3.849   8.031 -0.2520  0.2990  0.1256
 4463SOL    HW125025   1.876   3.823   8.102  0.5902  1.0724 -0.2988
 4463SOL    HW225026   1.758   3.774   8.023 -0.0053  0.2325 -0.9898
 4464SOL     OW25027   2.799   2.230   6.223 -0.4719 -0.4852 -0.1782
 4464SOL    HW125028   2.836   2.312   6.190 -1.4293 -0.5092 -1.3139
 4464SOL    HW225029   2.764   2.192   6.142 -0.0683  1.4027 -1.2438
 4465SOL     OW25030   0.754   2.754   3.322  0.2253  0.2723 -0.2449
 4465SOL    HW125031   0.850   2.748   3.327  0.0850 -2.0291 -0.1126
 4465SOL    HW225032   0.753   2.672   3.273  1.3944  0.9940 -1.4837
 4466SOL     OW25033   3.564   0.373   6.266  0.6866 -0.7287  0.4189
 4466SOL    HW125034   3.545   0.303   6.204 -0.6144  1.4738 -1.6402
 4466SOL    HW225035   3.534   0.317   6.339 -3.0555  1.9903  0.9824
 4467SOL     OW25036   4.415   4.544   7.911  0.5653  0.8107  0.2765
 4467SOL    HW125037   4.422   4.620   7.969  1.1070  1.2148 -0.3141
 4467SOL    HW225038   4.322   4.536   7.889  0.4406 -0.1539  1.1708
 4468SOL     OW25039   2.705   4.010   7.414  0.1498  0.0636  0.0752
 4468SOL    HW125040   2.714   4.010   7.319  0.8465  0.6888  0.1402
 4468SOL    HW225041   2.611   3.992   7.411  0.1962 -0.0947 -0.5386
 4469SOL     OW25042   0.850   0.191   4.908  0.5391  0.2028  0.7618
 4469SOL    HW125043   0.867   0.147   4.991  0.0267 -2.6460 -0.6645
 4469SOL    HW225044   0.935   0.224   4.878 -0.8869  0.9851 -2.4624
 4470SOL     OW25045   1.490   4.115  13.779 -0.0168 -0.2761  0.2930
 4470SOL    HW125046   1.407   4.131  13.824  0.8868 -0.7697  2.0962
 4470SOL    HW225047   1.534   4.196  13.803 -0.2866 -0.3159  0.9232
 4471SOL     OW25048   1.893   4.730   9.007  0.5056  0.1128  0.3842
 4471SOL    HW125049   1.881   0.083   9.033 -0.9390  0.4743 -1.5460
 4471SOL    HW225050   1.874   4.677   9.084 -2.9559 -1.2149 -1.3628
 4472SOL     OW25051   0.853   3.231   6.597  0.2590  0.2329  0.1093
 4472SOL    HW125052   0.933   3.183   6.574 -0.3422 -0.3407 -0.7913
 4472SOL    HW225053   0.823   3.163   6.656  3.6332  1.2242  2.9780
 4473SOL     OW25054   3.834   0.918   2.985  0.1021 -0.1007 -0.0768
 4473SOL    HW125055   3.826   1.003   2.941  0.3385 -0.0837 -0.0875
 4473SOL    HW225056   3.927   0.898   2.970 -0.0488  0.1510 -1.3485
 4474SOL     OW25057   4.645   2.736   7.160  0.4332 -0.1051  0.0247
 4474SOL    HW125058   4.643   2.664   7.098 -0.5223  0.2779 -0.3815
 4474SOL    HW225059   4.558   2.731   7.198  0.7645 -0.8492  0.6980
 4475SOL     OW25060   3.958   2.679   1.025 -0.3972 -0.6268  0.1794
 4475SOL    HW125061   4.019   2.605   1.024  1.8506  1.2330 -1.8063
 4475SOL    HW225062   4.011   2.743   1.073 -1.4375 -0.8049  1.5638
 4476SOL     OW25063   1.322   3.194   5.360 -0.2755 -0.1899 -0.3321
 4476SOL    HW125064   1.274   3.210   5.279 -2.9091  1.4250  1.5435
 4476SOL    HW225065   1.307   3.277   5.406  2.0180  0.1510 -0.1995
 4477SOL     OW25066   2.889   3.456   5.240 -0.0431 -1.0058  0.1878
 4477SOL    HW125067   2.913   3.425   5.327 -0.6302 -1.6097  0.1316
 4477SOL    HW225068   2.963   3.411   5.200  0.3226  0.9600 -1.3768
 4478SOL     OW25069   4.068   1.529   3.674 -0.0987  0.7570 -0.1227
 4478SOL    HW125070   4.123   1.517   3.597  0.4417 -0.6564  0.4704
 4478SOL    HW225071   4.140   1.554   3.733  1.9139 -0.7073 -1.9315
 4479SOL     OW25072   0.357   3.247   7.457  0.3397 -0.1377  0.5338
 4479SOL    HW125073   0.401   3.251   7.371  1.3578  1.1998  1.1162
 4479SOL    HW225074   0.399   3.317   7.507 -1.5628  1.9933 -0.8800
 4480SOL     OW25075   3.795   0.840   5.959 -0.4446 -0.1189 -0.1599
 4480SOL    HW125076   3.802   0.839   6.054 -0.9655  0.1751 -0.1181
 4480SOL    HW225077   3.757   0.926   5.938 -0.8912 -0.3773 -0.4240
 4481SOL     OW25078   0.338   2.297   2.693 -0.3137  0.6439  0.0534
 4481SOL    HW125079   0.354   2.299   2.788 -0.4719  1.3680  0.0640
 4481SOL    HW225080   0.255   2.254   2.714 -0.0513  1.2687  2.4661
 4482SOL     OW25081   0.511   3.882   3.403  0.0322  0.2831 -0.5114
 4482SOL    HW125082   0.421   3.868   3.372 -0.8167  0.3894  1.8919
 4482SOL    HW225083   0.490   3.957   3.459 -1.8558 -1.1048  0.6629
 4483SOL     OW25084   0.668   3.484   1.787 -0.6870 -0.5443 -0.0118
 4483SOL    HW125085   0.604   3.456   1.853 -1.9660 -1.3615 -1.5978
 4483SOL    HW225086   0.605   3.538   1.740  0.7061 -1.0863 -2.4870
 4484SOL     OW25087   1.737   3.255  17.615  0.1659  0.6659  0.6104
 4484SOL    HW125088   1.674   3.234  17.546 -0.9280  0.3270  1.7229
 4484SOL    HW225089   1.704   3.221  17.698  3.8190 -3.0461  0.5599
 4485SOL     OW25090   3.404   2.542  10.189  0.4122 -0.1636  0.6449
 4485SOL    HW125091   3.357   2.562  10.107  1.7454  1.0862  0.1824
 4485SOL    HW225092   3.362   2.459  10.212 -2.3316  0.3778 -2.2998
 4486SOL     OW25093   1.383   3.481  17.565  0.0796  0.4003  0.2510
 4486SOL    HW125094   1.458   3.470  17.507  0.3506 -0.4933  0.7677
 4486SOL    HW225095   1.316   3.501  17.500  1.6173  0.4298 -1.3175
 4487SOL     OW25096   4.559   0.638   9.721  0.6822  0.1619  0.0178
 4487SOL    HW125097   4.545   0.573   9.790 -0.8328  0.6705  0.1903
 4487SOL    HW225098   4.471   0.675   9.718  0.4878 -0.2340  0.7404
 4488SOL     OW25099   0.834   0.436   4.439  0.1474  0.7207 -0.4179
 4488SOL    HW125100   0.895   0.432   4.513 -2.1897  0.9372  1.5167
 4488SOL    HW225101   0.796   0.524   4.447 -2.3347 -0.4079  0.1043
 4489SOL     OW25102   4.457   4.023   4.801  0.5417  0.2652  0.6874
 4489SOL    HW125103   4.506   3.944   4.778  1.0082  0.6070  0.5060
 4489SOL    HW225104   4.420   4.042   4.715  1.3892 -2.9194 -0.3809
 4490SOL     OW25105   3.148   4.651   7.627  0.1974  0.3036 -0.4519
 4490SOL    HW125106   3.065   4.660   7.673  0.0465 -0.5624 -0.5527
 4490SOL    HW225107   3.168   0.006   7.607  2.4414  0.1424  1.0833
 4491SOL     OW25108   1.367   0.784   2.972 -0.0047 -0.4764  0.1790
 4491SOL    HW125109   1.326   0.705   3.008  2.9786 -1.7490  0.7170
 4491SOL    HW225110   1.292   0.803   2.915  1.0652 -3.7168 -2.2842
 4492SOL     OW25111   1.943   2.177   4.418  0.1917 -0.1163 -0.4900
 4492SOL    HW125112   1.918   2.112   4.483  0.8917  0.3121  0.2224
 4492SOL    HW225113   2.008   2.141   4.357  0.5629 -0.6181  0.2028
 4493SOL     OW25114   4.123   2.220   0.654  0.1798  0.3045 -0.2587
 4493SOL    HW125115   4.035   2.189   0.675 -0.0868  2.1975  1.4373
 4493SOL    HW225116   4.109   2.303   0.608 -0.4221  0.6954  0.6317
 4494SOL     OW25117   1.472   1.550   8.781 -0.1047  0.0925  0.2162
 4494SOL    HW125118   1.536   1.592   8.724 -1.1067 -0.1479 -1.0703
 4494SOL    HW225119   1.393   1.542   8.729 -2.2764  2.3829  3.1874
 4495SOL     OW25120   3.626   2.067   0.122 -0.5986  0.1507 -0.1133
 4495SOL    HW125121   3.612   2.116   0.041  0.4179  1.5230  0.5392
 4495SOL    HW225122   3.720   2.046   0.121 -0.4740  0.6746  0.6725
 4496SOL     OW25123   3.607   1.902   4.037  0.4631  0.3968 -0.2992
 4496SOL    HW125124   3.690   1.862   4.014  0.2982 -0.5175  0.6831
 4496SOL    HW225125   3.602   1.975   3.975 -0.3210  0.3555 -0.2888
 4497SOL     OW25126   2.120   3.612   6.750 -0.4627  0.3105 -0.6917
 4497SOL    HW125127   2.056   3.596   6.680  0.7172 -0.3440 -1.6116
 4497SOL    HW225128   2.169   3.530   6.755 -1.0090  0.1002  1.2237
 4498SOL     OW25129   1.414   2.065  11.965 -0.2542 -0.0351 -0.0494
 4498SOL    HW125130   1.483   2.056  12.031 -0.7239  1.9517  0.6936
 4498SOL    HW225131   1.393   1.975  11.940 -0.2897 -0.2315  0.6982
 4499SOL     OW25132   0.957   0.071   4.111 -0.2209 -0.0832 -0.7261
 4499SOL    HW125133   0.878   0.110   4.073 -0.9248 -0.2220  0.5813
 4499SOL    HW225134   1.025   0.137   4.100  0.6260 -0.9245 -0.5241
 4500SOL     OW25135   0.180   3.152   4.772 -0.6253 -0.1595  0.3414
 4500SOL    HW125136   0.234   3.088   4.818  1.7978 -0.0763 -2.4064
 4500SOL    HW225137   0.149   3.207   4.845  0.6883  0.5949  0.3286
 4501SOL     OW25138   4.554   3.814   5.963 -0.3148  0.4627 -0.2660
 4501SOL    HW125139   4.636   3.766   5.976  0.7292  2.4781  0.7435
 4501SOL    HW225140   4.550   3.861   6.047  2.6484  1.6515 -0.7896
 4502SOL     OW25141   2.293   0.350   4.745 -0.0991  0.0626 -0.2269
 4502SOL    HW125142   2.246   0.403   4.681 -1.8954 -0.6645  0.5210
 4502SOL    HW225143   2.218   0.306   4.785  0.3646  1.3202  2.0598
 4503SOL     OW25144   0.003   3.962   2.059  0.5207 -0.1532  0.1855
 4503SOL    HW125145   0.090   4.001   2.061 -0.0325  1.1452 -0.5115
 4503SOL    HW225146   4.687   4.032   2.020  0.8067  0.1405  0.3253
 4504SOL     OW25147   4.552   4.329   8.008 -0.0093 -0.1130 -0.2897
 4504SOL    HW125148   4.501   4.407   7.983  0.4232 -0.0614 -1.0060
 4504SOL    HW225149   4.531   4.270   7.936  0.2245  1.3345 -1.5637
 4505SOL     OW25150   4.257   3.071   1.300  0.5894  0.6956 -0.5086
 4505SOL    HW125151   4.264   3.165   1.284 -0.3082  1.3916  3.2485
 4505SOL    HW225152   4.215   3.072   1.386  0.0256  0.7857 -0.7906
 4506SOL     OW25153   1.340   2.869   8.793 -0.5182 -0.1912  0.5021
 4506SOL    HW125154   1.268   2.817   8.758 -2.7612  1.5622  2.4766
 4506SOL    HW225155   1.333   2.849   8.887 -0.7135 -0.1430  0.4987
 4507SOL     OW25156   4.422   4.208  11.127 -0.0577  0.0197  0.1281
 4507SOL    HW125157   4.437   4.301  11.144  0.0870  0.4312 -2.2366
 4507SOL    HW225158   4.516   4.189  11.132  0.0887  1.3271  2.2541
 4508SOL     OW25159   3.624   0.208   7.661  0.1973  0.0639  0.5103
 4508SOL    HW125160   3.655   0.139   7.603  1.3771  0.8280  0.2364
 4508SOL    HW225161   3.709   0.231   7.699 -0.0127  0.1214  0.9535
 4509SOL     OW25162   4.162   4.585   4.172 -0.1672  0.5109 -0.1857
 4509SOL    HW125163   4.216   4.635   4.111  0.2787  0.7358  0.4068
 4509SOL    HW225164   4.228   4.556   4.235  0.2478 -0.5522 -1.0845
 4510SOL     OW25165   1.875   1.183   4.001 -0.8855  0.0759 -0.1046
 4510SOL    HW125166   1.810   1.253   3.995 -0.6271  0.4258  1.3791
 4510SOL    HW225167   1.825   1.117   4.049  0.6162 -0.8663  0.1483
 4511SOL     OW25168   1.106   2.431   4.668 -0.4590 -0.2451 -0.5945
 4511SOL    HW125169   1.070   2.355   4.622 -2.5611  0.1042  0.5122
 4511SOL    HW225170   1.175   2.457   4.606 -0.8528 -0.2881 -1.0542
 4512SOL     OW25171   0.351   1.619   7.154 -0.2544  0.0746 -0.2198
 4512SOL    HW125172   0.290   1.556   7.191 -2.7233  0.6811 -3.2241
 4512SOL    HW225173   0.376   1.670   7.231  2.3909 -1.2473 -0.2416
 4513SOL     OW25174   4.422   1.143   2.523 -0.1052  0.7415 -0.1838
 4513SOL    HW125175   4.366   1.111   2.593 -1.4318  0.7293 -1.2338
 4513SOL    HW225176   4.354   1.195   2.479 -0.8421 -0.6137 -0.6571
 4514SOL     OW25177   1.072   3.824  13.979 -0.0554 -0.5475  0.2817
 4514SOL    HW125178   1.163   3.851  13.987 -0.2212  0.0790  0.0241
 4514SOL    HW225179   1.035   3.884  14.044  0.2757  0.0011 -0.0403
 4515SOL     OW25180   1.262   4.469   6.074 -0.0038 -0.0856  0.2134
 4515SOL    HW125181   1.228   4.513   5.995  2.3338  0.0871 -0.7286
 4515SOL    HW225182   1.197   4.494   6.139  1.9339  1.5307  1.5393
 4516SOL     OW25183   0.076   1.474   4.161 -0.2261  0.1492  0.3781
 4516SOL    HW125184   0.039   1.531   4.094 -0.3173 -0.9656 -0.5154
 4516SOL    HW225185   0.009   1.406   4.162 -0.2631  0.2251  2.3938
 4517SOL     OW25186   1.324   4.181   2.538 -0.0839 -0.4307  0.3327
 4517SOL    HW125187   1.378   4.199   2.615  1.4954  0.4618 -0.9770
 4517SOL    HW225188   1.242   4.163   2.584 -0.7131 -0.9580 -0.9873
 4518SOL     OW25189   3.544   2.742  16.878  0.1359 -0.3326  0.6110
 4518SOL    HW125190   3.487   2.819  16.882 -1.0148 -1.2698  2.2222
 4518SOL    HW225191   3.496   2.684  16.818 -0.5259  1.2382 -0.3790
 4519SOL     OW25192   4.036   1.436   5.030  1.0148 -0.2689  0.4377
 4519SOL    HW125193   3.945   1.454   5.004  0.7906 -1.0216  0.7141
 4519SOL    HW225194   4.033   1.491   5.108  0.9760  0.0391  0.2226
 4520SOL     OW25195   2.900   3.405  17.742  0.1962 -0.1889  0.6859
 4520SOL    HW125196   2.865   3.378  17.657  3.0026  0.8377 -0.7893
 4520SOL    HW225197   2.982   3.451  17.727  0.1220 -0.4125 -0.4060
 4521SOL     OW25198   4.029   2.783   6.562 -0.0570 -0.3124  0.1181
 4521SOL    HW125199   3.978   2.750   6.636 -0.5276 -0.3755 -0.2386
 4521SOL    HW225200   4.047   2.873   6.591  1.6236 -0.4205 -0.5659
 4522SOL     OW25201   0.683   4.648   6.731 -0.3260 -0.3273  0.0938
 4522SOL    HW125202   0.758   4.602   6.694 -0.7475 -0.1691 -0.9628
 4522SOL    HW225203   0.673   4.719   6.667  0.3377  0.0604  0.4197
 4523SOL     OW25204   4.008   1.364   9.295 -0.1848  0.0407 -0.2852
 4523SOL    HW125205   4.066   1.317   9.354 -2.1538 -0.5241  1.1832
 4523SOL    HW225206   4.069   1.394   9.228 -0.4967 -1.5163 -1.2798
 4524SOL     OW25207   0.047   1.518   7.696 -0.0898 -0.0510 -0.2840
 4524SOL    HW125208   0.014   1.531   7.784 -0.1346  2.4708 -0.6887
 4524SOL    HW225209   4.707   1.490   7.646  0.7655  1.0399 -2.2326
 4525SOL     OW25210   1.089   3.772   9.779 -0.2325 -0.1511 -0.4657
 4525SOL    HW125211   1.136   3.852   9.803  2.2526 -1.9132  0.5100
 4525SOL    HW225212   0.999   3.801   9.790 -1.6102 -3.5669 -2.8011
 4526SOL     OW25213   0.796   4.610   1.922  0.6038  0.6860  0.1477
 4526SOL    HW125214   0.855   4.566   1.983  0.5539  0.1564 -0.1908
 4526SOL    HW225215   0.755   4.677   1.978  1.3505  2.2248 -1.1397
 4527SOL     OW25216   2.248   3.042   8.710  0.2253  0.1387 -0.1988
 4527SOL    HW125217   2.159   3.070   8.731  0.2130  0.6557 -0.9242
 4527SOL    HW225218   2.275   3.015   8.798 -1.4299 -3.3061 -0.7373
 4528SOL     OW25219   1.674   0.206   6.676 -0.3123 -0.5511 -0.4910
 4528SOL    HW125220   1.613   0.137   6.648 -0.6555 -1.2219  1.9083
 4528SOL    HW225221   1.746   0.153   6.642 -0.0341 -0.6655  0.2879
 4529SOL     OW25222   0.380   4.620  10.080  0.4202 -0.2794  0.1587
 4529SOL    HW125223   0.466   4.592  10.048 -0.4290 -0.6482 -1.8002
 4529SOL    HW225224   0.320   4.592  10.011  1.0822  2.9673 -1.7487
 4530SOL     OW25225   1.644   3.307   5.678  0.1855 -0.4699 -0.9276
 4530SOL    HW125226   1.609   3.294   5.590 -0.0430 -0.3449 -0.8540
 4530SOL    HW225227   1.739   3.313   5.665  0.5162 -2.9149  0.4547
 4531SOL     OW25228   3.026   0.586  13.453 -0.0281 -0.7116 -0.3081
 4531SOL    HW125229   2.969   0.655  13.420  0.9692  0.8987  1.3574
 4531SOL    HW225230   3.108   0.635  13.452 -0.8739  0.7625  2.3888
 4532SOL     OW25231   4.531   0.432  10.763  0.1535 -0.3143  0.5074
 4532SOL    HW125232   4.530   0.351  10.713 -2.4623  1.5183 -2.4565
 4532SOL    HW225233   4.480   0.488  10.703  2.3959  0.7229 -0.4324
 4533SOL     OW25234   0.885   1.618   7.195 -0.1817  0.3309  0.1175
 4533SOL    HW125235   0.831   1.591   7.121 -1.0722 -1.3647  1.3659
 4533SOL    HW225236   0.966   1.588   7.155 -0.7125 -2.1748  0.8881
 4534SOL     OW25237   4.559   1.592   3.019  0.0479  0.1042  0.5277
 4534SOL    HW125238   4.558   1.653   2.945  0.2486 -0.3256  0.1734
 4534SOL    HW225239   4.613   1.521   2.986 -0.2452  0.7520 -1.3315
 4535SOL     OW25240   2.463   4.161   2.904  0.1440  0.2243 -0.0836
 4535SOL    HW125241   2.493   4.115   2.825 -1.3180  1.0330 -1.1006
 4535SOL    HW225242   2.534   4.224   2.918  0.9841 -1.2406  2.2951
 4536SOL     OW25243   1.819   3.716   3.653  0.3476 -0.4244 -0.1118
 4536SOL    HW125244   1.838   3.790   3.711  1.5159 -0.2466 -0.7233
 4536SOL    HW225245   1.812   3.756   3.567  0.3199 -0.9253 -0.3414
 4537SOL     OW25246   1.977   1.794   3.107 -0.2153 -0.2483 -0.2340
 4537SOL    HW125247   2.018   1.735   3.170  1.2168  0.2197 -0.7331
 4537SOL    HW225248   1.888   1.760   3.111  0.2610 -1.5633 -0.7193
 4538SOL     OW25249   4.687   0.633  17.737  0.2128  0.4909  0.2706
 4538SOL    HW125250   0.023   0.641  17.675  0.9139  1.9339  1.2899
 4538SOL    HW225251   4.617   0.664  17.680  0.3878 -1.3482 -0.9677
 4539SOL     OW25252   4.004   2.911   4.514  0.7237  0.1296  0.2100
 4539SOL    HW125253   3.971   2.857   4.586  2.4209 -0.6020  0.4554
 4539SOL    HW225254   4.097   2.913   4.535  0.3188 -0.9330  2.0411
 4540SOL     OW25255   3.050   2.818  16.027  0.0502  0.0988  0.0584
 4540SOL    HW125256   3.117   2.766  15.983  0.2443  1.0389 -0.7500
 4540SOL    HW225257   3.094   2.903  16.032 -1.6338  0.8839  1.5561
 4541SOL     OW25258   0.977   2.441  13.973 -0.1330  0.1993  0.1101
 4541SOL    HW125259   0.977   2.518  14.030  0.7432  1.5017 -1.6424
 4541SOL    HW225260   0.889   2.410  13.953 -0.4025 -0.2225  1.9528
 4542SOL     OW25261   3.009   4.650   8.584 -0.2209  0.1429  0.1954
 4542SOL    HW125262   2.923   4.654   8.625 -0.0643  1.2713  0.4066
 4542SOL    HW225263   3.053   4.592   8.647 -0.5244  0.0199  0.2923
 4543SOL     OW25264   2.664   4.519   7.748  1.1555 -0.1501  0.0703
 4543SOL    HW125265   2.680   4.465   7.670  0.1495  1.3235 -1.1544
 4543SOL    HW225266   2.663   4.452   7.817  0.9168  0.4026  0.5956
 4544SOL     OW25267   3.085   0.887   4.424 -0.1692  0.4796  0.0219
 4544SOL    HW125268   3.070   0.840   4.506 -0.0546  0.1793 -0.1310
 4544SOL    HW225269   3.176   0.914   4.432 -0.5388  0.8299  3.0968
 4545SOL     OW25270   3.366   3.805   8.852  0.0428  0.4260 -0.1483
 4545SOL    HW125271   3.460   3.789   8.865 -0.7599 -1.2107  3.8136
 4545SOL    HW225272   3.348   3.863   8.927 -3.9846 -0.3437 -0.5349
 4546SOL     OW25273   2.756   2.915   9.179 -0.5006 -0.1381  0.7439
 4546SOL    HW125274   2.773   2.891   9.270 -0.8477  1.7139  1.3070
 4546SOL    HW225275   2.845   2.946   9.164  0.1830 -2.4249  0.2077
 4547SOL     OW25276   1.646   4.665  10.048  0.3232  1.0158  0.2400
 4547SOL    HW125277   1.693   4.585  10.072 -0.6134  0.0917 -1.0198
 4547SOL    HW225278   1.628   4.706  10.132 -1.6396  2.1188 -0.7019
 4548SOL     OW25279   1.882   1.871   1.893 -0.0457  0.3118 -0.1195
 4548SOL    HW125280   1.854   1.877   1.802 -0.6256 -1.1097 -0.0356
 4548SOL    HW225281   1.962   1.819   1.895  0.0628  0.4939  0.2924
 4549SOL     OW25282   0.243   1.090   2.311  0.4285 -0.1220 -0.5094
 4549SOL    HW125283   0.210   1.166   2.359  1.7875 -0.6818  1.2908
 4549SOL    HW225284   0.193   1.018   2.351  1.3939 -1.7151 -2.1498
 4550SOL     OW25285   2.291   4.252  12.202 -0.1359 -0.7235  0.0019
 4550SOL    HW125286   2.230   4.273  12.273  2.8727  0.1278  2.3067
 4550SOL    HW225287   2.338   4.332  12.178  0.7661 -0.8634  1.2790
 4551SOL     OW25288   0.027   3.037   4.157 -0.1131 -0.1863 -0.2574
 4551SOL    HW125289   0.080   3.094   4.213  0.3627  0.1781 -1.0846
 4551SOL    HW225290   4.725   3.084   4.084  1.9373 -0.2104 -1.3941
 4552SOL     OW25291   4.141   0.355   5.286 -0.2736  0.2833 -0.3036
 4552SOL    HW125292   4.128   0.354   5.191  0.0929  0.6952 -0.3582
 4552SOL    HW225293   4.236   0.358   5.294 -0.1407 -0.3037 -1.5986
 4553SOL     OW25294   0.698   1.829  14.358 -0.3121 -0.2330 -0.2031
 4553SOL    HW125295   0.774   1.883  14.379 -0.5464 -0.3867  1.0385
 4553SOL    HW225296   0.642   1.862  14.428 -0.4516  0.1052 -0.4715
 4554SOL     OW25297   3.048   2.861   9.220 -0.4722  0.3030  0.3342
 4554SOL    HW125298   2.995   2.809   9.280  0.4119 -0.2780  0.5976
 4554SOL    HW225299   3.060   2.940   9.273 -0.9964  0.8578 -0.3693
 4555SOL     OW25300   1.836   4.640   6.910 -0.2635  0.7220  0.3849
 4555SOL    HW125301   1.795   4.554   6.916  1.2068 -0.0645 -0.6492
 4555SOL    HW225302   1.779   4.691   6.968  0.7999  1.3131  0.9138
 4556SOL     OW25303   2.826   0.423  11.442 -0.2680 -0.1187 -0.4822
 4556SOL    HW125304   2.754   0.391  11.497 -0.7196  1.5451 -0.1125
 4556SOL    HW225305   2.784   0.498  11.400 -0.6765 -1.2349 -2.0746
 4557SOL     OW25306   1.296   0.416   1.467  0.7272 -0.7518  0.4168
 4557SOL    HW125307   1.295   0.419   1.562 -1.0360  0.4150  0.3757
 4557SOL    HW225308   1.310   0.509   1.450  1.2325 -0.7301  0.9827
 4558SOL     OW25309   0.732   0.506   5.894 -0.1242  0.3288 -0.2446
 4558SOL    HW125310   0.745   0.600   5.906  1.8466  0.0753 -0.5356
 4558SOL    HW225311   0.638   0.499   5.914  0.5105  1.8037  3.1453
 4559SOL     OW25312   3.431   3.881   3.697 -0.1176  0.3406  0.0244
 4559SOL    HW125313   3.341   3.861   3.723 -0.0161 -1.1713 -0.7506
 4559SOL    HW225314   3.469   3.810   3.749 -0.5131 -1.1168 -1.6955
 4560SOL     OW25315   3.140   3.014   7.442 -1.1754 -0.3252 -0.0395
 4560SOL    HW125316   3.158   3.094   7.493  0.3704 -0.5667 -0.2138
 4560SOL    HW225317   3.089   2.967   7.508 -0.3223 -0.0674  0.8049
 4561SOL     OW25318   1.179   1.539   6.219 -0.3862  0.3468 -0.4284
 4561SOL    HW125319   1.155   1.618   6.171 -1.4562  1.2005  1.5289
 4561SOL    HW225320   1.241   1.503   6.155 -2.1746  0.1279 -2.0143
 4562SOL     OW25321   2.804   4.408   8.521 -0.1236 -0.0948  0.5126
 4562SOL    HW125322   2.887   4.374   8.485  0.3357  2.1461 -0.5416
 4562SOL    HW225323   2.761   4.436   8.440  1.4493 -0.6409 -0.5141
 4563SOL     OW25324   3.974   0.514  11.298  0.0129  0.6899  0.0039
 4563SOL    HW125325   4.020   0.592  11.267 -1.3129  0.6069 -2.1939
 4563SOL    HW225326   3.920   0.500  11.220  0.1331 -0.4021  0.1172
 4564SOL     OW25327   0.487   4.163   8.533 -0.0146 -0.6341  0.2632
 4564SOL    HW125328   0.473   4.068   8.526 -1.1285 -0.4641  0.2040
 4564SOL    HW225329   0.569   4.175   8.486 -0.5492  0.7596 -0.3295
 4565SOL     OW25330   3.527   4.603   7.960  1.2292 -0.2345 -0.4022
 4565SOL    HW125331   3.577   4.674   8.000  0.9754  0.6731 -1.7028
 4565SOL    HW225332   3.437   4.634   7.971  0.8611 -1.5426  0.2708
 4566SOL     OW25333   1.473   0.405   7.875  0.2658 -0.1381 -0.5066
 4566SOL    HW125334   1.421   0.335   7.836  2.0263 -0.9770 -1.3171
 4566SOL    HW225335   1.497   0.364   7.957  1.7678  0.1838 -0.7838
 4567SOL     OW25336   0.696   1.615   5.156 -0.0429 -0.1553 -1.0893
 4567SOL    HW125337   0.749   1.538   5.180 -0.6033 -0.8575 -2.0877
 4567SOL    HW225338   0.714   1.626   5.063  1.1585 -3.8840 -1.3086
 4568SOL     OW25339   1.723   2.858   3.114 -1.0190 -0.1404 -0.1333
 4568SOL    HW125340   1.747   2.950   3.126 -0.7436 -0.2362  0.0442
 4568SOL    HW225341   1.678   2.864   3.030 -0.2112  0.7863 -0.4988
 4569SOL     OW25342   0.753   2.790  11.480  0.0969 -0.0022  0.1552
 4569SOL    HW125343   0.669   2.835  11.471  0.8881  1.5296  0.4100
 4569SOL    HW225344   0.725   2.704  11.509 -0.5492  0.2683  0.3411
 4570SOL     OW25345   4.093   1.910   6.102  0.2100  0.1405  0.4420
 4570SOL    HW125346   4.014   1.858   6.115  0.9806 -0.9063  0.9533
 4570SOL    HW225347   4.068   1.997   6.133 -0.7313  0.1379 -0.3140
 4571SOL     OW25348   2.461   3.630   3.619 -0.4273 -0.0551 -0.6425
 4571SOL    HW125349   2.513   3.667   3.548 -0.2011 -0.4383 -0.6777
 4571SOL    HW225350   2.422   3.559   3.567 -1.5199 -0.6757  1.0277
 4572SOL     OW25351   0.106   1.684   2.541 -0.6625 -0.3945  0.2011
 4572SOL    HW125352   0.181   1.737   2.568 -1.2982  1.6336 -2.0301
 4572SOL    HW225353   0.083   1.719   2.455 -0.0936  0.3616  0.3596
 4573SOL     OW25354   1.944   3.880   7.420 -0.3342  0.1702 -0.1797
 4573SOL    HW125355   1.967   3.788   7.437 -2.2517 -0.4684 -1.0411
 4573SOL    HW225356   1.875   3.866   7.355 -1.5042  0.4778  1.0053
 4574SOL     OW25357   2.945   2.434   3.323  0.4595  0.7197  1.0606
 4574SOL    HW125358   3.011   2.461   3.259 -2.0281  0.0960 -1.7743
 4574SOL    HW225359   2.994   2.384   3.388  1.1142 -0.7203 -0.5469
 4575SOL     OW25360   2.774   0.094  10.506  0.2417 -0.2513  0.1601
 4575SOL    HW125361   2.852   0.045  10.477  1.8382  2.5059 -0.2006
 4575SOL    HW225362   2.758   0.154  10.433  1.9367  2.5401  2.0757
 4576SOL     OW25363   3.206   3.148   6.487 -0.2896 -0.0187 -1.3256
 4576SOL    HW125364   3.241   3.199   6.560 -1.0159  1.4860 -2.0110
 4576SOL    HW225365   3.156   3.213   6.437  0.6087  1.1144 -0.7400
 4577SOL     OW25366   1.614   2.459   5.226  0.0455 -0.2079 -0.4608
 4577SOL    HW125367   1.682   2.416   5.174 -0.1208 -1.8173  0.6757
 4577SOL    HW225368   1.564   2.381   5.250  1.9758 -0.8247  1.4988
 4578SOL     OW25369   3.214   1.195  14.838 -0.1104 -0.2477  0.0352
 4578SOL    HW125370   3.201   1.280  14.797  0.0676 -0.2440 -0.0117
 4578SOL    HW225371   3.175   1.224  14.920  1.4357  0.5405  0.4830
 4579SOL     OW25372   0.103   2.157   3.203 -0.1228  0.1590 -0.1937
 4579SOL    HW125373   0.129   2.116   3.120  0.9801  0.8978 -0.2090
 4579SOL    HW225374   0.159   2.105   3.261  0.5268 -1.5141 -2.3190
 4580SOL     OW25375   4.573   0.559   1.223 -0.1171  0.3083  0.2776
 4580SOL    HW125376   4.547   0.579   1.313 -0.2252  2.1017 -0.1476
 4580SOL    HW225377   4.663   0.528   1.233  0.3712  2.4993  2.6486
 4581SOL     OW25378   2.284   1.109   6.131 -0.6466 -0.2455 -0.1852
 4581SOL    HW125379   2.261   1.125   6.039 -3.3385  0.9059  0.7039
 4581SOL    HW225380   2.277   1.013   6.137 -2.0003 -0.1345 -0.1487
 4582SOL     OW25381   2.238   0.665   8.821 -0.1341 -0.2275  0.6949
 4582SOL    HW125382   2.303   0.728   8.790  1.2551 -2.5752 -1.1380
 4582SOL    HW225383   2.188   0.663   8.739 -1.4021 -0.6735  1.4746
 4583SOL     OW25384   4.114   3.862   3.363  0.6838  0.0542 -0.1558
 4583SOL    HW125385   4.108   3.940   3.418  1.9172 -0.7445  1.0915
 4583SOL    HW225386   4.166   3.900   3.292 -1.6911  0.9094 -1.4521
 4584SOL     OW25387   2.468   1.708   4.343  0.4133 -0.1646 -0.0290
 4584SOL    HW125388   2.492   1.644   4.410 -0.3957 -0.7439 -0.2947
 4584SOL    HW225389   2.418   1.648   4.288  0.5476 -0.4130  0.1230
 4585SOL     OW25390   2.461   1.305   4.027 -0.1680 -0.0316 -0.1384
 4585SOL    HW125391   2.373   1.269   4.042  0.3042 -0.9011  0.4915
 4585SOL    HW225392   2.526   1.272   4.088  2.1443  1.0888 -1.9891
 4586SOL     OW25393   1.238   0.011   5.457  0.8061  0.5354 -0.3038
 4586SOL    HW125394   1.300   4.696   5.506  2.6532  1.5844 -1.5102
 4586SOL    HW225395   1.201   4.680   5.401 -2.2776  1.8022  0.1431
 4587SOL     OW25396   2.207   1.665   8.967 -0.2023 -0.4556  0.4083
 4587SOL    HW125397   2.117   1.633   8.968 -0.1415 -0.6862 -2.6770
 4587SOL    HW225398   2.184   1.748   9.009  0.3884 -0.7237  1.2516
 4588SOL     OW25399   1.771   1.964  11.577 -0.7401  0.2332  0.2350
 4588SOL    HW125400   1.679   1.982  11.598 -0.5028  1.1539  0.4930
 4588SOL    HW225401   1.784   2.025  11.504 -0.1082 -1.1904 -0.8213
 4589SOL     OW25402   4.146   0.974   0.621  0.4468  0.3158  0.1011
 4589SOL    HW125403   4.167   0.882   0.603 -1.6749 -0.1269 -0.0755
 4589SOL    HW225404   4.227   1.023   0.629  0.0280  0.7724  1.4249
 4590SOL     OW25405   1.864   0.395   8.629 -0.5795 -0.0639 -0.0419
 4590SOL    HW125406   1.900   0.482   8.648 -0.5802 -0.1460  0.3285
 4590SOL    HW225407   1.792   0.385   8.690 -2.2313  0.1564 -1.9569
 4591SOL     OW25408   3.750   2.923  12.894  0.4126 -0.1163  0.5246
 4591SOL    HW125409   3.783   2.975  12.967  1.6604 -0.3293  0.1105
 4591SOL    HW225410   3.728   2.843  12.941  1.4806 -1.4746 -1.2866
 4592SOL     OW25411   1.563   2.474   9.464 -0.3767 -0.3534 -0.4615
 4592SOL    HW125412   1.529   2.424   9.389 -1.9572 -0.9601  0.6872
 4592SOL    HW225413   1.655   2.476   9.436  0.4869 -0.7947  2.4215
 4593SOL     OW25414   0.249   1.893   5.960 -0.8685 -0.1117  0.0119
 4593SOL    HW125415   0.266   1.868   6.051  1.9857  0.6024 -0.3428
 4593SOL    HW225416   0.252   1.988   5.971  0.6126 -0.0960 -0.5030
 4594SOL     OW25417   2.445   2.506   6.144  0.1365  0.0876 -0.0994
 4594SOL    HW125418   2.448   2.411   6.154 -0.5587  0.1814  0.9870
 4594SOL    HW225419   2.535   2.520   6.114  0.3914 -2.4170 -0.5017
 4595SOL     OW25420   0.281   2.395  13.568 -0.4546  0.5015  0.4316
 4595SOL    HW125421   0.312   2.485  13.571 -0.6612  0.6356 -1.4404
 4595SOL    HW225422   0.290   2.392  13.473  0.0485 -0.0167  0.4913
 4596SOL     OW25423   3.757   1.073   5.015 -0.4418  0.8022  0.4011
 4596SOL    HW125424   3.751   1.003   5.080  2.2130 -0.1808 -0.4060
 4596SOL    HW225425   3.761   1.148   5.075  0.2635  0.1642  1.1601
 4597SOL     OW25426   1.518   1.132   2.521 -0.4812 -0.7368 -0.5124
 4597SOL    HW125427   1.547   1.221   2.539 -1.2511 -1.0161  2.0063
 4597SOL    HW225428   1.491   1.149   2.430  0.2246  3.1137  0.0294
 4598SOL     OW25429   1.953   1.535   9.015 -0.1254 -0.2618  0.3550
 4598SOL    HW125430   1.923   1.449   8.986 -2.2979  0.8332 -0.6226
 4598SOL    HW225431   1.892   1.591   8.967 -0.0606  0.3888  1.0300
 4599SOL     OW25432   3.139   0.449   6.202 -0.2442  0.1233 -0.5944
 4599SOL    HW125433   3.223   0.479   6.236 -0.1023 -0.6421 -0.2754
 4599SOL    HW225434   3.152   0.458   6.107  2.4536 -1.9924 -0.4242
 4600SOL     OW25435   3.899   1.510   7.596  0.0272 -0.0118  0.0209
 4600SOL    HW125436   3.951   1.560   7.659  0.1032  1.1902 -1.0078
 4600SOL    HW225437   3.956   1.438   7.566  1.3802  0.5839  1.1500
 4601SOL     OW25438   2.169   4.296   1.409 -0.1440 -0.3207  0.2842
 4601SOL    HW125439   2.203   4.233   1.473  1.5444  0.9666  0.6396
 4601SOL    HW225440   2.118   4.357   1.462 -0.9156 -0.2796 -0.4987
 4602SOL     OW25441   3.951   0.292   7.507 -0.4730 -0.2043  0.0017
 4602SOL    HW125442   3.930   0.308   7.599 -1.9354  1.1965 -0.5717
 4602SOL    HW225443   3.878   0.341   7.469 -0.9832 -0.2751  0.8689
 4603SOL     OW25444   2.037   1.802   2.764 -0.3468 -0.2377  0.3810
 4603SOL    HW125445   2.080   1.754   2.835 -3.6989 -1.4617  1.5820
 4603SOL    HW225446   2.009   1.878   2.815  1.7791 -1.0770  2.8272
 4604SOL     OW25447   3.967   2.308   5.043 -0.2961 -0.3702  0.5326
 4604SOL    HW125448   3.911   2.249   4.992 -2.4411  1.7043  0.5187
 4604SOL    HW225449   4.039   2.254   5.077 -1.2173 -1.7221  0.3567
 4605SOL     OW25450   3.702   0.946   0.237  0.3876 -0.5809  0.6128
 4605SOL    HW125451   3.657   1.012   0.290  1.9234  0.5146  0.5425
 4605SOL    HW225452   3.775   0.903   0.282  2.2329  1.2899 -0.6092
 4606SOL     OW25453   3.804   4.664   6.039  0.1489 -0.9302  0.1029
 4606SOL    HW125454   3.879   4.635   5.986  1.1556 -1.5919  1.8539
 4606SOL    HW225455   3.828   0.004   6.090  0.1088 -1.9378  1.6771
 4607SOL     OW25456   4.289   2.284   5.294  0.5410  0.2559 -0.2757
 4607SOL    HW125457   4.313   2.263   5.384  2.6047  2.0510 -0.4469
 4607SOL    HW225458   4.364   2.340   5.279  1.9300 -1.2262  1.0790
 4608SOL     OW25459   4.342   3.308   6.830 -0.3003  0.0247 -0.3675
 4608SOL    HW125460   4.291   3.228   6.836  0.5327 -0.5247 -0.5592
 4608SOL    HW225461   4.284   3.365   6.879 -1.1515  0.4942 -1.9240
 4609SOL     OW25462   1.808   3.299  17.171  0.0972  0.0816 -0.1975
 4609SOL    HW125463   1.859   3.330  17.246 -2.5654  0.9043  1.2608
 4609SOL    HW225464   1.725   3.302  17.218  0.0321 -1.4264 -0.2228
 4610SOL     OW25465   0.856   2.842   0.290  0.1178 -0.2608  0.2568
 4610SOL    HW125466   0.895   2.755   0.296 -2.7587 -1.6792 -1.4083
 4610SOL    HW225467   0.893   2.883   0.368  1.1950  1.0256 -0.9401
 4611SOL     OW25468   0.980   3.605   5.911 -0.1169 -0.3105 -0.0769
 4611SOL    HW125469   0.964   3.684   5.962 -1.2364 -0.5557 -0.0504
 4611SOL    HW225470   1.068   3.591   5.946  0.4954  1.1353 -1.0156
 4612SOL     OW25471   0.024   0.333  15.820 -0.0935 -0.0914  0.1932
 4612SOL    HW125472   0.085   0.406  15.812 -2.1429  1.4094 -1.9050
 4612SOL    HW225473   0.039   0.296  15.733  1.8165 -0.8791  0.8697
 4613SOL     OW25474   1.534   3.568   4.819  0.0638  0.8049  0.3665
 4613SOL    HW125475   1.467   3.507   4.786 -0.5810  1.1488  1.0505
 4613SOL    HW225476   1.602   3.506   4.847 -0.2490  1.3280  2.2222
 4614SOL     OW25477   1.409   2.341   3.073  0.1610 -0.2317  0.3927
 4614SOL    HW125478   1.443   2.256   3.045 -1.7656  0.0157 -2.6727
 4614SOL    HW225479   1.384   2.317   3.162 -0.3077  1.9655  0.8384
 4615SOL     OW25480   1.475   2.178   8.844 -0.6736 -0.2043  0.0001
 4615SOL    HW125481   1.515   2.164   8.930  0.2206 -1.7457 -0.6754
 4615SOL    HW225482   1.506   2.265   8.818 -2.0080 -0.1047 -1.2684
 4616SOL     OW25483   3.088   1.099  12.512 -0.0434  0.7583  0.0520
 4616SOL    HW125484   3.050   1.022  12.555 -0.7468  0.8067 -0.4937
 4616SOL    HW225485   3.069   1.173  12.570 -0.0430 -0.8129  2.0663
 4617SOL     OW25486   3.689   4.385   9.877  0.2667 -0.7795  0.8655
 4617SOL    HW125487   3.608   4.413   9.836  0.5264 -0.7990  0.3408
 4617SOL    HW225488   3.754   4.407   9.810  0.4234 -0.1409  1.2267
 4618SOL     OW25489   3.816   3.680   5.274  0.0320  0.5041 -0.1629
 4618SOL    HW125490   3.874   3.740   5.321  0.3950  0.6563 -0.8098
 4618SOL    HW225491   3.843   3.702   5.185  0.9715 -3.3077 -0.8485
 4619SOL     OW25492   3.057   3.348   6.358  0.0416  0.1049  0.1403
 4619SOL    HW125493   2.987   3.358   6.293 -0.5675 -1.0211  0.6153
 4619SOL    HW225494   3.005   3.390   6.427 -0.3458 -1.4902  0.8222
 4620SOL     OW25495   4.112   2.779   7.247 -0.4032 -0.2085 -0.7545
 4620SOL    HW125496   4.072   2.708   7.197 -1.1562  0.0714 -0.5456
 4620SOL    HW225497   4.038   2.839   7.257 -0.0933  0.1449 -0.5784
 4621SOL     OW25498   0.730   3.370  15.333 -0.0033  0.1138 -0.1248
 4621SOL    HW125499   0.798   3.437  15.322  0.3993 -0.6297 -2.2208
 4621SOL    HW225500   0.720   3.360  15.427  1.0665 -1.2713 -0.1619
 4622SOL     OW25501   0.671   3.444   4.549  0.2059  0.2391 -0.3233
 4622SOL    HW125502   0.705   3.363   4.511 -0.6084  0.4766 -1.5884
 4622SOL    HW225503   0.590   3.446   4.498 -0.6448 -1.1530  0.9868
 4623SOL     OW25504   4.495   0.939   9.634 -0.3940  0.3121  0.5662
 4623SOL    HW125505   4.526   0.850   9.646 -1.2623 -0.3181 -1.8429
 4623SOL    HW225506   4.564   0.970   9.574  0.2767  0.0297  1.1990
 4624SOL     OW25507   0.558   2.877  13.291 -0.2506 -1.0808  0.0795
 4624SOL    HW125508   0.530   2.926  13.213 -0.0076  1.5383  1.6388
 4624SOL    HW225509   0.577   2.793  13.250 -0.6422 -2.0824  1.9811
 4625SOL     OW25510   0.342   4.099   9.949  0.2066 -0.0973  1.0890
 4625SOL    HW125511   0.385   4.176   9.910 -0.2465 -0.5117 -0.2247
 4625SOL    HW225512   0.281   4.090   9.876  2.3767 -0.8104 -0.6545
 4626SOL     OW25513   3.440   3.214   6.886 -0.1961  0.1275 -0.9179
 4626SOL    HW125514   3.361   3.162   6.903 -0.8528  2.2613  2.5757
 4626SOL    HW225515   3.406   3.303   6.880  1.2858  0.7937  0.7603
 4627SOL     OW25516   3.119   0.048  15.994 -0.1366 -0.0818  0.5161
 4627SOL    HW125517   3.192   0.083  15.943  0.0642 -1.3875 -0.0925
 4627SOL    HW225518   3.150   0.062  16.084  1.4082 -0.5187  0.0523
 4628SOL     OW25519   3.970   2.869   3.995  0.0160  0.4670 -0.1101
 4628SOL    HW125520   3.899   2.879   3.931  1.7089  2.6783 -1.6450
 4628SOL    HW225521   4.054   2.868   3.949  0.1931  2.1702  0.1874
 4629SOL     OW25522   1.596   1.934   1.334 -0.0207  0.1338  0.1519
 4629SOL    HW125523   1.523   1.877   1.358 -1.2083  1.3383 -0.6410
 4629SOL    HW225524   1.588   1.954   1.241 -3.0593  0.6653  0.5263
 4630SOL     OW25525   2.421   4.349   8.584  0.2629 -0.0599 -0.4324
 4630SOL    HW125526   2.445   4.390   8.501  1.0420  0.9793  0.3145
 4630SOL    HW225527   2.371   4.424   8.615 -1.3533 -1.0036 -0.7992
 4631SOL     OW25528   0.393   2.472  15.662 -0.3000 -0.1652  0.2492
 4631SOL    HW125529   0.332   2.538  15.627  1.5873  1.8990  0.9055
 4631SOL    HW225530   0.358   2.467  15.751 -1.9244 -2.3944 -0.4992
 4632SOL     OW25531   0.489   0.322   6.183  0.1270 -0.0313  0.3085
 4632SOL    HW125532   0.576   0.323   6.224  0.6856 -1.2886 -0.8253
 4632SOL    HW225533   0.475   0.416   6.189 -1.6500 -0.1901 -1.5539
 4633SOL     OW25534   2.798   4.291   8.765 -0.2082 -0.2137 -0.2092
 4633SOL    HW125535   2.735   4.223   8.740  0.5435 -0.9871  0.0178
 4633SOL    HW225536   2.815   4.340   8.685  1.0765  2.7530  1.8776
 4634SOL     OW25537   0.465   4.588   5.885  1.0049  0.1542 -0.0344
 4634SOL    HW125538   0.477   4.671   5.931  1.4224 -0.0575  0.2386
 4634SOL    HW225539   0.480   4.531   5.960 -1.2699  0.8410  0.9275
 4635SOL     OW25540   1.630   2.696   8.972  0.4365 -0.2665  0.0735
 4635SOL    HW125541   1.624   2.714   9.066  0.4425  1.1141 -0.1971
 4635SOL    HW225542   1.548   2.649   8.959  0.6920 -0.8813  0.6420
 4636SOL     OW25543   2.589   2.218   2.586  0.2550 -0.3591 -0.7837
 4636SOL    HW125544   2.638   2.180   2.513  1.2853 -1.3804  0.4432
 4636SOL    HW225545   2.651   2.209   2.659 -1.5884  1.0049  0.9729
 4637SOL     OW25546   4.726   0.866  14.587  0.0829 -0.2427  0.4070
 4637SOL    HW125547   4.729   0.959  14.612  0.7223 -0.4076  0.9411
 4637SOL    HW225548   4.649   0.828  14.629 -2.2871  2.4498 -1.4344
 4638SOL     OW25549   0.338   2.706   4.122  0.2249 -0.3498 -0.0524
 4638SOL    HW125550   0.397   2.634   4.144  0.3193 -0.0156  0.7919
 4638SOL    HW225551   0.398   2.774   4.092  1.4094 -0.2102  2.5740
 4639SOL     OW25552   2.153   4.031   2.068  0.4751  0.3581  0.1259
 4639SOL    HW125553   2.244   4.011   2.049  0.2721  1.0286 -1.6387
 4639SOL    HW225554   2.113   3.944   2.076 -1.1326  1.3078  2.5414
 4640SOL     OW25555   2.965   2.584  15.149  0.6508  0.6661 -0.2519
 4640SOL    HW125556   2.882   2.630  15.159  2.2660  3.5963 -0.2801
 4640SOL    HW225557   3.022   2.650  15.108  0.9681 -0.1238 -1.0731
 4641SOL     OW25558   3.798   3.878   0.855  0.2310  0.1416  0.1085
 4641SOL    HW125559   3.820   3.858   0.946  0.1447  1.9344  0.5329
 4641SOL    HW225560   3.706   3.904   0.860  0.1635 -0.4186  1.7935
 4642SOL     OW25561   0.497   4.169   7.693 -0.2349  0.1704 -0.0109
 4642SOL    HW125562   0.533   4.093   7.648 -1.1296 -0.5292  0.4629
 4642SOL    HW225563   0.408   4.174   7.658 -0.7374 -1.6023  0.9935
 4643SOL     OW25564   3.941   0.847  13.643  0.1890  0.4617 -0.2613
 4643SOL    HW125565   3.926   0.876  13.553 -0.8529  1.0572  0.0985
 4643SOL    HW225566   3.879   0.774  13.650 -0.0173  0.9128  2.7972
 4644SOL     OW25567   2.730   1.565   5.076 -0.1411 -0.2483  0.1992
 4644SOL    HW125568   2.636   1.550   5.070  0.0591 -1.1802 -0.4987
 4644SOL    HW225569   2.746   1.556   5.170 -4.0284  0.2173  0.8987
 4645SOL     OW25570   1.357   3.443   5.746 -0.1464 -0.3844 -0.5447
 4645SOL    HW125571   1.296   3.373   5.764  2.2050 -2.0830  0.8084
 4645SOL    HW225572   1.383   3.420   5.656  1.0286 -0.2076 -0.2458
 4646SOL     OW25573   0.597   0.611   7.460  0.1504  0.0199 -0.1180
 4646SOL    HW125574   0.533   0.547   7.429  1.4387 -0.0638 -2.6112
 4646SOL    HW225575   0.674   0.574   7.416  0.8734  0.0234  1.1447
 4647SOL     OW25576   4.433   0.445  13.551  0.3177 -0.2881 -0.1321
 4647SOL    HW125577   4.373   0.512  13.518  1.8371  1.3061  0.3316
 4647SOL    HW225578   4.516   0.490  13.563 -0.5993  1.3161  0.1588
 4648SOL     OW25579   0.647   3.255   7.039 -0.2537  0.2892  0.4612
 4648SOL    HW125580   0.680   3.305   6.964 -1.5101 -0.2409 -0.4600
 4648SOL    HW225581   0.703   3.298   7.103 -0.7820 -0.2986  1.3105
 4649SOL     OW25582   3.665   4.263  12.768  0.0608 -0.2870 -0.3349
 4649SOL    HW125583   3.748   4.284  12.810  0.0692  0.9374 -0.9555
 4649SOL    HW225584   3.657   4.170  12.788 -3.4871  0.8475  3.4089
 4650SOL     OW25585   3.300   0.642   0.013 -0.0778 -0.0974  0.5081
 4650SOL    HW125586   3.263   0.554   0.021  1.8238 -0.9846 -0.4870
 4650SOL    HW225587   3.300   0.645  17.665 -2.5160 -1.2198  0.4719
 4651SOL     OW25588   3.125   1.594   7.694  0.0643 -0.5788  0.1522
 4651SOL    HW125589   3.075   1.674   7.705 -1.6420 -1.7913  1.3161
 4651SOL    HW225590   3.063   1.529   7.727 -1.3162  0.6597 -0.0244
 4652SOL     OW25591   3.398   3.918   4.761  0.3989 -0.4109 -0.4368
 4652SOL    HW125592   3.430   3.955   4.679  2.5260  1.8786  1.4204
 4652SOL    HW225593   3.360   3.998   4.798 -1.9813 -2.0128  0.5712
 4653SOL     OW25594   2.829   1.896   8.263  0.0559 -0.0437 -0.2594
 4653SOL    HW125595   2.805   1.815   8.308  0.1444  1.1495  1.9233
 4653SOL    HW225596   2.743   1.936   8.255 -0.5479 -1.0714  1.1426
 4654SOL     OW25597   3.154   4.235  12.933 -0.3564  0.0309  0.2279
 4654SOL    HW125598   3.088   4.304  12.942 -2.7355 -2.2816  0.5388
 4654SOL    HW225599   3.226   4.280  12.977 -0.2536 -0.9356  1.0445
 4655SOL     OW25600   0.862   3.801   8.866  0.6624 -0.3837  0.4972
 4655SOL    HW125601   0.811   3.719   8.870  0.5433 -0.3607 -0.6178
 4655SOL    HW225602   0.814   3.846   8.797  0.0514  0.6396  1.5968
 4656SOL     OW25603   1.255   0.490   5.117  0.0617  0.1092  0.0801
 4656SOL    HW125604   1.346   0.479   5.146 -0.0035 -0.8790 -0.0990
 4656SOL    HW225605   1.272   0.485   5.023 -0.3060  0.6206 -0.0134
 4657SOL     OW25606   0.550   0.303  13.181 -0.2682  0.3609 -0.1851
 4657SOL    HW125607   0.528   0.366  13.113 -0.3158  1.7770  1.1235
 4657SOL    HW225608   0.520   0.219  13.148 -1.0068  0.3483  0.5291
 4658SOL     OW25609   3.263   0.766   4.922  0.1621  0.2573 -0.2630
 4658SOL    HW125610   3.313   0.703   4.975  1.6902  1.6252 -0.0854
 4658SOL    HW225611   3.187   0.783   4.978  0.5422 -1.7597  0.8929
 4659SOL     OW25612   3.363   4.165   6.504  0.2522 -0.2430 -0.2653
 4659SOL    HW125613   3.452   4.177   6.471 -0.9969 -1.5592 -4.0602
 4659SOL    HW225614   3.355   4.246   6.555 -0.6353 -0.4619 -0.0584
 4660SOL     OW25615   0.357   1.529   6.735  0.0482 -0.0584  0.0307
 4660SOL    HW125616   0.430   1.495   6.684 -0.8926  0.1255 -1.4564
 4660SOL    HW225617   0.371   1.624   6.738  1.4907 -0.2481 -0.4921
 4661SOL     OW25618   4.506   4.022   6.472  0.1335  0.1689 -0.1110
 4661SOL    HW125619   4.526   4.018   6.379  0.4336 -3.2006  0.1064
 4661SOL    HW225620   4.441   3.952   6.476  1.0541 -0.6868 -0.1498
 4662SOL     OW25621   4.661   2.824   5.089 -0.4616  0.5689  0.0237
 4662SOL    HW125622   4.685   2.868   5.008 -0.4600 -1.2523 -0.9619
 4662SOL    HW225623   4.568   2.846   5.098 -0.4040 -0.1693  2.3313
 4663SOL     OW25624   4.310   1.738  14.178 -0.0154 -0.0559 -0.5960
 4663SOL    HW125625   4.283   1.695  14.259  1.6593 -0.5589 -0.2968
 4663SOL    HW225626   4.316   1.663  14.119 -1.7634  0.2191 -1.1200
 4664SOL     OW25627   1.606   1.211  13.859  0.2758  0.2140  0.0660
 4664SOL    HW125628   1.618   1.224  13.765  2.5263  1.6367  0.5439
 4664SOL    HW225629   1.511   1.198  13.861  0.5056 -1.3189  1.1444
 4665SOL     OW25630   1.676   3.879   1.300  0.3533  0.1303  0.6983
 4665SOL    HW125631   1.643   3.963   1.333  0.8159  0.9169 -0.8167
 4665SOL    HW225632   1.673   3.895   1.205 -1.2752  1.3217  0.9437
 4666SOL     OW25633   1.642   3.777   3.091 -0.1441 -0.1398 -0.5919
 4666SOL    HW125634   1.635   3.762   3.185 -4.0623 -3.7031 -1.5001
 4666SOL    HW225635   1.704   3.708   3.067  0.1583  0.0227 -0.2896
 4667SOL     OW25636   1.526   4.417  14.085  0.3728  0.3928  0.3884
 4667SOL    HW125637   1.499   4.331  14.118  0.9838  0.2732  0.5815
 4667SOL    HW225638   1.483   4.419  13.999  0.4781 -3.4249  0.2245
 4668SOL     OW25639   4.669   3.947   7.940 -0.7781 -0.1267 -0.7177
 4668SOL    HW125640   4.622   3.999   7.875 -0.1125  2.4109  0.8290
 4668SOL    HW225641   4.733   3.897   7.888  0.1083  0.4913 -0.2329
 4669SOL     OW25642   3.409   1.370   2.586 -0.1155 -0.4411  0.6016
 4669SOL    HW125643   3.388   1.283   2.552  0.4155  0.4258 -1.9737
 4669SOL    HW225644   3.359   1.371   2.667  1.5704  0.4419  1.6226
 4670SOL     OW25645   2.551   4.728   1.568  0.5050 -0.5507  0.2004
 4670SOL    HW125646   2.611   4.709   1.496 -0.1986 -1.1436 -0.2288
 4670SOL    HW225647   2.553   0.086   1.576  0.4837 -0.5053 -0.3846
 4671SOL     OW25648   4.274   4.647   4.691 -0.4164  0.3440 -0.4850
 4671SOL    HW125649   4.244   4.623   4.603  0.1101 -1.1693 -0.2503
 4671SOL    HW225650   4.298   0.002   4.680  0.1465  0.0450 -1.8316
 4672SOL     OW25651   1.266   4.367   8.420  0.1164 -0.1794  0.5060
 4672SOL    HW125652   1.266   4.432   8.349  2.0372  0.5114  1.1182
 4672SOL    HW225653   1.316   4.418   8.483  1.9593 -1.4620  0.1163
 4673SOL     OW25654   1.142   4.421  17.165  0.5565  0.2238  0.0254
 4673SOL    HW125655   1.174   4.332  17.178 -1.4480 -0.7890 -1.9986
 4673SOL    HW225656   1.221   4.459  17.203  0.7262 -2.4726  2.3738
 4674SOL     OW25657   2.233   3.952   2.984  0.7428  0.1920 -0.3508
 4674SOL    HW125658   2.241   4.046   2.968  1.6573  0.0704 -0.6226
 4674SOL    HW225659   2.295   3.938   3.055 -1.4032 -0.0930  1.4706
 4675SOL     OW25660   2.413   0.333   9.950 -0.0235 -0.1578 -0.5129
 4675SOL    HW125661   2.391   0.409  10.004  1.9892 -1.5697  2.3251
 4675SOL    HW225662   2.449   0.366   9.867  1.2119 -0.4259 -0.0892
 4676SOL     OW25663   1.554   0.544   9.953 -0.2041 -0.3465  0.5335
 4676SOL    HW125664   1.478   0.600   9.937 -0.2749 -0.8414 -0.8256
 4676SOL    HW225665   1.592   0.536   9.865  0.3675  0.8178  0.6745
 4677SOL     OW25666   2.076   3.476   9.439 -0.5846  0.5369 -0.3668
 4677SOL    HW125667   2.083   3.528   9.359  0.8292  0.1497 -0.5018
 4677SOL    HW225668   2.169   3.485   9.458 -0.7191 -0.8487  0.9840
 4678SOL     OW25669   1.779   4.134   6.628  0.1840 -0.4217 -0.0188
 4678SOL    HW125670   1.705   4.181   6.667  1.3990  0.4652  1.2221
 4678SOL    HW225671   1.827   4.210   6.595 -0.8922 -0.5961 -2.0125
 4679SOL     OW25672   3.044   0.240  15.154  0.0878  0.1825  0.1853
 4679SOL    HW125673   3.003   0.303  15.094 -0.6976 -1.1923 -0.7140
 4679SOL    HW225674   2.973   0.226  15.217  0.2695  0.6013  0.4845
 4680SOL     OW25675   3.037   4.281   5.774 -0.0564  0.2051  0.0205
 4680SOL    HW125676   3.101   4.334   5.726 -0.3504  1.4835  1.0326
 4680SOL    HW225677   3.030   4.202   5.722 -3.5345  1.8505 -2.0195
 4681SOL     OW25678   1.654   3.968  15.774 -0.2015  0.3370 -0.8476
 4681SOL    HW125679   1.568   3.941  15.806 -0.4045  1.6293 -0.3166
 4681SOL    HW225680   1.643   4.062  15.786  1.9221  0.3517  1.0320
 4682SOL     OW25681   4.543   4.406  17.237 -0.0985 -0.2986  0.1349
 4682SOL    HW125682   4.511   4.335  17.183 -0.5141  0.6225 -0.8351
 4682SOL    HW225683   4.619   4.360  17.273 -0.3571 -1.2670 -0.5601
 4683SOL     OW25684   0.937   4.709   2.828  0.1606  0.4752  1.0816
 4683SOL    HW125685   1.006   0.018   2.875  0.4385  1.2393 -0.0838
 4683SOL    HW225686   0.918   0.033   2.757 -2.0354 -0.1101  1.1518
 4684SOL     OW25687   0.731   0.167   3.996 -0.0873  0.2048  0.0608
 4684SOL    HW125688   0.635   0.171   3.997 -0.1497 -1.5408  0.7868
 4684SOL    HW225689   0.744   0.260   4.016 -1.1486  0.3312  0.1968
 4685SOL     OW25690   0.544   4.244   3.254 -0.5398  0.4500  0.0868
 4685SOL    HW125691   0.607   4.232   3.183  0.1806  0.8717  0.6477
 4685SOL    HW225692   0.606   4.276   3.320 -0.2871  1.2122 -0.5099
 4686SOL     OW25693   3.462   2.395   5.014  0.1463  0.5030 -0.0052
 4686SOL    HW125694   3.501   2.457   5.076  0.2779 -0.2674  0.6805
 4686SOL    HW225695   3.484   2.440   4.933  0.5441 -0.2937 -0.3337
 4687SOL     OW25696   0.057   2.555   3.851 -0.8505 -0.0662 -0.0081
 4687SOL    HW125697   0.031   2.634   3.898 -0.2908  0.1055  0.0149
 4687SOL    HW225698   4.719   2.539   3.794  0.2811  0.5529 -1.6486
 4688SOL     OW25699   4.269   0.301   0.850 -0.5702 -0.3036  0.3343
 4688SOL    HW125700   4.225   0.226   0.810  1.2028 -0.7179 -0.8350
 4688SOL    HW225701   4.329   0.249   0.902 -1.3343  0.1645  1.6913
 4689SOL     OW25702   2.636   0.006   7.474 -0.7675 -0.0281  0.3445
 4689SOL    HW125703   2.641   0.073   7.407 -1.7681  0.5575  0.8519
 4689SOL    HW225704   2.625   4.669   7.414 -0.9712 -0.3191  0.7387
 4690SOL     OW25705   2.710   1.026   2.821 -0.3096  0.2531 -0.1665
 4690SOL    HW125706   2.745   0.960   2.881 -0.3591 -1.6137 -2.1693
 4690SOL    HW225707   2.722   1.109   2.867  0.2138 -0.4989  1.0558
 4691SOL     OW25708   2.624   3.562  13.133 -0.2131 -0.2684  0.6638
 4691SOL    HW125709   2.566   3.527  13.201 -0.1627 -0.2545  0.7143
 4691SOL    HW225710   2.692   3.604  13.186  1.1274  0.4398 -1.6405
 4692SOL     OW25711   2.454   0.783  14.670 -0.1036  0.6992 -0.2528
 4692SOL    HW125712   2.398   0.747  14.602 -1.3583  1.3374  0.4483
 4692SOL    HW225713   2.473   0.707  14.724 -0.8136  2.7431  2.8656
 4693SOL     OW25714   3.933   1.153   9.670  0.2559 -0.5285 -0.0147
 4693SOL    HW125715   3.923   1.182   9.760 -0.9127  0.5566 -0.4946
 4693SOL    HW225716   3.842   1.153   9.641  0.2439 -0.5655  0.0231
 4694SOL     OW25717   0.388   0.402   8.788 -0.2180  0.2755  0.2736
 4694SOL    HW125718   0.395   0.307   8.779  0.6871  0.2039  1.8016
 4694SOL    HW225719   0.307   0.427   8.832 -0.3971  0.5740 -0.2202
 4695SOL     OW25720   1.852   0.168   5.457  0.0015  0.4636 -0.4483
 4695SOL    HW125721   1.834   0.156   5.550  0.0760 -0.2095 -0.5218
 4695SOL    HW225722   1.843   0.263   5.451 -0.7177  0.2911 -2.0848
 4696SOL     OW25723   2.066   3.115   8.330 -0.4142  0.4054 -0.4644
 4696SOL    HW125724   2.117   3.127   8.250 -1.7522 -0.3616 -1.4362
 4696SOL    HW225725   2.117   3.040   8.361 -2.4022 -2.1975 -3.3689
 4697SOL     OW25726   1.946   0.585  12.832  0.8473  0.7574  0.9572
 4697SOL    HW125727   2.015   0.570  12.767 -0.4351 -2.3065  0.2986
 4697SOL    HW225728   1.891   0.650  12.788  0.1563 -1.9898 -2.3118
 4698SOL     OW25729   4.497   3.536   7.109  0.1945 -0.1863 -0.3133
 4698SOL    HW125730   4.445   3.506   7.184  1.4586  0.3885  0.8026
 4698SOL    HW225731   4.506   3.627   7.139 -5.1735  0.7867 -1.7052
 4699SOL     OW25732   3.900   2.522  15.734 -0.1074  0.1571  0.0693
 4699SOL    HW125733   3.996   2.526  15.733  0.0408 -2.8356  1.0191
 4699SOL    HW225734   3.874   2.553  15.648 -0.0018  0.9963  0.3401
 4700SOL     OW25735   3.183   1.196   4.953  0.1803 -0.3249 -0.2639
 4700SOL    HW125736   3.187   1.152   4.868 -2.2520  2.5464 -1.8437
 4700SOL    HW225737   3.245   1.142   5.002  1.7130 -0.5484 -2.4670
 4701SOL     OW25738   0.118   3.611   1.783 -0.1566 -0.0694  0.4824
 4701SOL    HW125739   0.185   3.674   1.808  0.8804 -1.5381  1.3788
 4701SOL    HW225740   0.166   3.528   1.774  0.9495  0.6196  0.0704
 4702SOL     OW25741   2.441   3.466   5.065  0.2813  0.0555 -0.0570
 4702SOL    HW125742   2.468   3.462   4.973 -0.4281 -0.5257 -0.2363
 4702SOL    HW225743   2.411   3.556   5.075 -1.3511 -0.5742  0.7400
 4703SOL     OW25744   2.813   4.240   5.083  0.3364  0.4077  0.2510
 4703SOL    HW125745   2.768   4.206   5.006  0.4392  1.3417 -0.2217
 4703SOL    HW225746   2.763   4.314   5.119 -1.5005 -0.2917 -0.8810
 4704SOL     OW25747   1.250   3.173   1.219 -0.3448 -0.8363 -0.3015
 4704SOL    HW125748   1.329   3.125   1.194 -0.1715 -1.7823  2.0816
 4704SOL    HW225749   1.292   3.228   1.286  1.5725 -0.0875 -2.1309
 4705SOL     OW25750   1.827   0.642  15.118 -0.0660  0.5504 -0.3597
 4705SOL    HW125751   1.827   0.721  15.064 -1.0949  0.3974 -0.5796
 4705SOL    HW225752   1.903   0.664  15.172 -0.2419  1.2100 -0.3846
 4706SOL     OW25753   2.622   1.784  13.152  1.0683 -0.4075  0.0270
 4706SOL    HW125754   2.584   1.705  13.114  0.1025 -0.0127  0.1699
 4706SOL    HW225755   2.558   1.801  13.221 -0.1215  0.3088 -1.2445
 4707SOL     OW25756   3.093   1.055   2.514  0.4238 -0.2263  0.1062
 4707SOL    HW125757   3.099   1.148   2.492 -1.3504 -0.1220  0.0241
 4707SOL    HW225758   2.998   1.041   2.521  0.0912  2.1011  0.3488
 4708SOL     OW25759   0.764   0.242  17.250  0.5691  0.1222 -0.1554
 4708SOL    HW125760   0.823   0.219  17.179  0.1141  0.3006 -0.5875
 4708SOL    HW225761   0.700   0.302  17.211 -0.1686  0.0321  0.9149
 4709SOL     OW25762   2.370   4.727   8.506  0.6762 -0.6254  0.3648
 4709SOL    HW125763   2.409   0.036   8.579  0.3723 -0.9155  0.7149
 4709SOL    HW225764   2.425   4.651   8.488  0.5418 -0.4642 -0.7599
 4710SOL     OW25765   0.535   3.046   2.982  0.2887 -0.0802 -0.0422
 4710SOL    HW125766   0.512   3.125   2.933  0.6138  1.5430  2.4372
 4710SOL    HW225767   0.501   3.063   3.070  1.4474 -3.0876  0.9785
 4711SOL     OW25768   0.183   2.595  17.094  0.0880 -0.1442  0.2981
 4711SOL    HW125769   0.098   2.611  17.054 -0.1265 -1.5583  0.1886
 4711SOL    HW225770   0.157   2.547  17.172  0.3269 -1.6625 -0.5580
 4712SOL     OW25771   1.531   4.451  15.647 -0.1775  0.1079  0.7100
 4712SOL    HW125772   1.441   4.467  15.620  0.2386 -0.8222 -1.1816
 4712SOL    HW225773   1.571   4.520  15.594  1.3312 -0.5998  0.9266
 4713SOL     OW25774   2.008   3.196   5.811 -0.4443 -0.8150  0.0079
 4713SOL    HW125775   2.089   3.150   5.830 -0.8734 -0.2996  3.1513
 4713SOL    HW225776   2.020   3.215   5.718  1.4222 -2.7632 -0.1259
 4714SOL     OW25777   1.581   4.229  15.426 -0.0367  0.0555 -0.5017
 4714SOL    HW125778   1.499   4.184  15.448 -0.4033  0.1843 -1.5861
 4714SOL    HW225779   1.555   4.319  15.403  1.2008  0.8302  1.1502
 4715SOL     OW25780   3.016   0.425   9.072  0.0320  0.2459  0.5098
 4715SOL    HW125781   2.954   0.355   9.094 -0.8236  0.7268 -0.3772
 4715SOL    HW225782   3.087   0.364   9.050 -0.5964  0.0541 -1.0022
 4716SOL     OW25783   1.283   3.742  10.238 -0.1361 -0.5807  0.4221
 4716SOL    HW125784   1.336   3.817  10.264 -1.3554  0.0085  1.1535
 4716SOL    HW225785   1.200   3.785  10.218  0.5258 -0.1319 -1.4274
 4717SOL     OW25786   2.984   4.603  15.458  0.3134  0.3020 -0.1045
 4717SOL    HW125787   2.917   4.648  15.407  0.3521 -0.9094 -1.2209
 4717SOL    HW225788   2.998   4.647  15.542  0.1891 -0.4866  0.3289
 4718SOL     OW25789   1.961   3.900   1.663 -0.4927  0.5290  0.2698
 4718SOL    HW125790   1.897   3.846   1.708  0.1475 -1.1481 -0.8462
 4718SOL    HW225791   1.907   3.965   1.617  1.2464  2.7491  1.3487
 4719SOL     OW25792   1.175   0.875   6.493 -0.2538  0.8040 -0.5952
 4719SOL    HW125793   1.100   0.935   6.499  0.3579  1.6280 -1.1829
 4719SOL    HW225794   1.133   0.792   6.514 -1.5362  1.6822  0.3374
 4720SOL     OW25795   1.141   4.077   8.820  0.2435  0.3609 -0.3880
 4720SOL    HW125796   1.156   4.148   8.883 -1.1879  1.0912 -0.8680
 4720SOL    HW225797   1.050   4.100   8.799 -0.2623  0.0259  1.3752
 4721SOL     OW25798   1.802   0.878   0.278 -0.1657 -0.1847 -0.3214
 4721SOL    HW125799   1.746   0.804   0.301 -1.6039  0.7672 -0.7450
 4721SOL    HW225800   1.763   0.933   0.347 -1.8109  0.1668 -1.5397
 4722SOL     OW25801   1.291   1.895   9.151 -0.1425  0.3692  0.4899
 4722SOL    HW125802   1.340   1.816   9.132  1.9422  2.0423 -1.1694
 4722SOL    HW225803   1.237   1.859   9.220 -0.5389  0.1188  0.0473
 4723SOL     OW25804   1.996   2.839   2.477 -0.3642 -0.1877 -0.6735
 4723SOL    HW125805   1.951   2.762   2.510 -0.8883  0.1092 -0.6869
 4723SOL    HW225806   2.071   2.804   2.429  1.1139 -0.3883  1.7967
 4724SOL     OW25807   2.126   2.893   7.742 -0.1276 -0.6003  0.3722
 4724SOL    HW125808   2.044   2.935   7.769 -1.0234 -0.6390 -2.3486
 4724SOL    HW225809   2.106   2.811   7.789  1.1932 -0.7781  0.6237
 4725SOL     OW25810   1.828   0.613   6.329 -0.4641  0.1013 -0.0235
 4725SOL    HW125811   1.868   0.615   6.416  0.4295 -0.3970 -0.4219
 4725SOL    HW225812   1.744   0.578   6.357  1.3029 -1.4931  3.2445
 4726SOL     OW25813   0.033   3.625  17.539 -0.0355 -0.1627  0.0581
 4726SOL    HW125814   4.686   3.670  17.545  0.6872  0.7819  3.4771
 4726SOL    HW225815   0.010   3.543  17.582 -2.6832 -0.2834 -1.6046
 4727SOL     OW25816   2.769   0.457  14.707 -0.1196 -0.2265  0.1073
 4727SOL    HW125817   2.731   0.409  14.781 -2.4732  0.1939 -0.8170
 4727SOL    HW225818   2.697   0.438  14.647 -0.7429 -2.3733  1.5480
 4728SOL     OW25819   2.364   4.315  12.507  0.7409  0.6732 -0.5300
 4728SOL    HW125820   2.276   4.328  12.542 -0.5936  0.2848 -3.7473
 4728SOL    HW225821   2.350   4.249  12.440 -0.2854  0.8624 -0.5031
 4729SOL     OW25822   1.392   0.362   5.998  0.1933 -0.2165  0.2495
 4729SOL    HW125823   1.488   0.367   5.991  0.3345 -0.0313  2.2699
 4729SOL    HW225824   1.373   0.328   5.910 -0.3399 -1.2170  0.7520
 4730SOL     OW25825   4.307   0.979   9.201 -0.3005  0.3336  0.5360
 4730SOL    HW125826   4.281   0.982   9.293  0.0737  0.3941  0.6390
 4730SOL    HW225827   4.356   1.060   9.192  0.1422 -0.1048 -1.1020
 4731SOL     OW25828   0.011   0.224   0.709 -0.7956  0.2289  0.2147
 4731SOL    HW125829   0.047   0.214   0.797  0.9502 -1.5287 -0.6834
 4731SOL    HW225830   4.669   0.171   0.714 -1.2469  0.8436 -0.3030
 4732SOL     OW25831   1.510   2.499   9.963  0.2932 -0.6758 -0.0769
 4732SOL    HW125832   1.506   2.486  10.058 -1.8151  4.0166  0.4627
 4732SOL    HW225833   1.585   2.558   9.957 -0.8677  0.7087 -0.8671
 4733SOL     OW25834   0.589   0.866  13.955 -0.2765 -0.2366  0.1250
 4733SOL    HW125835   0.498   0.843  13.940 -0.7970  2.4651 -0.7734
 4733SOL    HW225836   0.582   0.922  14.032  2.0305  0.9321 -0.4957
 4734SOL     OW25837   0.217   3.936   3.559 -0.4044  0.0085 -0.0617
 4734SOL    HW125838   0.265   3.997   3.503 -0.4230  1.3046  1.3593
 4734SOL    HW225839   0.138   3.989   3.569  1.5847  3.1864 -1.0682
 4735SOL     OW25840   2.911   4.333   4.661 -0.6303 -0.4503 -0.2082
 4735SOL    HW125841   2.976   4.266   4.680  0.0988  0.0489 -0.9115
 4735SOL    HW225842   2.929   4.395   4.731 -0.7635  1.0625 -1.5003
 4736SOL     OW25843   4.654   3.116  12.972 -0.1600 -0.2513  0.2119
 4736SOL    HW125844   4.585   3.165  12.928 -0.9850 -0.2479  1.4985
 4736SOL    HW225845   4.697   3.069  12.901 -1.0783  1.6452 -1.6298
 4737SOL     OW25846   2.294   0.061   8.162  0.1865  0.1358 -0.4569
 4737SOL    HW125847   2.292   4.734   8.092  0.7123 -1.2693  0.8237
 4737SOL    HW225848   2.253   0.011   8.231 -1.5362  1.4150 -0.5592
 4738SOL     OW25849   3.167   3.616  16.589  0.1489  0.6624 -0.4715
 4738SOL    HW125850   3.136   3.705  16.571  0.2834  0.4027 -2.0171
 4738SOL    HW225851   3.254   3.616  16.547 -0.3697 -0.6541 -1.5564
 4739SOL     OW25852   4.221   0.135  16.384 -0.3526 -0.2946  0.1166
 4739SOL    HW125853   4.260   0.164  16.302 -3.2012  0.6055 -0.9038
 4739SOL    HW225854   4.133   0.170  16.371  1.1156  3.2840 -0.1876
 4740SOL     OW25855   0.692   4.661   4.750 -0.1102 -0.4985  0.6763
 4740SOL    HW125856   0.675   4.585   4.694  1.9270 -0.5229  0.1069
 4740SOL    HW225857   0.749   4.620   4.814  1.4380  0.0810 -0.3297
 4741SOL     OW25858   1.231   3.223   2.274  0.0369  0.7125  0.5297
 4741SOL    HW125859   1.288   3.299   2.264  2.1159 -1.2105 -2.3050
 4741SOL    HW225860   1.174   3.247   2.347 -0.7053  2.5737 -0.6844
 4742SOL     OW25861   2.493   4.583   7.124  0.0617  0.1378 -0.4058
 4742SOL    HW125862   2.495   4.518   7.194  0.6122 -0.2438 -0.7802
 4742SOL    HW225863   2.585   4.600   7.103 -0.2119  1.3242 -0.6771
 4743SOL     OW25864   1.118   0.125  16.869  0.0005 -0.1517  0.0289
 4743SOL    HW125865   1.081   0.209  16.844  0.4730  0.5065  1.5471
 4743SOL    HW225866   1.212   0.141  16.874  0.0882 -0.4773 -0.5515
 4744SOL     OW25867   0.250   4.021   8.844 -0.4974  0.0230  0.2568
 4744SOL    HW125868   0.199   4.064   8.911 -1.7166 -0.3027 -0.4603
 4744SOL    HW225869   0.273   4.095   8.787 -1.1805  0.7460  0.9297
 4745SOL     OW25870   3.915   1.767   8.066 -0.7360 -0.2851  0.1784
 4745SOL    HW125871   3.942   1.782   8.157 -0.4676  0.3491 -0.0063
 4745SOL    HW225872   3.859   1.844   8.058  0.4804  0.7459  1.5260
 4746SOL     OW25873   3.905   2.954   7.267 -0.1779  0.2390  0.2932
 4746SOL    HW125874   3.849   2.947   7.345 -0.6585 -0.5876 -0.1263
 4746SOL    HW225875   3.936   3.045   7.274 -0.4148  0.2645  1.0562
 4747SOL     OW25876   2.810   3.896  15.108 -0.3810 -0.0426 -0.3479
 4747SOL    HW125877   2.755   3.823  15.078 -0.3510 -0.0286 -0.4368
 4747SOL    HW225878   2.867   3.905  15.032  0.6045 -0.6310  0.3286
 4748SOL     OW25879   2.953   0.678   0.291  0.2823 -0.5692 -0.0076
 4748SOL    HW125880   3.018   0.672   0.361  0.5108 -0.5729 -0.2186
 4748SOL    HW225881   2.876   0.657   0.343 -0.3834  0.1788 -0.7047
 4749SOL     OW25882   1.001   1.137   5.856 -0.2073  0.3639 -0.2079
 4749SOL    HW125883   1.004   1.170   5.766  2.0686 -1.2760 -0.7158
 4749SOL    HW225884   1.076   1.184   5.892 -0.0171 -1.2156  1.4298
 4750SOL     OW25885   1.633   3.535  17.458  0.0071 -0.3069 -0.3789
 4750SOL    HW125886   1.657   3.627  17.446 -0.3420  0.0512  1.6677
 4750SOL    HW225887   1.717   3.494  17.438 -0.3245 -0.5157 -1.3416
 4751SOL     OW25888   0.702   2.156  14.169 -0.5528  0.6226 -0.4787
 4751SOL    HW125889   0.785   2.170  14.214 -0.6165 -1.2200  0.2297
 4751SOL    HW225890   0.692   2.238  14.122  4.3896  0.7074 -1.3314
 4752SOL     OW25891   0.101   2.845   9.009  0.1538 -0.0987 -0.6361
 4752SOL    HW125892   0.120   2.767   9.061  0.8599 -0.7555 -1.8663
 4752SOL    HW225893   0.122   2.914   9.072  1.4107 -0.6734 -0.4245
 4753SOL     OW25894   0.003   0.034   8.769  0.5978 -0.3192  0.0685
 4753SOL    HW125895   0.064   4.699   8.774  0.7684 -0.3535 -2.5023
 4753SOL    HW225896   4.657   4.725   8.775  0.8841 -0.7905  0.3648
 4754SOL     OW25897   4.140   0.275   7.728 -0.1026 -0.2728 -0.7079
 4754SOL    HW125898   4.179   0.202   7.680  1.0482 -0.1093 -0.0203
 4754SOL    HW225899   4.176   0.263   7.816  0.1491  2.0687 -0.4891
 4755SOL     OW25900   2.923   2.064  12.665 -0.1736  0.1526  1.1289
 4755SOL    HW125901   2.858   2.134  12.676 -1.3313 -0.7129 -0.0879
 4755SOL    HW225902   2.922   2.050  12.570 -0.0946 -0.0435  1.1570
 4756SOL     OW25903   1.838   1.529   3.275 -0.0612  0.0177  0.1386
 4756SOL    HW125904   1.831   1.436   3.298  1.4508 -0.3453 -0.8288
 4756SOL    HW225905   1.928   1.543   3.305  0.5597 -2.9352 -0.3090
 4757SOL     OW25906   2.466   1.785   9.132 -0.6712  0.5889 -0.2410
 4757SOL    HW125907   2.518   1.776   9.212 -0.9003 -1.4818 -0.3173
 4757SOL    HW225908   2.476   1.693   9.108  0.0021  1.0092 -1.5800
 4758SOL     OW25909   2.250   2.959  15.280  0.4082  0.6384  0.0839
 4758SOL    HW125910   2.256   2.978  15.186 -0.7061  0.3328 -0.0514
 4758SOL    HW225911   2.303   3.029  15.315 -0.4687  0.3281  2.0115
 4759SOL     OW25912   2.897   4.716   7.962  0.4789 -0.1395  0.3296
 4759SOL    HW125913   2.880   0.056   7.908 -1.3644 -0.3272  0.6464
 4759SOL    HW225914   2.815   4.704   8.009  0.4737  0.7104  0.5381
 4760SOL     OW25915   1.824   2.624   6.135  0.7815  0.0422 -0.1824
 4760SOL    HW125916   1.850   2.534   6.154 -1.1065 -0.4406  0.1208
 4760SOL    HW225917   1.792   2.619   6.045  0.5646 -4.3174  0.1073
 4761SOL     OW25918   2.204   3.705  12.563  0.6185 -0.3195  0.5570
 4761SOL    HW125919   2.229   3.778  12.620  0.5260 -0.0299  0.2246
 4761SOL    HW225920   2.160   3.750  12.491 -0.1449 -0.9527  0.6317
 4762SOL     OW25921   1.612   3.010   3.392  0.3109  0.4785  0.1418
 4762SOL    HW125922   1.565   3.083   3.353  1.2165  1.5502  1.0966
 4762SOL    HW225923   1.699   3.011   3.351  0.5959 -0.8552  0.7207
 4763SOL     OW25924   4.062   3.066  15.333 -0.0416 -0.0348  0.2192
 4763SOL    HW125925   4.153   3.052  15.308  0.2212 -0.9123  1.6868
 4763SOL    HW225926   4.020   3.017  15.263  0.0770  0.7020 -0.3743
 4764SOL     OW25927   4.625   3.822   8.278  0.1149 -0.2557 -0.4424
 4764SOL    HW125928   4.652   3.794   8.365 -1.4478 -0.2221  0.0462
 4764SOL    HW225929   4.711   3.825   8.235  0.1220  1.6719 -0.3128
 4765SOL     OW25930   1.237   2.490   4.320 -0.7939 -0.1223 -0.3852
 4765SOL    HW125931   1.189   2.573   4.315  0.7813  0.8542  0.3523
 4765SOL    HW225932   1.324   2.522   4.343  0.3811 -2.2935 -1.8700
 4766SOL     OW25933   3.102   2.327   6.547 -0.3525  0.2741  0.1191
 4766SOL    HW125934   3.143   2.282   6.473  2.4231  1.1167  1.1351
 4766SOL    HW225935   3.173   2.332   6.611  1.7112 -0.5413 -2.1210
 4767SOL     OW25936   4.490   3.484   4.966  0.1159 -0.2435 -0.1564
 4767SOL    HW125937   4.476   3.569   4.926  0.8215  0.1496  0.4510
 4767SOL    HW225938   4.585   3.481   4.959  0.3283  0.6108  2.5929
 4768SOL     OW25939   2.123   1.639   3.294  0.3405 -0.1927 -0.3002
 4768SOL    HW125940   2.169   1.576   3.349 -0.1190 -0.3907 -0.1444
 4768SOL    HW225941   2.192   1.706   3.296 -0.3011  0.4757 -0.4731
 4769SOL     OW25942   1.086   2.522   9.044  0.3289 -0.1452  0.0787
 4769SOL    HW125943   1.056   2.446   8.995  0.0971  0.8715 -1.3712
 4769SOL    HW225944   1.096   2.489   9.133 -1.0471 -1.3432 -0.2052
 4770SOL     OW25945   1.044   0.658   6.531 -0.2068 -0.1460 -0.0277
 4770SOL    HW125946   1.027   0.570   6.565  0.8539 -0.2044  0.3585
 4770SOL    HW225947   1.049   0.644   6.437  0.5387  0.0497 -0.0169
 4771SOL     OW25948   1.299   4.621   6.555 -0.0576  0.3095  0.3165
 4771SOL    HW125949   1.258   4.661   6.478 -0.5927 -1.3392 -0.2785
 4771SOL    HW225950   1.263   4.532   6.563 -3.0576  1.5346  0.2417
 4772SOL     OW25951   2.390   1.499  16.142 -0.2967 -0.4096 -0.3021
 4772SOL    HW125952   2.418   1.434  16.078 -3.0286 -0.8297 -1.0655
 4772SOL    HW225953   2.317   1.460  16.190  0.0129  0.4106  0.8537
 4773SOL     OW25954   3.670   3.432   1.034 -0.4867 -0.1496 -0.4958
 4773SOL    HW125955   3.656   3.360   0.972 -0.4883 -1.6814  1.2857
 4773SOL    HW225956   3.649   3.515   0.991 -0.4513  1.1495  2.0381
 4774SOL     OW25957   2.854   0.363   6.651 -0.1443 -0.3372 -0.2121
 4774SOL    HW125958   2.888   0.430   6.710 -1.1139 -0.6085  0.6605
 4774SOL    HW225959   2.905   0.286   6.676 -0.3748 -0.5519 -0.4009
 4775SOL     OW25960   3.853   2.233   1.855 -0.0286  0.0040  0.0346
 4775SOL    HW125961   3.791   2.172   1.894  0.6674 -0.7978 -0.1246
 4775SOL    HW225962   3.799   2.312   1.850 -0.1794  0.0268  2.0116
 4776SOL     OW25963   3.849   2.550   0.387 -0.1095 -0.3647 -0.1440
 4776SOL    HW125964   3.837   2.465   0.343 -0.1100 -0.0695 -0.7099
 4776SOL    HW225965   3.757   2.566   0.410  0.1472  0.4302  0.3252
 4777SOL     OW25966   3.768   4.123  16.335 -0.2029 -0.0514  0.6131
 4777SOL    HW125967   3.807   4.161  16.256  1.2646  1.9448  2.3183
 4777SOL    HW225968   3.787   4.188  16.403 -1.2434  1.0909 -0.1778
 4778SOL     OW25969   1.043   2.553   8.432 -0.3640 -0.1342 -0.0564
 4778SOL    HW125970   1.030   2.518   8.520  0.8702  0.8338  0.5076
 4778SOL    HW225971   1.138   2.548   8.419 -0.3025  1.7557 -0.4031
 4779SOL     OW25972   3.151   0.600   5.217 -0.5170  0.0522 -0.1407
 4779SOL    HW125973   3.169   0.694   5.215 -1.1444  0.1915  0.5607
 4779SOL    HW225974   3.240   0.584   5.187 -0.2089 -0.1375  0.8567
 4780SOL     OW25975   0.414   1.288  10.762  0.3076  0.5700  0.3116
 4780SOL    HW125976   0.373   1.202  10.754 -0.4824  0.7776  2.0350
 4780SOL    HW225977   0.353   1.344  10.811 -0.0440 -1.3518  2.0324
 4781SOL     OW25978   0.853   0.724   2.797 -0.0289  0.6403  0.7141
 4781SOL    HW125979   0.865   0.745   2.704 -0.8339  1.8473  0.8782
 4781SOL    HW225980   0.858   0.628   2.802 -1.8760  0.4047 -1.8115
 4782SOL     OW25981   0.340   0.685   0.909  0.1678 -0.1107  0.9912
 4782SOL    HW125982   0.399   0.761   0.910 -0.3689  0.3249 -1.1505
 4782SOL    HW225983   0.365   0.648   0.825  0.6780 -0.6070  1.3578
 4783SOL     OW25984   0.059   2.465  10.781  0.7729  0.4280 -0.1253
 4783SOL    HW125985   0.019   2.461  10.868 -0.2425  0.3486 -0.5875
 4783SOL    HW225986   0.104   2.548  10.792  0.8956  0.4325 -0.6775
 4784SOL     OW25987   0.905   0.178  17.037  0.9975  0.0633  1.0838
 4784SOL    HW125988   0.846   0.103  17.043  1.3472 -0.3171 -0.1448
 4784SOL    HW225989   0.960   0.136  16.971 -0.9411 -1.8684  0.7067
 4785SOL     OW25990   3.680   4.154   1.703 -0.0579  0.1099 -0.4790
 4785SOL    HW125991   3.716   4.162   1.792 -0.0592 -2.1163 -0.2857
 4785SOL    HW225992   3.745   4.196   1.647  0.5733 -1.2633 -0.7593
 4786SOL     OW25993   0.118   1.947   2.365 -0.3511  0.4983 -0.0902
 4786SOL    HW125994   0.063   2.025   2.356 -2.1784 -0.6575  1.0512
 4786SOL    HW225995   0.198   1.984   2.402 -0.9124  0.9475  0.6930
 4787SOL     OW25996   1.646   2.656  12.138  0.1091 -0.0054 -0.2311
 4787SOL    HW125997   1.653   2.740  12.093 -0.2855  0.7807  1.1479
 4787SOL    HW225998   1.551   2.647  12.138  0.0487  0.7304 -1.2005
 4788SOL     OW25999   2.855   1.966  16.894 -0.1723 -0.0385  0.4663
 4788SOL    HW126000   2.918   1.894  16.899  1.3134  1.3828  2.0976
 4788SOL    HW226001   2.867   2.002  16.982  1.0591  1.0845 -0.1566
 4789SOL     OW26002   3.912   0.997  14.658 -0.1933 -0.2164 -0.1068
 4789SOL    HW126003   3.920   1.067  14.592 -0.2827 -0.3914 -0.3031
 4789SOL    HW226004   3.969   0.931  14.617 -0.0115  1.0390 -1.8892
 4790SOL     OW26005   1.114   3.617   7.411 -0.2168 -0.2387  0.0287
 4790SOL    HW126006   1.099   3.655   7.324  0.6316  1.9600  0.8183
 4790SOL    HW226007   1.181   3.674   7.451  0.2116 -1.4740  1.0455
 4791SOL     OW26008   1.312   3.148   7.843 -0.7814 -0.2343 -0.5095
 4791SOL    HW126009   1.357   3.200   7.775  2.2050 -0.7574  1.0865
 4791SOL    HW226010   1.263   3.219   7.884  0.0511  0.6283 -0.9805
 4792SOL     OW26011   0.623   4.375   1.469  0.5553  0.2957  0.0270
 4792SOL    HW126012   0.632   4.464   1.503 -0.2581  0.7116 -0.8473
 4792SOL    HW226013   0.637   4.331   1.553  2.1372 -0.4870 -0.6351
 4793SOL     OW26014   0.793   0.413   5.268 -0.0336 -0.7190 -0.1033
 4793SOL    HW126015   0.826   0.397   5.356  3.3227  0.1756 -1.1739
 4793SOL    HW226016   0.755   0.327   5.249  2.1175 -1.3569 -1.5974
 4794SOL     OW26017   1.728   4.253   3.383  0.3284  0.3571 -0.5466
 4794SOL    HW126018   1.740   4.208   3.467  0.9756 -1.4334 -1.6140
 4794SOL    HW226019   1.653   4.310   3.401  1.1261  1.2595 -0.0808
 4795SOL     OW26020   0.265   0.864   3.991 -0.5062 -0.2608  0.3033
 4795SOL    HW126021   0.187   0.817   3.962 -0.5157 -1.1136  1.6753
 4795SOL    HW226022   0.286   0.924   3.920  1.2660 -1.5693 -0.2772
 4796SOL     OW26023   2.271   1.833   7.458  0.4510  0.0096 -0.3042
 4796SOL    HW126024   2.266   1.803   7.549  1.2525 -0.5784 -0.4521
 4796SOL    HW226025   2.354   1.877   7.477  0.2527 -0.1200  0.8678
 4797SOL     OW26026   3.758   1.276   5.184  0.5380 -0.1471 -0.0154
 4797SOL    HW126027   3.838   1.325   5.203  0.3223  0.4314 -0.5909
 4797SOL    HW226028   3.724   1.278   5.274  0.2668  1.4879 -0.1524
 4798SOL     OW26029   0.996   1.514   6.431 -0.5179  0.6252  0.5331
 4798SOL    HW126030   1.058   1.526   6.359 -3.8339 -1.8074 -2.6978
 4798SOL    HW226031   0.921   1.570   6.411  1.1149  2.4040 -0.6514
 4799SOL     OW26032   4.732   3.259   2.649 -0.2254  0.2960  0.7527
 4799SOL    HW126033   4.672   3.306   2.590 -0.7058  0.7799  1.6175
 4799SOL    HW226034   0.065   3.219   2.598  2.0265  1.1786  3.1363
 4800SOL     OW26035   0.743   2.472  11.165  0.2560  0.1777  0.3417
 4800SOL    HW126036   0.780   2.439  11.247 -0.3931  0.3057  0.6840
 4800SOL    HW226037   0.816   2.486  11.104  0.0602 -1.1065 -0.1823
 4801SOL     OW26038   0.093   1.343  16.993  0.4154  0.3861  0.5793
 4801SOL    HW126039   0.034   1.407  16.952  1.8064  2.0284  1.1615
 4801SOL    HW226040   0.061   1.257  16.966  0.4397  0.5783 -0.0562
 4802SOL     OW26041   4.408   0.945   0.149 -0.0672  0.0539  0.5097
 4802SOL    HW126042   4.453   0.860   0.153  1.8059  1.0514  0.8817
 4802SOL    HW226043   4.406   0.959   0.054  3.5722  0.2532  0.4534
 4803SOL     OW26044   1.670   0.535  12.288 -0.7670 -0.4940 -0.0809
 4803SOL    HW126045   1.645   0.562  12.200  1.4896  0.8478 -0.3005
 4803SOL    HW226046   1.656   0.616  12.337 -0.5551  1.0432 -2.5880
 4804SOL     OW26047   0.784   1.843   6.931  0.0481 -0.2567 -0.2069
 4804SOL    HW126048   0.827   1.820   6.849  0.3302  1.0974 -0.4355
 4804SOL    HW226049   0.771   1.755   6.966 -0.9276 -0.5741 -1.3598
 4805SOL     OW26050   0.418   4.331  16.560  0.0565 -0.1619  0.0861
 4805SOL    HW126051   0.493   4.381  16.530 -0.9403  0.5840 -1.1753
 4805SOL    HW226052   0.342   4.389  16.562 -0.1754 -0.4826  0.7042
 4806SOL     OW26053   3.943   0.294   4.698 -0.4436  0.0579 -0.5706
 4806SOL    HW126054   3.849   0.278   4.689 -0.8491  0.9006  2.3908
 4806SOL    HW226055   3.957   0.252   4.782 -1.3680  1.2744  0.2084
 4807SOL     OW26056   4.137   0.559   7.646 -0.5440 -0.5766 -0.2005
 4807SOL    HW126057   4.121   0.467   7.667 -4.6948  0.6767  2.1094
 4807SOL    HW226058   4.216   0.576   7.697 -0.8549  0.9326 -0.2334
 4808SOL     OW26059   0.871   0.808   9.274 -0.2415 -0.9738  0.3369
 4808SOL    HW126060   0.898   0.871   9.341 -2.0180  1.1150 -0.9207
 4808SOL    HW226061   0.871   0.733   9.334 -0.5279  0.5184  2.1865
 4809SOL     OW26062   1.624   3.973   0.538 -0.6606 -0.2616 -0.2122
 4809SOL    HW126063   1.633   3.879   0.526 -1.8338 -0.4486  0.4013
 4809SOL    HW226064   1.540   3.979   0.492 -0.4088 -1.6807 -0.8586
 4810SOL     OW26065   0.684   0.716  16.637  0.0421  0.0563  0.7229
 4810SOL    HW126066   0.663   0.624  16.653 -0.3981  0.0842  0.3212
 4810SOL    HW226067   0.730   0.715  16.554 -2.2008 -1.1327 -0.5089
 4811SOL     OW26068   1.028   2.403   2.626  0.6105 -0.2395  0.8414
 4811SOL    HW126069   1.057   2.334   2.685 -0.0725 -2.2554 -1.1756
 4811SOL    HW226070   0.939   2.372   2.607  1.0602  0.4450 -2.5040
 4812SOL     OW26071   1.422   2.739   2.498 -0.2754 -0.4197 -0.0321
 4812SOL    HW126072   1.364   2.665   2.478 -1.2963  0.1460  0.9215
 4812SOL    HW226073   1.485   2.731   2.426 -1.4763  0.9572 -1.2362
 4813SOL     OW26074   2.247   3.865   1.287  0.0616  0.2318  0.3166
 4813SOL    HW126075   2.183   3.917   1.336  0.0075  0.0831  0.4010
 4813SOL    HW226076   2.323   3.910   1.324  0.2503 -0.6680  1.0252
 4814SOL     OW26077   1.303   2.848   5.350 -0.0022  0.2432 -0.1857
 4814SOL    HW126078   1.302   2.826   5.257 -0.6162 -2.0822  0.3642
 4814SOL    HW226079   1.373   2.787   5.371  0.4475  0.2229 -1.7720
 4815SOL     OW26080   3.216   1.091   4.682 -0.2551  0.4211 -0.2312
 4815SOL    HW126081   3.258   1.168   4.643  1.4842 -1.0925 -1.3465
 4815SOL    HW226082   3.281   1.021   4.673  0.6239  1.3031 -0.7417
 4816SOL     OW26083   4.382   1.253  15.874  0.5637 -0.0004  0.0216
 4816SOL    HW126084   4.473   1.278  15.863  0.2503  1.4458  0.6271
 4816SOL    HW226085   4.357   1.234  15.784 -0.5194 -2.4622  0.8175
 4817SOL     OW26086   4.639   3.769   2.587  0.2743 -0.4958  0.0074
 4817SOL    HW126087   4.645   3.812   2.502 -0.9177  0.2666  0.3132
 4817SOL    HW226088   4.545   3.761   2.603  0.0757 -0.7594 -1.2497
 4818SOL     OW26089   4.522   3.004   8.947 -0.4223  0.0371 -0.2503
 4818SOL    HW126090   4.552   3.092   8.924  1.6367 -0.7589 -0.6167
 4818SOL    HW226091   4.599   2.958   8.979 -0.0718  0.6759 -0.1779
 4819SOL     OW26092   3.513   3.850   4.284 -0.2566  0.2717 -0.2370
 4819SOL    HW126093   3.476   3.792   4.351  2.1199 -0.5432  0.3550
 4819SOL    HW226094   3.605   3.828   4.297 -0.5259 -0.6475  0.1168
 4820SOL     OW26095   0.700   0.110  10.287 -0.2095 -0.3483 -0.6886
 4820SOL    HW126096   0.712   0.028  10.335  0.8520  0.0926 -0.2065
 4820SOL    HW226097   0.605   0.103  10.296 -0.1568 -0.8524 -0.5383
 4821SOL     OW26098   3.800   3.486   7.297  0.5027 -0.0917  0.0467
 4821SOL    HW126099   3.795   3.450   7.386  1.1312 -0.5589 -0.1094
 4821SOL    HW226100   3.711   3.515   7.276  0.4094  1.0400  1.9663
 4822SOL     OW26101   2.949   2.933  13.100 -1.0040 -0.0967  0.0117
 4822SOL    HW126102   2.880   2.987  13.061  1.4504  1.3744 -2.4045
 4822SOL    HW226103   2.924   2.841  13.104 -0.1203 -0.3339 -0.0066
 4823SOL     OW26104   0.629   0.831  14.813  0.0800 -0.3688  0.4744
 4823SOL    HW126105   0.620   0.889  14.889  1.4991  0.7728 -0.2219
 4823SOL    HW226106   0.653   0.746  14.849 -1.0083 -2.0787 -2.9416
 4824SOL     OW26107   4.355   2.847   3.455 -0.3302 -0.3892 -0.3038
 4824SOL    HW126108   4.335   2.917   3.393  1.3980 -2.7006 -3.4780
 4824SOL    HW226109   4.318   2.771   3.410 -1.3420 -0.0743  0.0083
 4825SOL     OW26110   3.501   1.696   6.843 -0.5442 -0.1831  0.0050
 4825SOL    HW126111   3.497   1.670   6.751 -0.5147 -1.5961  0.4054
 4825SOL    HW226112   3.586   1.741   6.848 -0.0755 -0.8761 -1.7163
 4826SOL     OW26113   4.547   0.186   7.230  0.6802 -0.1392  0.3168
 4826SOL    HW126114   4.538   0.255   7.295  0.5291  1.0356 -0.9640
 4826SOL    HW226115   4.618   0.216   7.173  0.5941 -1.6218 -0.5708
 4827SOL     OW26116   2.006   1.927   7.654  0.0030  0.1804  0.1282
 4827SOL    HW126117   2.066   1.915   7.579  2.1478  0.6383  1.7736
 4827SOL    HW226118   2.049   1.863   7.710 -0.5181 -0.8867 -0.6944
 4828SOL     OW26119   1.951   3.632   6.052  0.1456  0.5896  0.1617
 4828SOL    HW126120   1.869   3.681   6.061  0.8284  1.9035 -0.8149
 4828SOL    HW226121   1.932   3.559   6.111  0.7120  0.2519 -0.0783
 4829SOL     OW26122   1.840   0.964   8.145 -0.0911 -0.7168  0.0125
 4829SOL    HW126123   1.931   0.977   8.118  0.2113 -1.7127  0.5433
 4829SOL    HW226124   1.821   0.882   8.100 -2.4086 -0.5236  0.6438
 4830SOL     OW26125   4.103   0.410   5.012 -0.0450  0.0459 -0.1371
 4830SOL    HW126126   4.022   0.406   4.962  0.2488  1.5394 -0.7303
 4830SOL    HW226127   4.160   0.459   4.952  1.8234  0.1711  1.7210
 4831SOL     OW26128   1.594   3.871   5.606 -0.5285  0.0639  0.0427
 4831SOL    HW126129   1.509   3.854   5.566 -0.9088 -0.5208  1.1263
 4831SOL    HW226130   1.648   3.904   5.533 -1.2920 -2.0932 -1.4859
 4832SOL     OW26131   1.488   2.063   2.151 -1.2412  0.1357  0.9022
 4832SOL    HW126132   1.536   1.994   2.105 -0.5726 -0.2030  2.1076
 4832SOL    HW226133   1.561   2.124   2.138 -0.0345 -1.4447  0.1768
 4833SOL     OW26134   2.832   0.040   9.018  1.0622  0.5190 -0.4753
 4833SOL    HW126135   2.741   0.012   9.007  1.3422 -1.8697  3.1181
 4833SOL    HW226136   2.842   0.087   8.935  0.5975  0.5783 -0.4991
 4834SOL     OW26137   1.614   1.854   5.574 -0.0396 -0.7766 -0.0824
 4834SOL    HW126138   1.539   1.904   5.605  0.2360 -0.1214 -0.4791
 4834SOL    HW226139   1.656   1.917   5.516 -0.3669 -1.9971 -1.6422
 4835SOL     OW26140   4.374   2.693   6.052 -0.2565  0.0684  0.2609
 4835SOL    HW126141   4.461   2.654   6.060 -0.8174 -1.5085 -1.3621
 4835SOL    HW226142   4.351   2.720   6.141  0.0678  0.8705  0.1008
 4836SOL     OW26143   3.207   1.161   3.501 -1.0214 -0.0457 -0.3600
 4836SOL    HW126144   3.218   1.110   3.582 -1.9664  1.7305  0.8940
 4836SOL    HW226145   3.118   1.135   3.482 -1.0445 -0.3039  0.1047
 4837SOL     OW26146   1.040   1.210   3.570 -0.8829  0.0854  0.1379
 4837SOL    HW126147   0.993   1.216   3.653 -0.1328 -3.7614  0.8490
 4837SOL    HW226148   1.130   1.206   3.603 -0.9872 -0.5597  0.3370
 4838SOL     OW26149   1.756   3.778  12.046 -0.8274  0.0260  0.3111
 4838SOL    HW126150   1.829   3.757  11.987 -0.2099 -0.3137  1.2045
 4838SOL    HW226151   1.682   3.778  11.985 -0.6364 -0.5597  0.0681
 4839SOL     OW26152   3.318   0.937   7.319 -0.2815  0.1495 -0.6173
 4839SOL    HW126153   3.325   1.018   7.370  1.9620 -0.1579 -0.4579
 4839SOL    HW226154   3.237   0.960   7.274 -0.0039  1.0582 -0.6422
 4840SOL     OW26155   0.596   3.463   6.330  0.2466  0.6300 -0.1320
 4840SOL    HW126156   0.519   3.470   6.386 -0.2611 -1.6598 -0.5514
 4840SOL    HW226157   0.614   3.556   6.315  2.8474  0.2520  0.5452
 4841SOL     OW26158   3.468   0.398  11.404  0.2011 -0.0877 -0.0024
 4841SOL    HW126159   3.541   0.344  11.375  0.7534  0.7311 -0.1490
 4841SOL    HW226160   3.394   0.379  11.347 -0.0999  1.6642 -0.2049
 4842SOL     OW26161   1.822   2.470   9.639  0.0099 -0.0484  0.2725
 4842SOL    HW126162   1.807   2.514   9.556  1.2830 -1.0154 -0.4682
 4842SOL    HW226163   1.792   2.385   9.606 -1.7288  0.0602  1.5588
 4843SOL     OW26164   0.408   4.558  14.397  0.2946 -0.3864  0.3120
 4843SOL    HW126165   0.465   4.562  14.319  1.7640 -0.4851  1.3861
 4843SOL    HW226166   0.404   4.651  14.420 -0.2977 -0.4383  0.4053
 4844SOL     OW26167   0.985   3.786   5.224 -0.0989 -0.5145 -0.2869
 4844SOL    HW126168   0.912   3.755   5.278  1.7821 -0.3864  2.3203
 4844SOL    HW226169   1.017   3.850   5.287 -0.7493 -0.0928 -0.3829
 4845SOL     OW26170   1.371   0.602   5.512 -0.4731  0.0328 -0.9713
 4845SOL    HW126171   1.305   0.661   5.476 -0.2091  0.9094 -0.0177
 4845SOL    HW226172   1.452   0.623   5.465 -0.3328  0.7005 -0.4264
 4846SOL     OW26173   2.111   1.003   8.566  0.8409 -0.1907  0.1440
 4846SOL    HW126174   2.110   1.050   8.650  0.5896  0.2129 -0.0887
 4846SOL    HW226175   2.017   1.003   8.548  0.8364 -1.3935  0.1335
 4847SOL     OW26176   1.388   2.380   6.440 -0.4712 -0.2812  0.4989
 4847SOL    HW126177   1.441   2.405   6.364 -0.1031  0.1439  0.8934
 4847SOL    HW226178   1.402   2.455   6.497  2.3064  1.3377 -2.2827
 4848SOL     OW26179   0.268   0.829  10.167 -0.5970 -0.0460 -0.1700
 4848SOL    HW126180   0.333   0.840  10.098  0.5717 -0.1980  0.9021
 4848SOL    HW226181   0.267   0.733  10.158  7.1751  0.0076 -1.7575
 4849SOL     OW26182   0.766   0.954   3.625 -0.5013  0.0292 -0.4267
 4849SOL    HW126183   0.748   0.866   3.592 -2.3182  0.8284 -1.5589
 4849SOL    HW226184   0.787   0.939   3.718 -2.2768 -0.7131 -0.1400
 4850SOL     OW26185   1.689   2.517   5.485 -0.4430  0.5369 -0.2982
 4850SOL    HW126186   1.611   2.474   5.519  0.7228  0.8607  2.7868
 4850SOL    HW226187   1.655   2.519   5.395 -2.2366  0.0339  0.3725
 4851SOL     OW26188   1.332   1.209  13.864  0.0502 -0.2602 -0.4862
 4851SOL    HW126189   1.332   1.292  13.816  0.4363 -0.2873 -0.5303
 4851SOL    HW226190   1.273   1.239  13.933  3.3437  0.9972  1.7962
 4852SOL     OW26191   4.721   3.141   7.912 -0.1655  0.6891 -0.6587
 4852SOL    HW126192   4.734   3.160   7.819 -0.1658  1.7070 -0.4572
 4852SOL    HW226193   4.629   3.166   7.913 -1.0253 -2.5102 -0.3967
 4853SOL     OW26194   1.652   0.388   8.789 -0.0778  0.2245 -0.6537
 4853SOL    HW126195   1.570   0.359   8.748 -1.7183 -1.3283  3.7935
 4853SOL    HW226196   1.621   0.440   8.863 -0.6077 -1.4210  0.2958
 4854SOL     OW26197   1.430   0.396  15.655 -0.0426  0.5518  0.3607
 4854SOL    HW126198   1.474   0.374  15.573  1.1892  0.0727  1.1466
 4854SOL    HW226199   1.393   0.481  15.633 -1.2144  0.0073  0.2208
 4855SOL     OW26200   3.884   3.490  15.949 -0.5308  0.4188  0.0771
 4855SOL    HW126201   3.913   3.440  16.025 -1.0564  1.6833  1.1101
 4855SOL    HW226202   3.851   3.421  15.892 -0.0127 -0.1168  0.4197
 4856SOL     OW26203   0.835   1.909   9.480 -0.0210 -0.2502 -0.0738
 4856SOL    HW126204   0.843   2.004   9.489 -1.7384 -0.2784  1.7902
 4856SOL    HW226205   0.816   1.886   9.571 -0.0808  0.5660  0.1279
 4857SOL     OW26206   3.976   1.971   5.272 -0.1878 -0.1071  0.2045
 4857SOL    HW126207   3.935   2.051   5.302  2.2041  1.5726 -0.9957
 4857SOL    HW226208   4.042   2.001   5.209 -1.0843 -0.1765 -0.7714
 4858SOL     OW26209   0.022   1.274   6.965  0.3398 -0.3522 -0.1094
 4858SOL    HW126210   4.698   1.342   6.937  0.2596  0.5326  2.2436
 4858SOL    HW226211   0.107   1.320   6.962 -0.6434  1.5987  2.5713
 4859SOL     OW26212   2.258   1.750  13.990  0.0030  0.7538 -0.6034
 4859SOL    HW126213   2.290   1.674  13.941  3.8962  2.1347 -0.2061
 4859SOL    HW226214   2.336   1.753  14.046 -0.5164 -0.0962  0.1686
 4860SOL     OW26215   4.093   1.336  15.284  0.8664  0.3783 -0.1486
 4860SOL    HW126216   4.012   1.336  15.233  0.5391  0.1873  0.3634
 4860SOL    HW226217   4.082   1.418  15.333  0.9893  0.6487 -0.5751
 4861SOL     OW26218   1.292   3.209  17.132  0.2296  0.2843  0.1871
 4861SOL    HW126219   1.214   3.265  17.135 -0.0317  0.0368 -2.6184
 4861SOL    HW226220   1.281   3.168  17.046 -0.3006  1.6202 -0.3855
 4862SOL     OW26221   3.101   4.183  17.111 -0.5526  0.5754  0.3942
 4862SOL    HW126222   3.181   4.225  17.080 -1.2580  1.5846 -0.0397
 4862SOL    HW226223   3.044   4.195  17.035  0.0527  0.9343  0.0052
 4863SOL     OW26224   0.882   0.055   4.583 -0.0803 -0.0800 -0.3969
 4863SOL    HW126225   0.826   0.014   4.649 -0.8526 -0.8662 -1.5422
 4863SOL    HW226226   0.816   0.106   4.536 -1.8042 -2.0340 -0.0681
 4864SOL     OW26227   4.461   0.254   1.217  0.4968 -0.3983  0.3613
 4864SOL    HW126228   4.374   0.242   1.254  0.0022  1.0372 -0.3400
 4864SOL    HW226229   4.504   0.297   1.291 -1.6005  1.2431  0.6326
 4865SOL     OW26230   0.377   1.844  15.086 -0.0942  0.5814 -0.3232
 4865SOL    HW126231   0.419   1.879  15.007  0.9870 -0.1040 -0.0492
 4865SOL    HW226232   0.403   1.911  15.150 -0.3740 -0.4979  0.9105
 4866SOL     OW26233   1.310   3.439  14.571  0.4584  0.1424  0.3156
 4866SOL    HW126234   1.366   3.361  14.575  0.9247  0.5477  1.6786
 4866SOL    HW226235   1.294   3.440  14.665  3.1559  1.2536  0.7644
 4867SOL     OW26236   4.492   3.806  16.200  0.1277  0.3784  0.6763
 4867SOL    HW126237   4.567   3.845  16.155 -0.9286  0.1176 -1.3546
 4867SOL    HW226238   4.423   3.873  16.199  0.6687  0.9081 -1.8263
 4868SOL     OW26239   2.570   2.323   2.004  0.0829  0.6487 -0.5216
 4868SOL    HW126240   2.651   2.280   1.976  0.0918 -0.3714  1.0884
 4868SOL    HW226241   2.542   2.268   2.077 -1.0346  0.6076 -0.9862
 4869SOL     OW26242   3.246   1.441  17.162 -0.2602 -0.1506  0.0161
 4869SOL    HW126243   3.159   1.459  17.197  0.5178  3.1391  0.2442
 4869SOL    HW226244   3.266   1.350  17.184  0.2608 -0.3914 -1.4604
 4870SOL     OW26245   3.777   3.832   4.306 -0.3449  0.6215  0.8793
 4870SOL    HW126246   3.822   3.909   4.273 -0.5414  0.0544 -0.6983
 4870SOL    HW226247   3.816   3.770   4.244 -0.0860  0.9964  0.6698
 4871SOL     OW26248   3.390   0.324   8.586  0.5210  0.7077  0.4805
 4871SOL    HW126249   3.365   0.231   8.584  0.1852  0.8267 -0.9964
 4871SOL    HW226250   3.399   0.336   8.681 -0.5231 -0.2920  0.7155
 4872SOL     OW26251   0.611   0.917   4.321  0.1239  0.0624 -0.5825
 4872SOL    HW126252   0.628   1.003   4.283 -2.1226  1.4343  1.5251
 4872SOL    HW226253   0.571   0.874   4.245  2.2991 -0.5409 -1.3764
 4873SOL     OW26254   2.065   4.449   8.932  0.8540 -0.0379  0.3608
 4873SOL    HW126255   2.085   4.363   8.969 -2.3367 -0.8463  0.1584
 4873SOL    HW226256   1.979   4.435   8.894  1.3695 -2.0359 -0.0595
 4874SOL     OW26257   4.587   3.752  13.034 -0.0399  0.1623 -0.3915
 4874SOL    HW126258   4.669   3.790  13.000  0.4126  0.2132  0.7454
 4874SOL    HW226259   4.616   3.710  13.115  2.4642 -0.1737 -1.4606
 4875SOL     OW26260   1.590   4.265   4.587 -0.0814  0.1351  0.4379
 4875SOL    HW126261   1.495   4.275   4.577  0.1528  0.8493 -1.2175
 4875SOL    HW226262   1.613   4.326   4.657  1.5932 -0.1703  0.1408
 4876SOL     OW26263   1.289   3.706  16.750 -0.0364 -0.2781  0.1109
 4876SOL    HW126264   1.352   3.693  16.680 -1.8057  1.4010 -1.8017
 4876SOL    HW226265   1.254   3.619  16.768  0.4332 -0.3548  0.6644
 4877SOL     OW26266   0.881   2.783   7.052 -0.1971  0.3996 -0.6696
 4877SOL    HW126267   0.856   2.804   7.142 -0.1356  0.0452 -0.5668
 4877SOL    HW226268   0.893   2.871   7.018 -1.3559  0.2277 -1.5353
 4878SOL     OW26269   3.676   4.456   2.100  0.4436 -0.1447  0.7125
 4878SOL    HW126270   3.719   4.385   2.053  0.7213  0.5903 -0.1544
 4878SOL    HW226271   3.591   4.463   2.057  0.5848  0.5923  0.5401
 4879SOL     OW26272   3.115   3.019  13.285  0.3335  0.1690 -0.1392
 4879SOL    HW126273   3.185   3.075  13.251 -0.1875  0.5710 -0.5499
 4879SOL    HW226274   3.057   3.000  13.212  0.0156  0.2653  0.0878
 4880SOL     OW26275   1.707   3.956   1.832  0.1447 -0.3963 -0.1118
 4880SOL    HW126276   1.701   3.926   1.742  1.1023 -0.5694 -0.1125
 4880SOL    HW226277   1.680   3.875   1.875 -0.6322 -0.1098 -0.0510
 4881SOL     OW26278   3.498   3.133   1.909  0.5299 -0.6359  0.0979
 4881SOL    HW126279   3.573   3.156   1.965  0.6810  2.2296 -1.2985
 4881SOL    HW226280   3.525   3.047   1.878 -2.3745 -0.9256 -1.5352
 4882SOL     OW26281   1.134   0.175  13.059 -0.1910 -0.3260  0.0891
 4882SOL    HW126282   1.192   0.206  13.129 -1.2814  0.1464  0.7841
 4882SOL    HW226283   1.102   0.090  13.088 -0.9719 -0.6113 -1.6058
 4883SOL     OW26284   1.026   1.936   9.063 -0.0402 -0.6329 -0.2813
 4883SOL    HW126285   1.055   1.847   9.043  1.7078  0.2082 -1.5057
 4883SOL    HW226286   1.111   1.979   9.065  0.2470 -1.1695 -1.0275
 4884SOL     OW26287   1.217   2.043   1.670 -0.7540 -0.3606  0.0940
 4884SOL    HW126288   1.268   2.113   1.708 -1.0960 -0.5566  0.9126
 4884SOL    HW226289   1.143   2.089   1.629 -0.2403  0.4884  0.1409
 4885SOL     OW26290   3.977   4.073   7.063  0.2722 -0.1125 -0.3890
 4885SOL    HW126291   4.023   4.016   7.001  1.7107  3.8554 -2.9187
 4885SOL    HW226292   3.887   4.045   7.044 -0.0311 -0.2731  1.2757
 4886SOL     OW26293   1.389   0.370   2.967  0.5258  0.2088  0.1473
 4886SOL    HW126294   1.423   0.404   3.049  1.3374  3.3039 -1.4832
 4886SOL    HW226295   1.421   0.444   2.915  0.5936  0.2601  0.2630
 4887SOL     OW26296   2.978   3.692   3.530 -0.2405 -0.6307 -0.3011
 4887SOL    HW126297   2.975   3.787   3.523  0.2775 -0.6042 -0.1913
 4887SOL    HW226298   3.058   3.673   3.480  0.5026 -0.7973  0.9363
 4888SOL     OW26299   4.011   1.059   2.124 -0.4026  1.3996  0.1837
 4888SOL    HW126300   4.061   1.115   2.064 -2.3720  2.9916  0.0388
 4888SOL    HW226301   4.081   1.024   2.179  0.0983  0.2279 -1.2158
 4889SOL     OW26302   4.581   0.819   0.406 -0.1458 -0.2244 -0.3965
 4889SOL    HW126303   4.618   0.904   0.383 -1.2755  0.4854  0.3996
 4889SOL    HW226304   4.665   0.773   0.417  0.4718  0.6463 -1.3962
 4890SOL     OW26305   2.609   2.546   0.672 -0.5200 -0.0218 -0.2095
 4890SOL    HW126306   2.592   2.570   0.763  0.8120 -0.4490  0.1601
 4890SOL    HW226307   2.625   2.453   0.682  0.6390  0.2800  0.7805
 4891SOL     OW26308   2.686   3.600   4.072  0.4790  0.4115  0.1392
 4891SOL    HW126309   2.630   3.584   3.996  0.6765  0.9962 -0.1307
 4891SOL    HW226310   2.775   3.589   4.038 -0.0289  0.3463 -1.1718
 4892SOL     OW26311   1.955   4.437   3.312  0.3815  0.1069 -0.4827
 4892SOL    HW126312   1.873   4.399   3.342  0.3947 -0.9614 -1.7919
 4892SOL    HW226313   1.938   4.530   3.295  0.3843  0.2363  0.2280
 4893SOL     OW26314   4.568   0.470   3.026  0.2439  0.2576  0.0304
 4893SOL    HW126315   4.626   0.398   3.052 -1.2447 -1.1744 -0.6451
 4893SOL    HW226316   4.631   0.521   2.974  2.1979 -2.4424 -0.2785
 4894SOL     OW26317   1.419   2.163   1.842 -0.2479  0.0366 -0.4703
 4894SOL    HW126318   1.491   2.107   1.813 -0.6642 -0.6075 -0.2549
 4894SOL    HW226319   1.439   2.159   1.936  0.1339 -0.2895 -0.5637
 4895SOL     OW26320   2.533   3.358   7.763  0.2772 -0.1951 -0.1968
 4895SOL    HW126321   2.527   3.448   7.729 -0.7042  0.2291  1.0784
 4895SOL    HW226322   2.440   3.335   7.766  0.4685 -1.2307 -2.4563
 4896SOL     OW26323   1.129   0.132   2.567  0.1121 -0.0455 -0.1879
 4896SOL    HW126324   1.197   0.119   2.634 -0.8982 -2.3871  0.3679
 4896SOL    HW226325   1.171   0.181   2.497  0.8536 -0.0992  0.2200
 4897SOL     OW26326   4.287   2.565   1.631  0.0900 -0.1466 -0.2527
 4897SOL    HW126327   4.207   2.587   1.679 -1.6593 -2.7306 -1.9796
 4897SOL    HW226328   4.272   2.610   1.548  1.1538 -1.7761 -1.3502
 4898SOL     OW26329   2.489   2.800   4.572 -0.0474  0.2466  0.2534
 4898SOL    HW126330   2.395   2.813   4.579 -0.3525 -2.1579  0.5015
 4898SOL    HW226331   2.505   2.725   4.630 -1.0021  0.1431  0.3731
 4899SOL     OW26332   0.807   0.930   1.142 -0.0695 -0.9942  0.1303
 4899SOL    HW126333   0.877   0.982   1.182  0.3928 -0.8417 -0.8537
 4899SOL    HW226334   0.841   0.840   1.141  1.3457 -0.4637 -0.1562
 4900SOL     OW26335   0.839   2.256   2.491  0.1661 -0.2786 -1.1277
 4900SOL    HW126336   0.887   2.254   2.408  0.7821  0.9087 -0.7988
 4900SOL    HW226337   0.864   2.169   2.522  1.2023  0.6790  0.7298
 4901SOL     OW26338   0.067   2.987  16.827  0.0483  0.7768  0.4759
 4901SOL    HW126339   0.091   3.069  16.786 -2.8370  1.0555 -0.6841
 4901SOL    HW226340   0.110   2.985  16.913 -1.4175 -0.0499  1.2030
 4902SOL     OW26341   4.621   3.123   5.713 -0.2718 -0.1533 -0.2041
 4902SOL    HW126342   4.589   3.054   5.655  3.3497 -1.5907 -0.4535
 4902SOL    HW226343   4.715   3.120   5.697  0.1656  1.8062  2.0451
 4903SOL     OW26344   4.274   0.674   2.549 -1.1251 -0.5310 -0.5667
 4903SOL    HW126345   4.348   0.615   2.534 -0.0587  0.1630  1.8632
 4903SOL    HW226346   4.193   0.623   2.551 -0.9062 -0.8429  0.5103
 4904SOL     OW26347   3.203   4.135  16.716  0.0069  0.2310 -0.3264
 4904SOL    HW126348   3.131   4.183  16.756 -1.3202 -2.3317  0.3402
 4904SOL    HW226349   3.208   4.174  16.628  1.1041  2.5039  0.7610
 4905SOL     OW26350   0.899   4.469   1.571  0.2140  0.6265  0.1561
 4905SOL    HW126351   0.968   4.476   1.637 -0.2821  0.0541  0.7185
 4905SOL    HW226352   0.824   4.466   1.630 -0.7056 -0.6626 -1.0737
 4906SOL     OW26353   3.938   2.677   2.445 -0.2179 -0.0081 -0.5753
 4906SOL    HW126354   3.912   2.587   2.465  1.4455 -0.8419 -2.1085
 4906SOL    HW226355   3.951   2.714   2.532  1.1657 -2.3044  0.1981
 4907SOL     OW26356   2.968   0.543   4.756  0.1618 -0.1353  0.2733
 4907SOL    HW126357   3.059   0.526   4.730 -0.1003 -0.7066 -0.2776
 4907SOL    HW226358   2.926   0.478   4.700  1.0598  1.9979 -2.8472
 4908SOL     OW26359   2.283   0.524   5.322 -0.2306  0.6223 -0.2274
 4908SOL    HW126360   2.330   0.443   5.341  1.2276  1.5039 -0.0474
 4908SOL    HW226361   2.283   0.534   5.227  1.4009 -0.1358 -0.3090
 4909SOL     OW26362   3.081   2.735   1.264 -0.0178  0.0973  0.5983
 4909SOL    HW126363   3.010   2.764   1.321 -0.3798  1.0414 -0.3269
 4909SOL    HW226364   3.107   2.820   1.228 -1.3788  0.6966  1.0258
 4910SOL     OW26365   3.236   4.302   6.777  0.1291  0.1860 -0.1625
 4910SOL    HW126366   3.297   4.375   6.765 -0.0567  0.2553 -0.6943
 4910SOL    HW226367   3.188   4.307   6.695  1.7563 -0.4146 -1.1565
 4911SOL     OW26368   1.932   4.567   2.239 -0.4809 -0.4257 -0.2844
 4911SOL    HW126369   1.964   4.610   2.160  2.2934  0.6462  1.4290
 4911SOL    HW226370   2.009   4.547   2.293 -0.1060 -0.3954 -0.8085
 4912SOL     OW26371   2.068   0.702  15.279 -0.0081 -0.2959 -0.4887
 4912SOL    HW126372   2.081   0.784  15.326  0.3435 -0.3701 -0.4615
 4912SOL    HW226373   2.144   0.651  15.306  0.1490  1.6503  2.7610
 4913SOL     OW26374   2.681   4.189   9.160 -0.3607 -0.5653 -0.1427
 4913SOL    HW126375   2.599   4.162   9.117  0.3888  1.4159 -2.8148
 4913SOL    HW226376   2.683   4.285   9.163 -1.7565 -0.5067 -0.9956
 4914SOL     OW26377   3.631   4.210   4.368 -0.0046  0.0860  0.3962
 4914SOL    HW126378   3.554   4.162   4.338  1.4744 -0.2802 -2.7645
 4914SOL    HW226379   3.693   4.207   4.295  1.4132  3.1153  1.4921
 4915SOL     OW26380   1.606   1.376   5.069 -0.5472  0.4287  0.1008
 4915SOL    HW126381   1.538   1.444   5.067 -1.9738 -1.0068 -1.0488
 4915SOL    HW226382   1.675   1.419   5.119 -0.4323 -0.0489  0.3517
 4916SOL     OW26383   1.084   1.313   0.310  0.4536 -0.5204 -0.7067
 4916SOL    HW126384   1.069   1.318   0.216 -0.6516 -2.1494 -0.6290
 4916SOL    HW226385   1.047   1.224   0.315 -0.3557 -0.0993  0.8458
 4917SOL     OW26386   0.484   3.453   6.822  0.3616 -0.3656 -0.8003
 4917SOL    HW126387   0.580   3.460   6.820  0.3706 -0.2667 -0.1034
 4917SOL    HW226388   0.455   3.537   6.788 -0.2130  1.3018  3.8182
 4918SOL     OW26389   0.777   3.922   7.576  0.2767 -0.6525  0.0258
 4918SOL    HW126390   0.792   3.848   7.517 -0.8485 -2.0692  1.5043
 4918SOL    HW226391   0.682   3.927   7.568  0.3328  0.5029  0.0092
 4919SOL     OW26392   2.158   4.144   8.795 -0.1522  0.0844  0.0634
 4919SOL    HW126393   2.176   4.172   8.705 -1.4556  1.0037  0.0915
 4919SOL    HW226394   2.121   4.055   8.790  0.0647 -0.1093  2.0289
 4920SOL     OW26395   3.562   0.011   4.647  0.6999 -0.0180 -0.5996
 4920SOL    HW126396   3.585   4.660   4.678  0.6072  0.5611  1.1315
 4920SOL    HW226397   3.535   0.005   4.556  0.4880 -1.0192 -0.4788
 4921SOL     OW26398   0.754   1.825   4.849 -0.2436  0.5849  0.7006
 4921SOL    HW126399   0.765   1.782   4.765  0.9568  0.7901  0.7512
 4921SOL    HW226400   0.675   1.791   4.891 -0.0998  0.0152  0.5188
 4922SOL     OW26401   4.645   3.817  10.815  0.8462 -0.1388  0.2219
 4922SOL    HW126402   4.586   3.869  10.869 -0.9457 -2.4726  0.5330
 4922SOL    HW226403   4.704   3.783  10.882  0.8672  0.6642  0.6082
 4923SOL     OW26404   1.756   2.626  17.113 -0.3200  0.0517  0.2642
 4923SOL    HW126405   1.788   2.594  17.028  0.3148  0.3188  0.4023
 4923SOL    HW226406   1.661   2.622  17.113 -0.3710  1.3031 -1.2282
 4924SOL     OW26407   3.163   4.712   1.225 -0.3369  0.0493 -0.0278
 4924SOL    HW126408   3.216   4.638   1.252  1.2750  1.4100  0.5323
 4924SOL    HW226409   3.079   4.695   1.268 -0.4538  3.5990  1.1809
 4925SOL     OW26410   3.427   3.407  12.193  0.1670  0.2422 -0.6886
 4925SOL    HW126411   3.381   3.435  12.272  1.4627 -0.9406  0.4897
 4925SOL    HW226412   3.425   3.311  12.192  1.3122  0.2147 -0.0495
 4926SOL     OW26413   3.595   3.529   4.199  0.1438  1.1253  0.4509
 4926SOL    HW126414   3.568   3.595   4.262 -0.3286 -1.2303  2.7222
 4926SOL    HW226415   3.678   3.494   4.232 -0.1848  0.5096  0.6270
 4927SOL     OW26416   0.795   4.526   5.631  0.5360  0.8386  0.0164
 4927SOL    HW126417   0.781   4.574   5.549  1.6874  0.6738 -0.2808
 4927SOL    HW226418   0.714   4.476   5.638  1.2587 -0.4291 -0.5535
 4928SOL     OW26419   3.628   2.231  17.658 -0.0404 -0.5091 -0.3970
 4928SOL    HW126420   3.675   2.291  17.716  0.7433 -1.9464  0.4716
 4928SOL    HW226421   3.562   2.286  17.618  0.2797 -0.1465 -0.4284
 4929SOL     OW26422   4.318   0.022   9.377  0.4746  0.0475  0.3126
 4929SOL    HW126423   4.406   4.725   9.387  0.6894  0.1249 -1.3674
 4929SOL    HW226424   4.335   0.116   9.371  2.6649 -0.2530  2.0440
 4930SOL     OW26425   1.536   1.662   2.515  0.7922 -0.4236 -0.0148
 4930SOL    HW126426   1.632   1.658   2.514  0.7907 -0.4455 -0.0458
 4930SOL    HW226427   1.524   1.708   2.432 -0.6702 -0.7465  0.0190
 4931SOL     OW26428   1.599   1.699   6.591  0.5418 -0.0087 -0.6894
 4931SOL    HW126429   1.575   1.792   6.596  1.6101  0.0777  2.7650
 4931SOL    HW226430   1.578   1.669   6.680 -2.7878 -0.5888 -1.6397
 4932SOL     OW26431   0.108   0.828   5.127  0.1067  0.0948  0.2804
 4932SOL    HW126432   0.172   0.839   5.057  0.7668 -1.6051  0.6138
 4932SOL    HW226433   0.024   0.815   5.083 -0.1342  0.0137  0.7618
 4933SOL     OW26434   2.602   3.043   7.745  0.2860  0.5521 -0.7017
 4933SOL    HW126435   2.559   3.107   7.688 -0.4896  1.4540  0.9135
 4933SOL    HW226436   2.589   2.961   7.696 -2.1431  0.7090 -0.3156
 4934SOL     OW26437   0.208   0.169   1.944  0.1899  0.4032  0.0738
 4934SOL    HW126438   0.254   0.242   1.986  1.1819  1.3514 -2.6603
 4934SOL    HW226439   0.154   0.207   1.875 -0.6016 -0.2395  0.3418
 4935SOL     OW26440   3.169   4.294  14.629 -0.2965 -0.0294 -0.0595
 4935SOL    HW126441   3.251   4.259  14.665 -0.0735 -0.4340 -0.9787
 4935SOL    HW226442   3.190   4.388  14.632  2.8834 -0.7006 -0.8127
 4936SOL     OW26443   2.774   3.452   6.448  0.3872 -0.2516 -0.1930
 4936SOL    HW126444   2.782   3.403   6.366 -1.7641  1.4507 -1.4266
 4936SOL    HW226445   2.782   3.379   6.509 -2.4099 -0.1201  0.3479
 4937SOL     OW26446   3.056   0.301   7.295 -0.7097 -0.6743 -0.1150
 4937SOL    HW126447   2.973   0.336   7.329 -0.6216  1.3056 -1.9186
 4937SOL    HW226448   3.084   0.263   7.379 -0.2254  2.0068  0.9316
 4938SOL     OW26449   3.801   0.319   3.217 -0.4160  0.3806  0.1586
 4938SOL    HW126450   3.799   0.413   3.198  1.5782  0.2307 -0.8374
 4938SOL    HW226451   3.791   0.317   3.312 -0.1972  0.0620  0.1772
 4939SOL     OW26452   0.823   1.740   4.152  0.5249  0.2595  0.3219
 4939SOL    HW126453   0.833   1.701   4.238 -0.9752 -3.4522 -1.1769
 4939SOL    HW226454   0.872   1.822   4.156  0.5822  0.2353  0.0995
 4940SOL     OW26455   3.498   1.345  10.903  0.7483 -0.0852 -0.5383
 4940SOL    HW126456   3.559   1.409  10.864 -0.4335  0.3163 -1.7095
 4940SOL    HW226457   3.552   1.324  10.980  1.3829 -2.1626 -1.5455
 4941SOL     OW26458   1.923   4.647   4.565  0.8006  0.8919  0.0829
 4941SOL    HW126459   1.969   4.709   4.508 -1.6810  2.7419  0.0916
 4941SOL    HW226460   1.931   4.701   4.644  0.5778  0.5644  0.3274
 4942SOL     OW26461   4.046   0.044   4.289 -0.0411 -0.1389  0.0709
 4942SOL    HW126462   4.010   4.724   4.357 -0.5836 -1.1106 -1.0329
 4942SOL    HW226463   4.075   4.710   4.231 -0.5022  0.4371 -0.8545
 4943SOL     OW26464   3.413   3.671   7.131 -0.3931  0.3943  0.4680
 4943SOL    HW126465   3.473   3.744   7.122  1.5867 -1.0814  1.8503
 4943SOL    HW226466   3.369   3.673   7.046  0.9306  1.2105 -0.1869
 4944SOL     OW26467   0.266   4.263   5.624 -0.5277  0.1109 -0.1591
 4944SOL    HW126468   0.222   4.319   5.688 -1.8579 -2.8958  1.5695
 4944SOL    HW226469   0.327   4.209   5.674 -0.3776  0.4979  0.0736
 4945SOL     OW26470   0.394   4.290  17.653  0.4346  0.4561 -0.6252
 4945SOL    HW126471   0.471   4.329  17.612  0.2825  0.4576 -0.9028
 4945SOL    HW226472   0.441   4.223  17.702 -1.4463  0.1681  0.7880
 4946SOL     OW26473   1.017   4.614   8.340 -0.2757  0.0389  0.4046
 4946SOL    HW126474   1.081   4.659   8.395  0.3062  0.1072 -0.3186
 4946SOL    HW226475   1.000   4.680   8.273 -0.1564 -1.3280 -0.9592
 4947SOL     OW26476   3.787   0.549  13.302  0.0869 -0.0773 -0.0676
 4947SOL    HW126477   3.705   0.503  13.320 -0.4858  1.8672  2.3270
 4947SOL    HW226478   3.818   0.563  13.392  1.4341  0.2509 -0.5895
 4948SOL     OW26479   2.116   1.692  10.022 -0.0747  0.4738 -0.0732
 4948SOL    HW126480   2.075   1.648  10.096 -0.5238  2.0346  0.5934
 4948SOL    HW226481   2.087   1.782  10.038  2.0354  1.8146 -3.8369
 4949SOL     OW26482   1.991   1.438   5.714 -0.2110  0.2692 -0.3447
 4949SOL    HW126483   1.953   1.418   5.628 -0.7441  2.5124 -0.6239
 4949SOL    HW226484   1.915   1.486   5.747 -1.2607 -1.9152  0.4109
 4950SOL     OW26485   3.790   4.378   4.530 -0.1245  0.0526 -0.2165
 4950SOL    HW126486   3.834   4.318   4.591 -0.6110 -0.5490 -0.4514
 4950SOL    HW226487   3.742   4.314   4.477  0.8439  0.1063 -1.1671
 4951SOL     OW26488   3.193   2.405   3.772 -0.3241  0.2782  0.5021
 4951SOL    HW126489   3.127   2.345   3.738 -1.5727  0.6735  2.1895
 4951SOL    HW226490   3.132   2.473   3.802 -0.9378 -0.4793  0.9711
 4952SOL     OW26491   2.009   0.543   8.985 -0.7185  0.6352  0.0731
 4952SOL    HW126492   2.080   0.560   8.923 -0.0438 -0.6469  0.4949
 4952SOL    HW226493   2.019   0.619   9.042  0.2576  0.3961  0.2214
 4953SOL     OW26494   3.464   0.517   7.807  0.1469  0.1051 -0.1160
 4953SOL    HW126495   3.379   0.524   7.849  0.0110  1.4753 -0.6166
 4953SOL    HW226496   3.506   0.438   7.840  0.4000 -0.0131 -0.7091
 4954SOL     OW26497   4.469   0.122  13.107 -0.2919  0.2558 -0.0920
 4954SOL    HW126498   4.530   0.144  13.177  0.6946  2.7564 -1.7594
 4954SOL    HW226499   4.396   0.182  13.123  0.4985  1.5820 -1.4839
 4955SOL     OW26500   1.871   2.678   3.523 -0.0830 -0.1187 -0.3702
 4955SOL    HW126501   1.870   2.601   3.465  0.6371 -0.2029 -0.2654
 4955SOL    HW226502   1.901   2.745   3.462 -0.6602 -0.3889 -0.9663
 4956SOL     OW26503   4.446   4.069   4.186  0.1374 -0.3442 -0.6808
 4956SOL    HW126504   4.420   4.030   4.103  0.7838  0.0907 -1.0791
 4956SOL    HW226505   4.399   4.010   4.246  0.5635 -0.2263 -0.2321
 4957SOL     OW26506   0.046   4.362  11.818 -0.4629 -1.1829 -0.3307
 4957SOL    HW126507   0.083   4.328  11.900 -1.3840  0.4434  0.7628
 4957SOL    HW226508   0.078   4.452  11.813 -1.0021 -0.8721  1.6147
 4958SOL     OW26509   1.268   1.131   5.191  0.2669 -0.0300 -0.5547
 4958SOL    HW126510   1.277   1.141   5.286 -0.7446 -1.9615 -0.2636
 4958SOL    HW226511   1.182   1.170   5.174 -0.3828 -0.3350  2.0245
 4959SOL     OW26512   3.205   0.040   6.228 -0.3539  0.0796 -0.1123
 4959SOL    HW126513   3.150   0.101   6.279 -2.6978 -2.7659  0.7760
 4959SOL    HW226514   3.147   0.024   6.154 -2.6522  1.1169  1.4247
 4960SOL     OW26515   0.031   2.514   2.110 -0.3766  0.3564 -0.0438
 4960SOL    HW126516   0.004   2.492   2.199  1.6619  0.6191  0.6479
 4960SOL    HW226517   4.711   2.589   2.092 -0.0054  0.2049 -1.8853
 4961SOL     OW26518   1.167   0.565   4.148  0.3690 -0.4381 -0.4242
 4961SOL    HW126519   1.115   0.491   4.181 -0.2003  0.7965  1.4598
 4961SOL    HW226520   1.258   0.545   4.169  1.2606  3.6396 -0.4748
 4962SOL     OW26521   4.426   3.762   6.723 -0.6926  0.0142  0.1613
 4962SOL    HW126522   4.408   3.790   6.813  3.3351  0.8466  0.7033
 4962SOL    HW226523   4.418   3.666   6.723  3.2750 -0.3055  0.9561
 4963SOL     OW26524   1.692   0.737   5.539 -0.4051  0.1832 -0.1941
 4963SOL    HW126525   1.702   0.830   5.522  1.0249 -0.3889 -2.5272
 4963SOL    HW226526   1.651   0.715   5.456  0.5392 -0.5408 -0.4689
 4964SOL     OW26527   0.843   4.166   2.776 -0.2379 -0.0828 -0.3276
 4964SOL    HW126528   0.886   4.251   2.789  1.2266 -1.1227  1.7355
 4964SOL    HW226529   0.753   4.188   2.798  0.5363  0.6240  2.1335
 4965SOL     OW26530   3.683   1.456   7.384 -0.1941  0.2186  0.0619
 4965SOL    HW126531   3.624   1.532   7.382  2.2111  2.0852 -0.4381
 4965SOL    HW226532   3.755   1.501   7.428  0.5323  1.1042 -2.0158
 4966SOL     OW26533   1.753   1.565   7.497 -0.6543 -0.0961  0.3804
 4966SOL    HW126534   1.728   1.523   7.579 -0.4906  0.6453  0.8119
 4966SOL    HW226535   1.842   1.597   7.509 -0.5875  0.1353 -0.6820
 4967SOL     OW26536   1.477   1.691   9.120 -0.0716  0.2608  0.4498
 4967SOL    HW126537   1.546   1.644   9.166  2.1236  1.1827 -1.8808
 4967SOL    HW226538   1.425   1.613   9.103 -1.6305  0.7670  2.8569
 4968SOL     OW26539   0.584   2.763   7.734 -0.0264  0.3275 -0.2138
 4968SOL    HW126540   0.649   2.833   7.730  0.7375 -0.2649  2.0647
 4968SOL    HW226541   0.592   2.727   7.645  0.8604 -0.9538  0.3903
 4969SOL     OW26542   0.420   3.271   8.739  0.2009  0.1695 -0.1743
 4969SOL    HW126543   0.491   3.247   8.798  1.2600 -1.5923 -2.1781
 4969SOL    HW226544   0.363   3.195   8.733  2.0147 -0.9754 -2.4481
 4970SOL     OW26545   0.429   1.607   2.892  0.2493  0.2143 -0.0726
 4970SOL    HW126546   0.509   1.555   2.884 -0.7517 -0.8002 -3.3792
 4970SOL    HW226547   0.418   1.648   2.806 -1.2010 -1.2239 -0.5561
 4971SOL     OW26548   1.464   2.371   7.505 -0.3141 -0.0512 -0.1650
 4971SOL    HW126549   1.552   2.343   7.529  0.0299  1.5058  0.3868
 4971SOL    HW226550   1.422   2.351   7.589 -2.3957  1.1957 -0.9051
 4972SOL     OW26551   2.607   2.510  11.586 -0.0085  0.5131 -0.4485
 4972SOL    HW126552   2.562   2.453  11.649 -0.2561 -0.9559 -1.9649
 4972SOL    HW226553   2.620   2.585  11.643 -3.6995  0.7717  0.0789
 4973SOL     OW26554   1.173   4.629   3.338 -0.4375  0.4585  0.3746
 4973SOL    HW126555   1.105   4.683   3.377 -1.1482 -0.5945  0.5894
 4973SOL    HW226556   1.246   4.688   3.318 -0.0259  0.6328  2.3105
 4974SOL     OW26557   4.709   1.974   5.822 -0.8433  0.4083 -0.3917
 4974SOL    HW126558   0.063   1.969   5.850 -1.3142  0.6440  1.2234
 4974SOL    HW226559   4.728   1.988   5.729  1.7387  0.8817  0.2155
 4975SOL     OW26560   3.004   1.612  14.306 -0.3517  0.2999  0.1759
 4975SOL    HW126561   3.067   1.575  14.368 -1.5481 -2.7945 -0.4605
 4975SOL    HW226562   2.933   1.637  14.366 -0.3006  1.8350 -0.3972
 4976SOL     OW26563   0.834   0.595  17.023  0.1251 -0.0043  0.6847
 4976SOL    HW126564   0.901   0.663  17.020  0.4032 -0.2049  2.2184
 4976SOL    HW226565   0.755   0.637  16.988  0.8042  0.4313 -0.3211
 4977SOL     OW26566   1.559   3.555   5.545  0.1028  0.1245 -0.1770
 4977SOL    HW126567   1.605   3.500   5.608 -0.1456  0.5721  0.3952
 4977SOL    HW226568   1.638   3.607   5.530  1.2918 -0.4793  4.0664
 4978SOL     OW26569   2.178   3.939   8.259  0.5043 -0.3499  0.5408
 4978SOL    HW126570   2.101   3.882   8.261  0.4807 -0.3650 -0.8618
 4978SOL    HW226571   2.247   3.875   8.244  1.8040  0.8360  1.4787
 4979SOL     OW26572   1.780   0.565   2.877  0.2633 -0.5795  0.1569
 4979SOL    HW126573   1.859   0.511   2.873 -3.0322 -5.3227 -0.4484
 4979SOL    HW226574   1.771   0.578   2.972  3.1713  2.8531 -0.0500
 4980SOL     OW26575   2.038   0.999   0.172  0.3026  0.0712  0.4500
 4980SOL    HW126576   1.961   0.956   0.208  0.6588 -1.8926 -1.1516
 4980SOL    HW226577   2.025   1.089   0.202 -0.1769  0.1404  0.0287
 4981SOL     OW26578   1.111   0.774   5.207  0.2705  0.0019  0.0590
 4981SOL    HW126579   1.147   0.696   5.164  1.0824  0.2716  0.2574
 4981SOL    HW226580   1.081   0.822   5.130  0.0915  0.9808  0.7474
 4982SOL     OW26581   1.415   3.798   9.152  0.4297  0.3814 -0.2841
 4982SOL    HW126582   1.371   3.821   9.070  1.0253 -2.6651 -1.4492
 4982SOL    HW226583   1.378   3.714   9.179 -1.6036  1.7831  1.2749
 4983SOL     OW26584   2.022   2.314  13.125 -0.0981 -0.6888 -0.1407
 4983SOL    HW126585   1.937   2.355  13.114  0.2622 -0.2092 -1.1824
 4983SOL    HW226586   1.986   2.228  13.147 -0.0115 -0.1636  1.9705
 4984SOL     OW26587   0.511   2.393   4.343  0.1314  0.0505 -0.1599
 4984SOL    HW126588   0.506   2.478   4.389 -1.9718 -0.3337  0.3296
 4984SOL    HW226589   0.511   2.410   4.249 -2.7641 -0.8456 -0.3376
 4985SOL     OW26590   2.034   3.567   8.960  0.3128 -0.7044  0.1244
 4985SOL    HW126591   1.973   3.511   8.912 -1.7261  0.5910  1.1912
 4985SOL    HW226592   2.112   3.521   8.929  0.7623 -0.6402  1.1793
 4986SOL     OW26593   4.100   3.168   2.552 -0.1817  0.7771 -0.1592
 4986SOL    HW126594   4.128   3.103   2.616 -1.0179  1.7299  1.1626
 4986SOL    HW226595   4.172   3.182   2.490 -1.1572  0.3991 -1.3883
 4987SOL     OW26596   3.272   1.223   6.180  0.7124  0.1745 -0.1217
 4987SOL    HW126597   3.311   1.153   6.233 -0.5471  0.0021  0.5894
 4987SOL    HW226598   3.235   1.287   6.242 -0.9177 -0.7181 -0.1693
 4988SOL     OW26599   2.887   2.569   3.015 -0.3844 -0.3475 -0.4371
 4988SOL    HW126600   2.963   2.518   3.044 -0.0877  0.7461  0.7373
 4988SOL    HW226601   2.877   2.622   3.095  0.0148 -0.4313 -0.3283
 4989SOL     OW26602   1.300   1.169   9.405 -0.0261  0.3077 -0.4872
 4989SOL    HW126603   1.374   1.205   9.454 -1.9719 -0.2338  2.8096
 4989SOL    HW226604   1.227   1.231   9.412  1.8327  2.3892  0.4775
 4990SOL     OW26605   4.052   2.686  11.136  0.7543  0.5787 -0.0294
 4990SOL    HW126606   4.098   2.705  11.054 -0.3981 -0.3627 -0.8938
 4990SOL    HW226607   4.056   2.773  11.175  0.1639  0.5601  0.0719
 4991SOL     OW26608   4.184   2.385  10.948 -0.2765 -0.2624  0.0758
 4991SOL    HW126609   4.278   2.370  10.958 -0.2058 -0.9750 -1.7460
 4991SOL    HW226610   4.157   2.405  11.038  0.5258  0.3039  0.1943
 4992SOL     OW26611   2.646   1.051   9.007  0.1509  0.2980 -1.2512
 4992SOL    HW126612   2.646   1.117   8.938 -0.6698  1.6346  0.0523
 4992SOL    HW226613   2.738   1.043   9.029 -0.1098 -0.8056 -0.5389
 4993SOL     OW26614   0.709   1.548   2.544  0.3906  0.3905  0.1034
 4993SOL    HW126615   0.626   1.568   2.500  0.1986 -3.4783 -1.2605
 4993SOL    HW226616   0.684   1.559   2.636 -0.0592 -2.3963  0.3212
 4994SOL     OW26617   3.181   2.615   7.464 -0.7338  0.1717  0.0796
 4994SOL    HW126618   3.141   2.665   7.393 -0.6978 -1.8865 -1.3687
 4994SOL    HW226619   3.169   2.674   7.539 -2.9668 -1.8283  1.2689
 4995SOL     OW26620   4.099   3.916   6.615 -0.8837 -0.3715  0.3002
 4995SOL    HW126621   4.015   3.871   6.614 -0.8857 -0.3229 -2.1350
 4995SOL    HW226622   4.115   3.922   6.709  0.0495 -2.9091  0.2812
 4996SOL     OW26623   1.369   0.368   6.827  0.6730  0.3818  0.1452
 4996SOL    HW126624   1.360   0.283   6.784 -0.1857  0.7467 -0.3927
 4996SOL    HW226625   1.417   0.411   6.757 -0.7922 -1.0894 -1.7575
 4997SOL     OW26626   3.763   4.141  16.919  0.3538  0.8857  0.2742
 4997SOL    HW126627   3.837   4.191  16.883 -1.6137  1.0414 -3.5850
 4997SOL    HW226628   3.694   4.200  16.950 -1.2048 -0.5216 -0.5380
 4998SOL     OW26629   1.756   2.314  12.947 -0.1712  0.0544 -0.2382
 4998SOL    HW126630   1.701   2.389  12.970  0.7204 -0.2245  2.8066
 4998SOL    HW226631   1.795   2.344  12.865  0.4756  1.2686  0.5053
 4999SOL     OW26632   1.846   4.132   1.531  0.4024  0.4386 -0.7952
 4999SOL    HW126633   1.751   4.130   1.518  0.2188 -1.3482  0.9950
 4999SOL    HW226634   1.868   4.190   1.604 -0.9884 -0.4206  0.3041
 5000SOL     OW26635   0.748   4.148   8.473  0.5928  0.3217  0.1854
 5000SOL    HW126636   0.780   4.058   8.473 -1.2287 -0.3174  1.6566
 5000SOL    HW226637   0.835   4.190   8.468  1.3744 -1.3197  0.0212
 5001SOL     OW26638   3.330   4.158  16.465 -0.1092 -0.5518 -0.1141
 5001SOL    HW126639   3.296   4.176  16.378  0.4408 -0.4713 -0.3090
 5001SOL    HW226640   3.374   4.078  16.436  0.4707  0.1820 -1.2469
 5002SOL     OW26641   0.273   1.855   8.040 -0.5185  0.0876  0.4327
 5002SOL    HW126642   0.214   1.782   8.059  0.3860 -0.4922  1.0329
 5002SOL    HW226643   0.250   1.863   7.948 -2.1818 -0.6163  0.7884
 5003SOL     OW26644   4.119   0.512  12.450 -0.0216 -0.2885  0.6378
 5003SOL    HW126645   4.090   0.596  12.485 -1.2918 -0.5515  0.1974
 5003SOL    HW226646   4.110   0.532  12.357  1.1346  2.3525  1.1074
 5004SOL     OW26647   0.264   1.292   2.719 -0.3850  0.0160  0.3411
 5004SOL    HW126648   0.358   1.275   2.713 -0.5448 -0.2343 -1.4187
 5004SOL    HW226649   0.250   1.317   2.810  1.2642  2.1170  0.0209
 5005SOL     OW26650   2.250   0.244   2.994 -0.0165 -0.8278 -0.2791
 5005SOL    HW126651   2.301   0.163   2.989  0.2002 -0.6536 -0.8474
 5005SOL    HW226652   2.295   0.289   3.065  2.4839 -0.7670 -1.9132
 5006SOL     OW26653   1.372   2.260   7.737 -0.7268 -0.4134  0.3379
 5006SOL    HW126654   1.345   2.169   7.746 -0.6584 -0.4162  0.5075
 5006SOL    HW226655   1.435   2.268   7.808  2.6146 -1.5815 -2.4849
 5007SOL     OW26656   4.650   0.497  11.421 -0.0083  0.0992  0.4532
 5007SOL    HW126657   4.605   0.445  11.488 -1.6331  0.1936 -0.5666
 5007SOL    HW226658   4.660   0.431  11.353 -3.0375 -0.1515  0.2205
 5008SOL     OW26659   4.322   2.882  15.469 -0.0864 -0.0482  0.6406
 5008SOL    HW126660   4.409   2.872  15.509 -0.9998  1.8788  3.1580
 5008SOL    HW226661   4.347   2.869  15.378 -0.8219 -0.6290  0.5319
 5009SOL     OW26662   0.030   4.081   8.181  0.3097 -0.2037 -0.5823
 5009SOL    HW126663   0.022   4.029   8.101 -0.9710 -0.5483 -0.2239
 5009SOL    HW226664   0.050   4.009   8.242  0.5043 -0.8597 -1.4090
 5010SOL     OW26665   3.628   1.377   5.744 -0.5636 -0.1545  0.2354
 5010SOL    HW126666   3.691   1.363   5.814 -1.7193 -0.9338  1.1271
 5010SOL    HW226667   3.647   1.469   5.726 -2.9334  0.7147  2.0786
 5011SOL     OW26668   1.922   4.205   4.334 -0.3124 -0.1199 -0.0566
 5011SOL    HW126669   1.894   4.175   4.248  1.1706  0.1876 -0.6444
 5011SOL    HW226670   1.938   4.299   4.323  0.5473 -0.1547  0.8685
 5012SOL     OW26671   4.490   0.895   6.705 -0.5038 -0.3321 -0.1134
 5012SOL    HW126672   4.433   0.916   6.779 -1.0054 -3.5820  0.3889
 5012SOL    HW226673   4.422   0.900   6.637  0.6348 -3.3159 -1.4503
 5013SOL     OW26674   1.507   2.133   2.932 -0.0968 -0.0455  0.1868
 5013SOL    HW126675   1.467   2.058   2.976 -0.2295 -0.3651 -0.4742
 5013SOL    HW226676   1.499   2.104   2.841  1.7850  1.2630 -0.3992
 5014SOL     OW26677   1.837   2.562  11.329 -0.3863 -0.0633 -0.1930
 5014SOL    HW126678   1.841   2.648  11.370 -1.4620  0.7179 -1.7533
 5014SOL    HW226679   1.917   2.573  11.278 -0.3306 -0.3721 -0.1761
 5015SOL     OW26680   3.546   4.369   1.241 -0.0901 -0.0832  0.2725
 5015SOL    HW126681   3.600   4.328   1.174 -0.8777 -0.6732 -0.0018
 5015SOL    HW226682   3.612   4.415   1.294  0.1075 -1.1460  0.9518
 5016SOL     OW26683   4.020   3.595  15.754 -0.6940 -0.4229 -0.5413
 5016SOL    HW126684   4.073   3.516  15.748 -0.9984 -0.6972  0.3414
 5016SOL    HW226685   3.973   3.582  15.837  1.0114  0.6919  0.5916
 5017SOL     OW26686   3.146   0.335   0.976 -0.1497  0.4187  0.3743
 5017SOL    HW126687   3.173   0.423   1.003 -0.2717  0.1456  1.3679
 5017SOL    HW226688   3.088   0.346   0.901  0.1116  2.2030  0.4314
 5018SOL     OW26689   1.603   3.851   4.716  0.2545 -0.1595 -0.2664
 5018SOL    HW126690   1.582   3.770   4.764  1.1155 -0.5452 -0.5290
 5018SOL    HW226691   1.642   3.816   4.635 -1.2877  1.2700 -1.6055
 5019SOL     OW26692   1.042   3.152   9.335 -0.2216 -0.2901  0.4142
 5019SOL    HW126693   0.984   3.172   9.408 -0.6977  0.3674 -0.1592
 5019SOL    HW226694   1.018   3.059   9.327 -0.3224 -0.5640  3.9296
 5020SOL     OW26695   1.150   0.772   8.628 -0.1042 -0.5376 -0.3236
 5020SOL    HW126696   1.079   0.795   8.688  0.4654  1.8364 -0.5591
 5020SOL    HW226697   1.188   0.701   8.679 -1.2777 -1.4293 -0.7077
 5021SOL     OW26698   1.516   3.765   8.099  0.8850 -0.0134 -0.0589
 5021SOL    HW126699   1.498   3.737   8.188 -0.0475  1.1393  0.1276
 5021SOL    HW226700   1.452   3.712   8.050 -1.0340  1.5713  0.7095
 5022SOL     OW26701   1.055   4.645  16.701  0.0596  0.2112 -0.1727
 5022SOL    HW126702   1.080   4.734  16.725 -0.0297  0.2176 -0.1055
 5022SOL    HW226703   1.070   4.587  16.776  1.3740  0.4118 -0.2671
 5023SOL     OW26704   0.754   3.803   5.412  0.7079 -0.3138  0.8002
 5023SOL    HW126705   0.752   3.837   5.501  0.1214  3.7038 -0.7755
 5023SOL    HW226706   0.704   3.721   5.423  0.0161  0.0641  0.4839
 5024SOL     OW26707   2.991   0.133   6.729  0.2423  0.6108  0.8251
 5024SOL    HW126708   2.946   0.054   6.756 -0.5130  0.9401  0.5253
 5024SOL    HW226709   3.072   0.129   6.780  0.9190 -1.3861 -0.4082
 5025SOL     OW26710   0.193   2.588   4.896  0.6139 -0.1799  0.1030
 5025SOL    HW126711   0.229   2.551   4.816 -4.0897 -0.9568 -1.6461
 5025SOL    HW226712   0.154   2.667   4.860  1.6031  1.3364  2.3547
 5026SOL     OW26713   1.611   2.049   9.812 -0.1717 -0.1323  0.7665
 5026SOL    HW126714   1.519   2.078   9.810  0.2500  0.8565 -3.1174
 5026SOL    HW226715   1.606   1.971   9.757 -0.3617  0.7732 -0.5025
 5027SOL     OW26716   3.012   3.958   3.523 -0.4784  0.1561 -0.3664
 5027SOL    HW126717   2.947   4.014   3.479 -0.0161 -0.6585 -2.0995
 5027SOL    HW226718   3.022   3.989   3.613  1.5826 -0.0096 -0.5508
 5028SOL     OW26719   4.232   1.256   1.735 -0.1174  0.0211  0.2303
 5028SOL    HW126720   4.270   1.325   1.680  0.6813 -1.8043 -1.5069
 5028SOL    HW226721   4.303   1.193   1.726 -0.7528 -0.9427  2.0599
 5029SOL     OW26722   0.110   0.906   2.733 -0.4973 -0.2099 -0.4426
 5029SOL    HW126723   0.141   0.924   2.822  2.6104  0.0679 -1.6105
 5029SOL    HW226724   0.022   0.944   2.732 -0.8044 -0.8688  1.5421
 5030SOL     OW26725   2.462   1.116   2.035  0.1086  0.0297 -0.2055
 5030SOL    HW126726   2.396   1.181   2.057 -0.1934 -0.4045  0.1709
 5030SOL    HW226727   2.431   1.035   2.075 -1.5502  0.0173 -1.5012
 5031SOL     OW26728   3.597   0.466  13.565 -0.1758 -0.4809  0.4519
 5031SOL    HW126729   3.565   0.433  13.482  2.4270  1.2693 -1.2480
 5031SOL    HW226730   3.527   0.531  13.574 -0.0333  0.0616 -2.3892
 5032SOL     OW26731   0.954   0.505   5.030 -0.0645  0.1370  0.2862
 5032SOL    HW126732   1.047   0.483   5.042 -0.3290 -0.4108  1.3627
 5032SOL    HW226733   0.910   0.467   5.106 -0.7263 -3.0386 -1.6734
 5033SOL     OW26734   0.736   2.590  14.228 -0.3994  0.2220  0.8035
 5033SOL    HW126735   0.744   2.590  14.323  1.6492 -1.2189  0.6477
 5033SOL    HW226736   0.697   2.502  14.224 -0.8316  0.4945 -0.8990
 5034SOL     OW26737   4.035   4.269   7.709 -0.5940  0.6229  0.0212
 5034SOL    HW126738   4.013   4.184   7.748 -1.4460  0.6860 -0.3142
 5034SOL    HW226739   3.952   4.302   7.673 -1.1789 -2.2414 -1.2921
 5035SOL     OW26740   3.186   1.648  13.554 -0.3275  0.2413  0.4579
 5035SOL    HW126741   3.239   1.615  13.482 -1.7954  0.2892 -0.6309
 5035SOL    HW226742   3.210   1.741  13.554  0.7717 -0.0662 -3.6293
 5036SOL     OW26743   1.690   2.379   2.800  0.1386  0.0424 -0.4797
 5036SOL    HW126744   1.603   2.358   2.834 -0.0593  1.3270 -0.1900
 5036SOL    HW226745   1.720   2.295   2.765 -0.0621 -0.8604  1.5116
 5037SOL     OW26746   4.051   2.357   8.920  0.1431 -0.7327  0.3746
 5037SOL    HW126747   3.965   2.368   8.879  0.8243 -1.9246 -1.3656
 5037SOL    HW226748   4.039   2.268   8.953  0.1619 -0.0649  2.1899
 5038SOL     OW26749   2.918   3.759  14.484  0.0982  0.1819  0.0473
 5038SOL    HW126750   2.906   3.752  14.389 -2.0478 -0.5692  0.3992
 5038SOL    HW226751   2.939   3.852  14.489  2.5984 -0.4714  1.9602
 5039SOL     OW26752   2.445   2.247  10.043 -0.3538 -0.3818  0.4597
 5039SOL    HW126753   2.522   2.274   9.994  0.1990 -0.0581  1.5132
 5039SOL    HW226754   2.467   2.154  10.050  1.6182  0.0037 -0.4454
 5040SOL     OW26755   1.448   0.948   4.374  0.2906  0.1267 -0.2356
 5040SOL    HW126756   1.459   1.009   4.301 -2.5140  1.4841  0.4995
 5040SOL    HW226757   1.431   1.005   4.449  0.3126 -1.2119  0.7811
 5041SOL     OW26758   0.610   0.846   8.171 -0.2003  0.5296 -0.7115
 5041SOL    HW126759   0.558   0.768   8.152 -0.0490  0.0915  0.6755
 5041SOL    HW226760   0.599   0.905   8.096  2.0785  0.4857 -1.0948
 5042SOL     OW26761   3.307   4.343   2.854  0.2554  0.2914 -0.6035
 5042SOL    HW126762   3.397   4.311   2.861  0.1297  0.2759  1.1034
 5042SOL    HW226763   3.251   4.266   2.862  1.2722 -0.6387 -2.3378
 5043SOL     OW26764   2.052   1.415   2.945 -0.5734 -0.2730 -0.4488
 5043SOL    HW126765   2.121   1.474   2.914  0.6126 -1.4090  0.0318
 5043SOL    HW226766   2.106   1.357   2.999 -1.1894  0.8940  1.4410
 5044SOL     OW26767   0.370   2.821   2.549  0.5508  0.5442  0.0243
 5044SOL    HW126768   0.332   2.864   2.626  1.4022  1.7452 -0.2275
 5044SOL    HW226769   0.387   2.734   2.584  0.2410  0.1161 -0.8750
 5045SOL     OW26770   2.201   3.928  17.525 -0.0767 -0.1845 -0.2605
 5045SOL    HW126771   2.113   3.914  17.491  0.6399 -2.0467 -1.4091
 5045SOL    HW226772   2.221   3.835  17.542 -0.8467  0.0908  2.0810
 5046SOL     OW26773   1.542   1.664   7.118  0.2451  0.1286  0.6784
 5046SOL    HW126774   1.473   1.609   7.156 -0.4843  0.4209 -0.2349
 5046SOL    HW226775   1.622   1.621   7.149  0.3969  0.5379  0.8437
 5047SOL     OW26776   2.329   0.090   6.237  0.7060 -0.0738  0.1630
 5047SOL    HW126777   2.330   0.070   6.331  0.5738  1.2579  0.4470
 5047SOL    HW226778   2.410   0.046   6.214  1.0275  1.0510 -0.8248
 5048SOL     OW26779   2.164   3.677   1.731 -0.2202  0.0893 -0.1882
 5048SOL    HW126780   2.122   3.745   1.679 -0.8010 -0.0647  0.0798
 5048SOL    HW226781   2.190   3.616   1.662  0.3209 -0.0255  0.1127
 5049SOL     OW26782   1.885   0.775   3.885  0.0475  0.2777 -0.1710
 5049SOL    HW126783   1.921   0.855   3.847  2.0832  0.1813  1.5208
 5049SOL    HW226784   1.953   0.710   3.874  0.0889 -0.0766  2.0441
 5050SOL     OW26785   2.683   1.397   2.005  0.1541 -0.1896  0.4016
 5050SOL    HW126786   2.772   1.379   2.037  1.5178  3.0405 -1.5717
 5050SOL    HW226787   2.700   1.416   1.913  0.8534  1.1090  0.7900
 5051SOL     OW26788   3.802   2.359   8.802 -0.5360 -0.2499 -0.2621
 5051SOL    HW126789   3.745   2.283   8.796  0.8070 -1.3247  0.4346
 5051SOL    HW226790   3.834   2.363   8.712 -1.1971 -0.7722 -0.5220
 5052SOL     OW26791   0.559   1.585  11.069  0.4459 -0.2360 -0.1477
 5052SOL    HW126792   0.503   1.622  11.137 -0.1017  0.0734 -0.7739
 5052SOL    HW226793   0.604   1.662  11.035  0.8972 -0.9080 -1.0815
 5053SOL     OW26794   2.907   3.775   5.623 -0.0798  0.0616  0.2599
 5053SOL    HW126795   2.991   3.766   5.578  0.9214  0.3859  2.0403
 5053SOL    HW226796   2.849   3.821   5.562  0.6616  0.6114 -0.0294
 5054SOL     OW26797   2.577   3.676   2.156 -0.3460  0.1950  0.3972
 5054SOL    HW126798   2.660   3.649   2.197 -0.3463  1.7028  1.3933
 5054SOL    HW226799   2.595   3.651   2.066  1.0026 -0.2077  0.7816
 5055SOL     OW26800   0.659   0.063  12.299 -0.1974 -0.4629 -0.0073
 5055SOL    HW126801   0.578   0.052  12.249  0.4033 -1.1110 -0.8263
 5055SOL    HW226802   0.726   0.083  12.234  1.0279 -0.5880  1.2158
 5056SOL     OW26803   2.446   1.232  14.489  0.2448 -0.2081  0.0047
 5056SOL    HW126804   2.352   1.233  14.469  0.3218 -1.6647 -0.4136
 5056SOL    HW226805   2.478   1.205  14.403  2.3299  0.9775  0.4412
 5057SOL     OW26806   1.182   1.806   2.098  0.3992  0.3861  0.0195
 5057SOL    HW126807   1.182   1.828   2.005  0.7484 -1.1250 -0.3451
 5057SOL    HW226808   1.222   1.887   2.129  1.7547  0.0295 -0.7585
 5058SOL     OW26809   4.356   1.009   7.543  0.4665 -0.1345  0.5102
 5058SOL    HW126810   4.408   0.951   7.600  0.3838 -0.5654  0.1488
 5058SOL    HW226811   4.339   0.938   7.482  1.2830  0.6117 -0.5796
 5059SOL     OW26812   0.935   3.107   2.283 -0.2640 -0.0843  0.4715
 5059SOL    HW126813   0.887   3.176   2.239 -1.9675 -1.7591 -0.3129
 5059SOL    HW226814   0.978   3.167   2.344 -0.8739 -0.8181  1.6317
 5060SOL     OW26815   4.384   2.420   4.583  0.0920  0.6472 -0.4056
 5060SOL    HW126816   4.339   2.369   4.650  0.7611 -1.7846 -1.8215
 5060SOL    HW226817   4.339   2.504   4.592 -0.7150  0.0555  1.0829
 5061SOL     OW26818   4.277   2.239  12.206  0.1876 -0.4809  0.0699
 5061SOL    HW126819   4.184   2.215  12.202  0.0695  0.1424 -0.9176
 5061SOL    HW226820   4.313   2.229  12.118  0.7791  1.6208  0.0712
 5062SOL     OW26821   3.981   3.315   3.210 -0.2438 -0.1249 -0.5776
 5062SOL    HW126822   3.990   3.249   3.142  0.6762  1.9157 -2.4480
 5062SOL    HW226823   4.075   3.324   3.229 -0.2886 -0.3190 -0.2604
 5063SOL     OW26824   3.807   4.016   9.752 -0.2829  0.5133 -0.6400
 5063SOL    HW126825   3.793   3.952   9.822  1.8266  1.1542  0.3609
 5063SOL    HW226826   3.890   4.055   9.779 -1.9232  1.0210  3.7289
 5064SOL     OW26827   3.911   3.887  17.407 -0.2712 -0.4212  0.1707
 5064SOL    HW126828   3.941   3.925  17.324 -0.1707  0.0042  0.3981
 5064SOL    HW226829   3.823   3.924  17.413 -0.3916 -0.4813 -1.3636
 5065SOL     OW26830   4.220   3.389   2.700 -0.4343 -0.4545 -0.5005
 5065SOL    HW126831   4.166   3.381   2.779 -1.2881 -1.5367 -1.1992
 5065SOL    HW226832   4.172   3.325   2.648 -1.1660 -0.5875  0.3326
 5066SOL     OW26833   0.925   4.192   4.154 -0.8842 -0.5565 -0.0401
 5066SOL    HW126834   1.017   4.201   4.128 -0.6679 -0.8033  0.6545
 5066SOL    HW226835   0.940   4.155   4.241 -0.0308  4.8270  2.1260
 5067SOL     OW26836   0.675   2.341   3.826  0.6756 -0.1184  0.2341
 5067SOL    HW126837   0.741   2.353   3.894  1.5802 -0.2891 -0.6036
 5067SOL    HW226838   0.609   2.297   3.879  0.5865 -1.8638 -1.2769
 5068SOL     OW26839   2.640   2.814   8.944  0.4828  0.1680 -0.3368
 5068SOL    HW126840   2.664   2.836   9.034  0.6763  1.9989 -0.8441
 5068SOL    HW226841   2.661   2.899   8.907 -2.4208  0.6389 -0.8974
 5069SOL     OW26842   0.315   3.258   8.389  0.0075 -0.5196  0.4248
 5069SOL    HW126843   0.308   3.180   8.443  0.1088  0.5032  1.9247
 5069SOL    HW226844   0.346   3.222   8.306  1.6995  1.0043  0.3936
 5070SOL     OW26845   0.964   2.519   7.319  0.7417 -0.1476 -0.1261
 5070SOL    HW126846   0.961   2.484   7.408  2.1135 -0.7700 -0.3187
 5070SOL    HW226847   1.035   2.583   7.328 -1.2600  2.1393 -0.6563
 5071SOL     OW26848   3.964   1.739   7.277  0.2538 -0.0950  0.2618
 5071SOL    HW126849   4.042   1.719   7.226  0.6694 -2.1474  1.7127
 5071SOL    HW226850   3.994   1.758   7.365 -1.2998  2.3016  0.2712
 5072SOL     OW26851   4.120   2.932   8.262  0.0571 -0.1167 -0.1181
 5072SOL    HW126852   4.136   2.884   8.343  0.8041  0.5378  0.1286
 5072SOL    HW226853   4.161   3.016   8.282  1.7882 -1.7272  3.0754
 5073SOL     OW26854   3.142   3.157   2.217 -0.2330  0.0502  0.1498
 5073SOL    HW126855   3.051   3.186   2.214 -0.1989  0.1836  0.4193
 5073SOL    HW226856   3.172   3.167   2.126  0.0972 -1.1154  0.1305
 5074SOL     OW26857   0.903   2.107   6.706  0.0053 -0.2849 -0.0819
 5074SOL    HW126858   0.958   2.074   6.635  1.6923  1.6323  0.3425
 5074SOL    HW226859   0.876   2.188   6.661 -0.1703 -1.0656 -1.3720
 5075SOL     OW26860   4.549   2.641   1.972  0.0804  0.4117  0.2668
 5075SOL    HW126861   4.576   2.624   1.882  0.4627  3.1574 -0.1330
 5075SOL    HW226862   4.489   2.569   1.993  3.0055 -2.1226 -0.1065
 5076SOL     OW26863   2.326   1.449   8.399 -0.1278  0.1166  0.6050
 5076SOL    HW126864   2.357   1.499   8.474 -0.2615 -0.5998  1.1402
 5076SOL    HW226865   2.272   1.383   8.443 -0.1748  0.1560  0.6063
 5077SOL     OW26866   0.451   3.435   5.799 -0.1695  0.1380  0.2137
 5077SOL    HW126867   0.510   3.504   5.768  0.9936 -1.0164 -0.1273
 5077SOL    HW226868   0.516   3.366   5.812  0.1931  0.5126  0.3700
 5078SOL     OW26869   1.212   2.874   5.870 -1.0639 -0.1256 -0.2455
 5078SOL    HW126870   1.132   2.927   5.873 -1.5037 -0.6485 -2.3802
 5078SOL    HW226871   1.244   2.923   5.794 -0.3575 -1.2460 -0.6551
 5079SOL     OW26872   3.208   2.512   1.814 -0.1841 -0.2685 -0.5195
 5079SOL    HW126873   3.286   2.458   1.801 -1.3268 -2.0365  0.0089
 5079SOL    HW226874   3.243   2.601   1.809 -2.0545  0.4529 -0.5517
 5080SOL     OW26875   1.445   2.812   3.682  0.1069  0.5879 -0.2399
 5080SOL    HW126876   1.378   2.790   3.746 -0.5369  0.4453 -0.9650
 5080SOL    HW226877   1.443   2.732   3.630 -1.2550  0.7625 -0.4534
 5081SOL     OW26878   4.297   3.965  14.930 -0.3692 -0.2954 -0.2292
 5081SOL    HW126879   4.260   3.927  14.850  2.4578 -0.5136 -1.4377
 5081SOL    HW226880   4.323   3.888  14.981  1.5905  0.6188  0.1843
 5082SOL     OW26881   0.068   4.436   6.627  0.0752 -0.7778  0.6302
 5082SOL    HW126882   0.013   4.439   6.706  0.4135  1.9158  0.7770
 5082SOL    HW226883   0.089   4.529   6.618  1.9891 -1.1458  1.3104
 5083SOL     OW26884   0.900   3.828   6.046 -0.0089  0.1437 -0.3576
 5083SOL    HW126885   0.948   3.908   6.024  2.5026 -1.1203  0.5175
 5083SOL    HW226886   0.916   3.828   6.141 -0.8050  0.6620 -0.2216
 5084SOL     OW26887   4.264   2.768   1.901 -0.6797  0.1598 -0.5170
 5084SOL    HW126888   4.288   2.806   1.985 -0.6974  1.2263 -0.9847
 5084SOL    HW226889   4.340   2.799   1.851 -0.3215  2.2921  1.3608
 5085SOL     OW26890   1.993   1.146   4.868 -0.1511  0.0551 -0.7155
 5085SOL    HW126891   2.088   1.152   4.856  0.0141 -1.4685 -0.1241
 5085SOL    HW226892   1.996   1.149   4.963 -2.0044 -0.5364 -0.6544
 5086SOL     OW26893   2.385   2.673   6.330 -0.5109 -0.0326  0.4229
 5086SOL    HW126894   2.446   2.630   6.389 -0.4979 -2.5991 -1.4364
 5086SOL    HW226895   2.415   2.641   6.244 -1.1193 -0.9366  0.5387
 5087SOL     OW26896   4.162   1.674  15.130 -0.3217 -0.0532  0.7058
 5087SOL    HW126897   4.222   1.633  15.193 -1.0385 -2.7687 -0.3498
 5087SOL    HW226898   4.091   1.690  15.192 -1.2418  0.9947 -0.6198
 5088SOL     OW26899   2.054   0.501   3.363 -0.7382 -0.0980 -0.3888
 5088SOL    HW126900   2.146   0.492   3.390 -0.4585 -0.0127 -1.3099
 5088SOL    HW226901   2.066   0.505   3.268  0.7854  0.0021 -0.1983
 5089SOL     OW26902   3.738   2.493  11.550 -0.1549 -0.0776 -0.1324
 5089SOL    HW126903   3.750   2.406  11.513 -3.3865 -0.4693 -0.1970
 5089SOL    HW226904   3.643   2.494  11.561 -0.0536  0.2422  0.7602
 5090SOL     OW26905   1.712   1.759  15.509 -0.1580 -0.2603  0.3371
 5090SOL    HW126906   1.693   1.735  15.418 -1.8340  1.7058  0.1546
 5090SOL    HW226907   1.792   1.708  15.521 -0.1717 -0.7007 -1.5055
 5091SOL     OW26908   2.551   2.291   6.755 -0.4028 -0.2647  0.4118
 5091SOL    HW126909   2.531   2.206   6.794 -0.9226 -1.1021 -1.6834
 5091SOL    HW226910   2.578   2.265   6.667  1.4170  0.2408  0.8237
 5092SOL     OW26911   0.187   4.583   8.220 -1.0150  0.2555  0.1094
 5092SOL    HW126912   0.254   4.559   8.155 -0.8166  0.0133  0.4036
 5092SOL    HW226913   0.121   4.515   8.210 -0.1776 -0.4622 -0.5152
 5093SOL     OW26914   3.043   4.216   7.445  0.3396  0.3024  0.0231
 5093SOL    HW126915   3.046   4.134   7.494 -1.0544  0.0740 -0.2803
 5093SOL    HW226916   3.039   4.282   7.514 -1.1451 -0.1771  0.3993
 5094SOL     OW26917   2.292   3.195   5.600  0.3407 -0.2060 -0.1297
 5094SOL    HW126918   2.205   3.226   5.576 -0.1018  0.4181  2.3043
 5094SOL    HW226919   2.323   3.268   5.653 -2.7078 -0.4898  2.0015
 5095SOL     OW26920   0.512   0.646   1.151 -0.1151 -0.0635  0.4998
 5095SOL    HW126921   0.483   0.555   1.156 -1.4371  0.6242  5.1859
 5095SOL    HW226922   0.543   0.648   1.060  1.1846 -0.3855  0.9409
 5096SOL     OW26923   1.556   3.761   5.270 -0.3931 -0.2427  0.0467
 5096SOL    HW126924   1.479   3.776   5.325  0.1980 -1.8897  1.3634
 5096SOL    HW226925   1.602   3.844   5.280  1.6600 -1.2937 -0.6926
 5097SOL     OW26926   2.348   1.850   8.819 -0.0910  0.0636  0.2565
 5097SOL    HW126927   2.307   1.794   8.753 -0.8510 -2.8215  3.1545
 5097SOL    HW226928   2.320   1.806   8.899 -2.3744  1.1969  0.0759
 5098SOL     OW26929   3.750   1.975   8.142  0.6146 -0.6055  0.3912
 5098SOL    HW126930   3.673   1.954   8.194  1.5704  1.2777  2.5465
 5098SOL    HW226931   3.714   2.044   8.086 -1.9315 -0.8575  1.7265
 5099SOL     OW26932   1.030   3.615   3.897  0.3501  0.1780 -0.1489
 5099SOL    HW126933   1.115   3.632   3.856  0.5400 -0.0296  0.1583
 5099SOL    HW226934   0.991   3.694   3.859  2.0500  0.9459 -0.2985
 5100SOL     OW26935   4.665   0.012  15.285  0.1070 -0.4451 -0.4252
 5100SOL    HW126936   0.016   0.041  15.307 -0.3142  1.6014 -1.4129
 5100SOL    HW226937   4.642   4.693  15.359 -1.0540 -1.4306 -1.5415
 5101SOL     OW26938   3.499   3.070   2.709 -0.4261  0.5616 -0.1363
 5101SOL    HW126939   3.570   3.079   2.772  1.0140 -1.5886 -1.4650
 5101SOL    HW226940   3.466   3.160   2.706  1.0008  1.0267 -2.1612
 5102SOL     OW26941   3.246   3.372   7.309  0.1070 -0.2266  0.2042
 5102SOL    HW126942   3.216   3.430   7.380 -1.2521  2.1938 -2.3065
 5102SOL    HW226943   3.237   3.285   7.348  1.8276 -0.2557  0.5440
 5103SOL     OW26944   2.743   3.334   8.340  0.5766  0.1093 -0.2859
 5103SOL    HW126945   2.801   3.270   8.381  0.9795 -1.6338 -3.6153
 5103SOL    HW226946   2.665   3.321   8.395 -1.3068 -0.7780 -3.1854
 5104SOL     OW26947   0.486   2.255   4.639 -0.0183  0.4159 -0.6044
 5104SOL    HW126948   0.488   2.185   4.705  1.9218  2.5656  1.6153
 5104SOL    HW226949   0.581   2.255   4.632  0.1172  1.1805  1.1739
 5105SOL     OW26950   2.251   0.512   7.367 -0.4727 -0.1136  0.1529
 5105SOL    HW126951   2.246   0.578   7.299 -1.1058  0.1079  0.4173
 5105SOL    HW226952   2.300   0.442   7.323  1.8530  0.6780  1.4844
 5106SOL     OW26953   1.908   2.075  13.197 -0.5971 -0.3261  0.1813
 5106SOL    HW126954   1.857   2.056  13.119 -0.6458 -0.4450  0.2422
 5106SOL    HW226955   1.881   2.009  13.261  2.2939 -1.0207  0.6921
 5107SOL     OW26956   1.971   1.261   5.450 -0.1792  0.6056  0.0645
 5107SOL    HW126957   2.054   1.229   5.485  1.0469 -0.1473 -3.6085
 5107SOL    HW226958   1.996   1.307   5.370  0.5659 -0.9270 -0.5805
 5108SOL     OW26959   0.828   0.048   9.381  0.1903 -0.2564  0.1123
 5108SOL    HW126960   0.847   0.141   9.393  0.2197 -0.3819  1.0440
 5108SOL    HW226961   0.762   0.041   9.449  0.3083  2.1960  0.4873
 5109SOL     OW26962   2.872   4.104   1.676  0.5357 -0.1824 -0.6787
 5109SOL    HW126963   2.878   4.010   1.656 -0.8234 -0.4789  0.2892
 5109SOL    HW226964   2.964   4.123   1.693  0.1843 -0.7362  1.8861
 5110SOL     OW26965   2.706   2.274  13.568  0.3446 -0.1738  0.3886
 5110SOL    HW126966   2.625   2.325  13.571 -1.5771 -3.1643 -1.3460
 5110SOL    HW226967   2.779   2.335  13.576  0.2819  0.2060 -1.9351
 5111SOL     OW26968   1.635   3.948  16.490  0.1666 -0.1646 -0.0966
 5111SOL    HW126969   1.681   3.900  16.559 -0.1089 -1.3420 -0.7465
 5111SOL    HW226970   1.657   4.039  16.513  0.6357 -0.3180  0.0442
 5112SOL     OW26971   4.360   4.559   2.278 -0.1985 -0.3136 -0.0372
 5112SOL    HW126972   4.445   4.566   2.321  0.1167  1.9337 -1.0101
 5112SOL    HW226973   4.301   4.548   2.352 -0.6665 -0.0310 -0.3637
 5113SOL     OW26974   3.835   1.173   4.659 -0.0441  0.4715  0.3597
 5113SOL    HW126975   3.922   1.164   4.697 -0.2818  1.5291  1.1593
 5113SOL    HW226976   3.805   1.082   4.654  0.5786  0.2969 -0.2717
 5114SOL     OW26977   2.485   1.544   7.503  0.1354 -0.0323 -0.1008
 5114SOL    HW126978   2.495   1.455   7.539  3.7706  1.0909  1.6472
 5114SOL    HW226979   2.394   1.539   7.472 -0.2374  0.6659  0.9026
 5115SOL     OW26980   1.908   2.182  10.993  0.4403  0.6569  0.4546
 5115SOL    HW126981   1.912   2.115  11.061  0.8817  0.1904 -0.0334
 5115SOL    HW226982   1.874   2.261  11.035  3.4007  3.0548 -1.6356
 5116SOL     OW26983   2.838   0.920  10.410 -0.1906  0.1983  0.5825
 5116SOL    HW126984   2.921   0.947  10.449  0.3758 -2.8806  1.4625
 5116SOL    HW226985   2.769   0.922  10.475  0.4632 -0.3517  1.2883
 5117SOL     OW26986   1.612   0.328  15.847  0.6181  0.3674 -0.3669
 5117SOL    HW126987   1.557   0.350  15.923 -1.2744 -3.0705 -0.7769
 5117SOL    HW226988   1.564   0.376  15.779  0.2658  0.0265 -0.3546
 5118SOL     OW26989   2.699   3.980  14.340 -0.5097 -0.2706 -0.3401
 5118SOL    HW126990   2.759   3.917  14.300 -1.9110 -2.7397  1.4351
 5118SOL    HW226991   2.632   3.919  14.371  1.7597 -1.4964  2.1226
 5119SOL     OW26992   0.906   3.806   2.710  0.1096  0.0496  0.5797
 5119SOL    HW126993   0.846   3.768   2.775  1.2965  0.5624  1.9811
 5119SOL    HW226994   0.853   3.802   2.631  0.2435 -1.7315  0.5866
 5120SOL     OW26995   2.835   2.897   2.113 -0.1388  0.6534  0.2336
 5120SOL    HW126996   2.838   2.956   2.188 -0.3587 -0.7401  1.3398
 5120SOL    HW226997   2.776   2.939   2.050  0.8724 -0.3103 -1.3533
 5121SOL     OW26998   3.660   2.615   3.702  0.2674 -0.0222 -0.4569
 5121SOL    HW126999   3.616   2.616   3.617 -1.4316 -1.0782  0.3963
 5121SOL    HW227000   3.592   2.561   3.743  1.7716 -0.6050  1.2932
 5122SOL     OW27001   3.647   4.064   4.638  0.6398 -0.5231 -0.1504
 5122SOL    HW127002   3.741   4.081   4.650  0.5109  1.0563 -1.5110
 5122SOL    HW227003   3.621   4.133   4.578  1.6782 -0.6335 -0.7267
 5123SOL     OW27004   4.361   0.430  12.544 -0.4128 -0.6481  0.2082
 5123SOL    HW127005   4.271   0.439  12.511 -0.0245 -0.0718 -0.7034
 5123SOL    HW227006   4.359   0.512  12.593  1.6703 -0.3315 -0.2500
 5124SOL     OW27007   1.680   4.649   2.609 -0.1219 -0.2448 -0.2959
 5124SOL    HW127008   1.629   4.730   2.612  2.4169  1.3224  0.8226
 5124SOL    HW227009   1.770   4.681   2.616 -0.9097  1.8496  0.2475
 5125SOL     OW27010   3.102   3.735   5.891 -1.0028  0.0573 -0.2215
 5125SOL    HW127011   3.097   3.678   5.814  0.4285  2.2979 -1.9457
 5125SOL    HW227012   3.186   3.775   5.872  0.0160 -1.3451  1.3160
 5126SOL     OW27013   3.372   1.634  17.700 -0.7346 -0.0456  0.9597
 5126SOL    HW127014   3.282   1.662  17.714 -0.6255 -0.5191  2.6607
 5126SOL    HW227015   3.358   1.540  17.693  0.3522 -0.0870 -0.6986
 5127SOL     OW27016   4.313   2.686   7.935 -0.5993 -0.1084 -0.3038
 5127SOL    HW127017   4.384   2.624   7.917  0.7692  0.7295  2.2377
 5127SOL    HW227018   4.329   2.703   8.028  0.6350 -0.7417 -0.3994
 5128SOL     OW27019   1.964   4.305   2.438 -0.5456 -0.4731 -0.3801
 5128SOL    HW127020   2.000   4.263   2.360  0.4237  1.0321 -0.7552
 5128SOL    HW227021   1.870   4.314   2.424 -1.0196 -1.7207  1.9168
 5129SOL     OW27022   1.002   3.462   8.403  0.4351  0.4747 -0.4955
 5129SOL    HW127023   1.015   3.378   8.358 -0.2710 -0.0932  0.3516
 5129SOL    HW227024   0.945   3.431   8.474  0.5256  1.4763  0.0142
 5130SOL     OW27025   4.261   0.231  10.743 -0.5052 -0.0775  0.0754
 5130SOL    HW127026   4.209   0.152  10.759  1.1542 -1.8502 -3.2557
 5130SOL    HW227027   4.221   0.298  10.799  2.0186  0.3710  1.3519
 5131SOL     OW27028   2.902   3.052   0.946 -0.0981  0.5775  0.2327
 5131SOL    HW127029   2.892   3.006   1.029  0.4602  2.0404  1.1268
 5131SOL    HW227030   2.827   3.110   0.934 -2.4821 -2.3548  1.1460
 5132SOL     OW27031   3.280   4.071   0.903 -0.1967  0.4513  0.0531
 5132SOL    HW127032   3.375   4.074   0.913 -0.1780 -1.0112  0.3101
 5132SOL    HW227033   3.270   4.164   0.882 -0.2084  1.0575  2.7403
 5133SOL     OW27034   3.702   2.844   3.828 -0.2842  0.0383  0.1806
 5133SOL    HW127035   3.705   2.757   3.789 -0.8170  0.1407 -0.0855
 5133SOL    HW227036   3.625   2.831   3.883  0.4591 -2.1540  0.7078
 5134SOL     OW27037   3.260   4.002  12.860 -0.0616  0.4865 -0.0529
 5134SOL    HW127038   3.209   3.941  12.914  0.3239  0.0005 -0.2349
 5134SOL    HW227039   3.215   4.085  12.873 -1.6857 -0.5505  0.9133
 5135SOL     OW27040   1.857   0.081   7.823 -0.3674 -0.2322 -0.4204
 5135SOL    HW127041   1.872   0.073   7.728  0.5919 -2.5057 -0.0892
 5135SOL    HW227042   1.866   0.176   7.824  3.2219 -0.5285 -1.8711
 5136SOL     OW27043   0.066   3.354   6.136  0.0527 -0.1942  0.2392
 5136SOL    HW127044   4.731   3.337   6.076 -0.5525 -0.1025  0.9490
 5136SOL    HW227045   0.118   3.420   6.091  0.0679 -1.4786 -1.6495
 5137SOL     OW27046   3.851   0.903  12.417 -0.4431  0.3397 -0.3684
 5137SOL    HW127047   3.791   0.832  12.397  0.9744 -0.3577 -2.1752
 5137SOL    HW227048   3.797   0.959  12.473 -0.1516 -0.0269  0.2765
 5138SOL     OW27049   4.694   1.604   6.541 -0.1656  0.0060 -0.2995
 5138SOL    HW127050   0.049   1.606   6.516 -0.4565 -0.0982 -1.3691
 5138SOL    HW227051   4.656   1.691   6.524  1.1696  0.7783  0.6264
 5139SOL     OW27052   3.253   1.711   4.995  0.1226 -0.1682  0.3012
 5139SOL    HW127053   3.328   1.754   5.036  1.1077 -1.7562  0.1716
 5139SOL    HW227054   3.222   1.790   4.952  0.6917  0.4200  0.9669
 5140SOL     OW27055   4.562   4.220  15.045 -0.0888 -0.5828 -0.0586
 5140SOL    HW127056   4.598   4.135  15.069 -0.6199 -1.3073 -1.8745
 5140SOL    HW227057   4.538   4.199  14.955 -1.6192 -1.5108  0.5696
 5141SOL     OW27058   3.157   3.927   3.975  0.0333 -0.3564 -0.0861
 5141SOL    HW127059   3.159   3.853   3.914  1.0542 -1.5039  1.3534
 5141SOL    HW227060   3.171   3.892   4.063 -2.3287  0.4748  0.6064
 5142SOL     OW27061   0.649   0.589  14.648 -0.2320  0.3064 -0.3972
 5142SOL    HW127062   0.684   0.588  14.559  2.4711 -1.9650  0.6688
 5142SOL    HW227063   0.560   0.619  14.631 -0.8540 -0.8628  0.7676
 5143SOL     OW27064   3.840   3.989   5.381 -0.4020  0.1449 -0.1925
 5143SOL    HW127065   3.846   3.916   5.443 -0.5094  0.2112 -0.1031
 5143SOL    HW227066   3.838   4.070   5.431  1.9221 -0.0570  0.2299
 5144SOL     OW27067   3.738   1.300   6.299  0.3322  0.4035 -0.1526
 5144SOL    HW127068   3.794   1.377   6.288  0.5460  0.3817  0.7704
 5144SOL    HW227069   3.685   1.323   6.375 -0.6242  1.3952 -1.1288
 5145SOL     OW27070   2.724   4.289  12.344 -0.0791  0.2966  0.3594
 5145SOL    HW127071   2.687   4.315  12.429  0.6916 -1.4574  1.2351
 5145SOL    HW227072   2.804   4.244  12.371 -0.7909 -2.4179 -2.0651
 5146SOL     OW27073   1.691   2.864   1.911  0.4863  0.4573 -0.1955
 5146SOL    HW127074   1.638   2.808   1.967  0.2510 -1.1136 -1.9882
 5146SOL    HW227075   1.630   2.930   1.878 -1.3162  0.2490  2.7036
 5147SOL     OW27076   4.390   1.796   1.213 -0.2981  0.4220 -0.0076
 5147SOL    HW127077   4.400   1.886   1.243 -3.5959  0.8336 -0.1910
 5147SOL    HW227078   4.295   1.789   1.212 -0.1856 -1.2217  0.4557
 5148SOL     OW27079   1.576   2.715   4.817  0.0121 -0.6576 -0.0171
 5148SOL    HW127080   1.597   2.751   4.903  0.6518 -2.6400  0.6469
 5148SOL    HW227081   1.557   2.790   4.760  1.4380 -0.8350 -0.7008
 5149SOL     OW27082   3.128   2.901  13.526 -0.2819  0.3644 -0.1236
 5149SOL    HW127083   3.126   2.992  13.553  0.3361  0.0160  1.1090
 5149SOL    HW227084   3.110   2.919  13.434 -1.6626 -0.6232 -0.0432
 5150SOL     OW27085   0.173   1.751   7.610 -0.3440 -0.8465 -0.1601
 5150SOL    HW127086   0.226   1.721   7.536 -0.3260 -1.7718  0.2298
 5150SOL    HW227087   0.135   1.673   7.650 -1.9572 -0.5463 -1.1297
 5151SOL     OW27088   3.609   2.773   6.464 -0.0200  0.2428  0.2819
 5151SOL    HW127089   3.657   2.824   6.399  0.4395 -0.8896 -0.2601
 5151SOL    HW227090   3.676   2.707   6.480 -1.8868 -1.6845  0.1702
 5152SOL     OW27091   3.548   1.426   2.995 -0.8553  0.0073  0.0898
 5152SOL    HW127092   3.523   1.510   3.033  2.3436  0.6923  0.6482
 5152SOL    HW227093   3.602   1.446   2.918 -2.0797  0.3260 -0.6894
 5153SOL     OW27094   2.236   3.375  10.216  0.6531  0.0647 -0.4958
 5153SOL    HW127095   2.265   3.298  10.266  2.6212  0.5319 -0.9301
 5153SOL    HW227096   2.322   3.389  10.176 -0.8939  3.1223 -2.7178
 5154SOL     OW27097   4.159   3.941   6.877 -0.6344 -0.2566  0.1923
 5154SOL    HW127098   4.171   3.892   6.959  0.1136  0.1004  0.2995
 5154SOL    HW227099   4.246   3.981   6.882 -0.4898 -0.6041  0.4773
 5155SOL     OW27100   3.300   3.968  14.966  0.4105 -0.0051 -0.7823
 5155SOL    HW127101   3.304   3.950  15.060  1.4001 -1.3023 -1.0756
 5155SOL    HW227102   3.377   4.018  14.941 -0.3965  1.1629 -0.9230
 5156SOL     OW27103   1.727   1.520   7.219  0.4438  0.6192  0.0798
 5156SOL    HW127104   1.761   1.431   7.224 -2.1997 -0.4028  0.0835
 5156SOL    HW227105   1.711   1.545   7.310  1.5297  0.0912  0.4146
 5157SOL     OW27106   3.628   3.749   6.640  0.1179 -0.5317 -0.5313
 5157SOL    HW127107   3.590   3.781   6.558 -0.2442 -2.9706 -1.3267
 5157SOL    HW227108   3.563   3.781   6.703  1.7685  1.2845  0.2259
 5158SOL     OW27109   4.012   0.180  17.285 -0.4244 -0.2411 -0.6254
 5158SOL    HW127110   4.083   0.126  17.250  0.1610 -0.3743  0.7611
 5158SOL    HW227111   4.007   0.140  17.372 -1.2631 -0.2366 -0.6697
 5159SOL     OW27112   3.177   3.729   6.542 -0.1244 -0.3652  0.0713
 5159SOL    HW127113   3.269   3.706   6.528 -0.1154  0.0174 -0.4728
 5159SOL    HW227114   3.183   3.824   6.535  2.5867 -0.4588  0.9770
 5160SOL     OW27115   4.662   3.002   6.102  0.2914 -0.0567 -0.6600
 5160SOL    HW127116   0.014   2.967   6.103 -0.4784 -2.0244 -1.1308
 5160SOL    HW227117   4.630   2.972   6.187 -0.8800  2.6383 -0.1509
 5161SOL     OW27118   4.724   3.037   8.314 -0.0870  0.3834 -0.6362
 5161SOL    HW127119   0.040   2.968   8.273 -1.0212  0.0571 -1.3197
 5161SOL    HW227120   4.666   2.978   8.364  1.8782  0.3306  1.5814
 5162SOL     OW27121   0.611   1.490   0.679 -0.2977  0.2566 -0.1421
 5162SOL    HW127122   0.644   1.436   0.750  1.7476  0.3875 -0.9900
 5162SOL    HW227123   0.635   1.577   0.711 -0.3899 -0.7264  2.6349
 5163SOL     OW27124   2.089   3.938   3.633  0.5508  0.3732  0.3700
 5163SOL    HW127125   2.098   3.876   3.561  0.2692 -0.1285  0.7694
 5163SOL    HW227126   2.069   3.884   3.709  1.5621 -2.3961 -1.3500
 5164SOL     OW27127   0.255   0.603  17.581 -0.0076  0.0725 -0.5671
 5164SOL    HW127128   0.322   0.663  17.614 -1.5258  1.0849  0.6836
 5164SOL    HW227129   0.295   0.520  17.608 -0.0263  0.1643 -0.2600
 5165SOL     OW27130   2.752   2.639  11.295  0.5312 -0.3594  0.2962
 5165SOL    HW127131   2.674   2.616  11.244  0.0457  1.0353  0.4226
 5165SOL    HW227132   2.761   2.572  11.364  1.0128 -2.3282 -1.6658
 5166SOL     OW27133   1.429   3.451   8.717 -0.5364  0.1410  0.3250
 5166SOL    HW127134   1.412   3.359   8.734  0.0183  0.0194  0.2168
 5166SOL    HW227135   1.360   3.467   8.653 -1.1127 -0.4525  0.7984
 5167SOL     OW27136   3.522   2.506   4.536  0.1780 -0.3591 -0.8928
 5167SOL    HW127137   3.603   2.482   4.581  0.9132  0.9074 -1.5397
 5167SOL    HW227138   3.570   2.548   4.464  2.2006  0.0539  0.6919
 5168SOL     OW27139   0.079   1.866   4.800 -0.0332 -0.2020  0.1696
 5168SOL    HW127140   4.737   1.828   4.839 -1.5631 -0.8530 -3.5816
 5168SOL    HW227141   0.109   1.795   4.743 -1.6848 -0.6801 -0.1085
 5169SOL     OW27142   4.143   4.595   6.764  0.4363  0.5277  0.7819
 5169SOL    HW127143   4.075   4.567   6.702  1.7449 -1.3417  0.2306
 5169SOL    HW227144   4.168   4.512   6.803 -0.2804 -0.1655 -0.2417
 5170SOL     OW27145   1.401   2.366   2.722  0.3528 -0.6060  0.6172
 5170SOL    HW127146   1.310   2.392   2.730  1.0157  2.6437 -2.3054
 5170SOL    HW227147   1.407   2.289   2.778  0.7577 -0.1479  1.2109
 5171SOL     OW27148   1.999   3.757   3.205  0.6110  0.2653  0.3733
 5171SOL    HW127149   1.996   3.668   3.171  0.7722  0.3158  0.2270
 5171SOL    HW227150   1.987   3.813   3.129  1.9476  0.4197  0.2733
 5172SOL     OW27151   3.920   3.389   1.221 -0.3509  0.2738  0.1584
 5172SOL    HW127152   3.892   3.478   1.202 -0.2049  0.6767  1.8368
 5172SOL    HW227153   3.873   3.350   1.147  0.4898 -1.7555  0.6832
 5173SOL     OW27154   0.404   3.881  10.106 -0.4043 -0.3519  0.4968
 5173SOL    HW127155   0.440   3.919  10.186 -1.2387 -1.3203  1.3370
 5173SOL    HW227156   0.379   3.957  10.055  0.8360  0.9151  1.7813
 5174SOL     OW27157   2.170   2.144  15.315 -0.3342 -0.7492  0.3366
 5174SOL    HW127158   2.226   2.188  15.251  1.7284 -3.0204  0.5549
 5174SOL    HW227159   2.233   2.141  15.387  1.0772  0.0283 -0.8773
 5175SOL     OW27160   4.666   3.180   3.972 -0.5729 -0.0597  0.3736
 5175SOL    HW127161   4.726   3.248   3.940 -0.7396  0.3856  0.9964
 5175SOL    HW227162   4.676   3.120   3.899  2.0284  1.8226 -0.8028
 5176SOL     OW27163   1.356   2.715  13.453  0.1006  0.5759  0.4535
 5176SOL    HW127164   1.418   2.644  13.470  0.7253  0.3882 -2.6567
 5176SOL    HW227165   1.405   2.769  13.391 -0.4001  1.6262  0.9686
 5177SOL     OW27166   1.780   2.220  15.622  0.1661 -0.6440  0.2903
 5177SOL    HW127167   1.755   2.229  15.530 -0.0222 -2.3421  0.1808
 5177SOL    HW227168   1.870   2.190  15.622  1.4189  3.0455  3.4405
 5178SOL     OW27169   1.868   0.204  15.652  0.2238  0.0958  0.2114
 5178SOL    HW127170   1.875   0.137  15.719 -0.8983 -1.0815 -0.8533
 5178SOL    HW227171   1.880   0.143  15.579 -0.7036 -0.5144  0.5813
 5179SOL     OW27172   0.346   1.057   3.669  0.0721 -0.3473 -0.4589
 5179SOL    HW127173   0.315   0.967   3.671  2.1530 -0.9842  2.8949
 5179SOL    HW227174   0.432   1.050   3.628 -0.8412 -1.3400 -2.1951
 5180SOL     OW27175   2.925   4.398  16.652  0.0534 -0.5749  0.5073
 5180SOL    HW127176   2.838   4.424  16.679 -1.4084 -0.8497 -3.8986
 5180SOL    HW227177   2.905   4.344  16.576  0.5044 -1.3791  0.9516
 5181SOL     OW27178   1.443   0.653   1.748  0.2544 -0.6011  0.0256
 5181SOL    HW127179   1.524   0.678   1.793 -0.1389  0.6578  0.0283
 5181SOL    HW227180   1.408   0.582   1.802  1.8961  0.3262  2.3264
 5182SOL     OW27181   3.451   3.618   2.058 -0.4739 -0.8787  0.0240
 5182SOL    HW127182   3.402   3.538   2.041  0.2955 -1.5961  1.2477
 5182SOL    HW227183   3.394   3.656   2.126  2.3514 -0.0155  1.9017
 5183SOL     OW27184   0.344   2.204   6.255 -0.3862 -0.4761 -0.3686
 5183SOL    HW127185   0.406   2.205   6.328 -2.4285 -0.0390  1.3403
 5183SOL    HW227186   0.402   2.222   6.181  1.1431  1.2922  1.2832
 5184SOL     OW27187   2.038   0.809   7.013  0.0591 -0.2333  0.5131
 5184SOL    HW127188   2.075   0.764   6.938 -0.0217  0.3960  0.0956
 5184SOL    HW227189   2.094   0.769   7.080 -0.2877 -0.3757  0.7181
 5185SOL     OW27190   3.841   3.359   2.849  0.5253  0.0069 -0.6234
 5185SOL    HW127191   3.823   3.428   2.912 -0.1278 -2.6234  2.0798
 5185SOL    HW227192   3.935   3.352   2.868  0.0309 -1.9521  1.1446
 5186SOL     OW27193   1.512   3.165  17.486 -0.2451  0.0618  0.5133
 5186SOL    HW127194   1.498   3.077  17.451 -3.2747  0.7944 -0.0694
 5186SOL    HW227195   1.438   3.178  17.546  0.6032 -1.6694  1.9661
 5187SOL     OW27196   1.244   4.305  13.244  0.2033  0.0910 -0.0231
 5187SOL    HW127197   1.273   4.223  13.284  1.1315  0.2806 -0.3075
 5187SOL    HW227198   1.171   4.265  13.196  1.8396 -0.7792 -1.7624
 5188SOL     OW27199   2.564   1.414   7.220  0.0778 -0.1730  0.3146
 5188SOL    HW127200   2.538   1.418   7.312 -1.0333  1.2422 -0.0512
 5188SOL    HW227201   2.645   1.463   7.232 -0.1048 -0.1877  1.6600
 5189SOL     OW27202   2.565   3.557   8.692 -0.3994 -0.2502 -0.3017
 5189SOL    HW127203   2.562   3.613   8.614  0.3166 -1.8578 -1.4768
 5189SOL    HW227204   2.626   3.494   8.655  0.2814 -0.7405  1.6529
 5190SOL     OW27205   4.090   1.157   0.034  0.5380 -0.1702  0.3237
 5190SOL    HW127206   4.090   1.062   0.019 -1.5076 -0.0247 -0.6832
 5190SOL    HW227207   4.090   1.182  17.689 -2.1766 -1.2948  0.0145
 5191SOL     OW27208   1.770   2.516  13.177  0.7634 -0.0988 -0.3179
 5191SOL    HW127209   1.681   2.522  13.143  0.4227  0.4954  0.6661
 5191SOL    HW227210   1.814   2.552  13.100  1.2655  1.6027  0.7734
 5192SOL     OW27211   3.156   4.726   4.563 -0.2046 -0.0327  0.1667
 5192SOL    HW127212   3.174   4.632   4.567  2.2689  0.5931  3.6219
 5192SOL    HW227213   3.117   0.000   4.476 -0.8065 -0.9993  0.3085
 5193SOL     OW27214   2.227   3.691   5.130  0.1609 -0.2848 -0.4994
 5193SOL    HW127215   2.184   3.687   5.045  1.2738 -0.9008 -1.0244
 5193SOL    HW227216   2.205   3.781   5.155 -1.4452 -1.3085  1.7036
 5194SOL     OW27217   2.532   2.122  17.691 -0.1587 -0.4473  0.0052
 5194SOL    HW127218   2.595   2.086  17.629  0.9672  2.4235 -0.5313
 5194SOL    HW227219   2.456   2.120  17.632 -2.4091 -1.3566  2.9769
 5195SOL     OW27220   1.484   4.486   2.143 -0.0261  0.0520  0.6378
 5195SOL    HW127221   1.545   4.549   2.181 -0.8473  0.3950  1.3791
 5195SOL    HW227222   1.517   4.408   2.188  0.4548  0.6645  1.3610
 5196SOL     OW27223   2.583   4.211   5.729  0.7648 -0.2569 -0.6727
 5196SOL    HW127224   2.629   4.192   5.811 -0.8219 -1.2919 -0.0367
 5196SOL    HW227225   2.542   4.293   5.756  1.1321  0.1418 -1.3239
 5197SOL     OW27226   1.116   0.235   4.879 -0.3546 -0.7230  0.0907
 5197SOL    HW127227   1.161   0.217   4.961  1.4783 -1.7043 -1.1313
 5197SOL    HW227228   1.129   0.326   4.853 -3.3526 -0.2026  0.4664
 5198SOL     OW27229   0.659   4.251  15.906 -0.3742 -0.0065 -0.4138
 5198SOL    HW127230   0.575   4.271  15.864 -0.7403 -3.5162 -1.3553
 5198SOL    HW227231   0.708   4.329  15.881  1.0554 -0.4243  1.0899
 5199SOL     OW27232   1.068   3.062  10.587  0.2150  0.2037  0.1478
 5199SOL    HW127233   0.996   3.098  10.638  0.6373 -0.6487  1.3341
 5199SOL    HW227234   1.132   3.117  10.633 -0.8952  1.8216 -0.2194
 5200SOL     OW27235   0.590   4.567   2.913  0.7366 -0.3692  0.1348
 5200SOL    HW127236   0.584   4.615   2.995 -2.8302 -0.6565  0.0319
 5200SOL    HW227237   0.522   4.500   2.915  1.6117 -1.2205  1.0721
 5201SOL     OW27238   1.572   0.496   6.373 -0.1349 -0.2636 -0.0755
 5201SOL    HW127239   1.515   0.422   6.353 -0.3856 -0.2231  0.4813
 5201SOL    HW227240   1.570   0.512   6.468  0.7421 -2.1462  0.2718
 5202SOL     OW27241   0.948   0.036   3.424 -0.0943 -0.5242 -0.3248
 5202SOL    HW127242   0.923   0.072   3.509 -0.2341 -1.9020  0.2274
 5202SOL    HW227243   0.920   0.110   3.372  0.9695  0.3433  0.3238
 5203SOL     OW27244   4.448   2.400   8.303 -0.2298  0.1022 -0.5377
 5203SOL    HW127245   4.516   2.452   8.260  1.1556 -2.2575 -1.1766
 5203SOL    HW227246   4.368   2.450   8.287 -0.9667 -0.5562  1.1413
 5204SOL     OW27247   0.554   3.865   2.807 -0.1861 -0.6443 -0.0390
 5204SOL    HW127248   0.469   3.847   2.848  1.8407 -3.7269  2.8398
 5204SOL    HW227249   0.616   3.815   2.861  0.9620  1.8235  0.9279
 5205SOL     OW27250   3.592   0.614   8.642  0.1813 -0.1501 -0.3300
 5205SOL    HW127251   3.562   0.606   8.733  0.9044  1.1965  0.0155
 5205SOL    HW227252   3.686   0.596   8.648  0.2700  0.9503  1.7306
 5206SOL     OW27253   3.115   3.832  12.563 -0.4146  0.7674  0.7078
 5206SOL    HW127254   3.179   3.771  12.600 -2.2983 -0.4873  1.8766
 5206SOL    HW227255   3.080   3.866  12.645 -0.4215  0.5922  0.7778
 5207SOL     OW27256   0.725   2.278   3.566 -0.1517  0.0524  0.6577
 5207SOL    HW127257   0.783   2.345   3.529 -1.4433  1.6100  1.4819
 5207SOL    HW227258   0.691   2.314   3.648  0.5218 -0.3266  1.1026
 5208SOL     OW27259   3.731   2.415  11.874 -0.1078 -0.4787  0.0582
 5208SOL    HW127260   3.729   2.411  11.779 -0.1253  1.1732 -0.0136
 5208SOL    HW227261   3.731   2.510  11.886 -0.5999 -0.4128 -0.4925
 5209SOL     OW27262   2.300   1.378  13.382  0.2403 -0.0504  0.3903
 5209SOL    HW127263   2.220   1.422  13.411 -0.9634 -0.4138 -2.3861
 5209SOL    HW227264   2.317   1.310  13.447 -0.8216 -1.5819 -0.9256
 5210SOL     OW27265   2.295   2.958   3.506  0.0458  0.5239 -0.5003
 5210SOL    HW127266   2.380   2.952   3.463  0.1253  0.4732 -0.3338
 5210SOL    HW227267   2.300   3.043   3.551 -0.3230  0.2214  0.1182
 5211SOL     OW27268   3.810   0.967   1.130  0.6308 -0.7815  0.0710
 5211SOL    HW127269   3.834   0.950   1.221  0.7758 -1.6720 -0.1306
 5211SOL    HW227270   3.874   0.908   1.088  0.9915  0.8233 -1.6351
 5212SOL     OW27271   2.713   1.569   3.496 -0.1511  0.3986 -0.4690
 5212SOL    HW127272   2.635   1.514   3.494  0.5517 -0.6168 -0.0289
 5212SOL    HW227273   2.672   1.652   3.474 -0.5781 -0.0562 -1.4089
 5213SOL     OW27274   4.055   3.409   8.135 -0.1644  0.0809 -0.2785
 5213SOL    HW127275   4.128   3.376   8.083  2.1117  4.1712  0.3088
 5213SOL    HW227276   3.999   3.443   8.066 -2.2517 -1.7726  0.4913
 5214SOL     OW27277   1.690   2.553  12.725 -0.4699 -0.1906  0.8267
 5214SOL    HW127278   1.748   2.478  12.710 -1.9449 -1.1646 -0.1064
 5214SOL    HW227279   1.751   2.598  12.783  0.9546 -0.4834 -0.4547
 5215SOL     OW27280   0.842   2.012   5.915  0.3784  0.9667 -0.1077
 5215SOL    HW127281   0.937   2.005   5.899  0.0187  0.9658 -2.2664
 5215SOL    HW227282   0.807   1.940   5.863  1.2647  0.8314 -0.5127
 5216SOL     OW27283   2.239   3.022   9.357  0.6822  0.5396  0.2149
 5216SOL    HW127284   2.309   3.072   9.399  1.0949  2.6047 -2.9564
 5216SOL    HW227285   2.165   3.083   9.364  1.7878  1.8146  0.7600
 5217SOL     OW27286   2.078   2.962   1.657  0.2784  0.2607 -0.3379
 5217SOL    HW127287   2.039   2.882   1.693 -0.9532  1.9069  2.0067
 5217SOL    HW227288   2.029   2.973   1.576  0.9896 -0.5175 -0.8839
 5218SOL     OW27289   3.797   0.280   3.474  0.1096  0.6142  0.0223
 5218SOL    HW127290   3.731   0.247   3.535 -1.1004 -0.1216 -1.6956
 5218SOL    HW227291   3.880   0.241   3.502 -1.2922 -1.4531  1.2368
 5219SOL     OW27292   0.256   3.562  13.727 -0.0536  0.4329 -0.6528
 5219SOL    HW127293   0.171   3.592  13.760  0.1900 -0.3067  0.6497
 5219SOL    HW227294   0.299   3.646  13.712  1.3022  0.1349  1.6054
 5220SOL     OW27295   4.012   3.319   8.573 -0.0832 -0.0236 -0.3179
 5220SOL    HW127296   3.920   3.329   8.545 -0.0227 -3.6040 -1.8840
 5220SOL    HW227297   4.060   3.358   8.500 -0.1193  0.6117 -0.0007
 5221SOL     OW27298   0.188   0.016   8.426  0.8451 -0.3707 -0.1660
 5221SOL    HW127299   0.202   4.689   8.356 -0.9181 -1.2086  0.2699
 5221SOL    HW227300   0.101   4.723   8.452  0.1501  1.6855 -0.1263
 5222SOL     OW27301   1.813   4.597   3.727  0.3647 -0.0798  0.0025
 5222SOL    HW127302   1.866   4.604   3.806  1.4920  0.0214 -0.7678
 5222SOL    HW227303   1.873   4.539   3.681 -0.1334 -1.2800  0.8609
 5223SOL     OW27304   2.733   4.154  16.947  0.2754 -0.4769 -0.6191
 5223SOL    HW127305   2.644   4.185  16.932  1.8473  2.7413 -3.1589
 5223SOL    HW227306   2.721   4.120  17.036  0.5138  1.1011  0.0094
 5224SOL     OW27307   0.091   4.348   4.188 -0.8159  0.7192 -0.8794
 5224SOL    HW127308   0.169   4.400   4.207 -0.3579 -0.8816  1.5466
 5224SOL    HW227309   0.089   4.360   4.093  0.4206  0.0855 -0.9866
 5225SOL     OW27310   4.329   1.309   1.135 -0.5051  0.1034  0.0989
 5225SOL    HW127311   4.266   1.368   1.093 -0.3749  0.6355  0.6698
 5225SOL    HW227312   4.331   1.237   1.072 -1.2869  1.8761 -1.9631
 5226SOL     OW27313   1.167   4.635   7.821  0.2161  0.2381  0.0769
 5226SOL    HW127314   1.138   4.726   7.821  1.0545  0.4972  2.7445
 5226SOL    HW227315   1.080   4.596   7.825  0.2094  0.0846 -1.6533
 5227SOL     OW27316   0.202   4.533  16.608  0.1515  0.3075 -0.7823
 5227SOL    HW127317   0.221   4.589  16.533  0.0816 -1.3522 -2.0314
 5227SOL    HW227318   0.114   4.564  16.626  0.3379 -0.3889  1.3144
 5228SOL     OW27319   2.529   3.650   9.197  0.2718  0.2249  0.8390
 5228SOL    HW127320   2.547   3.667   9.105 -2.0243 -1.0896  0.1510
 5228SOL    HW227321   2.540   3.739   9.231  2.7382 -0.3116  1.4827
 5229SOL     OW27322   1.030   0.045   6.593  0.3937  0.1755  0.3042
 5229SOL    HW127323   0.990   4.696   6.582 -0.5691  0.6698 -0.0409
 5229SOL    HW227324   1.002   0.056   6.684 -2.2751 -0.5261 -0.4469
 5230SOL     OW27325   3.152   3.767  13.952 -0.0035  0.0422 -0.2288
 5230SOL    HW127326   3.129   3.724  13.870  1.4275 -2.3019  0.5828
 5230SOL    HW227327   3.174   3.856  13.927  2.7380 -0.3550  0.7461
 5231SOL     OW27328   3.501   0.207   1.482 -0.0881  0.0498  0.6766
 5231SOL    HW127329   3.482   0.292   1.441 -1.1199 -0.1662  0.7100
 5231SOL    HW227330   3.490   0.150   1.406 -0.0843  1.5854 -0.4765
 5232SOL     OW27331   3.755   4.373   7.898 -0.4950  0.1588  0.1983
 5232SOL    HW127332   3.725   4.384   7.808  0.5169 -0.2888 -0.2025
 5232SOL    HW227333   3.756   4.278   7.908  2.2643 -0.0524 -1.9718
 5233SOL     OW27334   1.363   2.197   9.830 -0.0250 -0.1279  0.2642
 5233SOL    HW127335   1.342   2.233   9.916 -2.7213 -2.0814  0.4193
 5233SOL    HW227336   1.362   2.280   9.781  0.2105 -0.4976 -0.3627
 5234SOL     OW27337   3.203   4.621   3.506  0.0423 -0.3414 -0.4425
 5234SOL    HW127338   3.176   4.549   3.449  0.2059 -1.4710  0.9029
 5234SOL    HW227339   3.275   4.577   3.551 -0.7961  0.2336  1.4563
 5235SOL     OW27340   1.646   3.946   7.632  0.1547 -0.7726 -0.1639
 5235SOL    HW127341   1.636   3.990   7.717 -0.6234 -2.8986  0.8605
 5235SOL    HW227342   1.738   3.930   7.649  0.4172 -1.9949 -2.7454
 5236SOL     OW27343   4.182   2.562   2.153  0.0046  0.6658 -0.0356
 5236SOL    HW127344   4.186   2.604   2.066  0.2397  2.4553  0.8298
 5236SOL    HW227345   4.216   2.633   2.208  0.2683  0.7085 -0.2505
 5237SOL     OW27346   1.588   3.122  11.213 -0.4033 -0.6830 -0.0765
 5237SOL    HW127347   1.680   3.144  11.199 -0.4289  0.0641  0.9146
 5237SOL    HW227348   1.560   3.189  11.275  2.5021 -2.2576  2.9745
 5238SOL     OW27349   3.945   1.434  17.638  0.1278 -0.3749 -0.1957
 5238SOL    HW127350   3.886   1.370  17.678 -1.9194  0.7867 -1.3246
 5238SOL    HW227351   4.030   1.399  17.664  0.8672  1.8544  0.4315
 5239SOL     OW27352   2.941   4.535   9.205  0.2802  0.7074  0.2012
 5239SOL    HW127353   2.948   4.599   9.134 -2.6055 -0.1437 -0.8284
 5239SOL    HW227354   2.850   4.507   9.206  0.1564  1.0629 -1.8503
 5240SOL     OW27355   1.221   0.760   6.982 -0.3160  0.0147  0.8008
 5240SOL    HW127356   1.174   0.843   6.988 -0.5267 -0.0727  0.3992
 5240SOL    HW227357   1.262   0.787   6.900  1.0171 -0.0607  1.4541
 5241SOL     OW27358   4.257   0.912   4.959 -0.6132 -0.0148 -0.1910
 5241SOL    HW127359   4.349   0.926   4.937 -0.8748  1.2133 -0.5072
 5241SOL    HW227360   4.244   0.982   5.023  0.0109  0.8459 -1.0061
 5242SOL     OW27361   3.371   2.674   3.068 -0.5751  0.3167  0.1671
 5242SOL    HW127362   3.400   2.590   3.104  1.4909  1.0572  0.2302
 5242SOL    HW227363   3.452   2.720   3.048  0.5498 -0.9918  1.7514
 5243SOL     OW27364   3.930   0.317  10.313  0.2709 -0.0187 -0.2462
 5243SOL    HW127365   3.843   0.356  10.325  0.0627 -1.0134  1.4367
 5243SOL    HW227366   3.971   0.322  10.399 -0.4110  1.4975 -0.0076
 5244SOL     OW27367   0.271   0.509  17.002  0.0045 -0.3487 -0.1888
 5244SOL    HW127368   0.266   0.579  17.067 -0.4452  0.8721 -1.5213
 5244SOL    HW227369   0.190   0.522  16.951  0.6126 -0.9681 -1.3095
 5245SOL     OW27370   3.268   4.378  16.955 -0.7152  0.7324  0.0329
 5245SOL    HW127371   3.292   4.464  16.988 -0.2960  0.1523  1.2391
 5245SOL    HW227372   3.285   4.386  16.861  0.2732  1.7347  0.3098
 5246SOL     OW27373   2.626   1.821  16.962 -0.1778  0.2440 -0.0175
 5246SOL    HW127374   2.700   1.872  16.929  0.4024 -0.4239  0.2783
 5246SOL    HW227375   2.657   1.786  17.045 -2.0508  1.3840  1.1835
 5247SOL     OW27376   3.107   4.669  11.655 -0.2602 -0.2625 -0.2050
 5247SOL    HW127377   3.112   0.026  11.647 -1.0508 -0.0540  1.7918
 5247SOL    HW227378   3.049   4.648  11.582 -1.3278  2.8539 -0.2320
 5248SOL     OW27379   4.310   3.530   3.834  0.3585  0.5665 -0.1510
 5248SOL    HW127380   4.221   3.496   3.823  0.1097  1.1631  0.0255
 5248SOL    HW227381   4.355   3.449   3.859 -1.5088  0.5964  3.2493
 5249SOL     OW27382   1.160   2.525  17.057 -0.7900  0.3814 -0.1757
 5249SOL    HW127383   1.113   2.459  17.107  0.2435 -1.3367 -1.4728
 5249SOL    HW227384   1.090   2.589  17.044  0.2201  1.6552  0.6435
 5250SOL     OW27385   2.777   4.719  10.108  0.2623  0.2648 -0.4177
 5250SOL    HW127386   2.752   0.058  10.161 -0.3958  0.2407 -0.6868
 5250SOL    HW227387   2.745   0.017  10.024 -1.6714 -0.9517 -0.1733
 5251SOL     OW27388   3.473   0.432   4.534  0.1098  0.5680 -0.3156
 5251SOL    HW127389   3.452   0.518   4.572  1.2727  1.0649 -0.8016
 5251SOL    HW227390   3.469   0.453   4.440 -1.0352  0.9414 -0.1840
 5252SOL     OW27391   2.478   2.812   2.216 -0.0415 -0.4803  0.0772
 5252SOL    HW127392   2.448   2.765   2.293 -1.4257 -0.9890 -0.7681
 5252SOL    HW227393   2.514   2.732   2.178  1.6967  0.3262 -0.0017
 5253SOL     OW27394   2.970   0.151   4.771 -0.5020  1.0984 -0.2161
 5253SOL    HW127395   3.040   0.121   4.712 -1.6858 -1.6967 -0.1999
 5253SOL    HW227396   2.921   0.070   4.783  0.7821 -0.1064 -3.0210
 5254SOL     OW27397   3.852   1.721   3.709  0.7868  0.5152 -0.2477
 5254SOL    HW127398   3.882   1.802   3.668  0.4303 -0.4340 -2.3980
 5254SOL    HW227399   3.926   1.662   3.691  0.2104 -0.2020 -0.2374
 5255SOL     OW27400   1.711   2.129   3.130  0.3072 -0.0593 -0.2348
 5255SOL    HW127401   1.766   2.193   3.084 -0.1171  2.1043  2.2475
 5255SOL    HW227402   1.648   2.095   3.066  1.2162 -2.4536  0.1460
 5256SOL     OW27403   0.936   3.945   1.877 -0.7315 -0.2486  0.0019
 5256SOL    HW127404   0.909   4.033   1.900 -0.0418 -0.3839  1.3484
 5256SOL    HW227405   0.965   3.969   1.788 -2.7068 -1.8998 -1.0714
 5257SOL     OW27406   3.389   3.743   8.079  0.7680 -0.9510 -0.3349
 5257SOL    HW127407   3.313   3.755   8.022 -0.4447  2.8342  2.0606
 5257SOL    HW227408   3.361   3.798   8.153 -0.4631 -1.1737 -0.6263
 5258SOL     OW27409   0.438   3.367   2.578 -0.3520  0.5121  0.2127
 5258SOL    HW127410   0.485   3.321   2.647 -2.7825 -3.4364 -0.7561
 5258SOL    HW227411   0.370   3.413   2.626  2.8774  0.9859  4.3212
 5259SOL     OW27412   0.350   2.211  16.043  0.0535  0.3167  0.0795
 5259SOL    HW127413   0.358   2.123  16.082  0.5216  1.4345  2.5360
 5259SOL    HW227414   0.288   2.256  16.100 -0.3377 -0.6448  0.4270
 5260SOL     OW27415   4.592   1.021   2.729 -0.3613 -0.2282  0.0191
 5260SOL    HW127416   4.605   1.111   2.700 -0.2092  0.2593  1.5942
 5260SOL    HW227417   4.545   0.981   2.656 -1.0720  0.1034  0.2948
 5261SOL     OW27418   0.170   3.513   7.697 -0.3851 -0.0853 -0.1310
 5261SOL    HW127419   0.101   3.514   7.630  0.8746 -1.3480 -1.4361
 5261SOL    HW227420   0.149   3.432   7.743  2.3570 -0.3271  0.6967
 5262SOL     OW27421   4.463   0.106   1.546 -0.8842  0.0616 -0.0085
 5262SOL    HW127422   4.377   0.148   1.536 -0.0738  1.6035 -0.5299
 5262SOL    HW227423   4.532   0.171   1.560 -0.6320 -0.3502  0.6628
 5263SOL     OW27424   0.283   2.074  15.811  0.2231 -0.3712 -0.2449
 5263SOL    HW127425   0.374   2.091  15.785  1.0423 -1.4909  1.8402
 5263SOL    HW227426   0.279   2.123  15.893 -0.7479 -2.2409  0.8338
 5264SOL     OW27427   1.247   0.503  13.037 -0.2412 -0.5247 -0.0054
 5264SOL    HW127428   1.212   0.514  13.126  1.9860 -1.6483  1.0107
 5264SOL    HW227429   1.167   0.485  12.988 -1.2922 -1.6198  2.1011
 5265SOL     OW27430   0.690   2.738   0.060 -0.1199  0.0829 -0.3652
 5265SOL    HW127431   0.671   2.738   0.154  2.0206 -1.8767  0.0834
 5265SOL    HW227432   0.774   2.692   0.058 -0.0223  0.1429  1.5368
 5266SOL     OW27433   1.477   1.612  16.693 -0.4879 -0.2697 -0.2840
 5266SOL    HW127434   1.475   1.627  16.599  1.6293 -0.7156 -0.3950
 5266SOL    HW227435   1.553   1.655  16.731 -0.5687 -1.5310  1.3208
 5267SOL     OW27436   3.835   2.241   0.308  0.3720  0.3123  0.1923
 5267SOL    HW127437   3.854   2.219   0.399  1.1921  0.2431  0.0101
 5267SOL    HW227438   3.793   2.162   0.274 -2.0814  1.3859  0.7711
 5268SOL     OW27439   1.926   2.507  14.229  0.2161  0.6849  0.4059
 5268SOL    HW127440   1.992   2.455  14.182  0.0104  0.6909  0.1103
 5268SOL    HW227441   1.843   2.477  14.193  0.4900  0.7711 -0.3077
 5269SOL     OW27442   0.248   4.008  11.019  0.1474  0.3163  0.1833
 5269SOL    HW127443   0.339   4.029  11.038  0.3805  0.3918 -1.0153
 5269SOL    HW227444   0.212   4.024  11.106  0.0070 -1.0315  0.3726
 5270SOL     OW27445   0.957   2.684  14.510 -0.4158  0.4723 -0.2527
 5270SOL    HW127446   0.987   2.751  14.449  0.7554  0.8059  0.6868
 5270SOL    HW227447   1.011   2.614  14.472 -0.4115 -0.6120  1.7633
 5271SOL     OW27448   3.698   2.376   9.619 -0.0746 -0.7458 -0.2140
 5271SOL    HW127449   3.669   2.350   9.531 -0.8632  0.5432 -0.3351
 5271SOL    HW227450   3.759   2.442   9.585 -1.2901  1.2415  1.4439
 5272SOL     OW27451   0.787   3.782   2.141  0.3931 -0.5612  0.2867
 5272SOL    HW127452   0.784   3.690   2.116  2.8287 -0.2465 -1.1559
 5272SOL    HW227453   0.880   3.799   2.155  0.2043  0.8468 -0.1405
 5273SOL     OW27454   1.362   3.515   5.381 -0.3114 -0.5532 -0.2334
 5273SOL    HW127455   1.432   3.526   5.445 -0.3887 -0.5467 -0.1494
 5273SOL    HW227456   1.411   3.506   5.300  1.7831 -2.1338  1.1987
 5274SOL     OW27457   0.170   0.117  10.306 -0.2971  0.2504 -0.1730
 5274SOL    HW127458   0.132   0.151  10.387  0.1688  1.3225 -0.4023
 5274SOL    HW227459   0.090   0.138  10.259  1.1315  0.0969 -2.6621
 5275SOL     OW27460   2.002   2.130  13.880  0.6321 -0.4182  0.1385
 5275SOL    HW127461   1.919   2.093  13.848  0.8054 -0.4702 -0.2470
 5275SOL    HW227462   1.982   2.222  13.899 -1.4045 -0.7333 -0.4706
 5276SOL     OW27463   1.412   4.354   6.281  0.6066 -0.4101 -0.3082
 5276SOL    HW127464   1.333   4.322   6.324  1.4386 -1.4095  0.4680
 5276SOL    HW227465   1.370   4.398   6.207 -2.0129 -2.1740  0.1535
 5277SOL     OW27466   2.962   3.840   9.641  0.3482 -0.2237 -0.1311
 5277SOL    HW127467   2.871   3.826   9.614 -0.3778 -1.5811  3.0479
 5277SOL    HW227468   2.952   3.912   9.703 -0.7007  0.9396 -1.6486
 5278SOL     OW27469   2.026   0.877   6.356 -0.0545  0.0775  0.6022
 5278SOL    HW127470   2.067   0.793   6.377  1.4627  0.6293 -0.1553
 5278SOL    HW227471   1.966   0.853   6.285  1.0694 -1.8299  0.2991
 5279SOL     OW27472   3.525   1.693   4.480  0.3550  0.7786 -0.0008
 5279SOL    HW127473   3.556   1.751   4.410 -0.9073  0.4600 -0.8274
 5279SOL    HW227474   3.521   1.761   4.546 -1.4673  0.3153  0.3631
 5280SOL     OW27475   4.320   2.898   4.462 -0.2350  0.2496 -0.0254
 5280SOL    HW127476   4.268   2.915   4.384  0.9425 -0.4938 -0.9646
 5280SOL    HW227477   4.405   2.889   4.420 -1.7103 -1.5716 -2.6163
 5281SOL     OW27478   1.919   2.546   1.254  0.1184 -0.9021 -0.8404
 5281SOL    HW127479   1.950   2.574   1.340 -0.3628  0.7865 -1.2223
 5281SOL    HW227480   1.847   2.485   1.272 -1.6443  0.6289 -2.7719
 5282SOL     OW27481   4.006   1.010   6.928 -0.0191  0.0330 -0.6600
 5282SOL    HW127482   3.993   1.004   6.834  3.8991 -1.6128 -1.0946
 5282SOL    HW227483   4.101   1.008   6.932 -0.1729 -0.5258  3.0770
 5283SOL     OW27484   4.356   2.753   5.368 -0.5659 -0.1012 -0.4063
 5283SOL    HW127485   4.362   2.772   5.275 -0.8261  0.5677 -0.2889
 5283SOL    HW227486   4.273   2.795   5.390 -1.2078 -1.1066 -0.9017
 5284SOL     OW27487   3.294   3.080   4.851  0.2391 -0.0487  0.3383
 5284SOL    HW127488   3.278   2.996   4.807 -0.1536  1.1650 -1.8594
 5284SOL    HW227489   3.220   3.128   4.813  0.8708  2.3762  2.1275
 5285SOL     OW27490   0.099   2.218  16.557  0.0662 -0.2033  0.3382
 5285SOL    HW127491   0.099   2.281  16.629  1.4384 -1.0325  1.0556
 5285SOL    HW227492   0.010   2.184  16.556  0.1322 -0.3433 -1.2807
 5286SOL     OW27493   0.763   1.251   5.480 -0.1636 -0.7089  0.3468
 5286SOL    HW127494   0.757   1.189   5.408  0.6824 -0.6051  0.1792
 5286SOL    HW227495   0.672   1.265   5.506 -0.3135  0.7923 -0.9745
 5287SOL     OW27496   4.191   3.881  14.471 -0.1301  0.3878 -0.6691
 5287SOL    HW127497   4.157   3.968  14.493 -2.3135 -1.3650  3.0034
 5287SOL    HW227498   4.244   3.862  14.548  0.2675 -0.5003 -1.1561
 5288SOL     OW27499   4.710   3.940   9.139 -0.5829  0.3929  0.1764
 5288SOL    HW127500   0.045   3.904   9.191  0.0690 -2.4753 -2.6956
 5288SOL    HW227501   0.003   4.028   9.117  0.5621 -0.6940 -2.6149
 5289SOL     OW27502   3.911   0.973  13.118  0.1808 -0.4331  0.3018
 5289SOL    HW127503   3.939   0.905  13.057 -1.0408  0.9843 -1.8413
 5289SOL    HW227504   3.917   1.048  13.058  1.9076 -2.2752 -1.8162
 5290SOL     OW27505   2.272   3.709  12.967 -0.0279 -0.2866  0.2401
 5290SOL    HW127506   2.277   3.803  12.986 -1.0583 -0.0206 -0.8758
 5290SOL    HW227507   2.364   3.690  12.947  0.1997  0.6392  0.3953
 5291SOL     OW27508   0.124   0.324   4.652 -0.2909 -0.4598 -0.7853
 5291SOL    HW127509   0.115   0.412   4.616  0.4870  0.5884  1.6380
 5291SOL    HW227510   0.200   0.335   4.709  0.2312 -2.5754 -1.0561
 5292SOL     OW27511   0.905   1.627   4.742  0.3709 -0.4313 -0.7418
 5292SOL    HW127512   0.824   1.588   4.773  1.0602  1.0390  2.9101
 5292SOL    HW227513   0.932   1.558   4.681  1.7191  0.7036 -1.4246
 5293SOL     OW27514   2.544   3.499   3.850  0.0446  0.2640 -0.1060
 5293SOL    HW127515   2.618   3.446   3.819  1.1593  0.6512  1.8779
 5293SOL    HW227516   2.518   3.555   3.777 -0.4770 -2.4625 -2.0504
 5294SOL     OW27517   3.272   0.554   3.087  0.4823 -0.1238  0.0361
 5294SOL    HW127518   3.321   0.528   3.166 -1.5960  1.1640  1.7315
 5294SOL    HW227519   3.336   0.545   3.016  1.4498  0.5984  0.8089
 5295SOL     OW27520   4.493   1.912  16.398 -0.0643  0.1809 -0.5207
 5295SOL    HW127521   4.403   1.916  16.428 -0.0894 -1.8237 -0.3330
 5295SOL    HW227522   4.523   1.837  16.450  1.5189  2.8956  2.4972
 5296SOL     OW27523   3.118   0.786   7.159  0.2708 -0.0658  0.1201
 5296SOL    HW127524   3.186   0.725   7.188 -0.5717 -0.1102  1.9970
 5296SOL    HW227525   3.050   0.759   7.220 -1.6304  1.3108 -1.3787
 5297SOL     OW27526   1.770   0.356   7.876  0.3805 -0.0420  0.1982
 5297SOL    HW127527   1.683   0.378   7.842  0.7210  1.5560  0.3511
 5297SOL    HW227528   1.806   0.443   7.891  1.3873 -0.3398 -0.5146
 5298SOL     OW27529   1.638   1.207   9.308  0.1225  0.5367  0.3032
 5298SOL    HW127530   1.596   1.231   9.391  0.7149  0.4288  0.6315
 5298SOL    HW227531   1.730   1.213   9.335  0.4568 -1.1796 -0.4517
 5299SOL     OW27532   2.639   4.553   1.764 -0.0832 -0.0525 -0.4097
 5299SOL    HW127533   2.646   4.628   1.704 -2.6109 -0.7612 -1.5771
 5299SOL    HW227534   2.728   4.537   1.796  0.4089  0.5829 -1.4611
 5300SOL     OW27535   1.059   1.320   2.744  0.3456 -0.0866 -0.3021
 5300SOL    HW127536   1.098   1.241   2.782 -2.1107 -1.5611 -0.8237
 5300SOL    HW227537   1.113   1.330   2.666  2.8527  2.2875  1.7341
 5301SOL     OW27538   0.724   1.474   6.148  0.3595  0.2260 -0.3160
 5301SOL    HW127539   0.671   1.484   6.068 -3.4277 -0.5865  2.0620
 5301SOL    HW227540   0.661   1.508   6.212  0.3050  0.0611 -0.2819
 5302SOL     OW27541   1.030   0.988   9.437  0.1718 -0.0701  0.2179
 5302SOL    HW127542   1.097   0.999   9.369 -2.9470  0.4657 -2.7454
 5302SOL    HW227543   1.076   0.946   9.510 -0.9263  0.6558  1.3243
 5303SOL     OW27544   4.291   1.032  15.373 -0.1546  0.4182 -0.0444
 5303SOL    HW127545   4.296   0.943  15.407 -0.3700  0.8767  1.2074
 5303SOL    HW227546   4.196   1.043  15.367 -0.2305  0.9614  1.8320
 5304SOL     OW27547   0.171   2.362   2.335  0.4452 -0.5770 -0.0343
 5304SOL    HW127548   0.233   2.305   2.379 -0.6844  1.0454  3.6074
 5304SOL    HW227549   0.182   2.316   2.251  1.1085  0.8340 -0.7206
 5305SOL     OW27550   2.288   2.586   2.012  0.5618  0.2025 -0.7069
 5305SOL    HW127551   2.289   2.490   2.012  1.1914  0.2089 -0.9598
 5305SOL    HW227552   2.374   2.594   2.054 -1.0532 -0.1285  2.5896
 5306SOL     OW27553   1.932   1.573   2.036 -0.2180  0.3438 -0.0258
 5306SOL    HW127554   1.958   1.614   1.953 -0.5931  1.7865  0.5552
 5306SOL    HW227555   1.853   1.526   2.010  0.1733 -1.1485  1.5548
 5307SOL     OW27556   3.693   4.014   6.153 -0.1222 -0.2463  0.2631
 5307SOL    HW127557   3.729   4.031   6.066 -0.0890  0.7521  0.4802
 5307SOL    HW227558   3.671   3.923   6.132 -1.8714  0.7966 -2.3885
 5308SOL     OW27559   4.415   4.531  12.703  0.2545 -0.6905  0.2889
 5308SOL    HW127560   4.475   4.601  12.675  0.3447 -1.5351 -1.6703
 5308SOL    HW227561   4.386   4.558  12.790 -1.6412  0.9367 -0.8457
 5309SOL     OW27562   4.392   2.364   3.391 -0.0869  0.2878 -0.3608
 5309SOL    HW127563   4.330   2.297   3.363  0.1672 -0.8299  1.7649
 5309SOL    HW227564   4.463   2.318   3.436  0.6867  1.0008 -0.8533
 5310SOL     OW27565   4.345   3.981   3.954 -0.0741 -0.0262 -0.4142
 5310SOL    HW127566   4.310   3.893   3.937  0.7636 -0.6597  1.1338
 5310SOL    HW227567   4.291   4.028   3.891 -1.7152 -3.3784 -1.5095
 5311SOL     OW27568   0.440   2.745   0.304  0.4546  0.5161  0.3027
 5311SOL    HW127569   0.417   2.709   0.219 -1.9519  0.3579  1.0341
 5311SOL    HW227570   0.358   2.732   0.351  0.4523  1.4236  0.5480
 5312SOL     OW27571   0.183   0.177  12.146 -0.4294 -0.0461  1.0308
 5312SOL    HW127572   0.236   0.104  12.116 -1.2602 -0.0716 -0.3630
 5312SOL    HW227573   0.252   0.235  12.179  0.6245 -0.8205  0.1950
 5313SOL     OW27574   4.055   4.232  12.507  0.1093  0.0044  0.0894
 5313SOL    HW127575   4.010   4.182  12.575 -0.7531  0.1300 -0.3947
 5313SOL    HW227576   4.140   4.250  12.548  1.3249  1.0071 -2.8422
 5314SOL     OW27577   1.269   0.800  10.236 -0.3636  0.0509 -0.0980
 5314SOL    HW127578   1.205   0.744  10.279 -2.3754  1.1905 -1.6618
 5314SOL    HW227579   1.348   0.746  10.231  0.3032  1.0533 -0.4327
 5315SOL     OW27580   3.336   3.039   7.911  0.0738  0.2056 -0.3660
 5315SOL    HW127581   3.413   3.049   7.854  0.7320 -3.2218 -0.0929
 5315SOL    HW227582   3.348   2.951   7.946 -0.0462  1.1894  2.1574
 5316SOL     OW27583   1.221   0.106  17.184 -0.0519  0.3233  0.5914
 5316SOL    HW127584   1.242   0.148  17.100 -3.0274  0.2137 -0.2241
 5316SOL    HW227585   1.148   0.166  17.199  0.4089  0.7983  0.9296
 5317SOL     OW27586   4.225   3.589   2.219 -0.1867 -0.7221  0.3346
 5317SOL    HW127587   4.194   3.502   2.247 -0.7816 -0.3443  0.8659
 5317SOL    HW227588   4.139   3.629   2.207  0.5217  0.5109 -0.6019
 5318SOL     OW27589   1.069   2.697   4.215  0.4437 -0.6249  0.4011
 5318SOL    HW127590   0.986   2.705   4.168  0.7571 -0.9105 -0.2079
 5318SOL    HW227591   1.040   2.737   4.296  1.6833 -0.0496  0.5692
 5319SOL     OW27592   4.136   1.826   4.851 -0.0185  0.3068 -0.9908
 5319SOL    HW127593   4.058   1.789   4.810  0.4372 -2.6522  0.7642
 5319SOL    HW227594   4.144   1.909   4.805 -0.7239  1.0819  0.2864
 5320SOL     OW27595   1.909   3.148  14.768  0.2565 -0.3126 -0.4063
 5320SOL    HW127596   1.941   3.066  14.729  0.9812 -1.2442  2.1728
 5320SOL    HW227597   1.851   3.118  14.837 -2.5208 -0.1761 -2.6892
 5321SOL     OW27598   3.488   1.289   1.176  0.7332 -0.5148  0.0724
 5321SOL    HW127599   3.459   1.205   1.141  0.1757  0.8697 -2.7778
 5321SOL    HW227600   3.506   1.260   1.266 -4.7825 -0.8906  1.0383
 5322SOL     OW27601   3.925   2.039   7.067  0.3015 -0.1150 -0.2024
 5322SOL    HW127602   3.981   2.065   7.141 -2.0102 -2.1180  2.2517
 5322SOL    HW227603   3.944   1.946   7.053  1.3144  0.0282  0.1985
 5323SOL     OW27604   1.797   1.502   5.197 -0.4724  0.0207  0.7399
 5323SOL    HW127605   1.884   1.518   5.160  0.0552 -0.7404  1.6500
 5323SOL    HW227606   1.794   1.555   5.277  0.4674 -2.2022  2.2589
 5324SOL     OW27607   2.974   1.460   5.888  0.7224 -0.3965 -0.0801
 5324SOL    HW127608   2.999   1.367   5.887 -3.3618 -1.5010 -0.5164
 5324SOL    HW227609   3.055   1.497   5.923  1.1315 -2.9632  1.7353
 5325SOL     OW27610   3.249   0.918  12.741  0.4124  0.3009  0.2477
 5325SOL    HW127611   3.161   0.882  12.738  0.4398  0.2796 -0.3430
 5325SOL    HW227612   3.251   0.992  12.801  0.5193  0.1780  0.3957
 5326SOL     OW27613   4.388   4.017   5.822 -0.0269 -0.1679 -0.8176
 5326SOL    HW127614   4.414   3.947   5.882  0.2750  2.2773  1.8721
 5326SOL    HW227615   4.375   3.970   5.740  1.0873 -0.5714 -0.7593
 5327SOL     OW27616   4.462   3.547   8.434  0.2300 -0.5262  0.0657
 5327SOL    HW127617   4.431   3.471   8.385 -0.5933  0.5850 -1.1542
 5327SOL    HW227618   4.478   3.615   8.369 -2.8756  0.3031  0.1450
 5328SOL     OW27619   0.822   2.989   9.812  0.3809 -0.1074 -0.2385
 5328SOL    HW127620   0.913   2.998   9.783  0.3578 -0.4317 -0.4176
 5328SOL    HW227621   0.821   2.905   9.859 -2.3651 -0.3313 -0.7112
 5329SOL     OW27622   1.011   2.377   7.584 -0.2473  0.1529 -0.6582
 5329SOL    HW127623   1.086   2.360   7.641 -0.9690  0.2452  0.3349
 5329SOL    HW227624   0.989   2.290   7.550 -0.8320  0.2934 -0.6438
 5330SOL     OW27625   0.183   1.215   1.640 -0.1288  0.4217 -0.0114
 5330SOL    HW127626   0.206   1.132   1.598  0.6382  0.1114  1.0276
 5330SOL    HW227627   0.266   1.245   1.678  0.4821 -1.1372 -0.1117
 5331SOL     OW27628   3.271   4.635  12.786 -0.1242 -0.4990 -0.5191
 5331SOL    HW127629   3.307   4.712  12.742  0.3108 -1.2123 -1.4206
 5331SOL    HW227630   3.205   4.616  12.720 -1.4257  0.0316  0.6362
 5332SOL     OW27631   2.280   2.410   8.609 -0.2600 -0.0612  0.2180
 5332SOL    HW127632   2.337   2.356   8.554 -0.5479  0.2043 -0.3425
 5332SOL    HW227633   2.260   2.334   8.663 -1.3981 -0.7517 -1.1596
 5333SOL     OW27634   0.606   0.222   3.461  0.3940 -0.5967  0.0584
 5333SOL    HW127635   0.669   0.243   3.392  0.8414  1.6396  1.1385
 5333SOL    HW227636   0.645   0.156   3.519  1.5717 -0.4073 -0.5287
 5334SOL     OW27637   4.523   2.502   7.917 -0.0521 -0.0377 -0.5266
 5334SOL    HW127638   4.572   2.543   7.988 -1.6610 -2.0859  1.7743
 5334SOL    HW227639   4.587   2.452   7.867 -0.1638 -1.7045  1.0146
 5335SOL     OW27640   0.883   1.698  16.178 -0.2639  0.5441  0.0255
 5335SOL    HW127641   0.841   1.756  16.241 -0.8387  0.5691 -0.3716
 5335SOL    HW227642   0.805   1.645  16.160  0.4216 -0.6290  0.5191
 5336SOL     OW27643   2.654   0.198   9.984  0.5107  0.3091 -0.4203
 5336SOL    HW127644   2.696   0.282   9.970  2.2289 -0.8439 -2.1495
 5336SOL    HW227645   2.562   0.224   9.975  0.3466  0.4065  1.6281
 5337SOL     OW27646   0.031   2.216   8.130  0.5135 -0.4789  0.3815
 5337SOL    HW127647   4.680   2.189   8.153  0.4627  0.4161  1.2101
 5337SOL    HW227648   0.043   2.292   8.186 -1.7455  1.6482 -1.9880
 5338SOL     OW27649   1.363   1.318  13.496  0.3428 -0.2467 -0.3533
 5338SOL    HW127650   1.310   1.243  13.523 -0.6546  0.6236  0.1165
 5338SOL    HW227651   1.301   1.370  13.446  1.8188  1.3434 -0.5044
 5339SOL     OW27652   2.553   1.002   1.219 -0.1812  0.1011  0.1938
 5339SOL    HW127653   2.551   0.997   1.314  2.3759 -1.7040  0.1543
 5339SOL    HW227654   2.643   0.975   1.198 -0.3010 -0.4206  0.3605
 5340SOL     OW27655   4.634   1.806   6.750 -0.0911  0.2638  0.3426
 5340SOL    HW127656   4.548   1.840   6.775 -0.4153  2.7234 -4.0624
 5340SOL    HW227657   4.644   1.833   6.659  1.4466  0.6373  0.6322
 5341SOL     OW27658   2.891   4.458   1.853  0.5339 -0.1487 -0.3866
 5341SOL    HW127659   2.967   4.485   1.903  0.3828 -3.3126  1.5461
 5341SOL    HW227660   2.896   4.367   1.882  1.6949 -0.4375 -1.4923
 5342SOL     OW27661   3.224   3.709  17.711 -0.3839 -0.4846  0.4186
 5342SOL    HW127662   3.211   3.614  17.701 -0.7548 -0.4354  0.4537
 5342SOL    HW227663   3.310   3.713   0.007  0.2204 -1.9418 -0.6391
 5343SOL     OW27664   1.968   4.358   8.536 -0.0947 -0.0690  0.2760
 5343SOL    HW127665   1.928   4.271   8.545  0.3448 -0.4490 -1.6274
 5343SOL    HW227666   1.927   4.386   8.454  0.5803 -1.4441 -0.5262
 5344SOL     OW27667   0.408   2.618   7.005  0.2504  0.0802  0.3117
 5344SOL    HW127668   0.322   2.659   6.997  1.1623  2.1275  0.9905
 5344SOL    HW227669   0.438   2.669   7.080 -1.1691  2.2357 -0.5907
 5345SOL     OW27670   0.758   3.106   7.318  0.0472 -0.0954 -0.5609
 5345SOL    HW127671   0.686   3.117   7.380 -0.8262 -0.9502 -1.4331
 5345SOL    HW227672   0.747   3.189   7.272 -0.2824  0.2865  0.2033
 5346SOL     OW27673   1.865   1.739   7.802  0.3529  0.4239 -0.1446
 5346SOL    HW127674   1.909   1.804   7.746  1.0127  0.7715  0.7773
 5346SOL    HW227675   1.782   1.739   7.753  1.1867 -0.9101 -1.5500
 5347SOL     OW27676   2.397   3.956  11.036 -0.2449  0.0697  0.0098
 5347SOL    HW127677   2.432   3.981  10.951  0.3594  1.5074  0.6807
 5347SOL    HW227678   2.470   3.906  11.072 -0.6845  0.4257  1.3800
 5348SOL     OW27679   1.725   3.081   4.114 -0.2593 -0.2305  0.1860
 5348SOL    HW127680   1.681   3.141   4.054  2.6083  1.5827 -0.1227
 5348SOL    HW227681   1.758   3.011   4.058  0.8523 -0.0198  0.5737
 5349SOL     OW27682   3.810   2.006   2.261 -0.3459 -0.0824  0.4456
 5349SOL    HW127683   3.773   1.937   2.206  0.4122  0.6777 -1.0185
 5349SOL    HW227684   3.763   1.990   2.342 -0.1240  0.8798  0.7726
 5350SOL     OW27685   2.136   2.210   5.008  0.2676 -0.3037  0.3356
 5350SOL    HW127686   2.061   2.151   4.999  0.3884 -0.2458 -1.0327
 5350SOL    HW227687   2.169   2.187   5.095  0.3092 -1.7175 -0.0491
 5351SOL     OW27688   0.980   1.579   6.008  0.0776 -0.4757  0.1793
 5351SOL    HW127689   1.008   1.637   6.078 -0.7881  0.3609 -0.1626
 5351SOL    HW227690   0.892   1.553   6.035  0.1943 -0.6994  0.3509
 5352SOL     OW27691   2.068   1.712  14.545 -0.0709 -0.8823 -0.2288
 5352SOL    HW127692   2.106   1.751  14.467 -0.0012 -1.3555 -0.4351
 5352SOL    HW227693   1.987   1.686  14.501  1.7999 -0.1187 -4.1019
 5353SOL     OW27694   0.611   4.080  14.268 -0.1893 -0.0046 -0.1535
 5353SOL    HW127695   0.693   4.115  14.304  0.2260  2.4844 -3.5195
 5353SOL    HW227696   0.588   4.024  14.342  2.9074 -2.6999 -1.2272
 5354SOL     OW27697   2.452   2.092   4.946 -0.0261  0.2712  0.0233
 5354SOL    HW127698   2.397   2.153   4.896 -0.4010 -0.5868 -0.6107
 5354SOL    HW227699   2.450   2.143   5.027 -1.6508  1.6014 -0.8279
 5355SOL     OW27700   2.225   2.124   7.539  0.1992 -0.1439  0.4087
 5355SOL    HW127701   2.192   2.111   7.450 -0.1980  1.0089  0.3852
 5355SOL    HW227702   2.300   2.065   7.547  2.0895  2.0533 -1.1166
 5356SOL     OW27703   4.211   4.582  16.375  0.3276 -0.0789  0.1385
 5356SOL    HW127704   4.201   4.678  16.371 -0.6464 -0.1823  0.1800
 5356SOL    HW227705   4.300   4.570  16.342  1.5794  3.9637  1.9139
 5357SOL     OW27706   0.236   2.244   8.553  0.0773  0.3827  0.9272
 5357SOL    HW127707   0.277   2.205   8.475 -1.5078  1.3653 -0.3952
 5357SOL    HW227708   0.262   2.178   8.617  0.2698 -0.8333 -0.3958
 5358SOL     OW27709   1.636   1.600  14.905  0.1000  0.1547 -0.1859
 5358SOL    HW127710   1.681   1.619  14.987  0.4132  1.4298 -0.6632
 5358SOL    HW227711   1.545   1.608  14.931  0.0871  0.7341 -0.4161
 5359SOL     OW27712   3.235   3.144   6.145  0.3578 -0.3434 -0.5288
 5359SOL    HW127713   3.291   3.215   6.113 -0.0825  1.4877  2.7393
 5359SOL    HW227714   3.181   3.179   6.216 -0.3939 -3.0027  0.2237
 5360SOL     OW27715   4.569   1.280   4.458 -0.6343 -0.4165  0.1552
 5360SOL    HW127716   4.630   1.294   4.386 -1.4379 -0.8343 -0.6034
 5360SOL    HW227717   4.510   1.352   4.440 -2.9141 -1.7820  2.0915
 5361SOL     OW27718   4.288   3.105   3.336 -0.4145  0.1355  0.0087
 5361SOL    HW127719   4.253   3.145   3.256  0.0625  3.4923  1.4491
 5361SOL    HW227720   4.338   3.177   3.374 -0.0524 -1.2475  2.1704
 5362SOL     OW27721   3.110   1.637   5.282 -0.3102  0.1841  0.3976
 5362SOL    HW127722   3.153   1.582   5.217 -0.4142  1.5971 -0.8413
 5362SOL    HW227723   3.144   1.726   5.278  1.7917 -0.4644  3.5252
 5363SOL     OW27724   4.391   1.155  11.315  0.2283 -0.2281 -0.1784
 5363SOL    HW127725   4.370   1.135  11.224 -4.2148 -2.9161  1.4228
 5363SOL    HW227726   4.450   1.229  11.307 -0.7418  0.7735  1.7857
 5364SOL     OW27727   0.248   4.062   9.288  0.0788  0.3352 -0.1663
 5364SOL    HW127728   0.343   4.062   9.273  0.3209 -0.8998  1.4331
 5364SOL    HW227729   0.225   3.992   9.349  0.2187  0.1431 -0.3300
 5365SOL     OW27730   3.011   2.021  13.608  0.1948 -0.0852  0.3495
 5365SOL    HW127731   3.101   1.990  13.618  0.3640 -0.8493 -3.6477
 5365SOL    HW227732   3.008   2.042  13.515 -2.4239 -1.3489  0.1633
 5366SOL     OW27733   0.477   2.379   9.382 -0.1999  0.5353 -0.0379
 5366SOL    HW127734   0.542   2.427   9.434  0.6716  1.7141 -2.1883
 5366SOL    HW227735   0.417   2.335   9.441  0.0835  0.4112  0.1598
 5367SOL     OW27736   1.938   1.801   5.246 -0.3421 -0.7060  0.6711
 5367SOL    HW127737   1.882   1.791   5.169  0.3863 -1.2761  0.2180
 5367SOL    HW227738   1.881   1.859   5.298 -0.8996 -0.7337  0.0987
 5368SOL     OW27739   4.304   4.234  13.690  0.3559 -0.2501 -0.1335
 5368SOL    HW127740   4.393   4.257  13.717  0.0430  0.2733  0.4543
 5368SOL    HW227741   4.248   4.275  13.756 -1.1801  1.0294 -2.2137
 5369SOL     OW27742   2.277   2.719   2.655 -0.5172 -0.4369  0.3410
 5369SOL    HW127743   2.205   2.711   2.717 -0.7768 -1.5605 -0.1153
 5369SOL    HW227744   2.332   2.775   2.711 -1.3462 -1.0536  1.7791
 5370SOL     OW27745   2.830   0.555   4.988 -1.0138  0.3045 -0.4111
 5370SOL    HW127746   2.887   0.526   4.917  0.3140  1.4416  0.1927
 5370SOL    HW227747   2.823   0.650   4.981 -3.6406  0.1247 -0.1466
 5371SOL     OW27748   0.581   1.532   0.998  0.0201 -0.3551 -0.1169
 5371SOL    HW127749   0.535   1.559   1.077  0.3883  1.1696 -0.4284
 5371SOL    HW227750   0.522   1.570   0.932 -0.5668 -0.8895  0.1052
 5372SOL     OW27751   1.742   4.172   7.872  0.0543  0.4376 -0.0523
 5372SOL    HW127752   1.833   4.154   7.897  0.7819  0.4195 -2.6812
 5372SOL    HW227753   1.696   4.142   7.950  0.2650  0.6364  0.1475
 5373SOL     OW27754   0.899   4.708   0.037 -0.3114 -0.1612  0.4763
 5373SOL    HW127755   0.824   4.658   0.005 -0.2573  1.0641 -1.5011
 5373SOL    HW227756   0.912   4.668   0.124 -1.0763 -0.5244  0.4261
 5374SOL     OW27757   2.972   2.748   4.909 -0.4118 -0.1824 -0.2431
 5374SOL    HW127758   2.909   2.677   4.922 -1.8296  1.0941 -0.1473
 5374SOL    HW227759   3.051   2.697   4.924  0.6588  1.0883 -1.6018
 5375SOL     OW27760   2.803   4.026   6.243 -0.0949 -0.1077  0.0754
 5375SOL    HW127761   2.738   4.009   6.175  0.5146 -1.2787 -0.2136
 5375SOL    HW227762   2.811   3.937   6.278 -1.3360 -1.4821 -3.0540
 5376SOL     OW27763   1.151   0.263   8.063 -0.2332 -0.7259  0.1714
 5376SOL    HW127764   1.224   0.218   8.105 -1.0786 -1.0209  1.3183
 5376SOL    HW227765   1.115   0.305   8.141 -0.9131  1.2767 -1.2330
 5377SOL     OW27766   1.565   0.458   6.656  0.3944 -0.2997 -0.1646
 5377SOL    HW127767   1.654   0.495   6.663 -0.2307  0.9862  0.9284
 5377SOL    HW227768   1.592   0.366   6.661  0.9956 -0.1617 -0.8869
 5378SOL     OW27769   0.778   2.855   7.292  0.6101 -0.3520  0.0928
 5378SOL    HW127770   0.830   2.832   7.370 -0.3840  0.8957  1.1173
 5378SOL    HW227771   0.779   2.951   7.293 -0.3253 -0.3283 -1.2236
 5379SOL     OW27772   1.832   0.059  14.435 -0.0129 -1.0746  0.0553
 5379SOL    HW127773   1.830   4.706  14.401 -0.3922 -1.6484  1.6056
 5379SOL    HW227774   1.915   0.062  14.483  1.3613 -0.0567 -2.3606
 5380SOL     OW27775   1.107   3.393  12.318  0.1932  0.0220  0.4343
 5380SOL    HW127776   1.019   3.430  12.318  0.2963  0.2674 -0.8843
 5380SOL    HW227777   1.097   3.319  12.377 -1.0913  1.4708  2.0285
 5381SOL     OW27778   1.440   0.714  16.483 -0.0304  0.2656 -0.1291
 5381SOL    HW127779   1.439   0.639  16.542 -0.4491 -1.1181 -1.9020
 5381SOL    HW227780   1.516   0.688  16.432  1.3645  0.3670  1.9182
 5382SOL     OW27781   0.378   2.463   5.670  0.0621  0.2764 -0.2918
 5382SOL    HW127782   0.378   2.375   5.706 -2.1647 -0.3727 -1.9055
 5382SOL    HW227783   0.285   2.475   5.653 -0.0135 -0.0341 -0.0978
 5383SOL     OW27784   0.205   2.991  15.764 -1.5272  0.1700 -0.0464
 5383SOL    HW127785   0.278   3.049  15.747 -1.7049  0.8182  1.4183
 5383SOL    HW227786   0.134   3.049  15.792 -1.7233  1.3427 -2.9251
 5384SOL     OW27787   3.017   1.775   7.139 -0.0079 -0.1466 -0.1277
 5384SOL    HW127788   2.978   1.852   7.182 -1.6617  0.1407 -2.1584
 5384SOL    HW227789   3.016   1.715   7.213  0.6465 -0.1924 -0.1626
 5385SOL     OW27790   0.994   0.245   6.836  0.2394 -0.3814  0.2810
 5385SOL    HW127791   0.970   0.187   6.909 -0.5343 -0.5798 -0.1369
 5385SOL    HW227792   1.024   0.317   6.892 -0.1708  0.9958 -1.3056
 5386SOL     OW27793   1.552   2.445   3.866 -0.3005  0.6757 -0.1112
 5386SOL    HW127794   1.616   2.378   3.890  1.7090  1.9560 -1.9081
 5386SOL    HW227795   1.498   2.444   3.945 -1.5698  0.3429 -0.9775
 5387SOL     OW27796   4.683   3.300   7.676 -0.3677  0.1348 -0.6013
 5387SOL    HW127797   4.617   3.318   7.609  0.0780  0.9712 -0.8177
 5387SOL    HW227798   4.640   3.345   7.749  0.2740  0.2688 -0.3001
 5388SOL     OW27799   0.820   1.035  17.351 -0.4787 -0.0387  0.1345
 5388SOL    HW127800   0.893   1.096  17.345  1.2115 -2.1086 -0.4707
 5388SOL    HW227801   0.743   1.089  17.333 -2.1807 -2.6238 -0.3724
 5389SOL     OW27802   1.781   0.561  16.039  0.5586  0.1154  0.0270
 5389SOL    HW127803   1.833   0.514  15.975  1.2378 -1.6576  1.8862
 5389SOL    HW227804   1.717   0.582  15.970  1.3531 -0.1312 -0.7793
 5390SOL     OW27805   4.593   3.618   9.294 -0.0704  0.0310 -0.4954
 5390SOL    HW127806   4.564   3.547   9.236  1.1903 -1.0506  0.1854
 5390SOL    HW227807   4.570   3.694   9.241 -0.2120  0.2066 -0.1841
 5391SOL     OW27808   0.946   4.358   4.626 -0.0417  0.3133  0.2874
 5391SOL    HW127809   0.999   4.300   4.681  1.1670  0.9418 -0.2082
 5391SOL    HW227810   0.878   4.300   4.593  4.8299 -3.4518 -3.0656
 5392SOL     OW27811   0.269   3.287   2.825  0.0176 -0.3411 -0.2086
 5392SOL    HW127812   0.244   3.222   2.760  0.0686  0.1628 -0.7337
 5392SOL    HW227813   0.192   3.334   2.858  1.3590  0.4043  1.8683
 5393SOL     OW27814   0.570   0.283   1.528 -0.2075 -0.7700  0.2728
 5393SOL    HW127815   0.647   0.340   1.524  0.7954 -2.0087  1.8803
 5393SOL    HW227816   0.527   0.313   1.608  1.7077  2.1732  0.1824
 5394SOL     OW27817   3.530   3.355  16.129  0.2708 -0.4351 -0.2364
 5394SOL    HW127818   3.480   3.304  16.193  0.7780  1.0421  1.3408
 5394SOL    HW227819   3.585   3.288  16.087 -0.0035 -0.7628 -0.0687
 5395SOL     OW27820   3.584   3.458   2.339  0.0486 -0.1841  0.1791
 5395SOL    HW127821   3.529   3.379   2.334  0.7726 -0.6944  0.2674
 5395SOL    HW227822   3.542   3.523   2.394 -0.2927 -1.1698  1.0861
 5396SOL     OW27823   0.819   2.791   1.655 -0.1660 -0.3476  0.4228
 5396SOL    HW127824   0.897   2.789   1.710  0.9987  0.8475 -1.1789
 5396SOL    HW227825   0.751   2.773   1.721 -1.0696  0.3770 -0.3075
 5397SOL     OW27826   1.399   2.383   4.094  0.0573 -0.0748 -0.1396
 5397SOL    HW127827   1.346   2.435   4.154 -0.1280 -0.0814 -0.2959
 5397SOL    HW227828   1.436   2.311   4.145  1.7331  1.3773  0.6942
 5398SOL     OW27829   0.380   2.583  10.430  0.2742  0.2437  0.2682
 5398SOL    HW127830   0.420   2.497  10.443 -0.4036  0.0392  1.0582
 5398SOL    HW227831   0.303   2.573  10.486  0.0158  1.2903  0.1075
 5399SOL     OW27832   4.072   1.694   9.280 -0.7556  0.0103 -0.4513
 5399SOL    HW127833   4.155   1.673   9.322 -0.4410 -1.7130 -1.9352
 5399SOL    HW227834   4.076   1.786   9.254  0.8031 -0.1156 -0.6852
 5400SOL     OW27835   0.412   2.530   2.554 -0.4996 -0.2167  0.1176
 5400SOL    HW127836   0.348   2.478   2.602  0.6349 -2.0808 -0.4232
 5400SOL    HW227837   0.482   2.548   2.617 -0.8154  0.2869  0.3321
 5401SOL     OW27838   2.471   4.472   4.418 -0.1889  0.0462 -0.3629
 5401SOL    HW127839   2.401   4.524   4.457  0.8561 -0.1569  1.7822
 5401SOL    HW227840   2.538   4.539   4.405 -0.6568  0.4422 -0.7606
 5402SOL     OW27841   1.188   2.852   3.867  0.2392  0.3000 -0.6359
 5402SOL    HW127842   1.251   2.924   3.862 -0.5341  1.0933  1.2528
 5402SOL    HW227843   1.129   2.891   3.802 -0.7402 -0.7732 -0.4034
 5403SOL     OW27844   0.688   0.820   8.876  0.4588 -0.4326 -0.4866
 5403SOL    HW127845   0.696   0.915   8.882  0.3537 -0.4827  0.4573
 5403SOL    HW227846   0.595   0.813   8.855 -0.0227  4.1521  0.2726
 5404SOL     OW27847   3.961   1.165   4.253  0.2087  0.1637  0.0434
 5404SOL    HW127848   3.972   1.099   4.185  1.9357 -0.1729  0.6596
 5404SOL    HW227849   3.983   1.123   4.336 -0.6239 -0.2005  0.0796
 5405SOL     OW27850   1.026   0.290  13.992 -0.0516  0.0398 -0.1137
 5405SOL    HW127851   0.951   0.242  13.956  1.1055 -0.5548 -1.6911
 5405SOL    HW227852   1.091   0.219  13.992  0.8534  0.8856 -3.6105
 5406SOL     OW27853   1.626   2.271   2.016 -0.7046  0.0187 -0.0934
 5406SOL    HW127854   1.715   2.237   2.011 -0.5054  0.3373  1.5130
 5406SOL    HW227855   1.647   2.364   2.011 -3.9009  0.8155  1.4033
 5407SOL     OW27856   1.189   1.420   8.341  0.3437  0.0254  0.4296
 5407SOL    HW127857   1.244   1.343   8.336 -1.2471 -1.1972  1.6193
 5407SOL    HW227858   1.105   1.390   8.305  1.2326 -0.7263 -0.9898
 5408SOL     OW27859   4.239   0.689   0.667 -0.1388  0.6104  0.3441
 5408SOL    HW127860   4.163   0.632   0.660 -1.3152  2.1587  0.3170
 5408SOL    HW227861   4.271   0.704   0.577 -1.7686 -0.0550 -0.3332
 5409SOL     OW27862   1.135   2.095   3.132  1.0197  0.3969  0.1287
 5409SOL    HW127863   1.068   2.039   3.170 -1.2724  2.6647 -0.5802
 5409SOL    HW227864   1.190   2.110   3.209 -0.5259 -1.6876  1.6327
 5410SOL     OW27865   0.869   1.416   3.297  0.4646  0.3324 -0.4317
 5410SOL    HW127866   0.799   1.466   3.340 -0.9254 -1.6154 -0.4545
 5410SOL    HW227867   0.839   1.326   3.292  1.4907 -0.1182  1.3905
 5411SOL     OW27868   1.186   2.635   8.732  0.1296 -0.5080  0.4661
 5411SOL    HW127869   1.225   2.572   8.672 -0.3346 -1.3658  1.0654
 5411SOL    HW227870   1.132   2.568   8.774  2.7009 -2.3858  0.7177
 5412SOL     OW27871   4.649   2.231   6.037 -0.1038 -0.5132  0.3696
 5412SOL    HW127872   4.581   2.172   6.004 -1.2716 -0.4662  2.7128
 5412SOL    HW227873   4.605   2.276   6.109 -1.9263 -0.4742 -0.7603
 5413SOL     OW27874   2.861   4.273  13.536  0.2567 -0.3504  0.7294
 5413SOL    HW127875   2.913   4.332  13.482 -0.2965 -0.2074  0.3497
 5413SOL    HW227876   2.802   4.340  13.571 -1.0672 -0.8699 -0.4587
 5414SOL     OW27877   3.050   0.517   6.825  0.5113 -0.0778 -0.6835
 5414SOL    HW127878   3.085   0.473   6.903 -0.2693  1.4738  0.5641
 5414SOL    HW227879   3.082   0.604   6.852  0.7098 -0.7792  1.3413
 5415SOL     OW27880   2.999   3.563   6.629  0.5547 -0.3112 -0.1484
 5415SOL    HW127881   3.064   3.631   6.611  0.9693 -0.6894 -0.0622
 5415SOL    HW227882   2.931   3.619   6.666  1.5428  0.6081  0.2722
 5416SOL     OW27883   3.356   4.274  14.871  0.3201  0.3385 -0.1111
 5416SOL    HW127884   3.450   4.273  14.854  0.1161  0.5085 -1.2354
 5416SOL    HW227885   3.358   4.305  14.961 -0.6738 -1.9549  0.6989
 5417SOL     OW27886   3.905   2.213   9.296 -0.5365 -0.2397  0.1271
 5417SOL    HW127887   3.949   2.154   9.357  0.7065  0.1394 -0.3834
 5417SOL    HW227888   3.983   2.260   9.265 -1.5519  1.2287 -0.2279
 5418SOL     OW27889   3.690   4.611  14.309 -0.4606  0.0831 -0.1843
 5418SOL    HW127890   3.618   4.572  14.359 -0.6499  0.7396  0.0595
 5418SOL    HW227891   3.685   4.701  14.341 -0.2061  0.2114 -0.5036
 5419SOL     OW27892   2.068   4.610  12.530  0.1257  0.8700  0.0543
 5419SOL    HW127893   1.973   4.613  12.519  0.3822  0.8400 -2.1404
 5419SOL    HW227894   2.087   4.677  12.465 -0.2030  2.9475  2.0914
 5420SOL     OW27895   4.408   2.263  12.691 -0.4117  0.1848  0.2013
 5420SOL    HW127896   4.463   2.333  12.655  0.0440 -0.4288 -0.2762
 5420SOL    HW227897   4.346   2.250  12.619  1.5033  0.1121 -1.4213
 5421SOL     OW27898   2.446   1.109   2.889  0.2421 -0.6624  0.6369
 5421SOL    HW127899   2.461   1.195   2.928 -1.5965 -0.8097  1.6539
 5421SOL    HW227900   2.533   1.081   2.860  0.9084 -0.1154  2.1283
 5422SOL     OW27901   3.827   0.567   9.567  0.3599 -0.0635 -0.0129
 5422SOL    HW127902   3.789   0.512   9.499 -2.4824  0.3098  1.2710
 5422SOL    HW227903   3.921   0.553   9.561  0.2532 -1.6583  1.7860
 5423SOL     OW27904   0.206   2.743   5.619 -0.6936  0.2202 -0.0816
 5423SOL    HW127905   0.163   2.662   5.592  3.0471 -1.2324 -1.6118
 5423SOL    HW227906   0.283   2.709   5.665 -2.3178 -0.6585  2.0139
 5424SOL     OW27907   1.763   3.806   0.813 -0.3211  0.1927  0.9730
 5424SOL    HW127908   1.799   3.718   0.828 -0.7642 -1.1266 -5.6092
 5424SOL    HW227909   1.792   3.808   0.722 -0.6287  3.6592  0.9572
 5425SOL     OW27910   4.007   2.112   4.183 -0.4010 -0.1532  0.6957
 5425SOL    HW127911   3.921   2.134   4.219 -1.6770 -0.5558 -2.1434
 5425SOL    HW227912   4.056   2.193   4.197  0.7128 -0.9107  1.2235
 5426SOL     OW27913   0.152   2.593   8.014 -0.1131  0.5627  0.5872
 5426SOL    HW127914   0.247   2.607   8.018 -0.3417  1.6880  2.1576
 5426SOL    HW227915   0.135   2.623   7.924  0.1741  0.7721  0.6005
 5427SOL     OW27916   2.331   3.698   6.899  0.1527  0.5977 -0.1201
 5427SOL    HW127917   2.252   3.646   6.887  0.9605 -0.3436 -1.3243
 5427SOL    HW227918   2.326   3.749   6.818  2.1871  0.1830 -0.5068
 5428SOL     OW27919   2.308   1.560   5.206  0.5647 -0.0488  0.0089
 5428SOL    HW127920   2.351   1.536   5.124 -0.1408 -2.7030  0.3933
 5428SOL    HW227921   2.384   1.555   5.264 -0.9488 -0.3923  1.9699
 5429SOL     OW27922   0.035   1.000  10.494  0.1102  0.1522 -0.0590
 5429SOL    HW127923   0.127   1.006  10.522 -0.0420 -0.3486  0.5370
 5429SOL    HW227924   4.730   1.066  10.550 -0.0703  1.5127 -1.7870
 5430SOL     OW27925   3.579   4.231   2.885  0.1503  0.2630 -0.7529
 5430SOL    HW127926   3.660   4.181   2.882 -0.6185 -0.8244 -2.9787
 5430SOL    HW227927   3.577   4.244   2.980  1.8637 -2.0345 -0.4135
 5431SOL     OW27928   2.442   1.498   9.074  0.0641  0.2548  0.2471
 5431SOL    HW127929   2.457   1.453   8.991  0.0918 -0.4073  0.6076
 5431SOL    HW227930   2.347   1.502   9.083 -0.0250 -1.0570 -0.0536
 5432SOL     OW27931   3.233   3.931   7.517 -0.2648  0.7030  0.1843
 5432SOL    HW127932   3.141   3.919   7.541  0.4970 -0.7373  2.4250
 5432SOL    HW227933   3.231   3.899   7.426 -1.6391 -2.0870  1.1705
 5433SOL     OW27934   3.415   1.375   6.511  0.1023 -0.2055  0.6259
 5433SOL    HW127935   3.508   1.355   6.508 -0.3742 -2.4165  0.5945
 5433SOL    HW227936   3.397   1.334   6.595  0.0950 -0.1114  0.6704
 5434SOL     OW27937   3.221   4.157   7.259  0.2515 -0.3957 -0.2103
 5434SOL    HW127938   3.158   4.120   7.198 -1.4204  3.0592 -0.5813
 5434SOL    HW227939   3.152   4.185   7.320 -1.1496  1.2988 -2.5805
 5435SOL     OW27940   3.504   2.755   0.550  0.1508 -0.2514  0.5065
 5435SOL    HW127941   3.514   2.670   0.508  0.8607  0.9896 -1.8638
 5435SOL    HW227942   3.569   2.740   0.619 -0.5433 -1.6827  0.8454
 5436SOL     OW27943   2.644   3.434   7.437  0.2192 -0.0884  0.5471
 5436SOL    HW127944   2.645   3.518   7.391 -0.4353 -0.1257  0.4713
 5436SOL    HW227945   2.558   3.401   7.411 -0.1750  0.8115  0.7200
 5437SOL     OW27946   1.397   4.479   8.650 -0.0230 -1.0971  0.1301
 5437SOL    HW127947   1.489   4.504   8.640 -0.8488  1.7939 -0.1056
 5437SOL    HW227948   1.405   4.411   8.717 -0.1259 -1.0294  0.2113
 5438SOL     OW27949   4.341   0.394   3.827 -0.1976  0.1086 -0.1449
 5438SOL    HW127950   4.356   0.469   3.884  0.7330 -1.7661  2.0996
 5438SOL    HW227951   4.253   0.410   3.793  0.1899 -1.0599 -1.7150
 5439SOL     OW27952   0.550   0.482   7.739 -0.0423  0.6838  0.8952
 5439SOL    HW127953   0.641   0.494   7.713 -1.3923 -0.5887 -4.3898
 5439SOL    HW227954   0.510   0.565   7.713 -0.7079 -0.3448 -1.3911
 5440SOL     OW27955   0.891   2.255   4.874  0.1151 -0.1062 -0.5850
 5440SOL    HW127956   0.876   2.349   4.883 -0.7726 -0.3769  0.7987
 5440SOL    HW227957   0.804   2.221   4.899  0.2915  0.3350  0.6144
 5441SOL     OW27958   1.994   4.187  15.585  0.4852 -0.3079  0.1546
 5441SOL    HW127959   2.074   4.147  15.619  1.0312  0.1833 -0.5492
 5441SOL    HW227960   1.979   4.259  15.646  1.5398  0.6542 -0.7333
 5442SOL     OW27961   4.123   3.448   9.482 -1.1336 -0.0121  0.0558
 5442SOL    HW127962   4.179   3.503   9.428  0.1084 -0.0178  1.3339
 5442SOL    HW227963   4.176   3.368   9.480 -0.3122  0.5031  1.3960
 5443SOL     OW27964   1.809   3.585   7.938  0.5081  0.7070  0.0018
 5443SOL    HW127965   1.801   3.533   8.018 -0.4788 -2.3767 -2.1067
 5443SOL    HW227966   1.717   3.607   7.921  0.0893 -0.8702  0.2653
 5444SOL     OW27967   2.511   1.667   8.507 -0.1589  0.0591 -0.5277
 5444SOL    HW127968   2.456   1.746   8.500 -1.6984 -0.8886  0.8607
 5444SOL    HW227969   2.498   1.618   8.588 -1.2908  0.3773 -0.5100
 5445SOL     OW27970   2.081   3.105   2.154  0.2178 -0.0822  0.6681
 5445SOL    HW127971   2.162   3.059   2.129  0.9142  0.5352  1.8137
 5445SOL    HW227972   2.083   3.122   2.248  2.3302  0.3198  0.5406
 5446SOL     OW27973   0.071   1.920  14.313  0.2180  0.7815 -0.2363
 5446SOL    HW127974   0.044   1.844  14.263 -0.5755 -0.3968  2.0189
 5446SOL    HW227975   0.020   1.994  14.279  0.5864  1.8506  1.5087
 5447SOL     OW27976   2.632   3.944   4.880  0.1574  0.3484 -0.5719
 5447SOL    HW127977   2.618   4.022   4.826  0.6931 -2.0494 -4.1871
 5447SOL    HW227978   2.724   3.931   4.860 -0.1097 -2.2160 -0.1652
 5448SOL     OW27979   4.728   1.905   1.760 -0.2738  0.0571 -0.4171
 5448SOL    HW127980   0.004   1.987   1.807 -0.3992 -0.3819  0.3873
 5448SOL    HW227981   0.018   1.919   1.669 -1.6481  0.7672 -0.7290
 5449SOL     OW27982   4.663   4.352   7.371 -0.2882 -0.3618 -0.0479
 5449SOL    HW127983   4.658   4.435   7.419 -0.5223 -0.7869  0.6675
 5449SOL    HW227984   0.019   4.336   7.382 -0.5511 -0.5319  1.8959
 5450SOL     OW27985   0.426   1.353   7.643 -0.4693  0.2365 -0.5406
 5450SOL    HW127986   0.331   1.359   7.633 -0.3478  0.9514 -1.2612
 5450SOL    HW227987   0.454   1.423   7.584  0.8339  0.4300  0.3159
 5451SOL     OW27988   1.607   1.650   8.533  0.4527 -0.0441 -0.2808
 5451SOL    HW127989   1.680   1.591   8.514 -0.5757 -1.0386 -1.1220
 5451SOL    HW227990   1.665   1.726   8.531  2.1814 -1.3785 -1.0865
 5452SOL     OW27991   2.588   3.546  12.652  0.6541 -0.7297  0.5795
 5452SOL    HW127992   2.582   3.592  12.736 -0.2673 -0.4379  0.3536
 5452SOL    HW227993   2.513   3.487  12.656  1.2561 -1.7118 -2.8251
 5453SOL     OW27994   2.742   1.319   6.587 -0.0756 -0.1240  0.2802
 5453SOL    HW127995   2.681   1.392   6.598  1.7618  0.9151  3.7268
 5453SOL    HW227996   2.679   1.248   6.597 -0.9554  0.8317  1.5045
 5454SOL     OW27997   1.346   1.596  11.726  0.1962 -0.2233  0.3444
 5454SOL    HW127998   1.347   1.549  11.810  3.1012 -1.1414 -0.2065
 5454SOL    HW227999   1.317   1.527  11.666 -1.5788  0.5437  0.3255
 5455SOL     OW28000   1.722   3.540  14.486  0.2875  0.3537  0.9431
 5455SOL    HW128001   1.654   3.590  14.531 -0.4357 -0.1049  0.3502
 5455SOL    HW228002   1.795   3.600  14.502  0.0049  0.7641  0.7064
 5456SOL     OW28003   0.421   1.113   0.302 -0.2830  0.0172  0.0863
 5456SOL    HW128004   0.489   1.180   0.303 -0.4308  0.1597  1.0058
 5456SOL    HW228005   0.375   1.130   0.220  2.4840  2.8400 -0.8893
 5457SOL     OW28006   1.439   2.871  15.749 -0.0187 -0.4665  0.1706
 5457SOL    HW128007   1.505   2.814  15.710 -0.5546 -1.1388  0.2404
 5457SOL    HW228008   1.482   2.917  15.820 -1.1955 -0.0211  0.5825
 5458SOL     OW28009   2.684   1.729   7.509  0.2800 -0.1290 -0.1592
 5458SOL    HW128010   2.739   1.651   7.499  1.4841  0.9843 -2.3366
 5458SOL    HW228011   2.601   1.685   7.493 -0.4463  1.3356 -0.3493
 5459SOL     OW28012   2.859   3.728   9.242 -0.4166 -0.7744 -0.7516
 5459SOL    HW128013   2.915   3.720   9.320  0.0183  0.8689 -0.8961
 5459SOL    HW228014   2.909   3.677   9.179  1.1882  1.7607 -1.5340
 5460SOL     OW28015   2.196   0.914  17.543  0.0172  0.0835 -0.0327
 5460SOL    HW128016   2.199   0.938  17.450 -0.7885 -2.5610 -0.7438
 5460SOL    HW228017   2.234   0.987  17.591  0.5275  0.1720 -0.5719
 5461SOL     OW28018   2.038   4.638   2.834  0.2424  0.2199  0.2464
 5461SOL    HW128019   2.120   4.648   2.882  0.4765  1.9002 -0.5285
 5461SOL    HW228020   2.059   4.579   2.761 -0.7230 -1.3296  1.2160
 5462SOL     OW28021   0.975   3.834   1.392 -0.0515 -0.5026 -0.1003
 5462SOL    HW128022   1.003   3.880   1.313  0.0682 -1.1412 -0.4336
 5462SOL    HW228023   0.930   3.759   1.352 -0.5738  0.3728 -1.1376
 5463SOL     OW28024   3.514   4.549  12.594  0.4824  0.4217  0.4390
 5463SOL    HW128025   3.478   4.530  12.680  1.1202  1.3815  0.9186
 5463SOL    HW228026   3.501   4.463  12.553  0.3252  0.4537  0.4210
 5464SOL     OW28027   3.655   4.069   9.546  0.0538 -0.2203 -0.7932
 5464SOL    HW128028   3.676   4.162   9.535  0.0419  0.0956  1.8576
 5464SOL    HW228029   3.707   4.052   9.624 -1.4150 -0.0551  0.2202
 5465SOL     OW28030   3.197   0.869   2.188  0.2676 -0.1486 -0.5164
 5465SOL    HW128031   3.119   0.853   2.240  0.9332 -2.7634 -0.3449
 5465SOL    HW228032   3.267   0.884   2.252  0.4533 -1.2510 -0.4617
 5466SOL     OW28033   4.269   0.631  13.902 -0.0415 -0.2699  1.1188
 5466SOL    HW128034   4.257   0.610  13.995 -0.9888  1.1829  1.3241
 5466SOL    HW228035   4.189   0.601  13.858  0.4450 -0.1766  0.1659
 5467SOL     OW28036   3.882   0.326   2.349  0.1029 -0.3024 -0.3443
 5467SOL    HW128037   3.838   0.369   2.422  2.5960  0.5855  0.6411
 5467SOL    HW228038   3.822   0.315   2.275 -0.1724  0.0343 -0.1695
 5468SOL     OW28039   3.512   0.635   6.002  0.1283 -0.0517  0.0493
 5468SOL    HW128040   3.429   0.668   5.969  0.1953 -0.1284 -0.2004
 5468SOL    HW228041   3.486   0.624   6.093  3.6072 -0.8387  0.9715
 5469SOL     OW28042   4.263   2.992   3.656  0.3663  0.0532 -0.0375
 5469SOL    HW128043   4.270   2.948   3.571  0.2479  0.3975 -0.2256
 5469SOL    HW228044   4.213   2.932   3.711 -0.4847 -0.1447 -1.0293
 5470SOL     OW28045   4.729   0.500   4.433 -0.1639  0.6604  0.8264
 5470SOL    HW128046   4.661   0.506   4.500  1.1322 -1.3516  2.3212
 5470SOL    HW228047   0.033   0.586   4.428  1.4308 -0.0598  1.7008
 5471SOL     OW28048   3.094   0.039  10.237  0.2309 -0.5050  0.0638
 5471SOL    HW128049   3.048   0.027  10.321  1.6510 -3.0472  0.4767
 5471SOL    HW228050   3.019   0.069  10.185 -1.4254 -2.2063  1.4497
 5472SOL     OW28051   4.732   1.297   0.124 -0.3231  0.4359 -0.0189
 5472SOL    HW128052   0.028   1.325   0.039 -1.8417 -0.3380 -0.8614
 5472SOL    HW228053   4.675   1.370   0.150 -1.1277  0.0748 -0.7637
 5473SOL     OW28054   4.673   0.563   8.709  0.1154 -0.1885 -0.6494
 5473SOL    HW128055   0.002   0.515   8.661  0.4266  0.9457 -1.3316
 5473SOL    HW228056   4.670   0.523   8.796 -2.2750  0.0386 -0.6182
 5474SOL     OW28057   2.872   2.252  16.977  0.1780  0.0192 -0.3539
 5474SOL    HW128058   2.917   2.194  17.038  0.3883  0.0832 -0.4462
 5474SOL    HW228059   2.779   2.237  16.996  0.2410 -0.9123 -0.7998
 5475SOL     OW28060   1.551   3.861   8.628 -0.0885 -0.2508  0.3481
 5475SOL    HW128061   1.580   3.902   8.547  0.1655 -2.7209 -0.8001
 5475SOL    HW228062   1.457   3.872   8.612  0.0231  0.9746  0.5203
 5476SOL     OW28063   0.209   3.218  11.557  0.1672  0.1674  0.8286
 5476SOL    HW128064   0.290   3.199  11.604 -0.8353 -1.8660  1.7282
 5476SOL    HW228065   0.188   3.128  11.532  0.9114  0.4425 -0.7796
 5477SOL     OW28066   0.498   0.832   2.126  0.2768 -0.1504 -0.3701
 5477SOL    HW128067   0.431   0.881   2.079  0.7121  2.0177  1.2736
 5477SOL    HW228068   0.465   0.814   2.214  0.5608 -1.8767 -0.6115
 5478SOL     OW28069   2.449   1.386   3.738 -0.2870  0.0487 -0.3744
 5478SOL    HW128070   2.461   1.384   3.834  1.7640  0.1834 -0.6154
 5478SOL    HW228071   2.482   1.301   3.709  2.2964  0.5589  0.9826
 5479SOL     OW28072   0.616   1.161   8.937  0.8232 -0.2163 -0.0061
 5479SOL    HW128073   0.711   1.150   8.941  0.8132 -0.3897 -0.2172
 5479SOL    HW228074   0.594   1.167   8.844  2.7630 -1.1517 -0.5289
 5480SOL     OW28075   0.217   2.453   3.165  0.3877  0.3834 -0.4648
 5480SOL    HW128076   0.261   2.370   3.151 -0.3293  0.3964 -2.7236
 5480SOL    HW228077   0.199   2.437   3.258 -2.9070 -1.9528 -1.5084
 5481SOL     OW28078   2.591   4.396   1.537  0.4981  0.0327 -0.7665
 5481SOL    HW128079   2.514   4.447   1.513 -0.3312 -0.6901  0.3150
 5481SOL    HW228080   2.609   4.438   1.622 -0.1446 -1.2080 -0.0086
 5482SOL     OW28081   4.021   0.374  10.567 -0.0523 -0.2908 -0.1690
 5482SOL    HW128082   4.014   0.441  10.635  0.9872 -0.0718 -0.2782
 5482SOL    HW228083   3.971   0.306  10.612  0.3373 -0.6339 -0.2531
 5483SOL     OW28084   1.625   1.889  11.135  0.5065  0.0160 -0.3531
 5483SOL    HW128085   1.656   1.909  11.047 -1.2433 -0.9254 -1.1715
 5483SOL    HW228086   1.656   1.953  11.199  0.8684  0.7643 -1.2733
 5484SOL     OW28087   2.223   2.283  11.847  1.3579  0.7232  0.5661
 5484SOL    HW128088   2.182   2.325  11.923  1.7711  0.2048  1.0826
 5484SOL    HW228089   2.160   2.219  11.816 -0.6286  2.6634  0.5992
 5485SOL     OW28090   2.788   3.782  12.592  0.2954  0.2319 -0.4378
 5485SOL    HW128091   2.836   3.771  12.510 -0.3019  0.6084 -0.8346
 5485SOL    HW228092   2.702   3.742  12.581  0.4497 -0.1563 -0.2223
 5486SOL     OW28093   1.255   2.094  10.174 -0.4992 -0.3947  0.6911
 5486SOL    HW128094   1.344   2.122  10.153 -1.1052  1.3397  0.4345
 5486SOL    HW228095   1.217   2.158  10.233 -1.9198  0.2480 -0.9170
 5487SOL     OW28096   4.442   2.429  10.167  0.5312 -0.3232 -0.0086
 5487SOL    HW128097   4.500   2.474  10.105  0.9419 -0.0090  0.6010
 5487SOL    HW228098   4.498   2.427  10.245 -0.3047 -0.3290  0.5874
 5488SOL     OW28099   2.446   2.134   1.199  0.3278  0.4382 -0.1769
 5488SOL    HW128100   2.496   2.170   1.126 -0.7583  0.1939 -1.0389
 5488SOL    HW228101   2.381   2.204   1.204 -0.0430  0.0586  0.2731
 5489SOL     OW28102   0.170   2.358   7.331 -0.3295 -0.0046 -0.1670
 5489SOL    HW128103   0.242   2.329   7.275 -0.2757  0.5906 -0.3986
 5489SOL    HW228104   0.175   2.453   7.323 -2.3233  0.0324 -0.7409
 5490SOL     OW28105   2.372   0.006   4.119  0.1702  0.0297 -0.3458
 5490SOL    HW128106   2.302   4.705   4.173 -0.8071  2.7622  0.3160
 5490SOL    HW228107   2.331   4.723   4.035  0.2780  0.0190 -0.3959
 5491SOL     OW28108   2.148   0.345   6.319  0.7738  0.2130 -0.8527
 5491SOL    HW128109   2.109   0.322   6.234 -0.7661  1.6902 -0.5485
 5491SOL    HW228110   2.117   0.266   6.364  2.0826  0.0601 -0.2129
 5492SOL     OW28111   2.919   2.796   8.087 -0.3741 -0.0063 -0.3932
 5492SOL    HW128112   2.881   2.741   8.155  0.0514 -0.3133 -0.4113
 5492SOL    HW228113   2.989   2.829   8.143 -1.5179  2.0917 -0.1852
 5493SOL     OW28114   3.901   3.048   8.882  0.0609 -0.2439 -0.4045
 5493SOL    HW128115   3.810   3.027   8.863 -0.4301 -0.1508  1.8036
 5493SOL    HW228116   3.929   2.964   8.918 -0.3398  0.8178  2.4141
 5494SOL     OW28117   0.726   0.324   0.362  0.1117  0.6509  0.0752
 5494SOL    HW128118   0.633   0.335   0.383 -0.2450 -1.2685 -0.5496
 5494SOL    HW228119   0.754   0.289   0.447  1.3574  1.3308 -0.0698
 5495SOL     OW28120   2.706   2.188   6.495  0.1972 -0.5760 -0.4722
 5495SOL    HW128121   2.723   2.212   6.404 -2.0689  0.6201 -0.5633
 5495SOL    HW228122   2.620   2.148   6.484  0.5775 -1.1310 -1.4641
 5496SOL     OW28123   1.067   0.972  10.803  0.5635 -0.0006 -0.1438
 5496SOL    HW128124   0.976   0.942  10.811  0.1537  1.2609  0.0988
 5496SOL    HW228125   1.075   1.029  10.880  0.5650 -0.4162  0.1658
 5497SOL     OW28126   3.655   1.390   8.169  0.3036 -0.2781 -0.0640
 5497SOL    HW128127   3.675   1.431   8.085 -0.6113 -2.2596 -1.2434
 5497SOL    HW228128   3.624   1.462   8.225 -1.1770 -1.0136  0.0528
 5498SOL     OW28129   4.533   0.748  14.742 -0.4865 -0.0723 -0.1468
 5498SOL    HW128130   4.454   0.736  14.689  0.0602  0.7799 -1.1583
 5498SOL    HW228131   4.495   0.784  14.823 -1.3552  1.4502 -1.2276
 5499SOL     OW28132   2.704   0.156   8.213 -0.0579 -0.1979  0.0615
 5499SOL    HW128133   2.629   0.193   8.259 -1.5516 -0.0927 -2.5168
 5499SOL    HW228134   2.658   0.119   8.138  1.7904 -0.0560 -1.1404
 5500SOL     OW28135   2.519   1.729  14.095  0.0260  0.3274 -0.3269
 5500SOL    HW128136   2.601   1.682  14.089  1.4760  3.1606 -2.9901
 5500SOL    HW228137   2.480   1.673  14.162  2.0119 -2.3095 -1.3917
 5501SOL     OW28138   3.660   2.660   4.352  0.3638  0.2902 -0.9386
 5501SOL    HW128139   3.680   2.744   4.310  3.7093  0.4214  0.8951
 5501SOL    HW228140   3.745   2.643   4.391  2.0787  2.1193 -3.8696
 5502SOL     OW28141   4.718   3.234   9.031 -0.1756  0.0328 -0.2944
 5502SOL    HW128142   4.727   3.179   9.109 -2.1689  0.2536  0.0743
 5502SOL    HW228143   0.070   3.227   8.996  0.4714 -0.3251  1.4406
 5503SOL     OW28144   4.361   1.909   7.385 -0.5334 -0.0521 -0.1284
 5503SOL    HW128145   4.389   1.843   7.449  0.9941  1.6688  0.9918
 5503SOL    HW228146   4.318   1.974   7.441 -0.4139 -0.0137 -0.0803
 5504SOL     OW28147   3.439   0.464   6.621 -0.6623 -0.2270 -0.5683
 5504SOL    HW128148   3.491   0.394   6.581 -0.2930  0.8257 -1.9329
 5504SOL    HW228149   3.487   0.537   6.583 -1.6897  0.4733 -0.5238
 5505SOL     OW28150   1.560   0.805  15.466  0.1520  0.1710 -0.2698
 5505SOL    HW128151   1.640   0.852  15.442  1.7902 -1.5439  1.8454
 5505SOL    HW228152   1.494   0.837  15.404  1.0926 -2.4942 -2.6845
 5506SOL     OW28153   2.200   1.253   2.103  0.7827  0.6798 -0.3678
 5506SOL    HW128154   2.119   1.270   2.055 -0.2504 -0.9102  0.8425
 5506SOL    HW228155   2.262   1.310   2.057  0.8359 -1.7258 -3.2179
 5507SOL     OW28156   4.586   0.176   8.310  0.7936 -0.1480 -0.1960
 5507SOL    HW128157   4.551   0.228   8.382 -0.5491 -2.6508  0.9476
 5507SOL    HW228158   4.589   0.089   8.349  1.1504 -0.6088 -1.2399
 5508SOL     OW28159   3.242   0.890   0.182  0.0105  0.1714 -0.1308
 5508SOL    HW128160   3.163   0.888   0.127  0.8398 -0.3884 -1.2916
 5508SOL    HW228161   3.276   0.802   0.164 -0.1535  0.2665 -0.9217
 5509SOL     OW28162   2.979   3.887   7.869 -0.2447 -0.5242  0.1474
 5509SOL    HW128163   2.951   3.956   7.808 -0.1184 -0.7487 -0.1641
 5509SOL    HW228164   2.928   3.918   7.944 -0.3527 -1.7524  0.5697
 5510SOL     OW28165   1.514   3.619   3.597 -0.5853 -0.1355 -0.1950
 5510SOL    HW128166   1.427   3.582   3.579 -0.4949 -0.3598 -0.1685
 5510SOL    HW228167   1.568   3.541   3.601  1.3968  1.2418 -0.1005
 5511SOL     OW28168   2.952   4.385   3.474 -0.0343 -0.0813  0.0591
 5511SOL    HW128169   2.992   4.410   3.391  1.3756 -0.2951  0.6701
 5511SOL    HW228170   3.007   4.315   3.511 -0.3328 -0.1606  0.3432
 5512SOL     OW28171   2.400   0.240  14.371  0.1941  0.4382 -0.3310
 5512SOL    HW128172   2.438   0.184  14.304  0.8322  1.6544 -0.9890
 5512SOL    HW228173   2.317   0.272  14.337 -0.4976  0.5714  1.4974
 5513SOL     OW28174   0.308   1.310   5.790 -0.4183 -0.1667 -0.6957
 5513SOL    HW128175   0.214   1.288   5.789 -0.9300  1.9677  0.1690
 5513SOL    HW228176   0.324   1.339   5.880 -0.4168 -0.4004 -0.6195
 5514SOL     OW28177   2.322   3.411   0.038  0.0595 -0.5900  0.4901
 5514SOL    HW128178   2.407   3.443   0.069  0.7508  0.3511 -2.3944
 5514SOL    HW228179   2.269   3.454   0.105 -0.1575  0.4587 -0.3606
 5515SOL     OW28180   3.202   2.545   1.091  0.6992 -0.3500  0.1085
 5515SOL    HW128181   3.171   2.457   1.067 -0.3264 -0.5166  2.0837
 5515SOL    HW228182   3.126   2.586   1.133 -1.3783 -2.9036 -1.1131
 5516SOL     OW28183   1.951   0.482   7.306  0.4783  0.0755  0.0601
 5516SOL    HW128184   1.950   0.572   7.337 -0.3660  0.2771 -0.5561
 5516SOL    HW228185   1.982   0.496   7.217  0.0567  1.2117  0.0864
 5517SOL     OW28186   0.249   0.777   3.693  0.3795  1.2404 -0.1055
 5517SOL    HW128187   0.223   0.737   3.610  0.2526  0.5480  0.2704
 5517SOL    HW228188   0.172   0.750   3.744 -0.0497  1.0476 -0.8480
 5518SOL     OW28189   0.518   3.469   4.788  0.0166  0.2402 -0.0251
 5518SOL    HW128190   0.516   3.444   4.696 -0.5874  0.2760 -0.0234
 5518SOL    HW228191   0.605   3.508   4.788 -0.0967  0.4897 -1.2728
 5519SOL     OW28192   1.323   1.280   8.812  0.2009 -0.1114 -0.2311
 5519SOL    HW128193   1.303   1.367   8.779  0.8123 -1.0506 -3.0252
 5519SOL    HW228194   1.395   1.250   8.757  0.2806 -0.7680  0.2234
 5520SOL     OW28195   4.683   3.912   2.360 -0.0057 -0.8015  0.4269
 5520SOL    HW128196   4.712   3.921   2.269 -1.2540 -0.7170  0.0461
 5520SOL    HW228197   4.639   3.996   2.372 -1.4377 -1.3423 -1.0631
 5521SOL     OW28198   0.040   4.680   2.822 -0.0471 -0.0474 -0.5187
 5521SOL    HW128199   4.736   4.675   2.736  1.4438 -0.1128 -1.2282
 5521SOL    HW228200   0.131   4.701   2.803 -0.0672  0.1713 -0.3633
 5522SOL     OW28201   0.513   0.472  15.192  0.8984 -0.3725  0.0015
 5522SOL    HW128202   0.514   0.468  15.287  0.2222  1.2064  0.0746
 5522SOL    HW228203   0.515   0.380  15.163 -2.6996 -0.1507 -0.9352
 5523SOL     OW28204   3.678   0.844  14.683  0.2533 -0.2439  0.2909
 5523SOL    HW128205   3.714   0.812  14.766  1.1249 -0.5122 -0.1888
 5523SOL    HW228206   3.763   0.859  14.642 -0.9464  1.7142 -1.4827
 5524SOL     OW28207   2.360   0.655  12.631  0.0866 -0.4569 -0.3052
 5524SOL    HW128208   2.356   0.741  12.674  0.0989 -0.0817 -1.0452
 5524SOL    HW228209   2.437   0.613  12.670  0.9212  1.1199 -0.2375
 5525SOL     OW28210   3.556   1.162   8.330 -0.5800 -0.7451 -0.1689
 5525SOL    HW128211   3.600   1.234   8.284  1.0141 -1.2834  0.5220
 5525SOL    HW228212   3.593   1.080   8.298 -3.3603 -2.9168  2.2038
 5526SOL     OW28213   3.419   1.117   0.051  0.1404  0.0691 -0.2419
 5526SOL    HW128214   3.343   1.060   0.063 -0.4261  1.2343  1.8493
 5526SOL    HW228215   3.476   1.074  17.736  0.5561  1.0478 -0.5340
 5527SOL     OW28216   3.065   2.250  16.594  0.0186  0.0725  0.3842
 5527SOL    HW128217   2.970   2.241  16.606 -0.0748 -2.0195 -1.9281
 5527SOL    HW228218   3.093   2.168  16.554 -1.0251 -1.4921  2.8248
 5528SOL     OW28219   4.166   1.150   4.631 -0.6968  0.3102  0.2225
 5528SOL    HW128220   4.125   1.160   4.717  0.0825  1.9145  0.4125
 5528SOL    HW228221   4.118   1.221   4.589  1.1159  0.8661 -0.9114
 5529SOL     OW28222   1.167   1.052   7.943 -0.3451  0.6032 -0.0168
 5529SOL    HW128223   1.225   1.042   7.868  0.3377 -1.8602  0.8353
 5529SOL    HW228224   1.219   0.990   7.994 -1.3113 -1.0112 -1.0108
 5530SOL     OW28225   2.319   2.829   7.440  0.1145 -0.1308 -0.1685
 5530SOL    HW128226   2.357   2.748   7.406  0.1246  0.0181 -0.5120
 5530SOL    HW228227   2.227   2.809   7.423 -0.4813  3.2268 -0.8463
 5531SOL     OW28228   1.357   1.971   5.363  0.7635 -0.0681 -0.0295
 5531SOL    HW128229   1.432   1.952   5.306  1.3128  2.4905 -0.1566
 5531SOL    HW228230   1.329   1.883   5.390  1.8009 -0.0668  1.0681
 5532SOL     OW28231   1.849   4.715  17.021 -0.2184 -0.6156 -0.2824
 5532SOL    HW128232   1.877   0.026  17.099  2.1659  2.6657 -3.1875
 5532SOL    HW228233   1.930   4.714  16.971  1.0712 -0.6606  1.7830
 5533SOL     OW28234   2.250   4.102  14.690 -0.2264  0.2049 -0.1552
 5533SOL    HW128235   2.330   4.060  14.722 -1.4433 -2.8128 -1.0083
 5533SOL    HW228236   2.283   4.103  14.600 -1.1739 -2.5260 -0.5583
 5534SOL     OW28237   3.016   4.607  11.390  0.7169 -0.0681  0.4619
 5534SOL    HW128238   2.992   4.602  11.298  1.7687  1.2540  0.1279
 5534SOL    HW228239   3.088   4.543  11.394  0.8633 -0.0250 -1.5798
 5535SOL     OW28240   4.294   1.083   7.908  0.4400 -0.0194 -0.2941
 5535SOL    HW128241   4.322   1.122   7.825  0.1400  0.0492 -0.3655
 5535SOL    HW228242   4.266   1.163   7.954 -4.6228 -0.7078 -2.1242
 5536SOL     OW28243   2.679   2.474   2.880 -0.4834 -0.0330  0.3578
 5536SOL    HW128244   2.753   2.491   2.938  0.3946  1.3678 -1.2110
 5536SOL    HW228245   2.655   2.561   2.848  0.3643 -0.8095 -2.4031
 5537SOL     OW28246   3.896   2.440   8.494  0.4195 -0.6625  0.0184
 5537SOL    HW128247   3.950   2.518   8.502 -1.9650  0.8653  1.2743
 5537SOL    HW228248   3.963   2.377   8.468 -0.3644 -0.7992 -1.7067
 5538SOL     OW28249   0.704   1.887   2.075  0.1076  0.2962 -0.1773
 5538SOL    HW128250   0.619   1.918   2.044  0.1197 -0.0617 -0.5682
 5538SOL    HW228251   0.742   1.864   1.990  0.4422  0.1865  0.0015
 5539SOL     OW28252   4.220   0.392  17.245 -0.4841 -0.1181  0.3150
 5539SOL    HW128253   4.296   0.361  17.294 -0.8712 -2.7258 -0.7236
 5539SOL    HW228254   4.158   0.336  17.293 -0.5693  0.5687  1.0114
 5540SOL     OW28255   0.045   4.329   0.112  0.3877  0.1954  0.2788
 5540SOL    HW128256   4.712   4.326   0.047 -0.4118  0.1581  1.1576
 5540SOL    HW228257   0.030   4.243   0.149 -0.0417  1.3975  2.8938
 5541SOL     OW28258   1.717   4.425   2.751  0.2978  0.5129 -0.1231
 5541SOL    HW128259   1.723   4.515   2.720 -0.6399  0.3810 -0.7071
 5541SOL    HW228260   1.716   4.381   2.665  0.8193  2.2220 -0.9892
 5542SOL     OW28261   3.517   4.256   7.262 -0.2354  0.0078  0.3566
 5542SOL    HW128262   3.432   4.214   7.277 -1.6061  3.6476  2.6319
 5542SOL    HW228263   3.502   4.346   7.290 -0.1854 -0.1892  1.0212
 5543SOL     OW28264   1.790   3.021   8.487  0.2151  0.1530  0.6580
 5543SOL    HW128265   1.874   3.038   8.444 -1.4749 -0.3003 -2.8015
 5543SOL    HW228266   1.825   3.028   8.576  0.3835  2.2753  0.4157
 5544SOL     OW28267   1.994   3.931   5.345 -0.2926 -0.3637 -0.1779
 5544SOL    HW128268   2.072   3.957   5.393 -0.4306 -0.3323  0.0296
 5544SOL    HW228269   2.001   3.979   5.263 -0.5003  0.8159  0.4939
 5545SOL     OW28270   2.688   0.808   5.028 -0.0317 -0.5286  0.2290
 5545SOL    HW128271   2.655   0.745   5.093 -0.7825 -0.5740 -0.1963
 5545SOL    HW228272   2.645   0.890   5.052  0.4975 -1.0513  2.8778
 5546SOL     OW28273   4.707   0.653   7.495  0.0304 -0.3621 -0.2418
 5546SOL    HW128274   4.719   0.576   7.550  1.0275 -1.0550 -1.4316
 5546SOL    HW228275   0.044   0.707   7.520  0.1410 -0.3690 -0.5608
 5547SOL     OW28276   4.698   4.434   9.055  0.1159 -0.5393 -0.4115
 5547SOL    HW128277   4.721   4.492   8.982  1.8324 -0.9461 -0.1975
 5547SOL    HW228278   4.613   4.468   9.080 -0.2159 -0.9859 -0.9237
 5548SOL     OW28279   2.783   3.463   2.810 -0.2506 -0.2264 -0.4532
 5548SOL    HW128280   2.810   3.376   2.841  1.1998  1.1068  2.0479
 5548SOL    HW228281   2.725   3.490   2.881 -1.7373  0.3713 -1.9098
 5549SOL     OW28282   0.596   1.165   3.620 -0.3537 -0.3544 -0.8670
 5549SOL    HW128283   0.673   1.120   3.585  1.1329  1.8082 -0.3655
 5549SOL    HW228284   0.610   1.159   3.714 -0.8600  0.4486 -0.7416
 5550SOL     OW28285   4.596   0.064   4.924 -0.7102  0.2523  0.3828
 5550SOL    HW128286   4.654   0.136   4.898 -0.6465 -0.4925 -1.5853
 5550SOL    HW228287   4.665   0.017   4.972  0.4412  2.5683  0.9926
 5551SOL     OW28288   3.297   2.707  17.647  0.2801 -0.1597 -0.0492
 5551SOL    HW128289   3.276   2.761  17.724  1.0820  0.7679 -0.4830
 5551SOL    HW228290   3.260   2.764  17.580  0.5901 -0.3236 -0.3600
 5552SOL     OW28291   3.949   4.055  12.709  0.1916 -0.1089  0.3721
 5552SOL    HW128292   3.868   4.023  12.750  1.1298 -2.2439  0.5587
 5552SOL    HW228293   3.991   3.977  12.674 -0.9795 -0.4786 -0.2397
 5553SOL     OW28294   2.541   3.890  14.581  0.5390  0.2434 -0.4669
 5553SOL    HW128295   2.514   3.932  14.662 -2.3066  1.0999 -1.8652
 5553SOL    HW228296   2.460   3.888  14.531 -0.5588  0.6120  1.3200
 5554SOL     OW28297   3.262   2.004   3.786 -0.5322 -0.4649  0.1769
 5554SOL    HW128298   3.315   1.929   3.811  0.0619  0.6797  2.3415
 5554SOL    HW228299   3.284   2.069   3.853 -2.4490  5.4216 -4.8734
 5555SOL     OW28300   3.904   4.161   4.667 -0.2153 -0.1728 -0.1258
 5555SOL    HW128301   3.947   4.215   4.733 -1.5113  1.0202 -0.2300
 5555SOL    HW228302   3.979   4.117   4.627 -0.9328 -2.7720  1.3630
 5556SOL     OW28303   4.195   0.338  10.199 -0.2251 -0.3173  0.8501
 5556SOL    HW128304   4.200   0.323  10.293 -2.4217 -0.7750  0.8816
 5556SOL    HW228305   4.102   0.359  10.192 -0.1564 -0.8459 -1.4978
 5557SOL     OW28306   2.501   1.729   3.374  0.3357 -0.1384 -1.0219
 5557SOL    HW128307   2.475   1.689   3.457 -0.2712  1.7196 -0.3048
 5557SOL    HW228308   2.425   1.787   3.363 -0.3532 -0.7827  0.3294
 5558SOL     OW28309   2.274   2.952   6.179  0.3477 -0.7478  0.6357
 5558SOL    HW128310   2.187   2.928   6.208  0.0280  1.8113  1.7753
 5558SOL    HW228311   2.323   2.903   6.245  0.0235 -1.0818  0.6281
 5559SOL     OW28312   2.146   1.323   3.238 -0.2914  0.3737 -0.3692
 5559SOL    HW128313   2.224   1.378   3.240  0.3067 -0.5422  2.2173
 5559SOL    HW228314   2.179   1.248   3.189 -0.4764  0.9256 -1.3332
 5560SOL     OW28315   0.880   1.795   1.782  0.3431 -0.2381  0.4834
 5560SOL    HW128316   0.872   1.718   1.837  0.1140  1.0964  2.3319
 5560SOL    HW228317   0.822   1.773   1.709  1.6390 -2.0105 -0.0181
 5561SOL     OW28318   0.350   4.464   7.098  0.2209 -0.5767 -0.5383
 5561SOL    HW128319   0.298   4.530   7.145 -0.0555 -1.1395 -0.0440
 5561SOL    HW228320   0.351   4.502   7.010  0.4347 -2.8798 -1.5312
 5562SOL     OW28321   3.559   4.212   6.297 -0.0481  0.3835 -0.1027
 5562SOL    HW128322   3.499   4.224   6.223 -0.5762  2.3972  0.6373
 5562SOL    HW228323   3.607   4.134   6.270 -0.6198 -0.3337  0.9922
 5563SOL     OW28324   1.875   2.098   2.327 -1.0354 -0.0341 -0.6293
 5563SOL    HW128325   1.919   2.079   2.245  0.8446  1.6413  0.0010
 5563SOL    HW228326   1.822   2.176   2.306 -0.1399  0.5233 -0.7934
 5564SOL     OW28327   3.294   2.456  17.715  0.2515 -0.1974 -0.1213
 5564SOL    HW128328   3.302   2.434  17.623  2.4055  1.4481 -0.3185
 5564SOL    HW228329   3.304   2.551  17.706  0.9679 -0.1963  0.6906
 5565SOL     OW28330   2.354   2.982   4.246  0.1163  0.3211 -0.4398
 5565SOL    HW128331   2.425   2.922   4.269 -0.4874 -1.0226 -2.1013
 5565SOL    HW228332   2.394   3.068   4.259 -1.1235  0.8157  0.0733
 5566SOL     OW28333   3.139   1.621   6.060  0.2482 -0.0204  0.1224
 5566SOL    HW128334   3.079   1.684   6.019  0.7106  0.3695  0.0426
 5566SOL    HW228335   3.138   1.653   6.150 -3.0312  2.6137 -0.8396
 5567SOL     OW28336   4.283   0.129  15.853 -0.6315 -0.3222 -0.4603
 5567SOL    HW128337   4.198   0.084  15.858 -1.4297  1.3517  0.9234
 5567SOL    HW228338   4.264   0.219  15.878 -0.6699 -0.1122 -1.2361
 5568SOL     OW28339   2.154   3.182  14.517  0.0937 -0.0211  0.1709
 5568SOL    HW128340   2.196   3.139  14.442  0.6790 -0.3079  0.6620
 5568SOL    HW228341   2.112   3.110  14.565  1.6485 -0.5034  0.7992
 5569SOL     OW28342   3.163   4.309   4.084 -0.4324 -0.2822  0.2001
 5569SOL    HW128343   3.231   4.246   4.060  1.4181  1.7616  0.1163
 5569SOL    HW228344   3.126   4.341   4.002 -3.0914  2.7913  2.6010
 5570SOL     OW28345   4.299   3.878   3.142  0.3836 -0.0680 -0.1193
 5570SOL    HW128346   4.382   3.900   3.099 -1.0359 -2.6992 -4.1297
 5570SOL    HW228347   4.242   3.944   3.101 -1.9020 -2.3501 -0.5840
 5571SOL     OW28348   4.187   2.475   2.667 -0.4722  0.0076 -0.2034
 5571SOL    HW128349   4.119   2.416   2.637  1.3084 -2.4984  0.7077
 5571SOL    HW228350   4.233   2.428   2.736 -1.4499  2.0944  1.8626
 5572SOL     OW28351   1.113   3.080   4.523 -0.2675  0.2645  0.0863
 5572SOL    HW128352   1.141   3.021   4.592  1.6572 -0.7594 -1.5614
 5572SOL    HW228353   1.018   3.076   4.525 -0.2968  0.2101 -1.0517
 5573SOL     OW28354   2.260   0.592   6.100  0.2897  0.1479 -0.1908
 5573SOL    HW128355   2.286   0.500   6.099  2.9747  0.8917  1.7020
 5573SOL    HW228356   2.167   0.594   6.122 -0.2406  0.0901 -2.4519
 5574SOL     OW28357   0.642   1.169  12.560  0.2331 -0.9527 -0.4573
 5574SOL    HW128358   0.723   1.218  12.573  0.0316 -0.2301 -1.8645
 5574SOL    HW228359   0.664   1.095  12.616 -2.1522  0.0078  1.7680
 5575SOL     OW28360   2.467   0.330   2.520  0.1457  0.0113 -0.2053
 5575SOL    HW128361   2.413   0.257   2.551  1.7046 -1.3309 -0.7045
 5575SOL    HW228362   2.407   0.403   2.539 -1.0460 -0.4812 -2.0671
 5576SOL     OW28363   2.644   3.034  16.610  0.5106  0.4203  0.6665
 5576SOL    HW128364   2.618   3.041  16.702 -0.2091 -1.6066  0.6066
 5576SOL    HW228365   2.713   3.099  16.595  0.4647  0.2576 -0.2904
 5577SOL     OW28366   2.462   0.039   2.955  0.1323 -0.2239 -0.5202
 5577SOL    HW128367   2.523   0.051   3.028 -1.4560  0.0489  0.7714
 5577SOL    HW228368   2.509   0.070   2.878 -2.2123  0.4221 -1.6985
 5578SOL     OW28369   3.162   3.732   9.178 -0.1135  0.3686  0.2500
 5578SOL    HW128370   3.236   3.789   9.158 -0.7231  0.6139 -1.2768
 5578SOL    HW228371   3.132   3.766   9.262 -0.6413 -2.1311  1.0543
 5579SOL     OW28372   4.710   4.157   5.616  0.1918  0.3757  0.0038
 5579SOL    HW128373   4.726   4.195   5.702 -0.4613  1.8866 -0.5413
 5579SOL    HW228374   0.040   4.090   5.625  0.7998  1.0381  0.4508
 5580SOL     OW28375   2.524   0.060   5.875  0.0101  0.3895  0.1465
 5580SOL    HW128376   2.617   0.036   5.873  0.2243  1.2344 -0.0007
 5580SOL    HW228377   2.520   0.154   5.863 -0.0861  0.2870 -0.6344
 5581SOL     OW28378   1.475   2.994   5.690 -0.0693 -0.0754  0.4463
 5581SOL    HW128379   1.483   2.900   5.673 -2.3906  0.3369 -2.8190
 5581SOL    HW228380   1.402   3.017   5.632 -1.4557  1.4143  2.7974
 5582SOL     OW28381   2.731   2.343   8.678 -0.4184  0.3399  0.4090
 5582SOL    HW128382   2.788   2.270   8.655 -1.1065 -0.1146  0.1552
 5582SOL    HW228383   2.683   2.347   8.596 -2.2361 -0.2125  1.4452
 5583SOL     OW28384   1.123   4.678   3.681  0.2156  0.6887  1.1170
 5583SOL    HW128385   1.027   4.679   3.681  0.2061 -1.1118  0.3236
 5583SOL    HW228386   1.142   4.589   3.710 -1.6196  0.7656  2.6102
 5584SOL     OW28387   0.506   1.217   1.972  0.2783 -0.1378  0.2224
 5584SOL    HW128388   0.435   1.155   1.986  0.6566 -0.4842  0.6268
 5584SOL    HW228389   0.565   1.172   1.912 -1.6212  0.3217 -1.9483
 5585SOL     OW28390   2.702   1.265   7.908  0.8340  0.8187 -0.3826
 5585SOL    HW128391   2.645   1.198   7.871 -0.1289  0.9466  0.8381
 5585SOL    HW228392   2.785   1.240   7.869  0.7660  2.2131 -1.4068
 5586SOL     OW28393   3.804   3.909   6.396  0.4022  0.1403  0.5054
 5586SOL    HW128394   3.875   3.865   6.349 -2.6070 -2.3880 -1.7142
 5586SOL    HW228395   3.756   3.936   6.318  0.5904 -1.5706 -0.2214
 5587SOL     OW28396   1.877   4.701   8.313  0.5634 -0.3693 -0.3052
 5587SOL    HW128397   1.907   0.031   8.252 -0.1057 -1.1767 -1.5208
 5587SOL    HW228398   1.924   4.729   8.392 -1.3369  1.6267  0.0978
 5588SOL     OW28399   0.503   0.146   6.508 -0.0225  0.2500 -0.5487
 5588SOL    HW128400   0.455   0.229   6.515 -0.2596  0.1548 -1.0264
 5588SOL    HW228401   0.589   0.189   6.510  0.5727 -0.9940  0.4948
 5589SOL     OW28402   0.090   2.088   3.653 -0.1886  0.3298 -0.3160
 5589SOL    HW128403   0.057   2.096   3.742  1.6082  2.4678  0.1405
 5589SOL    HW228404   0.023   2.034   3.611 -0.9762 -0.1286  1.5349
 5590SOL     OW28405   1.793   3.360  13.888 -0.7714 -0.1951 -0.2892
 5590SOL    HW128406   1.771   3.285  13.834 -0.7136  0.4474 -1.2069
 5590SOL    HW228407   1.722   3.340  13.949 -0.9713  1.1565 -0.0675
 5591SOL     OW28408   3.636   4.147   7.024 -0.3660 -0.1695  0.5495
 5591SOL    HW128409   3.597   4.167   7.109  0.2443  1.9228  0.3317
 5591SOL    HW228410   3.585   4.200   6.964 -1.9435  0.2232  2.2474
 5592SOL     OW28411   2.330   2.002   5.334 -0.1039 -0.3451  0.1522
 5592SOL    HW128412   2.310   1.959   5.251 -0.0345 -0.4584  0.1941
 5592SOL    HW228413   2.376   1.931   5.378  0.0419 -0.4478 -0.1653
 5593SOL     OW28414   0.601   4.404   5.487 -0.3375 -0.1752 -0.1239
 5593SOL    HW128415   0.573   4.450   5.408 -2.0270 -0.3858  0.3498
 5593SOL    HW228416   0.542   4.329   5.495 -0.6804  0.2525  1.4318
 5594SOL     OW28417   1.633   4.568  13.835  0.2388 -0.3839 -0.9711
 5594SOL    HW128418   1.702   4.616  13.881 -1.3953  2.4928 -1.4715
 5594SOL    HW228419   1.567   4.568  13.904 -2.5514  2.5981 -3.5853
 5595SOL     OW28420   4.524   2.198  12.306  0.2003  0.1657  0.3916
 5595SOL    HW128421   4.434   2.195  12.273 -0.0521  0.7127  1.0320
 5595SOL    HW228422   4.525   2.112  12.350  0.4219 -0.1733 -0.2811
 5596SOL     OW28423   0.993   3.009   6.038  0.3933  0.2471 -0.3610
 5596SOL    HW128424   0.963   3.089   5.993  0.7055  0.3424 -0.4021
 5596SOL    HW228425   0.912   2.959   6.043  2.3133 -2.6283  1.3266
 5597SOL     OW28426   3.901   3.114   4.372 -0.6730  0.8688  0.0326
 5597SOL    HW128427   3.927   3.048   4.437 -0.7842  0.3652 -0.4331
 5597SOL    HW228428   3.872   3.059   4.300  2.9317 -1.0786  0.0555
 5598SOL     OW28429   1.230   1.320   2.541 -0.1779  0.0443  0.1159
 5598SOL    HW128430   1.210   1.231   2.512  0.5396 -0.0458 -0.0970
 5598SOL    HW228431   1.324   1.331   2.531 -0.0874 -0.7499  0.1225
 5599SOL     OW28432   3.628   4.680  16.643 -0.1027  0.4215  0.3424
 5599SOL    HW128433   3.668   4.703  16.560  1.9761 -0.8989  0.9785
 5599SOL    HW228434   3.558   4.621  16.615 -0.5776 -0.5975  3.6005
 5600SOL     OW28435   3.022   2.435   9.944 -0.9431  0.5148 -0.1602
 5600SOL    HW128436   2.932   2.411   9.966 -1.5869  2.6588 -0.4685
 5600SOL    HW228437   2.997   2.500   9.879 -2.2611  0.3627  0.1904
 5601SOL     OW28438   2.231   2.238  12.259 -0.4037 -0.2170  0.1188
 5601SOL    HW128439   2.217   2.286  12.178 -0.3449  2.3165  1.6110
 5601SOL    HW228440   2.244   2.313  12.317 -1.5759 -0.9062  1.2788
 5602SOL     OW28441   0.082   2.879   2.992  0.0341 -0.8170  0.5527
 5602SOL    HW128442   0.090   2.953   3.052 -0.1323  1.4062 -2.1406
 5602SOL    HW228443   0.140   2.903   2.920 -3.1968 -0.6771 -2.0054
 5603SOL     OW28444   1.071   4.017   2.774  0.6328  0.0523  0.1508
 5603SOL    HW128445   0.994   4.074   2.773  1.4100  1.1629  2.7197
 5603SOL    HW228446   1.023   3.934   2.767 -1.6601  1.0651  3.2333
 5604SOL     OW28447   1.999   0.741   7.407  0.7961 -0.3671 -0.5279
 5604SOL    HW128448   2.003   0.831   7.439 -0.6404  0.0605 -1.5406
 5604SOL    HW228449   2.086   0.731   7.369  0.7747 -0.6753 -0.4968
 5605SOL     OW28450   4.732   0.202   5.956  0.7423 -0.7207  0.3081
 5605SOL    HW128451   4.701   0.244   6.036 -0.5041 -1.9720  0.4677
 5605SOL    HW228452   0.077   0.162   5.982 -0.0875 -1.4163  1.8487
 5606SOL     OW28453   2.220   2.505  13.236  0.1904  0.4383 -0.6466
 5606SOL    HW128454   2.237   2.519  13.143 -1.0214 -0.2326 -0.9704
 5606SOL    HW228455   2.171   2.425  13.214 -0.5042  1.5940 -3.3027
 5607SOL     OW28456   0.621   4.639   7.824  0.2592 -0.3318 -0.0285
 5607SOL    HW128457   0.546   4.579   7.822  0.6605 -0.8249 -0.2843
 5607SOL    HW228458   0.600   4.714   7.879 -0.3937 -0.3310 -0.2806
 5608SOL     OW28459   1.517   2.256  11.435 -0.0128  0.1462 -0.1713
 5608SOL    HW128460   1.544   2.166  11.455  0.7795  0.5978  0.7742
 5608SOL    HW228461   1.432   2.236  11.395  0.3456  0.1582 -0.9496
 5609SOL     OW28462   1.519   2.099   4.075 -0.1890 -0.1039  0.0719
 5609SOL    HW128463   1.603   2.143   4.083 -0.4596  0.6759 -1.4175
 5609SOL    HW228464   1.547   2.016   4.036 -0.0969 -1.1798  2.3863
 5610SOL     OW28465   2.248   2.973  10.934  0.5153  0.4297  0.0973
 5610SOL    HW128466   2.292   2.923  11.003 -1.4357 -0.4797  0.6974
 5610SOL    HW228467   2.184   3.022  10.987  1.9456  2.0500  0.3193
 5611SOL     OW28468   3.585   4.520   9.236  0.5860  0.9713 -0.3820
 5611SOL    HW128469   3.541   4.472   9.166  1.5273  0.9062 -0.9436
 5611SOL    HW228470   3.587   4.457   9.308  1.8165  0.9900 -0.3906
 5612SOL     OW28471   2.911   0.323   8.249 -0.3260 -0.1187 -0.4174
 5612SOL    HW128472   2.835   0.267   8.232  1.8539 -2.7069 -1.4869
 5612SOL    HW228473   2.979   0.261   8.277 -0.4999  0.2766  0.8758
 5613SOL     OW28474   0.811   1.101   3.420 -0.2845  0.4077  0.4659
 5613SOL    HW128475   0.799   1.029   3.482 -0.7545 -1.6202 -2.0191
 5613SOL    HW228476   0.860   1.165   3.473  0.7515 -0.7202  0.8682
 5614SOL     OW28477   2.661   3.276  11.463 -0.7467 -0.7687  0.4955
 5614SOL    HW128478   2.698   3.289  11.376  0.2365 -2.6466  0.6315
 5614SOL    HW228479   2.730   3.297  11.526 -1.2365  1.2253  0.3643
 5615SOL     OW28480   0.078   4.173   4.375 -0.5847 -0.5687  0.0479
 5615SOL    HW128481   0.088   4.248   4.318 -2.5452  0.0868  0.5807
 5615SOL    HW228482   0.100   4.102   4.314  0.9646 -0.5990  0.6378
 5616SOL     OW28483   3.861   0.349   6.483  0.4481  0.4487  0.5183
 5616SOL    HW128484   3.945   0.351   6.529  0.2124 -1.4203  1.0532
 5616SOL    HW228485   3.804   0.380   6.553  0.0904  0.6630  0.1309
 5617SOL     OW28486   2.702   2.265   7.610  0.1346 -0.3272  0.6479
 5617SOL    HW128487   2.665   2.258   7.698 -1.6415 -1.9610 -0.2255
 5617SOL    HW228488   2.629   2.296   7.556 -0.0131  2.2260  2.3543
 5618SOL     OW28489   1.739   0.536  15.360 -0.4377 -0.0849  0.0501
 5618SOL    HW128490   1.681   0.610  15.377  1.0634  1.8694 -3.3607
 5618SOL    HW228491   1.759   0.548  15.267  2.7139 -0.4375  0.6999
 5619SOL     OW28492   4.136   0.974   3.083 -0.1105  0.2467 -0.0402
 5619SOL    HW128493   4.139   0.884   3.049 -1.4528  0.0070  0.4434
 5619SOL    HW228494   4.098   0.975   3.171  1.1930 -1.0550  0.5429
 5620SOL     OW28495   0.972   2.738  14.120 -0.0463  0.5323  0.1054
 5620SOL    HW128496   0.989   2.798  14.193  0.3048  3.5315 -2.4667
 5620SOL    HW228497   0.911   2.683  14.169 -1.2904  2.0673  0.2642
 5621SOL     OW28498   4.211   3.351  16.256  0.3978 -0.6453  0.8819
 5621SOL    HW128499   4.200   3.266  16.213 -0.8778  0.1951 -0.4468
 5621SOL    HW228500   4.300   3.338  16.290  0.3064  0.0932  1.3853
 5622SOL     OW28501   0.020   0.944   1.370 -0.0261 -0.1387 -0.2458
 5622SOL    HW128502   0.111   0.946   1.339  1.7672 -0.4920  4.9303
 5622SOL    HW228503   0.032   0.993   1.451 -2.5214  1.3289 -0.7721
 5623SOL     OW28504   2.947   0.139  11.521  0.5851 -0.0870 -0.1550
 5623SOL    HW128505   2.899   0.197  11.462  0.9504 -0.1207 -0.4873
 5623SOL    HW228506   2.977   0.071  11.460  0.0610  0.0018 -0.5056
 5624SOL     OW28507   1.994   2.011   2.941 -0.3042  0.6695  0.0427
 5624SOL    HW128508   1.961   1.962   3.016  1.4937 -1.2976 -0.4487
 5624SOL    HW228509   2.044   2.074   2.993 -1.1978  0.0060  1.6984
 5625SOL     OW28510   0.608   0.081   4.980 -0.1955  0.0195 -0.1228
 5625SOL    HW128511   0.687   0.118   4.939 -0.4641  2.5625  1.5994
 5625SOL    HW228512   0.610   0.001   4.928  2.0712 -0.2684  0.4366
 5626SOL     OW28513   1.880   0.254   7.113 -0.6554  0.0573 -0.2072
 5626SOL    HW128514   1.796   0.298   7.114 -0.5030  0.3481 -0.1997
 5626SOL    HW228515   1.924   0.303   7.183  0.7129 -1.1856 -0.1789
 5627SOL     OW28516   4.575   3.392   2.198 -0.2579 -0.0671  0.6228
 5627SOL    HW128517   4.642   3.458   2.213 -0.5049  0.5117 -0.8255
 5627SOL    HW228518   4.593   3.349   2.282  1.8297 -0.3389  0.0190
 5628SOL     OW28519   3.114   1.290   2.905  0.1859 -0.6620 -0.0704
 5628SOL    HW128520   3.060   1.279   2.827  0.6027 -0.2005 -0.4229
 5628SOL    HW228521   3.173   1.361   2.879 -0.2468 -0.4727 -0.5413
 5629SOL     OW28522   0.379   0.986   4.522 -0.0425 -0.2569  0.1350
 5629SOL    HW128523   0.405   0.894   4.519  0.6960 -0.0278 -0.3871
 5629SOL    HW228524   0.442   1.042   4.567 -1.9429  1.1718  1.0049
 5630SOL     OW28525   3.672   0.446  12.409 -0.6149 -0.1768 -0.8742
 5630SOL    HW128526   3.588   0.402  12.422 -0.5555 -0.7946 -2.5375
 5630SOL    HW228527   3.710   0.431  12.495  3.0201 -0.1105 -2.4954
 5631SOL     OW28528   3.131   0.324   2.626 -0.0271  0.2843  0.1400
 5631SOL    HW128529   3.194   0.304   2.695 -0.2816 -2.0736 -0.3003
 5631SOL    HW228530   3.056   0.348   2.680  1.4525  1.7858  1.5091
 5632SOL     OW28531   3.247   0.120   2.972 -0.1581  0.0377  0.0546
 5632SOL    HW128532   3.287   0.170   2.901 -0.4189  1.7134  1.0896
 5632SOL    HW228533   3.204   0.193   3.015 -0.8913 -0.0957 -0.4624
 5633SOL     OW28534   4.341   1.689   4.735  0.1743  0.2652  0.2723
 5633SOL    HW128535   4.263   1.724   4.777 -1.1018 -2.0854 -0.0882
 5633SOL    HW228536   4.301   1.602   4.741 -1.0117  0.9133  1.8294
 5634SOL     OW28537   0.318   4.708   7.970 -0.0288  0.3284  0.2785
 5634SOL    HW128538   0.270   0.007   8.045 -1.4257  1.0732 -0.9900
 5634SOL    HW228539   0.356   0.049   7.931 -0.7431  1.3460  1.6530
 5635SOL     OW28540   0.915   2.187   2.844 -0.3595  0.2941  0.1766
 5635SOL    HW128541   0.853   2.159   2.777 -0.4740 -0.1236  0.4568
 5635SOL    HW228542   0.988   2.129   2.823  1.1988  2.6344 -0.9079
 5636SOL     OW28543   2.174   1.371   9.125  0.2686 -0.1473 -0.0532
 5636SOL    HW128544   2.130   1.444   9.081 -1.3579 -0.2675  1.3685
 5636SOL    HW228545   2.234   1.339   9.057 -1.8599 -2.1338 -1.0144
 5637SOL     OW28546   0.911   3.542   6.433 -0.4705 -0.1615  0.4042
 5637SOL    HW128547   0.830   3.492   6.438 -0.6946  0.2769  1.1979
 5637SOL    HW228548   0.977   3.478   6.406 -0.2631  0.5853 -0.8548
 5638SOL     OW28549   2.818   1.331  13.463 -0.4853 -0.1089 -0.6002
 5638SOL    HW128550   2.780   1.419  13.471 -2.3490 -0.9939  0.1931
 5638SOL    HW228551   2.896   1.334  13.517  0.0911  0.1982 -1.4468
 5639SOL     OW28552   1.796   3.531   0.849 -0.4443 -0.5804  0.6260
 5639SOL    HW128553   1.807   3.443   0.812  0.1149  0.1553 -0.9473
 5639SOL    HW228554   1.748   3.509   0.929 -1.9900 -2.8537 -0.9326
 5640SOL     OW28555   0.547   2.957   4.351  0.1485 -0.4128 -0.4232
 5640SOL    HW128556   0.606   2.891   4.389 -0.1148  0.0859  0.8633
 5640SOL    HW228557   0.464   2.923   4.383  0.1627 -1.2919 -1.3338
 5641SOL     OW28558   3.078   3.997   7.049 -0.6915 -0.3970  0.2964
 5641SOL    HW128559   3.038   3.966   6.968 -0.7965  0.1122  0.1512
 5641SOL    HW228560   3.077   3.915   7.098 -0.6425 -1.5018 -1.5457
 5642SOL     OW28561   0.711   3.882   3.951  0.6641  0.1482 -0.1140
 5642SOL    HW128562   0.704   3.862   4.044  3.3599 -2.2653 -0.4473
 5642SOL    HW228563   0.622   3.918   3.944  0.0776 -0.9152  1.9652
 5643SOL     OW28564   4.475   1.133   8.488 -0.2976  0.1314  0.4512
 5643SOL    HW128565   4.487   1.223   8.518  1.2873 -0.9241  2.8890
 5643SOL    HW228566   4.453   1.091   8.571  2.0540  1.4352  1.7250
 5644SOL     OW28567   1.471   2.849  14.949 -0.3520 -0.1121  0.3637
 5644SOL    HW128568   1.407   2.781  14.973  1.2782 -1.5303  0.7132
 5644SOL    HW228569   1.532   2.787  14.909 -0.8751 -0.0120 -0.5882
 5645SOL     OW28570   3.259   4.586   1.742  0.0615  0.2922  0.2055
 5645SOL    HW128571   3.200   4.562   1.814  0.8172 -0.0103  0.7186
 5645SOL    HW228572   3.201   4.639   1.686  0.1698  1.3417  1.0881
 5646SOL     OW28573   1.584   0.509   4.452 -0.0618 -0.5599  0.2794
 5646SOL    HW128574   1.540   0.440   4.503 -1.4783 -1.0115 -1.5355
 5646SOL    HW228575   1.672   0.484   4.477  0.5768 -0.0675 -1.4567
 5647SOL     OW28576   2.214   1.434  10.589  0.3493  0.0503  0.5028
 5647SOL    HW128577   2.148   1.365  10.599  0.5273  0.0702  1.8804
 5647SOL    HW228578   2.234   1.450  10.681  1.8546 -0.2440  0.2241
 5648SOL     OW28579   3.734   4.690  16.395  0.2423  0.3471 -0.5542
 5648SOL    HW128580   3.684   0.021  16.351  1.5165  1.4838 -0.2313
 5648SOL    HW228581   3.814   4.681  16.344  0.6977  0.3434  0.1619
 5649SOL     OW28582   0.338   2.663  13.623 -0.3808 -0.2170 -0.3236
 5649SOL    HW128583   0.344   2.733  13.688 -2.7117 -0.5652  0.2673
 5649SOL    HW228584   0.429   2.665  13.593  0.1217 -0.3411  1.1858
 5650SOL     OW28585   2.390   0.938   7.371 -0.0055 -0.4117  0.2438
 5650SOL    HW128586   2.433   0.963   7.453  1.3675 -1.0738 -0.2802
 5650SOL    HW228587   2.455   0.910   7.308 -0.1329  0.7052 -0.3909
 5651SOL     OW28588   1.834   4.388  14.039 -0.1156  0.1535 -0.5639
 5651SOL    HW128589   1.837   4.297  14.069 -1.7202  0.5925  0.9679
 5651SOL    HW228590   1.923   4.411  14.066  1.0266 -1.0218 -3.3610
 5652SOL     OW28591   1.751   1.036   8.844  0.1429  0.2278 -0.3905
 5652SOL    HW128592   1.752   0.987   8.761 -2.8278  1.7070 -1.3084
 5652SOL    HW228593   1.657   1.028   8.856  0.0114 -0.5650 -1.8794
 5653SOL     OW28594   3.801   2.082   3.031 -0.0508  0.0770 -0.0209
 5653SOL    HW128595   3.727   2.036   3.073  0.8076 -1.6838 -0.4405
 5653SOL    HW228596   3.845   2.005   2.994  1.7152  0.0178  2.1810
 5654SOL     OW28597   0.056   3.274   0.996 -0.0018  0.9980  0.1243
 5654SOL    HW128598   0.133   3.324   0.969 -1.2075  3.4623  1.2092
 5654SOL    HW228599   0.013   3.248   0.915  0.1155 -1.2503  0.7775
 5655SOL     OW28600   1.693   4.014   3.837 -0.3409 -0.1925 -0.3707
 5655SOL    HW128601   1.671   3.925   3.862  0.8901  0.0116  1.4419
 5655SOL    HW228602   1.642   4.067   3.898 -0.7730 -0.1304 -0.7897
 5656SOL     OW28603   3.269   3.695   3.465  0.4155 -0.0399 -0.3355
 5656SOL    HW128604   3.288   3.612   3.421  0.6290 -1.2791  2.0838
 5656SOL    HW228605   3.275   3.760   3.395  1.2908 -1.6001 -1.7086
 5657SOL     OW28606   0.048   0.009   6.987  0.2286 -0.1223 -0.0293
 5657SOL    HW128607   4.691   0.002   6.971  0.3765 -1.5720 -0.2630
 5657SOL    HW228608   0.057   4.727   7.081 -0.8982  2.4542  0.5839
 5658SOL     OW28609   2.913   1.501  12.856 -0.2486  0.1090 -0.0172
 5658SOL    HW128610   2.825   1.511  12.821 -0.9681 -0.6314  1.5601
 5658SOL    HW228611   2.922   1.554  12.936  2.2417  1.4197 -1.1604
 5659SOL     OW28612   3.063   1.683  10.594 -0.0554  0.2919 -0.2978
 5659SOL    HW128613   3.035   1.592  10.583 -0.0078  0.5321 -2.4045
 5659SOL    HW228614   3.124   1.679  10.667 -0.7869  0.2639  0.3094
 5660SOL     OW28615   1.919   3.738  15.136  0.3870  0.1904  0.2378
 5660SOL    HW128616   1.986   3.716  15.070  2.4440 -2.0616  3.0892
 5660SOL    HW228617   1.873   3.804  15.084  0.0555  0.8010  1.3218
 5661SOL     OW28618   1.627   3.256   8.911 -0.3499  0.1327 -0.1063
 5661SOL    HW128619   1.561   3.243   8.843  0.6457 -0.0076 -1.0397
 5661SOL    HW228620   1.657   3.166   8.927 -3.3618 -0.6083  1.3210
 5662SOL     OW28621   2.694   4.140   2.078  0.6305  0.4062 -0.0608
 5662SOL    HW128622   2.771   4.085   2.094 -0.6134 -0.7502  1.9021
 5662SOL    HW228623   2.715   4.223   2.121  0.9619  0.7182 -0.8180
 5663SOL     OW28624   0.207   2.562   8.367 -0.1542  0.4523 -0.4031
 5663SOL    HW128625   0.227   2.469   8.361 -3.1408 -0.0506 -2.3791
 5663SOL    HW228626   0.269   2.605   8.307  2.2126  2.1600  3.2500
 5664SOL     OW28627   2.206   1.832   7.184  0.2848 -0.2814 -0.1984
 5664SOL    HW128628   2.258   1.813   7.262  1.6220 -0.6908 -1.1749
 5664SOL    HW228629   2.127   1.781   7.201  1.3722 -1.7516  0.4528
 5665SOL     OW28630   2.297   0.416   3.485 -0.2547 -0.3298  0.0369
 5665SOL    HW128631   2.368   0.435   3.546 -0.9667  1.3055  0.3791
 5665SOL    HW228632   2.242   0.355   3.535 -2.9689  0.6424 -1.7226
 5666SOL     OW28633   2.643   4.124   1.506  0.7422  0.2969  0.4852
 5666SOL    HW128634   2.645   4.216   1.532 -2.5966 -0.1467  2.3057
 5666SOL    HW228635   2.728   4.095   1.540  1.0033  1.2762  0.6751
 5667SOL     OW28636   4.061   0.141   2.624 -0.4936 -0.5986  0.3400
 5667SOL    HW128637   4.064   0.071   2.689  1.5906 -0.9689 -0.1450
 5667SOL    HW228638   3.969   0.137   2.599 -1.1508 -0.6207  2.7375
 5668SOL     OW28639   1.901   3.283   3.323  0.3158 -0.4638 -0.1523
 5668SOL    HW128640   1.836   3.353   3.328  2.6856  1.7029  0.6158
 5668SOL    HW228641   1.916   3.263   3.415  2.4604 -0.1315 -0.4254
 5669SOL     OW28642   4.474   2.460  15.605  0.3965 -0.1911 -0.0387
 5669SOL    HW128643   4.403   2.462  15.542 -1.2245  0.1173  1.7829
 5669SOL    HW228644   4.539   2.401  15.568  1.1267  0.0139  0.8984
 5670SOL     OW28645   2.313   1.187   6.371  0.6052 -0.3839  0.2077
 5670SOL    HW128646   2.300   1.281   6.356  0.5230 -0.1062  2.0615
 5670SOL    HW228647   2.309   1.162   6.279 -2.2392 -0.5941  0.3954
 5671SOL     OW28648   1.291   0.660   7.465 -0.5348  0.2100  0.4178
 5671SOL    HW128649   1.366   0.696   7.511 -1.7973  0.2729  2.4120
 5671SOL    HW228650   1.268   0.729   7.403 -0.4568 -0.3729 -0.2587
 5672SOL     OW28651   0.248   3.583   7.261 -0.7879  0.2559  0.1593
 5672SOL    HW128652   0.174   3.623   7.214  0.6908  1.8988 -0.7702
 5672SOL    HW228653   0.211   3.498   7.282 -0.1385  0.0705  0.5325
 5673SOL     OW28654   3.360   3.175   4.469  0.3077 -0.0086  0.1472
 5673SOL    HW128655   3.405   3.162   4.385  0.9386 -0.9946  0.6491
 5673SOL    HW228656   3.409   3.118   4.528  0.7827 -1.0158 -1.2262
 5674SOL     OW28657   2.297   2.933   9.007 -0.2487  0.1580 -1.0244
 5674SOL    HW128658   2.232   3.002   9.016  0.6162  0.4717  2.5760
 5674SOL    HW228659   2.377   2.985   9.018 -1.8553  2.4776 -0.4080
 5675SOL     OW28660   3.985   2.607   4.649 -0.1060  0.0815 -0.5560
 5675SOL    HW128661   4.061   2.605   4.707  0.2686  1.5567 -1.0148
 5675SOL    HW228662   3.931   2.668   4.699 -1.3587 -1.8587  0.4449
 5676SOL     OW28663   0.004   1.775   7.222  0.1972  0.0410 -0.1679
 5676SOL    HW128664   0.000   1.869   7.205  2.2823 -0.0261 -1.0317
 5676SOL    HW228665   0.063   1.776   7.298 -1.7510 -0.3323  1.3723
 5677SOL     OW28666   0.354   2.180   4.405 -0.0058  0.2253 -0.1435
 5677SOL    HW128667   0.387   2.183   4.494 -2.9694 -0.6514  1.0025
 5677SOL    HW228668   0.396   2.264   4.386  2.9880 -1.7013 -1.8609
 5678SOL     OW28669   3.175   3.818   4.220 -0.3667 -0.1443 -0.1186
 5678SOL    HW128670   3.199   3.812   4.312  2.0009  1.2371 -0.6408
 5678SOL    HW228671   3.127   3.736   4.203 -2.7617  1.0756  0.8579
 5679SOL     OW28672   2.073   1.444   6.897  0.3831 -0.4052 -0.3831
 5679SOL    HW128673   2.025   1.523   6.872 -0.8088 -1.0615 -0.1689
 5679SOL    HW228674   2.162   1.471   6.875  0.0363 -0.1874 -1.5372
 5680SOL     OW28675   3.146   3.624  12.746  0.5513 -0.0950 -0.1934
 5680SOL    HW128676   3.200   3.574  12.808 -2.1637 -1.8807  0.7080
 5680SOL    HW228677   3.070   3.571  12.725 -0.3167  0.9449  0.3245
 5681SOL     OW28678   0.853   3.243  12.324 -0.0837  0.2898  0.2534
 5681SOL    HW128679   0.765   3.279  12.313 -0.3068 -0.1954  0.4782
 5681SOL    HW228680   0.835   3.149  12.327 -1.3486  0.4847 -1.4685
 5682SOL     OW28681   4.357   2.061  16.672  0.0360  0.3000  0.2242
 5682SOL    HW128682   4.280   2.106  16.706  0.4593  1.3041 -0.1508
 5682SOL    HW228683   4.319   2.005  16.605 -1.8233 -0.0049  1.5316
 5683SOL     OW28684   1.303   1.589   1.905  0.2044 -0.3315  1.1212
 5683SOL    HW128685   1.255   1.671   1.905  1.2890  0.2849 -0.9552
 5683SOL    HW228686   1.228   1.535   1.932 -0.7273  0.8988  1.0232
 5684SOL     OW28687   1.455   3.705  16.539 -0.2491 -0.0977 -0.5434
 5684SOL    HW128688   1.542   3.666  16.552 -1.6858 -2.9698  0.3816
 5684SOL    HW228689   1.474   3.782  16.486  0.4428  1.3050  1.7433
 5685SOL     OW28690   0.393   4.713   8.616  0.1852 -0.9334 -0.2499
 5685SOL    HW128691   0.475   0.018   8.591  0.2908 -0.2907  1.1397
 5685SOL    HW228692   0.332   4.726   8.543 -0.0249  0.4406  0.1618
 5686SOL     OW28693   4.300   3.252   2.353  0.4076 -0.6492  0.3722
 5686SOL    HW128694   4.219   3.294   2.325 -0.0319 -2.4678 -1.1447
 5686SOL    HW228695   4.354   3.261   2.275  0.6976 -0.7710  0.5601
 5687SOL     OW28696   2.428   2.415  16.588  0.3127 -0.2747 -0.3213
 5687SOL    HW128697   2.390   2.470  16.520 -1.1187  1.3368  1.7712
 5687SOL    HW228698   2.452   2.484  16.650 -0.4372 -1.3601  1.1845
 5688SOL     OW28699   3.928   2.036   3.903  0.3691  0.1537 -0.5431
 5688SOL    HW128700   3.907   1.949   3.936  1.0373 -0.4149 -1.6050
 5688SOL    HW228701   3.957   2.081   3.982  0.5910  1.1598 -1.1985
 5689SOL     OW28702   4.042   2.316   6.015 -0.0498 -0.2091  0.2971
 5689SOL    HW128703   4.054   2.294   6.107  1.8236 -0.4516 -0.0112
 5689SOL    HW228704   3.970   2.257   5.993 -0.1259 -0.4788  1.2981
 5690SOL     OW28705   2.045   1.032   6.746 -0.5058  0.0734 -0.0416
 5690SOL    HW128706   2.113   0.965   6.746  0.0541  0.6523  0.9429
 5690SOL    HW228707   1.971   0.979   6.777  0.1394 -0.7308  0.1221
 5691SOL     OW28708   3.086   4.155  16.090  0.5910  0.1127  0.5772
 5691SOL    HW128709   3.060   4.097  16.162  4.4386 -3.6192 -1.0209
 5691SOL    HW228710   3.141   4.219  16.134 -1.3803  1.4663  1.0773
 5692SOL     OW28711   0.547   2.439   1.609  0.2884 -0.4853  0.1543
 5692SOL    HW128712   0.542   2.497   1.685 -0.5051 -0.9290  0.4494
 5692SOL    HW228713   0.464   2.391   1.618  0.7153 -1.2274  0.1193
 5693SOL     OW28714   4.263   4.496   1.755 -0.2948  0.0355  0.2037
 5693SOL    HW128715   4.357   4.512   1.761  0.1666 -2.0360 -1.8309
 5693SOL    HW228716   4.233   4.511   1.845 -1.3603  0.1074 -0.1635
 5694SOL     OW28717   4.450   1.419   0.798  0.1304 -0.2475 -0.2771
 5694SOL    HW128718   4.462   1.455   0.886 -2.3407  0.0538 -0.0637
 5694SOL    HW228719   4.531   1.453   0.761 -0.0935 -0.0257 -0.5609
 5695SOL     OW28720   1.754   1.647   5.445  0.5148 -0.1902 -0.0180
 5695SOL    HW128721   1.676   1.593   5.452  0.7633 -0.5022  0.3359
 5695SOL    HW228722   1.727   1.730   5.486  2.0688  0.3653 -0.1159
 5696SOL     OW28723   0.425   3.147   9.369 -0.0878  0.3260 -0.0854
 5696SOL    HW128724   0.484   3.073   9.384  0.6863  0.9832  0.0702
 5696SOL    HW228725   0.475   3.193   9.302 -1.5773  0.4894 -1.0986
 5697SOL     OW28726   4.224   0.933   5.436  0.0650  0.1661 -0.0964
 5697SOL    HW128727   4.149   0.987   5.462  0.9506  0.4927  1.8439
 5697SOL    HW228728   4.290   0.975   5.491  0.1626 -0.7965  0.5318
 5698SOL     OW28729   0.215   2.783   6.473 -0.4929 -0.2605  0.2350
 5698SOL    HW128730   0.167   2.788   6.556 -0.8899 -2.7898  0.1597
 5698SOL    HW228731   0.218   2.872   6.438 -0.1662 -0.5508 -0.4679
 5699SOL     OW28732   3.840   2.066  17.349 -0.0882 -0.1162  0.1137
 5699SOL    HW128733   3.921   2.117  17.345 -1.1376  1.3177 -2.2580
 5699SOL    HW228734   3.781   2.141  17.350  0.8045  0.5940 -1.1605
 5700SOL     OW28735   2.106   2.712   2.876  0.0683 -0.1311 -0.6074
 5700SOL    HW128736   2.071   2.737   2.961  2.1822 -1.1899  0.5722
 5700SOL    HW228737   2.035   2.652   2.853  1.5522 -2.1807  0.2293
 5701SOL     OW28738   2.545   3.043   6.724  0.0385  0.4362  0.1650
 5701SOL    HW128739   2.625   3.051   6.776  1.4608 -0.4019 -1.9011
 5701SOL    HW228740   2.578   3.027   6.636  1.0772  0.8494  0.4761
 5702SOL     OW28741   2.413   0.358  14.882  0.2355  0.0537  0.0744
 5702SOL    HW128742   2.409   0.453  14.881  1.6239  0.1182  0.6486
 5702SOL    HW228743   2.355   0.331  14.811  1.0881 -0.8415 -0.2920
 5703SOL     OW28744   4.659   0.410   5.293 -0.0174 -0.5080 -0.1253
 5703SOL    HW128745   4.725   0.480   5.293  0.3551 -0.8673 -0.7551
 5703SOL    HW228746   4.725   0.341   5.284 -1.3649 -1.8103 -0.0108
 5704SOL     OW28747   2.961   3.347   5.474  0.4792 -0.1107 -0.7913
 5704SOL    HW128748   2.943   3.253   5.474 -2.1329  0.4094 -1.2237
 5704SOL    HW228749   2.983   3.351   5.567 -1.3902 -1.9234 -0.2674
 5705SOL     OW28750   0.109   2.171  14.857  0.2243 -0.4210  0.7075
 5705SOL    HW128751   0.125   2.153  14.765 -1.3797  0.8623  0.1796
 5705SOL    HW228752   0.197   2.194  14.887  0.6604 -0.3840 -0.6277
 5706SOL     OW28753   0.429   1.285  12.728  0.0786  0.3155  0.8167
 5706SOL    HW128754   0.490   1.243  12.668 -0.6549  2.0852 -1.1480
 5706SOL    HW228755   0.354   1.228  12.717  0.4486 -0.5797  2.7955
 5707SOL     OW28756   1.171   1.958   8.330  0.7241  0.5562 -0.1083
 5707SOL    HW128757   1.257   1.925   8.355 -0.2097 -1.6833  0.1505
 5707SOL    HW228758   1.139   1.891   8.270  0.2422 -1.5138  2.4517
 5708SOL     OW28759   1.003   2.613   2.262 -0.0755  0.5259  0.1626
 5708SOL    HW128760   1.018   2.704   2.238  2.5238  0.4505  1.5817
 5708SOL    HW228761   0.943   2.628   2.335 -2.1045  0.5789 -1.4811
 5709SOL     OW28762   3.719   2.534   6.536  0.1255 -0.2730  0.1852
 5709SOL    HW128763   3.636   2.548   6.581 -1.1398 -1.8523 -1.6561
 5709SOL    HW228764   3.753   2.468   6.596 -0.4098 -0.6059  0.1279
 5710SOL     OW28765   3.458   2.243   8.509 -0.2125 -0.0937  0.5191
 5710SOL    HW128766   3.371   2.240   8.549  1.5308 -1.2797  4.1739
 5710SOL    HW228767   3.439   2.261   8.417  0.8608  0.6851  0.4466
 5711SOL     OW28768   0.716   0.717   3.528 -0.2715  0.2498  0.5584
 5711SOL    HW128769   0.772   0.670   3.467  0.2309  1.2404  0.2476
 5711SOL    HW228770   0.641   0.660   3.540 -1.1319  1.4906  1.1568
 5712SOL     OW28771   0.325   3.300   3.110 -0.8297  0.0540  0.4432
 5712SOL    HW128772   0.345   3.265   3.024 -1.6693  1.7133 -0.4260
 5712SOL    HW228773   0.237   3.262   3.121 -0.2943 -1.0758  0.7717
 5713SOL     OW28774   2.637   0.916   8.603 -0.2723  0.4414  0.5211
 5713SOL    HW128775   2.704   0.980   8.628 -0.5227  0.0636  2.1561
 5713SOL    HW228776   2.691   0.858   8.549  1.6430  1.3431  1.4630
 5714SOL     OW28777   3.647   1.526   1.127 -0.8777  0.3261 -0.2521
 5714SOL    HW128778   3.688   1.451   1.084 -2.0817  0.1288 -1.0422
 5714SOL    HW228779   3.572   1.475   1.156  0.2014 -1.0889  0.0568
 5715SOL     OW28780   2.331   2.339   9.498 -0.4799  0.8564  0.0235
 5715SOL    HW128781   2.354   2.319   9.589 -1.7934 -1.2887 -0.1344
 5715SOL    HW228782   2.279   2.419   9.503  2.0927  2.5456 -0.1991
 5716SOL     OW28783   2.735   2.194   2.881  0.0391 -0.4443  0.0535
 5716SOL    HW128784   2.691   2.279   2.883 -1.3094 -1.1347 -0.7231
 5716SOL    HW228785   2.753   2.182   2.974 -0.2042 -2.5286 -0.1650
 5717SOL     OW28786   2.250   3.128   8.074 -0.2377 -0.5726  0.1798
 5717SOL    HW128787   2.215   3.051   8.030 -0.0742 -0.2942 -0.4436
 5717SOL    HW228788   2.345   3.115   8.078 -0.0463  0.7559  0.0534
 5718SOL     OW28789   2.166   1.491   3.869  0.1584 -0.0728  0.9143
 5718SOL    HW128790   2.095   1.514   3.810  2.4689  2.0562 -1.0492
 5718SOL    HW228791   2.230   1.560   3.854  1.3771 -1.3429  0.1948
 5719SOL     OW28792   4.680   2.010  10.601  0.4781 -0.0567 -0.5651
 5719SOL    HW128793   4.617   1.948  10.636 -1.2163  2.1441  0.2996
 5719SOL    HW228794   4.689   2.083  10.663 -0.9532  0.5395 -1.0678
 5720SOL     OW28795   0.894   1.560   3.945  0.0078 -0.9377  0.3170
 5720SOL    HW128796   0.851   1.602   4.020  0.8844  1.5942 -0.6011
 5720SOL    HW228797   0.885   1.638   3.891 -0.7575 -0.1829  1.5315
 5721SOL     OW28798   1.614   2.516   1.274 -0.2551 -0.5327  0.1422
 5721SOL    HW128799   1.552   2.547   1.208 -0.9671 -2.4959 -0.1010
 5721SOL    HW228800   1.625   2.595   1.327  1.9198 -0.7164 -0.0490
 5722SOL     OW28801   0.089   4.632  16.903 -0.3895  0.7674  0.3376
 5722SOL    HW128802   0.071   4.624  16.997 -0.5694  0.2012  0.2497
 5722SOL    HW228803   0.102   4.727  16.897 -3.2175  1.3350  3.1367
 5723SOL     OW28804   1.235   0.537  16.658  0.4347  0.0818  0.0086
 5723SOL    HW128805   1.152   0.488  16.660  0.6867 -0.2594  1.7945
 5723SOL    HW228806   1.200   0.626  16.666  0.7425  0.4192 -2.3429
 5724SOL     OW28807   1.124   3.683   2.522 -0.2890 -0.2347 -0.1980
 5724SOL    HW128808   1.119   3.664   2.615 -0.2020 -1.5021 -0.4508
 5724SOL    HW228809   1.217   3.665   2.506 -0.3952  0.6111 -1.7975
 5725SOL     OW28810   2.724   3.806   3.119 -0.4657  0.1973 -0.6458
 5725SOL    HW128811   2.759   3.893   3.139 -1.2566  0.6062 -1.0191
 5725SOL    HW228812   2.730   3.773   3.208 -2.6408  0.0914 -0.5539
 5726SOL     OW28813   2.486   0.620   4.652 -0.0637  0.1234  0.1624
 5726SOL    HW128814   2.450   0.653   4.734  0.4248  1.0520  0.0014
 5726SOL    HW228815   2.568   0.670   4.653 -0.3197  0.5045  1.1561
 5727SOL     OW28816   2.087   1.968  15.117 -0.2811  0.2229  0.2198
 5727SOL    HW128817   2.136   2.030  15.172  0.7264 -0.4282  0.0531
 5727SOL    HW228818   2.073   2.019  15.037  0.1648 -0.1866 -0.1184
 5728SOL     OW28819   4.639   1.165   9.025 -0.1926  0.0375  0.1357
 5728SOL    HW128820   4.681   1.231   8.970  3.7292 -1.6972  1.0811
 5728SOL    HW228821   4.587   1.215   9.088 -0.0296 -1.3679  1.3967
 5729SOL     OW28822   2.111   1.040  15.137 -0.4063 -0.1235 -0.1138
 5729SOL    HW128823   2.020   1.035  15.108 -1.2378  0.3995  2.3890
 5729SOL    HW228824   2.104   1.034  15.232 -0.1706 -2.8641 -0.2579
 5730SOL     OW28825   3.433   4.671   2.875 -0.4555 -0.0759  0.1515
 5730SOL    HW128826   3.369   0.000   2.897  0.3404  0.3363  1.2053
 5730SOL    HW228827   3.411   4.612   2.947  0.2751  0.1678  0.5661
 5731SOL     OW28828   1.174   4.223   4.004  0.3035 -0.5114  0.6946
 5731SOL    HW128829   1.181   4.307   3.959 -0.7097 -0.7076  0.1534
 5731SOL    HW228830   1.200   4.167   3.931  0.0052 -1.0511  1.0059
 5732SOL     OW28831   2.331   3.582   9.394  0.7433  0.4678 -0.2987
 5732SOL    HW128832   2.403   3.581   9.458  0.4481  2.5682  0.0698
 5732SOL    HW228833   2.383   3.601   9.316  1.7462 -1.5687 -0.1086
 5733SOL     OW28834   3.323   3.689   4.911 -0.5908  1.1713 -0.1821
 5733SOL    HW128835   3.380   3.678   4.987 -0.1261 -0.0409 -0.7081
 5733SOL    HW228836   3.369   3.745   4.849 -0.4548 -0.2329 -1.3651
 5734SOL     OW28837   2.327   1.195  15.088 -0.4841 -0.1879  0.2352
 5734SOL    HW128838   2.239   1.163  15.106 -0.4880 -0.3261 -0.0391
 5734SOL    HW228839   2.329   1.193  14.993  0.7504  0.1478  0.2529
 5735SOL     OW28840   4.251   1.462  15.641 -0.4644 -0.1258 -0.0269
 5735SOL    HW128841   4.280   1.371  15.633 -0.4142  0.1756 -3.3310
 5735SOL    HW228842   4.218   1.485  15.554 -1.2369  0.8263  0.5116
 5736SOL     OW28843   0.119   0.117   3.124 -0.7756  0.6651 -0.5720
 5736SOL    HW128844   0.069   0.163   3.056 -2.0409 -1.3652 -1.0126
 5736SOL    HW228845   0.118   0.026   3.094 -0.2206 -0.3849  2.6695
 5737SOL     OW28846   1.284   0.475   7.219  0.4031 -0.4144  0.5067
 5737SOL    HW128847   1.225   0.548   7.203 -0.9627 -1.5219  0.5296
 5737SOL    HW228848   1.365   0.504   7.261  1.6506 -1.5987 -1.0553
 5738SOL     OW28849   2.363   2.866  11.152  0.4106 -0.6754 -0.0588
 5738SOL    HW128850   2.396   2.956  11.151 -1.0558 -0.1460 -1.1912
 5738SOL    HW228851   2.437   2.807  11.140  0.0138 -1.1542 -0.1577
 5739SOL     OW28852   3.810   4.273   8.290  0.4927  0.0320 -0.0064
 5739SOL    HW128853   3.881   4.230   8.242  0.2945 -0.4133  0.1037
 5739SOL    HW228854   3.862   4.350   8.315  1.1401  0.1571 -1.7627
 5740SOL     OW28855   4.689   4.458  15.129 -0.3533 -0.1396 -0.3606
 5740SOL    HW128856   4.644   4.379  15.100 -0.0230 -1.5010  2.8537
 5740SOL    HW228857   4.664   4.455  15.221  2.1093  1.3932  0.3557
 5741SOL     OW28858   4.661   0.213   9.578 -0.6276 -0.8631  0.1748
 5741SOL    HW128859   4.718   0.137   9.567  0.5154 -0.1308  0.9475
 5741SOL    HW228860   4.681   0.246   9.666  2.5294  1.2902 -1.3442
 5742SOL     OW28861   0.090   1.984   8.746  0.0761 -0.6739  0.5827
 5742SOL    HW128862   0.018   1.978   8.683  1.1408 -1.5095 -0.5740
 5742SOL    HW228863   0.045   1.963   8.828  1.2785 -3.0090  0.6364
 5743SOL     OW28864   1.450   0.356  15.353 -0.5625 -0.0997 -0.1832
 5743SOL    HW128865   1.439   0.447  15.327 -2.0731 -0.2663 -0.1466
 5743SOL    HW228866   1.539   0.340  15.323 -0.3594  1.3495 -0.3298
 5744SOL     OW28867   2.598   2.776  16.505 -0.3014  0.0756  0.3209
 5744SOL    HW128868   2.630   2.857  16.545  0.4242 -0.1471  0.1966
 5744SOL    HW228869   2.581   2.801  16.414  1.1747  1.9852  0.5556
 5745SOL     OW28870   2.260   3.377  11.943  0.5592 -0.3528 -0.0453
 5745SOL    HW128871   2.165   3.370  11.949  0.5240  0.4338  0.4983
 5745SOL    HW228872   2.274   3.467  11.972 -0.6064  0.2359 -1.2812
 5746SOL     OW28873   4.318   4.006   1.551  0.0585 -0.2611 -0.0098
 5746SOL    HW128874   4.344   3.979   1.638 -0.2628 -0.3252  0.0673
 5746SOL    HW228875   4.390   4.065   1.528 -1.2487  1.7290  1.0429
 5747SOL     OW28876   4.141   0.257  17.009 -0.3919  0.0537 -0.1298
 5747SOL    HW128877   4.104   0.313  17.077  1.8800 -1.5857  2.4649
 5747SOL    HW228878   4.227   0.297  16.993 -0.0157  0.4826  2.9764
 5748SOL     OW28879   2.276   4.585   5.590 -0.0472  0.5043  0.1605
 5748SOL    HW128880   2.331   4.616   5.662 -0.2152 -0.2559  0.6143
 5748SOL    HW228881   2.192   4.608   5.631  0.5361  1.1429  0.9887
 5749SOL     OW28882   4.642   4.671   4.047  0.1377  0.9912  0.1996
 5749SOL    HW128883   4.688   4.588   4.062  2.2831  2.1878  0.3192
 5749SOL    HW228884   4.707   4.728   4.090  0.8660  0.4124 -0.1304
 5750SOL     OW28885   3.175   3.107   5.766  0.0979  0.1647  0.1213
 5750SOL    HW128886   3.133   3.041   5.711 -1.1917  0.7051  0.4549
 5750SOL    HW228887   3.269   3.092   5.764 -0.0089 -0.2544 -1.4507
 5751SOL     OW28888   0.279   4.318   3.179 -0.2877  0.1961  0.2058
 5751SOL    HW128889   0.270   4.381   3.250 -1.6279  1.9702 -1.5604
 5751SOL    HW228890   0.364   4.279   3.202 -0.6402  0.1392  1.4022
 5752SOL     OW28891   4.202   2.085   7.197 -0.3864  0.0687 -0.4012
 5752SOL    HW128892   4.263   2.032   7.249 -1.7197 -1.6785 -0.6503
 5752SOL    HW228893   4.265   2.128   7.138 -0.2485  1.0513  0.4391
 5753SOL     OW28894   0.021   0.087   2.175  0.2902 -0.6718 -0.3078
 5753SOL    HW128895   0.095   0.087   2.114 -0.0409  0.0549 -0.7136
 5753SOL    HW228896   0.013   0.180   2.196  3.1474 -0.5010  0.0689
 5754SOL     OW28897   1.598   1.846   8.965  0.2732  0.3456 -0.2979
 5754SOL    HW128898   1.528   1.870   8.905  1.7976  0.6701 -1.9353
 5754SOL    HW228899   1.549   1.790   9.025 -0.5602  1.4680  0.0640
 5755SOL     OW28900   2.898   1.908   4.476 -0.0108 -0.7271  0.1071
 5755SOL    HW128901   2.919   1.999   4.495 -0.6242  0.4460 -4.8265
 5755SOL    HW228902   2.930   1.870   4.558 -0.5835  1.1800  1.1989
 5756SOL     OW28903   1.854   1.143   6.026  0.0321 -0.1734  0.4091
 5756SOL    HW128904   1.895   1.208   6.082 -1.2612  1.0880 -0.0981
 5756SOL    HW228905   1.919   1.150   5.956 -0.1135 -0.2101  0.2699
 5757SOL     OW28906   2.727   2.166   2.366  0.0616 -0.1436  0.3980
 5757SOL    HW128907   2.766   2.252   2.350  0.1691 -0.3504 -0.4419
 5757SOL    HW228908   2.765   2.115   2.295 -1.4379 -0.2641 -0.3359
 5758SOL     OW28909   0.119   2.857   7.609  0.3913 -0.2782 -0.2078
 5758SOL    HW128910   0.095   2.838   7.518 -2.1191  2.0047 -0.0349
 5758SOL    HW228911   0.131   2.952   7.613  0.3638 -0.3026  0.5775
 5759SOL     OW28912   0.256   1.610   6.492 -0.0024  0.3397  0.1272
 5759SOL    HW128913   0.295   1.550   6.555 -2.2758  0.5864  1.7365
 5759SOL    HW228914   0.248   1.553   6.415  3.9931  2.5072 -1.9339
 5760SOL     OW28915   4.217   0.872   6.608 -0.3385 -0.4430 -0.1698
 5760SOL    HW128916   4.135   0.921   6.599 -1.7909 -3.1920 -1.8288
 5760SOL    HW228917   4.196   0.809   6.677 -3.0792 -0.7407 -1.3056
 5761SOL     OW28918   3.841   1.940   1.281 -0.3345  0.1983  0.3795
 5761SOL    HW128919   3.908   1.965   1.217  0.5574  0.1099  1.2633
 5761SOL    HW228920   3.860   1.848   1.301  1.1295  0.3892 -0.1290
 5762SOL     OW28921   4.008   3.360  11.913 -0.5606 -0.4348 -0.1054
 5762SOL    HW128922   3.991   3.281  11.861 -0.6063  0.0393 -0.8170
 5762SOL    HW228923   4.099   3.381  11.892 -0.3389 -0.0176  1.2927
 5763SOL     OW28924   3.855   2.614   7.199 -0.2725 -0.6001  0.0288
 5763SOL    HW128925   3.766   2.630   7.166  0.5109  0.9826 -1.2742
 5763SOL    HW228926   3.837   2.617   7.293  1.9576  1.5399  0.3728
 5764SOL     OW28927   3.629   2.835   1.541 -0.1575  0.0931  0.0354
 5764SOL    HW128928   3.615   2.858   1.633  1.7893 -2.6399  1.0280
 5764SOL    HW228929   3.537   2.827   1.514  0.2576 -0.2535 -1.3141
 5765SOL     OW28930   2.902   1.028   1.482  0.1153  0.0605 -0.1119
 5765SOL    HW128931   2.988   1.025   1.523 -0.4066 -3.3771  0.7376
 5765SOL    HW228932   2.842   0.990   1.546  0.6117  1.4031  1.1353
 5766SOL     OW28933   1.158   0.762   1.871  0.1931 -0.1877 -0.2640
 5766SOL    HW128934   1.107   0.728   1.798 -1.5415 -1.0567  1.3469
 5766SOL    HW228935   1.226   0.819   1.835 -1.0471  1.1597 -0.4555
 5767SOL     OW28936   2.897   3.346   8.757 -0.2083  0.3515  0.1722
 5767SOL    HW128937   2.948   3.420   8.723  0.7203 -0.3351  0.0852
 5767SOL    HW228938   2.913   3.280   8.690  0.7793  0.6590  0.1117
 5768SOL     OW28939   3.576   3.935   4.016 -0.2562 -0.3148  0.2514
 5768SOL    HW128940   3.648   3.983   4.056 -1.4386  1.3715  0.3926
 5768SOL    HW228941   3.555   3.873   4.085 -2.0674  1.1382  1.0066
 5769SOL     OW28942   3.104   3.716  13.692  0.1838 -0.2536  0.1380
 5769SOL    HW128943   3.189   3.758  13.680  0.7521 -1.5488 -0.3070
 5769SOL    HW228944   3.061   3.745  13.612  2.5870  1.3082 -0.5916
 5770SOL     OW28945   2.494   3.362   5.411  0.3110  0.1005 -0.1111
 5770SOL    HW128946   2.422   3.401   5.461  0.3338 -1.9854  1.5450
 5770SOL    HW228947   2.553   3.432   5.383  1.2285  0.5439  2.9645
 5771SOL     OW28948   1.455   2.768   1.674  0.0480  0.1803 -0.3848
 5771SOL    HW128949   1.364   2.793   1.654 -0.0701  2.2110  2.5633
 5771SOL    HW228950   1.476   2.829   1.745  2.8004  0.2116 -1.2553
 5772SOL     OW28951   0.220   3.588   2.701 -0.1227  0.4263  0.0655
 5772SOL    HW128952   0.169   3.570   2.780 -0.7799  1.8158 -0.0419
 5772SOL    HW228953   0.151   3.590   2.635 -0.2040  0.4166  0.1503
 5773SOL     OW28954   0.107   0.773   4.438 -0.9837 -0.0486  0.6576
 5773SOL    HW128955   0.084   0.834   4.508  2.8571 -0.1377  1.9756
 5773SOL    HW228956   0.201   0.764   4.447 -1.0097 -0.1287  0.8666
 5774SOL     OW28957   3.172   3.206  13.874  0.1716 -0.4706  0.2769
 5774SOL    HW128958   3.097   3.214  13.933  0.5620  1.6205  0.4761
 5774SOL    HW228959   3.233   3.231  13.944  3.2829 -0.3290 -2.5042
 5775SOL     OW28960   1.976   4.305  17.084  0.0872  0.0466 -0.2788
 5775SOL    HW128961   1.937   4.232  17.132 -0.4889  0.1839 -0.5384
 5775SOL    HW228962   2.029   4.266  17.014  1.6257 -0.3491  1.1006
 5776SOL     OW28963   2.965   1.391   2.078  0.1715  0.6921  0.4393
 5776SOL    HW128964   2.993   1.312   2.032 -1.7771  0.0642  0.3270
 5776SOL    HW228965   3.028   1.458   2.053 -0.4952  1.1610  0.0639
 5777SOL     OW28966   0.455   4.720   5.384  0.1579  0.1965 -0.1781
 5777SOL    HW128967   0.444   4.720   5.480  0.1348 -0.7987 -0.1816
 5777SOL    HW228968   0.377   4.669   5.361  0.4344 -0.8368  1.1721
 5778SOL     OW28969   1.317   3.084   3.497 -0.2993  0.5514  0.1121
 5778SOL    HW128970   1.379   3.026   3.542 -0.6953 -1.2712 -1.7046
 5778SOL    HW228971   1.288   3.024   3.428  0.9584  1.9171 -1.5898
 5779SOL     OW28972   0.360   4.336   4.997  0.7761  0.0143 -0.0210
 5779SOL    HW128973   0.366   4.406   5.062 -3.1618 -0.3710  0.7364
 5779SOL    HW228974   0.455   4.331   4.984  0.8351 -2.3559  1.4005
 5780SOL     OW28975   0.365   4.260   2.415  0.2004 -0.7291 -0.2531
 5780SOL    HW128976   0.321   4.176   2.408 -0.0057 -0.6114 -0.3704
 5780SOL    HW228977   0.296   4.305   2.365 -0.4286  0.0192  1.2984
 5781SOL     OW28978   3.037   1.549   2.700 -0.1484  0.1751 -0.0017
 5781SOL    HW128979   2.973   1.571   2.632 -0.1077  0.5198  0.0698
 5781SOL    HW228980   3.104   1.618   2.705 -0.5682  0.7023 -1.9372
 5782SOL     OW28981   0.706   1.179   3.896 -0.2716  0.3735  0.0447
 5782SOL    HW128982   0.709   1.083   3.895 -1.1514  0.3513 -0.2336
 5782SOL    HW228983   0.750   1.192   3.980 -0.9725 -1.2491  0.6576
 5783SOL     OW28984   4.455   0.357  11.910  0.7694 -0.5108  0.0055
 5783SOL    HW128985   4.512   0.300  11.962  0.3609  0.9912  2.0985
 5783SOL    HW228986   4.444   0.435  11.964 -0.0743  0.8427 -2.1311
 5784SOL     OW28987   3.088   2.712   4.086  0.0910 -0.0374  0.1672
 5784SOL    HW128988   3.055   2.685   4.000  1.2498  2.5891 -1.1091
 5784SOL    HW228989   3.050   2.800   4.086  0.4714  0.1288  0.5790
 5785SOL     OW28990   1.620   1.876   6.972  0.6843 -0.2932  0.5746
 5785SOL    HW128991   1.565   1.878   6.894 -1.0940  4.0927  1.8980
 5785SOL    HW228992   1.602   1.793   7.017  0.4204  0.2561  1.4890
 5786SOL     OW28993   2.790   3.610  13.688  0.1836  0.3672  0.0574
 5786SOL    HW128994   2.884   3.626  13.680 -0.0536  1.9762  0.5880
 5786SOL    HW228995   2.759   3.690  13.646 -4.2059 -0.2893  2.0380
 5787SOL     OW28996   4.129   4.350   5.238 -0.1033  1.2885  0.1860
 5787SOL    HW128997   4.034   4.365   5.238 -0.8353 -3.0881  2.9396
 5787SOL    HW228998   4.158   4.441   5.238  0.5293  1.0700 -1.4344
 5788SOL     OW28999   2.005   3.886   8.719  0.4086 -0.4072  0.0679
 5788SOL    HW129000   1.973   3.965   8.676 -0.1265 -0.2128  0.8267
 5788SOL    HW229001   1.957   3.811   8.685 -0.3115  0.2593 -0.3667
 5789SOL     OW29002   0.716   2.442   0.519  0.8956  0.1877  0.0015
 5789SOL    HW129003   0.643   2.408   0.467  0.7753  1.4726 -0.6934
 5789SOL    HW229004   0.760   2.498   0.454 -0.2568 -0.8771 -1.7022
 5790SOL     OW29005   1.708   0.540   1.866 -0.3253  0.0842 -0.6599
 5790SOL    HW129006   1.683   0.511   1.953 -0.1745  0.9257 -0.3441
 5790SOL    HW229007   1.752   0.465   1.824  1.6327  0.3979  0.8211
 5791SOL     OW29008   2.790   0.249  10.261 -0.5113 -0.4739 -0.5058
 5791SOL    HW129009   2.773   0.300  10.182 -0.5847 -0.2185 -0.3226
 5791SOL    HW229010   2.869   0.295  10.290 -0.6049 -0.9110  0.4352
 5792SOL     OW29011   0.273   2.588  13.016 -0.5500  0.5133 -0.0334
 5792SOL    HW129012   0.364   2.614  13.029 -0.2624  0.4523 -1.8014
 5792SOL    HW229013   0.249   2.645  12.943 -0.3408  0.8692  0.1799
 5793SOL     OW29014   3.024   2.131   9.820 -0.1357  0.5241  0.1066
 5793SOL    HW129015   3.106   2.177   9.836 -0.3136  0.4823  1.0918
 5793SOL    HW229016   3.005   2.099   9.908 -0.7291 -3.6025 -1.4931
 5794SOL     OW29017   0.627   0.890  15.859  0.3457 -0.1526 -0.0985
 5794SOL    HW129018   0.535   0.898  15.834  0.5271 -1.9851 -1.2857
 5794SOL    HW229019   0.681   0.884  15.780  1.4537  0.8064  0.5763
 5795SOL     OW29020   3.973   0.822   2.009  0.6776 -0.6710 -0.1384
 5795SOL    HW129021   3.961   0.912   2.040 -0.6578 -1.1124  0.6385
 5795SOL    HW229022   3.913   0.775   2.067  0.4391  0.1199  0.2467
 5796SOL     OW29023   2.233   2.322   1.193  0.1149 -0.0222  0.0033
 5796SOL    HW129024   2.151   2.351   1.152 -0.3189 -3.4832 -1.5162
 5796SOL    HW229025   2.269   2.406   1.222 -0.0195 -1.1924  3.5679
 5797SOL     OW29026   2.052   2.753   7.382  0.3342 -0.4934  0.2776
 5797SOL    HW129027   2.004   2.720   7.458  0.3325 -1.5885 -0.2032
 5797SOL    HW229028   2.049   2.685   7.315 -1.0672 -0.3920  0.2320
 5798SOL     OW29029   3.172   4.539  16.721 -0.7500  0.3201  0.4719
 5798SOL    HW129030   3.105   4.485  16.679 -0.1721 -0.2020  0.2363
 5798SOL    HW229031   3.118   4.597  16.775 -1.3545  0.4929 -0.3195
 5799SOL     OW29032   3.355   0.945   3.659  0.0057 -0.4882  0.0049
 5799SOL    HW129033   3.359   0.894   3.741 -0.6922  0.4650  0.6383
 5799SOL    HW229034   3.447   0.963   3.643 -0.1645  0.1037 -0.3073
 5800SOL     OW29035   0.146   2.664   9.261  0.0935  0.3473  0.1653
 5800SOL    HW129036   0.050   2.658   9.268  0.1472  0.8194  1.4729
 5800SOL    HW229037   0.159   2.719   9.339  4.0037  2.3924 -1.9370
 5801SOL     OW29038   3.448   0.030  12.446  0.0874  0.5160 -0.2134
 5801SOL    HW129039   3.494   4.699  12.495 -0.4934  0.7592  0.6824
 5801SOL    HW229040   3.408   0.071  12.523  0.4775 -0.1423  0.3346
 5802SOL     OW29041   2.575   0.356  14.560 -0.7116  0.1174  0.4832
 5802SOL    HW129042   2.572   0.278  14.615 -0.5046 -0.0059  0.3180
 5802SOL    HW229043   2.519   0.345  14.483  0.7204  1.8695 -0.8089
 5803SOL     OW29044   0.105   0.701  10.567  0.4716 -0.2076  0.0310
 5803SOL    HW129045   0.065   0.779  10.605  0.6750  0.0023 -0.1866
 5803SOL    HW229046   0.180   0.691  10.625  0.5900 -4.6767 -0.8759
 5804SOL     OW29047   4.070   4.268  13.821  0.6994  0.3497 -0.0701
 5804SOL    HW129048   4.038   4.352  13.790  0.6615  0.2876 -0.1973
 5804SOL    HW229049   4.037   4.273  13.911 -0.1623 -0.8420 -0.3081
 5805SOL     OW29050   3.649   0.441   5.063 -0.3969 -0.0671 -0.3546
 5805SOL    HW129051   3.623   0.383   5.135 -1.8661  1.5494  0.4173
 5805SOL    HW229052   3.723   0.489   5.101 -2.4802  2.7363  0.1971
 5806SOL     OW29053   1.097   3.328   7.340  0.2735 -0.0708  0.5505
 5806SOL    HW129054   1.122   3.353   7.429 -0.4736  0.3304  0.6560
 5806SOL    HW229055   1.076   3.410   7.294 -1.2362 -0.2093  0.9890
 5807SOL     OW29056   2.993   0.191  13.107 -0.8257 -0.1124  0.2365
 5807SOL    HW129057   3.026   0.193  13.197  0.0940  0.0073 -0.1031
 5807SOL    HW229058   3.038   0.120  13.063 -1.5170  0.2470 -1.0361
 5808SOL     OW29059   0.135   1.253  15.334 -0.0852  0.6475 -0.6593
 5808SOL    HW129060   0.153   1.312  15.261  0.2773  1.0160 -0.2698
 5808SOL    HW229061   0.044   1.230  15.318  0.1377  0.1497 -1.2465
 5809SOL     OW29062   0.394   2.476   8.699 -0.1040 -0.6225 -0.1102
 5809SOL    HW129063   0.432   2.405   8.751 -3.1144  0.0472  3.0300
 5809SOL    HW229064   0.366   2.420   8.627  0.0001 -0.4373 -0.2955
 5810SOL     OW29065   4.306   4.239   7.723  0.0187 -0.6413 -0.2755
 5810SOL    HW129066   4.213   4.217   7.719 -0.2554  0.7699 -1.8656
 5810SOL    HW229067   4.314   4.315   7.666  3.6392 -0.8181 -0.0263
 5811SOL     OW29068   1.056   1.365   5.157  0.0036  0.3249 -0.3287
 5811SOL    HW129069   0.999   1.289   5.139  1.9013 -0.8451 -1.4136
 5811SOL    HW229070   1.011   1.411   5.227  0.3104 -0.0057  0.0845
 5812SOL     OW29071   3.780   0.091   6.450  0.1690 -0.3775 -0.8476
 5812SOL    HW129072   3.800   0.085   6.356 -1.1007 -0.7141 -1.1012
 5812SOL    HW229073   3.813   0.181   6.459  2.1810 -1.3656  1.5699
 5813SOL     OW29074   0.273   3.502   6.039 -0.2336  0.7209 -0.0203
 5813SOL    HW129075   0.300   3.495   5.948  1.0267  0.8740  0.3462
 5813SOL    HW229076   0.357   3.499   6.085  0.0155 -1.4796 -0.6478
 5814SOL     OW29077   2.624   0.984  10.620 -0.0784  0.1680  0.0581
 5814SOL    HW129078   2.694   0.984  10.684  0.0662  2.1290 -0.1244
 5814SOL    HW229079   2.588   1.072  10.616 -0.4074  0.1496  2.8301
 5815SOL     OW29080   0.761   1.423   8.439 -0.3362  0.2214 -0.9579
 5815SOL    HW129081   0.676   1.454   8.470 -1.0484 -3.1898  0.5104
 5815SOL    HW229082   0.816   1.427   8.518  1.6572 -1.1792 -2.2573
 5816SOL     OW29083   2.473   3.187   2.492  0.9642  0.0437 -0.1790
 5816SOL    HW129084   2.548   3.130   2.476  0.2137 -0.9229 -0.2597
 5816SOL    HW229085   2.518   3.246   2.552  1.4602  0.7380 -1.2263
 5817SOL     OW29086   0.190   4.736   6.710  0.1891  0.0211  0.2221
 5817SOL    HW129087   0.150   4.712   6.794 -0.0795 -1.9570 -0.4720
 5817SOL    HW229088   0.156   0.087   6.699  1.9590  0.3299 -2.6951
 5818SOL     OW29089   1.603   2.193   1.556  0.6870  0.3365 -0.3274
 5818SOL    HW129090   1.664   2.181   1.483  0.0866  2.0482 -1.0976
 5818SOL    HW229091   1.578   2.284   1.546  1.8313  0.4985 -1.7945
 5819SOL     OW29092   1.317   0.573   8.694  0.2574  0.1566  0.3517
 5819SOL    HW129093   1.393   0.621   8.726  1.4075 -1.9681  0.8296
 5819SOL    HW229094   1.359   0.491   8.665  0.4754  0.2819  0.3116
 5820SOL     OW29095   0.605   1.220  15.696  0.5208 -0.5463 -0.3043
 5820SOL    HW129096   0.531   1.177  15.739  1.2611  0.8810  2.4124
 5820SOL    HW229097   0.665   1.152  15.665  2.2277  0.8741 -0.1275
 5821SOL     OW29098   2.390   2.713   8.878  0.0000 -0.1845  0.5683
 5821SOL    HW129099   2.334   2.783   8.911 -2.7746 -1.0586 -2.2992
 5821SOL    HW229100   2.480   2.734   8.902  0.8645 -1.3250 -1.6440
 5822SOL     OW29101   3.823   1.569   8.414 -0.1027  0.3237  0.8270
 5822SOL    HW129102   3.796   1.514   8.488  0.8870 -0.0138  0.9397
 5822SOL    HW229103   3.768   1.641   8.443 -3.0450 -2.5667  2.3769
 5823SOL     OW29104   1.076   3.369  17.065 -0.1638 -0.1089  0.0023
 5823SOL    HW129105   1.132   3.427  17.014  0.4665 -0.8556 -0.1559
 5823SOL    HW229106   1.027   3.327  16.994  2.7234 -5.8493  1.3430
 5824SOL     OW29107   3.488   0.414  14.685 -0.0645  0.4536 -0.5594
 5824SOL    HW129108   3.411   0.374  14.646  0.7899 -1.1222 -0.6408
 5824SOL    HW229109   3.468   0.506  14.670  2.0758  1.2300  1.2532
 5825SOL     OW29110   2.483   2.107   3.142  0.7084 -0.7866  0.6026
 5825SOL    HW129111   2.482   2.030   3.086 -0.3082  0.5467 -1.2334
 5825SOL    HW229112   2.388   2.117   3.152  0.9819  2.2110  0.1858
 5826SOL     OW29113   2.140   2.600   6.462 -0.1012  0.1466 -0.2202
 5826SOL    HW129114   2.203   2.644   6.405  0.7187 -1.2923 -0.4087
 5826SOL    HW229115   2.187   2.613   6.544 -0.0164  0.8541 -0.3790
 5827SOL     OW29116   2.358   0.763   1.247 -0.3291  0.2128  0.0286
 5827SOL    HW129117   2.424   0.831   1.232 -1.2986  1.4642  1.4875
 5827SOL    HW229118   2.390   0.721   1.327  2.3216 -0.2276 -1.2458
 5828SOL     OW29119   2.566   0.852   0.205  0.3212 -0.0470 -0.5731
 5828SOL    HW129120   2.562   0.875   0.297  0.6097  0.7103 -0.7493
 5828SOL    HW229121   2.478   0.870   0.170 -0.0576  1.5481  1.2329
 5829SOL     OW29122   1.645   2.520   6.442 -0.3073  0.6792  0.3293
 5829SOL    HW129123   1.625   2.606   6.405 -2.6793 -0.9637 -2.2518
 5829SOL    HW229124   1.604   2.535   6.527  0.3041  0.3745  0.6786
 5830SOL     OW29125   2.954   4.418   1.068  0.0899 -0.3488 -0.5771
 5830SOL    HW129126   2.909   4.335   1.085  0.2823 -0.5185 -0.8876
 5830SOL    HW229127   2.883   4.480   1.084 -0.3022 -0.6965 -0.9413
 5831SOL     OW29128   1.397   1.424   7.726 -0.1825  0.1114  0.3671
 5831SOL    HW129129   1.372   1.449   7.637 -0.6610 -1.9163 -0.0805
 5831SOL    HW229130   1.320   1.434   7.782 -0.4515  2.1372 -0.3804
 5832SOL     OW29131   2.198   0.863   7.571 -0.5494 -0.5681  0.1119
 5832SOL    HW129132   2.251   0.900   7.500 -1.2223 -0.9346 -0.5811
 5832SOL    HW229133   2.213   0.936   7.631  2.6539 -0.1113 -1.1963
 5833SOL     OW29134   3.562   0.665   5.396 -0.6602 -0.5168  0.4442
 5833SOL    HW129135   3.648   0.706   5.405 -0.9952  0.8784 -2.8518
 5833SOL    HW229136   3.584   0.586   5.445  2.4732  0.7267  1.0021
 5834SOL     OW29137   1.923   1.681   5.812  0.0452 -0.2828  0.3339
 5834SOL    HW129138   1.899   1.638   5.894  0.8955 -0.9330  0.2437
 5834SOL    HW229139   1.874   1.762   5.827 -2.1874 -1.8444  1.3191
 5835SOL     OW29140   3.052   2.398  13.891 -0.0958 -0.2496  0.1268
 5835SOL    HW129141   3.034   2.306  13.874  4.6050 -1.3204  1.1839
 5835SOL    HW229142   3.143   2.402  13.865 -0.7966  0.9254 -2.1441
 5836SOL     OW29143   0.614   2.092  10.677 -0.0476  0.0212  0.2697
 5836SOL    HW129144   0.680   2.115  10.743 -0.6163 -0.4162  0.9831
 5836SOL    HW229145   0.537   2.115  10.729  1.3548  0.6016  2.1051
 5837SOL     OW29146   2.133   2.433  12.081 -0.1309 -0.4728 -0.0542
 5837SOL    HW129147   2.042   2.428  12.054 -0.5289  0.9238  1.0104
 5837SOL    HW229148   2.139   2.496  12.153  3.6255 -0.2558 -0.5351
 5838SOL     OW29149   0.488   2.509   5.148 -0.3982  0.6906  0.2108
 5838SOL    HW129150   0.529   2.529   5.064  0.4829  1.7329  0.8923
 5838SOL    HW229151   0.480   2.414   5.139 -0.9754  0.6780  0.8495
 5839SOL     OW29152   2.274   1.128  10.021  0.3192  0.6229  0.3453
 5839SOL    HW129153   2.204   1.086   9.971  0.6839  1.4689 -0.8658
 5839SOL    HW229154   2.230   1.204  10.058 -0.5156 -0.7180  2.1184
 5840SOL     OW29155   0.048   1.469   0.689 -0.1667  0.2737  0.6342
 5840SOL    HW129156   0.073   1.559   0.708  1.4982 -0.1230  0.2959
 5840SOL    HW229157   0.097   1.470   0.606 -0.0848  0.5098  0.6870
 5841SOL     OW29158   2.499   4.009  12.742 -0.6337  0.2294  0.2670
 5841SOL    HW129159   2.498   3.965  12.656 -1.6709  0.1399  0.3210
 5841SOL    HW229160   2.407   3.990  12.764 -0.9360  2.2401  0.6834
 5842SOL     OW29161   0.244   3.229  10.238 -0.0290  0.1663  0.1929
 5842SOL    HW129162   0.181   3.232  10.166 -0.0328  1.6804  0.2595
 5842SOL    HW229163   0.325   3.250  10.192  1.4606 -0.3424  2.5619
 5843SOL     OW29164   3.418   0.075   7.239  0.6225  0.2614 -0.1750
 5843SOL    HW129165   3.388   0.165   7.233 -0.0354  0.0527 -0.0272
 5843SOL    HW229166   3.510   0.078   7.265  0.8227  1.3053 -1.0088
 5844SOL     OW29167   2.502   0.784   5.342  0.0362  0.4571 -0.5163
 5844SOL    HW129168   2.558   0.755   5.414  1.2358  2.5776 -0.6039
 5844SOL    HW229169   2.520   0.712   5.282 -2.3382 -0.7995  0.2753
 5845SOL     OW29170   4.506   1.483   3.479  0.8826 -1.0252 -0.2363
 5845SOL    HW129171   4.471   1.510   3.564  0.4974  2.3140 -1.4588
 5845SOL    HW229172   4.598   1.506   3.491  0.5399 -0.6480  1.7482
 5846SOL     OW29173   4.472   3.237   7.175 -0.6114  0.0841 -0.3437
 5846SOL    HW129174   4.468   3.299   7.103  1.6485  0.1176 -0.4338
 5846SOL    HW229175   4.395   3.182   7.156 -0.2131 -1.0935  1.3538
 5847SOL     OW29176   3.747   0.472   6.705 -0.1906 -0.0820 -0.0233
 5847SOL    HW129177   3.724   0.534   6.774 -0.0310 -0.3177  0.2405
 5847SOL    HW229178   3.800   0.411   6.755 -0.3391  1.7297  2.3414
 5848SOL     OW29179   1.167   3.556  14.323  0.0197 -0.2300 -0.4793
 5848SOL    HW129180   1.121   3.636  14.348 -0.5945 -0.8452  0.3450
 5848SOL    HW229181   1.211   3.539  14.406 -1.2871  0.9119  0.4425
 5849SOL     OW29182   0.757   1.235   4.903 -0.1375 -0.1373  0.0316
 5849SOL    HW129183   0.814   1.205   4.831 -1.8907  0.2010 -1.4901
 5849SOL    HW229184   0.831   1.240   4.963  0.1367 -0.3773 -0.2845
 5850SOL     OW29185   0.810   2.422   4.480  0.9202 -0.2707 -0.2572
 5850SOL    HW129186   0.881   2.358   4.491 -0.2207 -1.5300 -0.1615
 5850SOL    HW229187   0.811   2.473   4.561 -1.7586 -1.0977  0.2961
 5851SOL     OW29188   0.251   0.239   6.224 -0.6715 -0.4404  0.4041
 5851SOL    HW129189   0.266   0.251   6.318 -0.0142 -0.8044  0.3456
 5851SOL    HW229190   0.342   0.262   6.207 -0.8499  2.1677  2.7567
 5852SOL     OW29191   3.272   4.298   5.401  0.2037 -0.5322 -0.6002
 5852SOL    HW129192   3.244   4.208   5.391 -1.1087  0.0197 -1.9905
 5852SOL    HW229193   3.228   4.344   5.329 -3.4405 -0.3685  1.7683
 5853SOL     OW29194   1.397   0.247  16.684 -0.2780  0.1386  0.0601
 5853SOL    HW129195   1.350   0.308  16.628 -0.4692  0.8685  1.0141
 5853SOL    HW229196   1.490   0.264  16.676 -0.8644  2.6747 -1.3152
 5854SOL     OW29197   4.089   4.035  13.674  0.3845  0.3875  0.6273
 5854SOL    HW129198   4.162   4.094  13.658 -1.9026  2.6457 -1.5424
 5854SOL    HW229199   4.034   4.091  13.730 -0.3603  2.4535 -2.1592
 5855SOL     OW29200   3.496   0.833  15.731 -0.6916  0.4300 -0.2231
 5855SOL    HW129201   3.534   0.745  15.719  1.1518  1.2327 -0.3122
 5855SOL    HW229202   3.580   0.878  15.721 -0.9762  0.4515 -2.4143
 5856SOL     OW29203   1.218   2.187   6.390 -0.3414 -0.0186  0.0866
 5856SOL    HW129204   1.160   2.252   6.431  0.9372 -1.1987  3.8256
 5856SOL    HW229205   1.303   2.229   6.403 -1.0926  1.6346 -0.3277
 5857SOL     OW29206   3.906   3.678  15.542  0.2978  0.1203  0.0465
 5857SOL    HW129207   3.979   3.657  15.601 -1.5264 -1.7371  1.6485
 5857SOL    HW229208   3.849   3.723  15.603  0.1244 -0.7350  0.5232
 5858SOL     OW29209   4.510   1.441   4.904  0.1106 -0.1948 -0.0799
 5858SOL    HW129210   4.502   1.366   4.963 -0.5646 -0.0694 -0.0099
 5858SOL    HW229211   4.422   1.478   4.912 -0.0668 -1.1412  2.2051
 5859SOL     OW29212   0.312   4.386  14.224 -0.2289 -0.4270  0.2109
 5859SOL    HW129213   0.280   4.321  14.287 -0.9717 -0.5931 -0.3364
 5859SOL    HW229214   0.334   4.456  14.286  0.4568  0.6995 -1.3030
 5860SOL     OW29215   3.461   4.506   1.939  0.6708  0.1752 -0.2611
 5860SOL    HW129216   3.510   4.585   1.915 -0.2257  0.5504 -0.8749
 5860SOL    HW229217   3.420   4.478   1.857 -0.7052  1.7401 -0.1190
 5861SOL     OW29218   1.098   0.692  12.708  0.0016  0.1591 -0.3098
 5861SOL    HW129219   1.138   0.672  12.623 -2.1139 -0.3144 -1.1955
 5861SOL    HW229220   1.080   0.784  12.688 -0.8837  0.8259  3.4948
 5862SOL     OW29221   2.170   4.085   8.482  0.1089  0.2821  0.4151
 5862SOL    HW129222   2.089   4.136   8.479  1.0447  1.8104  0.5571
 5862SOL    HW229223   2.166   4.037   8.399 -0.1091 -0.5399  0.9136
 5863SOL     OW29224   0.524   2.884   9.229  0.7884  0.0386  0.3828
 5863SOL    HW129225   0.582   2.819   9.189 -2.3619 -1.2443 -2.0772
 5863SOL    HW229226   0.436   2.848   9.220  1.3352 -0.8614 -1.3284
 5864SOL     OW29227   2.080   2.652   7.862 -0.2575  0.0277  0.5471
 5864SOL    HW129228   1.998   2.619   7.900  0.4006 -1.1878  0.9237
 5864SOL    HW229229   2.137   2.622   7.933 -0.5607  0.0860  0.8208
 5865SOL     OW29230   0.220   0.882   8.488  0.3355 -0.0430  0.1523
 5865SOL    HW129231   0.192   0.862   8.578 -1.1139  0.4635 -0.1924
 5865SOL    HW229232   0.151   0.936   8.451  2.1351  1.4411 -1.0145
 5866SOL     OW29233   1.406   1.821   4.513  1.1028 -0.3466  0.1378
 5866SOL    HW129234   1.344   1.793   4.446 -0.7266  1.5051  1.0441
 5866SOL    HW229235   1.348   1.844   4.586  1.4836  1.3212 -0.0905
 5867SOL     OW29236   1.433   2.703   7.595  0.5398  0.0048 -0.1943
 5867SOL    HW129237   1.434   2.790   7.636  1.5051 -0.0097 -0.1871
 5867SOL    HW229238   1.517   2.693   7.549  0.2490 -2.0765 -0.2401
 5868SOL     OW29239   3.989   2.618   3.020 -0.0031 -0.0754  0.2803
 5868SOL    HW129240   4.012   2.528   3.042 -1.1751 -0.1894  1.0309
 5868SOL    HW229241   3.903   2.593   2.986 -1.0326  2.6166  0.9029
 5869SOL     OW29242   1.056   3.014   5.065  0.3903  0.2872  0.0108
 5869SOL    HW129243   1.028   2.984   5.151 -1.1211 -0.3427 -0.6967
 5869SOL    HW229244   1.018   3.101   5.056 -0.2256 -0.1324 -1.5938
 5870SOL     OW29245   2.333   2.620   3.145 -0.3554 -0.3673  0.0748
 5870SOL    HW129246   2.332   2.552   3.078  0.6477  0.2449 -0.5572
 5870SOL    HW229247   2.305   2.695   3.092 -0.8644 -1.2084 -0.8290
 5871SOL     OW29248   3.263   2.661   0.314 -0.4894  0.8441  0.0630
 5871SOL    HW129249   3.269   2.720   0.239  2.1978  1.4918  0.7762
 5871SOL    HW229250   3.169   2.662   0.332 -0.5849 -0.9678 -0.3227
 5872SOL     OW29251   2.822   4.421   5.465  0.1472  0.1701  0.3665
 5872SOL    HW129252   2.777   4.381   5.391  0.1223  0.3073  0.3073
 5872SOL    HW229253   2.799   4.355   5.531 -0.5679 -1.7552 -1.8197
 5873SOL     OW29254   4.211   3.658   3.486 -0.5227  0.0230  0.2875
 5873SOL    HW129255   4.180   3.733   3.436 -0.2425 -1.5015 -2.1440
 5873SOL    HW229256   4.291   3.692   3.526 -0.9213  1.5782 -0.2442
 5874SOL     OW29257   4.472   0.192   3.193  0.5879  0.6035  0.3303
 5874SOL    HW129258   4.520   0.116   3.161  1.4589  1.1536  0.3251
 5874SOL    HW229259   4.530   0.249   3.244  0.5485  0.7333  0.2333
 5875SOL     OW29260   2.323   4.197   6.958  0.3404  0.4015  0.7388
 5875SOL    HW129261   2.279   4.275   6.991 -1.4361  1.2431 -3.5394
 5875SOL    HW229262   2.248   4.150   6.924 -0.4404  1.5175  0.9154
 5876SOL     OW29263   4.639   1.539   0.181 -0.2926 -0.2757  0.0479
 5876SOL    HW129264   4.608   1.572   0.097  2.1238  0.5112 -0.5442
 5876SOL    HW229265   4.565   1.576   0.230 -1.2235 -0.2720 -1.3762
 5877SOL     OW29266   1.778   4.166   2.129  0.1298  0.0887  0.1712
 5877SOL    HW129267   1.754   4.125   2.212  4.6132 -1.7574  0.5324
 5877SOL    HW229268   1.692   4.156   2.087  0.0021  1.1561  0.1848
 5878SOL     OW29269   0.168   1.362  11.955  0.2407 -0.1923 -0.4740
 5878SOL    HW129270   0.232   1.291  11.963 -0.4333 -0.7680 -0.2406
 5878SOL    HW229271   0.164   1.371  11.859  2.2753 -0.4680 -0.5956
 5879SOL     OW29272   2.308   3.480   5.623 -0.4799  0.0847  0.4488
 5879SOL    HW129273   2.365   3.556   5.612 -1.3577  0.5628 -0.7317
 5879SOL    HW229274   2.226   3.513   5.661 -0.9402 -0.6409  0.0879
 5880SOL     OW29275   0.632   1.136  10.501 -0.1267  0.2947 -0.1689
 5880SOL    HW129276   0.557   1.159  10.445  0.9085  0.1135 -1.6448
 5880SOL    HW229277   0.581   1.086  10.565 -0.6117  0.9926 -0.0043
 5881SOL     OW29278   0.772   2.571   3.078  0.5088  0.0134  0.2563
 5881SOL    HW129279   0.752   2.480   3.100  1.6799  0.3192  2.5511
 5881SOL    HW229280   0.691   2.615   3.052  0.6668  0.2007  0.0797
 5882SOL     OW29281   0.349   1.890  13.264 -0.5354 -0.7076  0.8740
 5882SOL    HW129282   0.257   1.864  13.256 -1.0005  1.1178  0.2286
 5882SOL    HW229283   0.364   1.876  13.358 -1.1540  0.9247  1.2229
 5883SOL     OW29284   4.453   3.091  13.617  0.0056 -0.5660 -0.2994
 5883SOL    HW129285   4.530   3.147  13.606 -0.9126  0.2831 -2.5103
 5883SOL    HW229286   4.441   3.069  13.524 -1.7882 -0.6522 -0.0332
 5884SOL     OW29287   3.885   0.339  10.998  0.1379  0.5062 -0.1763
 5884SOL    HW129288   3.852   0.256  11.033 -0.8717  1.1279  0.3304
 5884SOL    HW229289   3.825   0.408  11.026 -0.1370 -1.6958  4.5821
 5885SOL     OW29290   2.590   3.844  12.243 -0.5213  0.3024  0.3367
 5885SOL    HW129291   2.518   3.897  12.209 -2.2459 -0.0531  3.4444
 5885SOL    HW229292   2.655   3.912  12.225  1.0365 -1.2793 -0.0744
 5886SOL     OW29293   3.118   2.841   1.670 -0.3737  0.2848  0.3836
 5886SOL    HW129294   3.127   2.934   1.693  0.1127 -0.0047  1.3543
 5886SOL    HW229295   3.205   2.818   1.702  0.3619  3.0068  0.3628
 5887SOL     OW29296   4.477   1.685   1.575  0.4273 -0.5829  0.1578
 5887SOL    HW129297   4.476   1.731   1.659  0.7748 -1.9972  0.9468
 5887SOL    HW229298   4.481   1.769   1.530 -0.4088  0.7554  2.6035
 5888SOL     OW29299   2.484   4.056   9.019  0.7427 -0.1075 -0.8070
 5888SOL    HW129300   2.392   4.038   9.038  1.3358 -1.6815  0.6550
 5888SOL    HW229301   2.485   4.114   8.943 -1.5831  0.8361 -0.1130
 5889SOL     OW29302   4.700   2.905  16.561  0.0491 -0.0899 -0.4172
 5889SOL    HW129303   4.712   2.850  16.638  4.5580  0.5471 -0.6559
 5889SOL    HW229304   4.621   2.957  16.574  0.5315  0.0723  1.7589
 5890SOL     OW29305   1.794   2.786   0.534 -0.6971 -0.3542 -0.0018
 5890SOL    HW129306   1.702   2.767   0.548 -0.9344 -0.0709 -1.1716
 5890SOL    HW229307   1.833   2.777   0.621 -2.2274 -2.5149  0.4438
 5891SOL     OW29308   1.609   4.706   7.482  0.8642 -0.6693  0.2557
 5891SOL    HW129309   1.569   4.648   7.418  0.2222  1.0143 -0.8492
 5891SOL    HW229310   1.646   4.636   7.536 -0.7367 -1.3228  0.5008
 5892SOL     OW29311   3.709   3.452   8.516  0.3592  0.7523  0.4570
 5892SOL    HW129312   3.673   3.491   8.436  2.3659  0.5782 -0.5335
 5892SOL    HW229313   3.736   3.531   8.563  0.0100  0.6223  0.8730
 5893SOL     OW29314   3.685   0.251   4.590 -0.2088 -0.0784 -0.6653
 5893SOL    HW129315   3.622   0.322   4.602  1.0321  0.9966 -0.4158
 5893SOL    HW229316   3.650   0.171   4.629  0.8454  0.5966  1.6828
 5894SOL     OW29317   1.797   0.450  10.075  0.1613 -0.1209 -0.2789
 5894SOL    HW129318   1.795   0.355  10.075 -1.3155 -0.0911 -1.1598
 5894SOL    HW229319   1.713   0.473  10.036 -1.0940 -1.6382  1.5398
 5895SOL     OW29320   2.391   4.044   6.186  0.6793 -0.1085 -0.6102
 5895SOL    HW129321   2.378   4.089   6.102 -0.1820 -0.4978 -0.6884
 5895SOL    HW229322   2.381   3.957   6.147  2.0058  0.4522 -2.2092
 5896SOL     OW29323   2.748   1.184   6.864  0.4794 -0.3915  0.0560
 5896SOL    HW129324   2.713   1.273   6.867  0.4638 -0.3243 -2.0490
 5896SOL    HW229325   2.827   1.200   6.812 -1.2689  1.1873 -2.1236
 5897SOL     OW29326   2.320   2.653   3.751 -0.1531  0.4832 -0.1614
 5897SOL    HW129327   2.254   2.721   3.748 -1.1062 -0.4115  0.6388
 5897SOL    HW229328   2.287   2.591   3.816 -0.7895  0.5292 -0.4402
 5898SOL     OW29329   0.785   1.911   6.456 -0.1561  0.0208  0.3140
 5898SOL    HW129330   0.782   1.995   6.410 -0.9233 -0.8268 -1.1714
 5898SOL    HW229331   0.691   1.893   6.443  0.2982 -0.5249 -2.1876
 5899SOL     OW29332   4.267   0.304  10.467  0.3304  0.1835 -0.3499
 5899SOL    HW129333   4.280   0.250  10.545 -2.0058 -0.5922 -0.5014
 5899SOL    HW229334   4.200   0.367  10.493  0.8889  1.3377 -1.7049
 5900SOL     OW29335   3.632   4.535   8.330  0.1428 -0.3212  0.7031
 5900SOL    HW129336   3.621   4.609   8.271  2.1072 -2.2690 -2.0978
 5900SOL    HW229337   3.580   4.468   8.286 -0.4877  0.9979 -0.5788
 5901SOL     OW29338   1.045   0.407   3.566  0.1518 -0.2002  0.5426
 5901SOL    HW129339   1.063   0.446   3.651 -0.5444  1.4557 -0.0784
 5901SOL    HW229340   0.976   0.343   3.583 -0.0496 -0.6249 -1.8115
 5902SOL     OW29341   1.496   4.223   2.218 -0.0582  0.9884 -0.5225
 5902SOL    HW129342   1.456   4.156   2.273  0.5062 -0.3767 -1.7484
 5902SOL    HW229343   1.486   4.182   2.132  0.3764 -1.8471  0.7897
 5903SOL     OW29344   2.740   2.623   6.856  0.2512  0.4829 -0.4412
 5903SOL    HW129345   2.685   2.654   6.784 -1.4911 -0.1448  0.6256
 5903SOL    HW229346   2.691   2.633   6.938 -1.2746 -0.8053 -1.2010
 5904SOL     OW29347   1.482   1.562   3.043 -0.2710  0.1821 -0.0711
 5904SOL    HW129348   1.395   1.523   3.043 -0.3909  0.4449 -0.9803
 5904SOL    HW229349   1.502   1.528   3.130  0.7958  3.4954  0.9556
 5905SOL     OW29350   0.856   0.638   8.427 -0.0851 -0.9618  0.4414
 5905SOL    HW129351   0.863   0.688   8.346 -1.4530 -0.3191  0.7114
 5905SOL    HW229352   0.945   0.626   8.461 -0.1840 -1.7278  0.4341
 5906SOL     OW29353   2.022   2.607   1.495 -0.2935  0.1883 -0.5113
 5906SOL    HW129354   2.029   2.514   1.518  2.6193  0.1241 -1.6841
 5906SOL    HW229355   1.964   2.642   1.562 -0.3381  0.4000 -0.6611
 5907SOL     OW29356   3.086   3.972   5.182  0.4302  0.5176  0.1921
 5907SOL    HW129357   3.066   3.995   5.092  0.5987 -0.2576 -0.0393
 5907SOL    HW229358   3.080   3.878   5.170 -0.2548  0.5863  0.0136
 5908SOL     OW29359   4.733   2.762  15.035  0.2494  0.2508  0.0850
 5908SOL    HW129360   0.039   2.697  15.091  2.7713  3.4554  1.8817
 5908SOL    HW229361   4.697   2.698  14.974 -1.0246 -0.2150  1.3269
 5909SOL     OW29362   3.671   0.256   8.024  0.0638  0.2659  0.1258
 5909SOL    HW129363   3.646   0.347   8.041  1.0804  0.6887 -0.6710
 5909SOL    HW229364   3.765   0.256   8.009  0.0801  1.0111  0.2045
 5910SOL     OW29365   4.055   0.529   2.786  0.0973 -0.2824  0.2087
 5910SOL    HW129366   4.065   0.501   2.695  0.0224 -2.2530  0.7929
 5910SOL    HW229367   4.087   0.454   2.836 -0.0214  0.1216  0.8860
 5911SOL     OW29368   0.740   4.630   8.500 -0.6029  0.6690 -0.4999
 5911SOL    HW129369   0.808   4.584   8.450  1.5342  3.3328 -0.1179
 5911SOL    HW229370   0.777   4.715   8.525 -1.4648  0.3159  1.9889
 5912SOL     OW29371   2.308   1.530  17.541  0.0448 -0.6244  0.3759
 5912SOL    HW129372   2.240   1.588  17.506 -1.0695 -1.9063  0.4023
 5912SOL    HW229373   2.290   1.450  17.490 -1.6536  1.5534 -2.4360
 5913SOL     OW29374   1.727   0.105   8.582  0.4610 -0.4141 -0.0316
 5913SOL    HW129375   1.762   0.173   8.639  1.8416  0.2837 -1.6895
 5913SOL    HW229376   1.775   0.135   8.505 -0.8908  1.0782 -0.2867
 5914SOL     OW29377   3.475   1.813   5.737  0.1721 -0.3325 -0.0187
 5914SOL    HW129378   3.486   1.743   5.802  2.4212  0.8042  0.8219
 5914SOL    HW229379   3.519   1.780   5.659 -0.7055  1.3085 -1.2100
 5915SOL     OW29380   1.449   3.183  14.546  0.2993  0.6098 -0.1065
 5915SOL    HW129381   1.542   3.203  14.559  0.7260 -1.2396 -0.3512
 5915SOL    HW229382   1.450   3.098  14.588 -3.1788  1.2394  1.2557
 5916SOL     OW29383   4.325   3.862   4.445  0.3367  0.2284  0.6652
 5916SOL    HW129384   4.338   3.803   4.518  1.1635 -0.8031 -0.3230
 5916SOL    HW229385   4.312   3.803   4.370  0.7116  0.2990  0.5475
 5917SOL     OW29386   1.085   0.072  10.889  0.3661  0.3373  0.3326
 5917SOL    HW129387   1.083   4.716  10.909 -1.9112  0.8958  2.6732
 5917SOL    HW229388   1.153   0.108  10.947 -0.8210  0.3037  1.7360
 5918SOL     OW29389   1.143   2.580   9.483 -0.5368 -0.5813 -0.0680
 5918SOL    HW129390   1.087   2.524   9.429 -1.0085  1.5477 -1.8057
 5918SOL    HW229391   1.089   2.649   9.521  0.2815 -0.2360  0.4673
 5919SOL     OW29392   4.244   1.070   0.310  0.3193  0.1896 -0.3848
 5919SOL    HW129393   4.303   1.034   0.243 -1.3258 -0.4708 -1.5016
 5919SOL    HW229394   4.230   0.991   0.363  0.3390  0.1754 -0.4006
 5920SOL     OW29395   2.789   2.805   3.149  0.2307  0.0631  0.1293
 5920SOL    HW129396   2.708   2.760   3.174  0.3127  0.2757  0.7662
 5920SOL    HW229397   2.752   2.893   3.141  1.5615  0.6296  0.3326
 5921SOL     OW29398   0.504   2.161   3.483 -0.1215 -0.1602 -0.1655
 5921SOL    HW129399   0.448   2.192   3.555  0.9707 -0.6175  0.8776
 5921SOL    HW229400   0.590   2.198   3.501  0.4512 -0.6694 -1.8737
 5922SOL     OW29401   4.458   2.062   1.223 -0.1741 -0.3250  0.2716
 5922SOL    HW129402   4.425   2.116   1.296 -0.0341  0.0927  0.0256
 5922SOL    HW229403   4.398   2.085   1.152 -1.0347  0.9684  1.4003
 5923SOL     OW29404   3.170   1.282   5.579 -0.0474  0.1924  0.3205
 5923SOL    HW129405   3.228   1.263   5.653  0.4316  1.7180  0.3326
 5923SOL    HW229406   3.207   1.360   5.537  0.1222  0.1566  0.4015
 5924SOL     OW29407   3.950   4.391   2.628  0.6589 -0.2668 -0.2849
 5924SOL    HW129408   3.986   4.360   2.712 -3.8747 -0.7491  1.4509
 5924SOL    HW229409   3.865   4.427   2.654  0.2193 -0.6461 -1.2185
 5925SOL     OW29410   1.231   1.404   3.013  0.1095 -0.7622 -0.4660
 5925SOL    HW129411   1.227   1.478   2.951 -0.3372  0.0254  0.5071
 5925SOL    HW229412   1.222   1.324   2.962  0.5049 -1.2456  0.2306
 5926SOL     OW29413   0.881   2.586   5.502  0.1919  0.3734 -0.6973
 5926SOL    HW129414   0.832   2.655   5.545  1.9412  0.5037  1.0772
 5926SOL    HW229415   0.969   2.619   5.519  0.8895 -0.4708 -2.6464
 5927SOL     OW29416   3.701   2.130   7.730  1.0287  0.1061 -0.5097
 5927SOL    HW129417   3.753   2.128   7.650  0.4795  3.0621 -0.9353
 5927SOL    HW229418   3.676   2.222   7.723  1.2671  0.1354 -1.0137
 5928SOL     OW29419   2.397   1.931  10.055  0.0946  0.1696 -0.5550
 5928SOL    HW129420   2.410   1.897  10.144  1.8463 -0.8091 -1.1767
 5928SOL    HW229421   2.402   1.851  10.003 -0.1325  0.1019 -0.4691
 5929SOL     OW29422   2.684   4.281   4.811  0.2074  0.3067 -0.3486
 5929SOL    HW129423   2.757   4.298   4.751  2.3836  0.6162  2.4033
 5929SOL    HW229424   2.622   4.237   4.752 -2.2538  0.3036  2.2839
 5930SOL     OW29425   2.736   2.174   4.379 -0.4309 -0.2319 -0.7838
 5930SOL    HW129426   2.682   2.108   4.422 -2.7037  3.0848  1.4446
 5930SOL    HW229427   2.674   2.245   4.367 -0.0587  0.2730  0.3045
 5931SOL     OW29428   4.596   3.917  11.217 -0.6291 -0.0880 -0.7116
 5931SOL    HW129429   4.620   3.970  11.141  3.0303 -0.0370  0.4561
 5931SOL    HW229430   4.646   3.970  11.279 -2.2944  0.5194  0.1250
 5932SOL     OW29431   1.115   3.774   3.050 -0.1347  0.3040 -0.4935
 5932SOL    HW129432   1.197   3.823   3.046  0.1818 -0.1962 -0.0649
 5932SOL    HW229433   1.080   3.827   3.121 -1.3407 -1.2569  0.0786
 5933SOL     OW29434   2.655   4.096   4.068  0.4436 -0.0287  0.0149
 5933SOL    HW129435   2.621   4.150   4.138 -1.7218  0.1551 -1.1621
 5933SOL    HW229436   2.613   4.012   4.089 -1.9898  0.8374 -1.3868
 5934SOL     OW29437   1.925   3.871  17.487  0.3726 -0.0517 -0.4911
 5934SOL    HW129438   1.864   3.847  17.557 -0.1336  0.0197 -0.8983
 5934SOL    HW229439   1.898   3.961  17.473 -0.5665 -0.1335  0.8459
 5935SOL     OW29440   3.696   2.179   5.681  0.1176 -0.5726  0.4508
 5935SOL    HW129441   3.658   2.223   5.605  0.3645 -0.7321  0.2316
 5935SOL    HW229442   3.679   2.086   5.666  0.7082 -0.6779  0.4359
 5936SOL     OW29443   3.255   1.909   2.214  1.1370  0.6800 -0.9345
 5936SOL    HW129444   3.191   1.880   2.149  1.1510  0.6751 -0.9464
 5936SOL    HW229445   3.205   1.879   2.289  1.6344  1.9161 -0.1070
 5937SOL     OW29446   3.329   0.198   3.717 -0.1162  0.3751  0.0448
 5937SOL    HW129447   3.274   0.212   3.640  1.9526 -0.1719 -1.5140
 5937SOL    HW229448   3.285   0.129   3.768  2.7808 -1.7761 -0.3724
 5938SOL     OW29449   0.556   1.367   4.471  0.7833  0.4238 -0.2269
 5938SOL    HW129450   0.563   1.458   4.498 -0.1929 -0.7847  4.0982
 5938SOL    HW229451   0.550   1.305   4.544  0.9524  2.3251  1.3960
 5939SOL     OW29452   0.788   2.503   7.112  0.1526  0.1578  0.2699
 5939SOL    HW129453   0.783   2.597   7.097 -0.4135  0.0698 -0.0974
 5939SOL    HW229454   0.856   2.502   7.180  0.2014 -1.5928  0.1831
 5940SOL     OW29455   0.124   0.126   7.705  0.0063  0.0039 -0.0067
 5940SOL    HW129456   0.192   0.191   7.684  0.1271  0.0777  0.6113
 5940SOL    HW229457   0.180   0.053   7.733 -0.8695 -0.7138 -0.1308
 5941SOL     OW29458   2.530   1.745   1.857 -0.2356 -0.4233 -0.4571
 5941SOL    HW129459   2.534   1.651   1.837  1.9977 -0.8096  1.7327
 5941SOL    HW229460   2.436   1.738   1.871 -0.1629 -0.1544  0.1746
 5942SOL     OW29461   1.782   3.258   9.270 -0.0763  0.5100  0.8686
 5942SOL    HW129462   1.703   3.223   9.230  1.9032 -0.5283 -2.1837
 5942SOL    HW229463   1.751   3.345   9.291  0.4396  1.1925 -1.1738
 5943SOL     OW29464   3.943   2.666   0.734 -0.3337 -0.3225  0.5813
 5943SOL    HW129465   3.985   2.702   0.813 -0.7465  0.4377  0.4566
 5943SOL    HW229466   3.873   2.731   0.743  1.5975  1.6262  1.5119
 5944SOL     OW29467   3.785   1.364   4.255 -0.1026  0.2791 -0.4409
 5944SOL    HW129468   3.854   1.299   4.268 -1.3297 -1.2305 -1.4510
 5944SOL    HW229469   3.738   1.369   4.338  2.1256  0.1890  0.8393
 5945SOL     OW29470   3.418   0.481   4.288  0.3132 -0.5285  0.1408
 5945SOL    HW129471   3.419   0.577   4.289 -2.4094 -0.5139 -0.1933
 5945SOL    HW229472   3.440   0.464   4.197  1.1623  0.9210  0.0657
 5946SOL     OW29473   2.119   4.361  15.263  0.0164  0.5417 -0.0599
 5946SOL    HW129474   2.182   4.343  15.192  0.3764 -0.2444  0.4577
 5946SOL    HW229475   2.037   4.333  15.223 -0.4682 -0.2656  1.5179
 5947SOL     OW29476   1.492   1.439   3.293  0.3319  0.0683  0.2567
 5947SOL    HW129477   1.522   1.463   3.381 -0.4328 -0.1688  0.5824
 5947SOL    HW229478   1.399   1.420   3.303  0.4564 -1.0425 -0.6640
 5948SOL     OW29479   0.177   3.483   4.625  0.9491  0.5091  0.4928
 5948SOL    HW129480   0.091   3.443   4.616  1.4268 -0.2645 -0.6345
 5948SOL    HW229481   0.173   3.537   4.546 -0.4851 -0.1958  0.0848
 5949SOL     OW29482   1.619   4.165   6.224 -0.1624 -0.1663  0.0328
 5949SOL    HW129483   1.547   4.104   6.241 -1.4997  0.8977 -1.8516
 5949SOL    HW229484   1.565   4.243   6.232  1.2966  0.8978 -0.4516
 5950SOL     OW29485   3.687   3.783   7.136 -0.2474  0.2004  0.6951
 5950SOL    HW129486   3.710   3.823   7.052 -0.6404 -0.6485  0.1856
 5950SOL    HW229487   3.689   3.690   7.114  2.6351  0.0604  1.4544
 5951SOL     OW29488   3.031   4.709   4.308 -0.4187 -0.2504 -0.9133
 5951SOL    HW129489   3.056   0.039   4.245 -0.0208 -0.1032 -0.5990
 5951SOL    HW229490   3.088   4.646   4.263  1.6619  0.3220  0.9190
 5952SOL     OW29491   1.817   3.723   8.637 -0.7724 -0.1346  0.5254
 5952SOL    HW129492   1.756   3.790   8.669  1.6636  1.4659  1.8562
 5952SOL    HW229493   1.766   3.642   8.641  1.0729 -1.3518 -0.7524
 5953SOL     OW29494   3.307   0.040   8.594  0.2373  0.0645  0.0155
 5953SOL    HW129495   3.297   4.683   8.583 -2.5301  0.3737 -0.2295
 5953SOL    HW229496   3.281   0.045   8.687  0.0648 -1.3440  0.0362
 5954SOL     OW29497   0.197   1.467   1.912  0.7353 -0.5506  0.0126
 5954SOL    HW129498   0.215   1.559   1.931  3.4284 -0.8723 -0.9762
 5954SOL    HW229499   0.202   1.482   1.818 -0.5412  0.0481  0.0436
 5955SOL     OW29500   2.473   3.144  15.188 -0.2153 -0.1269  0.1947
 5955SOL    HW129501   2.458   3.234  15.215  0.3420  0.3292 -1.0182
 5955SOL    HW229502   2.415   3.147  15.112  0.5525  1.2558 -0.3395
 5956SOL     OW29503   2.945   4.543   4.856 -0.2447 -0.3430 -0.2428
 5956SOL    HW129504   3.037   4.518   4.869  0.0981  0.8679 -0.3099
 5956SOL    HW229505   2.924   4.571   4.945  1.1398  0.0240 -0.0224
 5957SOL     OW29506   2.696   0.725   3.978  0.0861 -0.3230 -0.7911
 5957SOL    HW129507   2.781   0.697   3.945  0.3531  0.0826 -0.4494
 5957SOL    HW229508   2.686   0.673   4.058 -0.6205 -0.3487 -0.8967
 5958SOL     OW29509   3.337   1.169   7.478 -0.4860  0.0077 -0.2081
 5958SOL    HW129510   3.244   1.189   7.487  0.2606  3.4310 -0.2083
 5958SOL    HW229511   3.366   1.242   7.532 -1.7637 -0.4099  1.0254
 5959SOL     OW29512   2.305   2.180   7.875  0.6368 -0.4531  0.3889
 5959SOL    HW129513   2.239   2.152   7.938 -0.9052 -0.2885 -1.1498
 5959SOL    HW229514   2.285   2.128   7.798 -0.1702  2.2187 -1.2269
 5960SOL     OW29515   4.069   2.653   5.218  0.4569  0.5867 -0.6672
 5960SOL    HW129516   4.088   2.571   5.263  0.4936 -0.1279 -1.9901
 5960SOL    HW229517   4.065   2.713   5.293  0.1279  0.2119 -0.3870
 5961SOL     OW29518   4.173   0.887   1.341 -0.1655 -0.5724 -0.3233
 5961SOL    HW129519   4.127   0.844   1.269 -2.6348 -0.1661  0.9893
 5961SOL    HW229520   4.241   0.936   1.296 -0.4617  0.8109  0.7361
 5962SOL     OW29521   2.484   3.439  15.097  0.3042 -0.2949  0.2960
 5962SOL    HW129522   2.533   3.509  15.139  1.1047 -1.1954  0.8514
 5962SOL    HW229523   2.405   3.488  15.071 -0.7131 -2.0283  0.1169
 5963SOL     OW29524   0.459   2.000   4.860  0.3103 -0.6651  0.4195
 5963SOL    HW129525   0.368   2.012   4.884  0.3665  0.6119  0.0058
 5963SOL    HW229526   0.467   1.912   4.897  2.0017 -0.8034 -0.2501
 5964SOL     OW29527   3.207   0.612   1.062 -0.1052 -0.4951  0.3353
 5964SOL    HW129528   3.120   0.652   1.055  0.1962 -0.3903 -2.8245
 5964SOL    HW229529   3.277   0.673   1.040 -1.9443  1.7770  0.7575
 5965SOL     OW29530   0.478   3.507   2.903  0.1607 -0.2449  0.1959
 5965SOL    HW129531   0.410   3.558   2.859  0.4855  0.8908  1.0087
 5965SOL    HW229532   0.481   3.430   2.846  2.3168  0.4209 -0.6323
 5966SOL     OW29533   1.302   1.103  11.923  0.0370  0.3051 -0.2184
 5966SOL    HW129534   1.356   1.026  11.940 -1.2310  0.0317  2.5383
 5966SOL    HW229535   1.359   1.161  11.872  1.1046 -1.3914 -0.9250
 5967SOL     OW29536   4.032   3.838   6.251  0.0162  0.1231 -0.6766
 5967SOL    HW129537   4.040   3.754   6.207 -1.2296 -0.4837  0.2589
 5967SOL    HW229538   4.120   3.850   6.289  0.1329 -1.2524 -0.5120
 5968SOL     OW29539   2.796   0.224  14.224 -0.3054 -0.2537 -0.4151
 5968SOL    HW129540   2.715   0.180  14.199 -0.4256 -0.0446 -0.4023
 5968SOL    HW229541   2.849   0.145  14.231 -1.2264 -0.4715  4.1359
 5969SOL     OW29542   3.250   4.138   8.077 -0.4336 -0.0223 -0.2832
 5969SOL    HW129543   3.304   4.217   8.079  0.6791 -0.7606 -0.9867
 5969SOL    HW229544   3.166   4.181   8.094  0.2759  0.9522  0.7396
 5970SOL     OW29545   1.757   2.971   2.374 -0.1511  0.4603 -0.3542
 5970SOL    HW129546   1.827   2.965   2.439 -0.7743 -2.6748  0.0100
 5970SOL    HW229547   1.814   2.946   2.302  1.9073  1.1909  1.0208
 5971SOL     OW29548   4.305   0.122   7.555 -0.1451 -0.3212  0.0674
 5971SOL    HW129549   4.342   0.104   7.642 -3.5182 -0.0482  1.5723
 5971SOL    HW229550   4.348   0.062   7.494  0.1670 -0.8815  0.8452
 5972SOL     OW29551   2.305   0.612  15.381  0.0808  0.0875 -0.0477
 5972SOL    HW129552   2.336   0.524  15.356  0.9654  0.1695  0.7432
 5972SOL    HW229553   2.380   0.646  15.431  0.3735  0.6357 -0.8622
 5973SOL     OW29554   1.733   1.801  12.618  0.0076 -0.1002  0.5316
 5973SOL    HW129555   1.807   1.745  12.638 -0.7721 -1.8420 -1.4434
 5973SOL    HW229556   1.785   1.869  12.576  0.8829 -0.2660  1.3601
 5974SOL     OW29557   0.003   3.379  17.646  0.2269 -0.1300 -0.1079
 5974SOL    HW129558   0.072   3.330  17.690 -0.4704 -1.6099 -0.6889
 5974SOL    HW229559   4.656   3.339  17.666  0.0190  1.7658  2.7992
 5975SOL     OW29560   1.981   3.062   2.967  0.0983 -0.4866 -0.8294
 5975SOL    HW129561   2.075   3.081   2.966 -0.1282  0.7290  1.9192
 5975SOL    HW229562   1.969   3.015   2.885 -0.6205  0.3395 -1.1931
 5976SOL     OW29563   1.158   4.620   5.843  0.0758  0.3639  0.4728
 5976SOL    HW129564   1.136   4.666   5.762  1.8907 -0.6521 -0.5970
 5976SOL    HW229565   1.070   4.597   5.870  0.0534  0.6592  0.6575
 5977SOL     OW29566   0.784   3.900  16.311  0.2135 -0.3901 -0.9506
 5977SOL    HW129567   0.829   3.899  16.227  2.2225  1.3151  0.1143
 5977SOL    HW229568   0.738   3.818  16.294 -0.7098  0.2023 -1.3534
 5978SOL     OW29569   0.579   0.323   2.845  0.1077 -0.4151 -0.5126
 5978SOL    HW129570   0.500   0.303   2.895  1.1091 -0.8459  0.8840
 5978SOL    HW229571   0.564   0.272   2.766 -3.3433  0.5419 -0.4676
 5979SOL     OW29572   1.064   0.199   2.043  0.2348  0.0947 -0.1039
 5979SOL    HW129573   1.072   0.284   1.999 -0.3883 -0.2784 -0.9402
 5979SOL    HW229574   1.154   0.184   2.071  0.4583 -0.8860 -1.3744
 5980SOL     OW29575   0.312   2.898  13.786 -0.5535 -0.4594  0.9805
 5980SOL    HW129576   0.393   2.948  13.794 -0.4043 -0.6244  0.4241
 5980SOL    HW229577   0.287   2.898  13.879  0.7225 -0.5725  1.3262
 5981SOL     OW29578   3.647   4.679   9.721 -0.3287  0.1335  0.9746
 5981SOL    HW129579   3.693   4.632   9.652  4.1558  2.7437  2.1511
 5981SOL    HW229580   3.689   4.652   9.803  2.6248  0.5796 -0.3966
 5982SOL     OW29581   4.362   2.140   4.025 -0.8033  0.1960 -0.4857
 5982SOL    HW129582   4.431   2.193   4.066 -1.2543  0.4659 -0.0800
 5982SOL    HW229583   4.294   2.206   4.037 -0.4453  0.4956 -0.0952
 5983SOL     OW29584   3.744   2.547   4.970  0.1044  0.0118  0.4869
 5983SOL    HW129585   3.779   2.464   5.003 -3.2120 -1.5657  0.0179
 5983SOL    HW229586   3.798   2.605   5.024  1.9124 -0.9875 -0.2306
 5984SOL     OW29587   0.632   1.898   4.422 -0.0443  0.2684  0.2440
 5984SOL    HW129588   0.640   1.954   4.499 -0.3447  0.0965  0.4003
 5984SOL    HW229589   0.689   1.937   4.354  1.4145 -1.3993  0.5035
 5985SOL     OW29590   3.832   0.134   1.633 -0.3782  0.2603 -0.1284
 5985SOL    HW129591   3.817   0.087   1.551 -0.1561 -1.6661  0.9475
 5985SOL    HW229592   3.745   0.134   1.673 -0.0730  1.9225  0.5196
 5986SOL     OW29593   2.892   4.140   6.843 -0.0314 -0.3564 -0.2600
 5986SOL    HW129594   2.840   4.090   6.780 -0.9821 -1.0890  1.1055
 5986SOL    HW229595   2.898   4.223   6.796 -0.1962  1.6657  3.2969
 5987SOL     OW29596   0.188   3.072   9.157 -0.4459 -0.3252 -0.0554
 5987SOL    HW129597   0.193   3.071   9.252 -0.2389 -0.9460 -0.0743
 5987SOL    HW229598   0.213   3.163   9.138  2.6432 -0.9027  1.2850
 5988SOL     OW29599   2.068   2.309   9.337  0.0744 -0.3652 -0.0649
 5988SOL    HW129600   2.140   2.321   9.400 -0.3452  1.5291  0.0293
 5988SOL    HW229601   2.047   2.221   9.369 -2.3484  0.5208  0.7384
 5989SOL     OW29602   1.204   1.495   5.560 -0.2775 -0.4181  0.6615
 5989SOL    HW129603   1.273   1.468   5.620  1.0353 -2.6655 -1.8540
 5989SOL    HW229604   1.176   1.563   5.621 -1.6247 -1.0086  0.6835
 5990SOL     OW29605   0.715   3.142   4.750  0.4083  0.6402  0.2031
 5990SOL    HW129606   0.761   3.131   4.834 -0.3016  0.2239  0.5370
 5990SOL    HW229607   0.688   3.234   4.748  0.4980  0.6741  0.5287
 5991SOL     OW29608   0.215   1.169  16.095  0.2201 -0.0795  0.1943
 5991SOL    HW129609   0.306   1.141  16.104  0.3804 -0.2009 -1.6904
 5991SOL    HW229610   0.232   1.256  16.059 -0.9084  0.5689  1.2403
 5992SOL     OW29611   1.086   1.544   6.677 -0.0149 -0.4858  0.2649
 5992SOL    HW129612   1.059   1.513   6.590 -0.5774  1.9116 -0.4067
 5992SOL    HW229613   1.103   1.464   6.728 -1.9663 -0.4389  0.9832
 5993SOL     OW29614   0.221   3.559   3.194 -0.5909 -0.3099  0.1900
 5993SOL    HW129615   0.299   3.514   3.161 -1.8696 -2.4639  0.1162
 5993SOL    HW229616   0.170   3.494   3.242 -0.5396  0.7145  1.6162
 5994SOL     OW29617   2.149   2.378  14.156 -0.2285  0.0584 -0.6031
 5994SOL    HW129618   2.220   2.385  14.221 -0.3632 -0.4709 -0.3988
 5994SOL    HW229619   2.182   2.296  14.119 -1.0409 -0.7212  0.3994
 5995SOL     OW29620   1.311   3.176   9.728  0.1678 -0.2326 -0.8150
 5995SOL    HW129621   1.385   3.196   9.670  0.2612 -0.9263 -0.9248
 5995SOL    HW229622   1.302   3.268   9.753  0.8013 -0.3442 -0.1661
 5996SOL     OW29623   2.436   2.429   7.119 -0.2331  0.2207 -0.1026
 5996SOL    HW129624   2.422   2.339   7.147 -0.3084  1.2018  2.9769
 5996SOL    HW229625   2.426   2.419   7.024  1.6079  0.2989 -0.2899
 5997SOL     OW29626   3.695   2.415   7.452  0.4602 -0.2417  0.3478
 5997SOL    HW129627   3.702   2.335   7.401 -1.5604 -0.9337  1.1590
 5997SOL    HW229628   3.617   2.451   7.409  0.0957 -0.8100  0.5366
 5998SOL     OW29629   3.855   4.357   4.891 -0.3753 -0.5536 -0.2300
 5998SOL    HW129630   3.905   4.277   4.908  1.6547  0.8017  0.2175
 5998SOL    HW229631   3.921   4.409   4.844 -0.4917  0.4591  0.7144
 5999SOL     OW29632   4.374   2.644   0.779  0.0363 -0.0918 -0.2414
 5999SOL    HW129633   4.347   2.553   0.771 -2.3383  0.7934 -2.3519
 5999SOL    HW229634   4.345   2.687   0.699  1.6303  0.1142 -0.6968
 6000SOL     OW29635   2.778   4.618   3.097 -0.1161  0.4547 -0.1001
 6000SOL    HW129636   2.771   4.610   3.002  2.9171 -0.0160 -0.3049
 6000SOL    HW229637   2.845   4.551   3.109  0.6581  1.7135  2.5372
 6001SOL     OW29638   0.222   2.382   3.447 -0.0650 -0.0088 -0.1309
 6001SOL    HW129639   0.221   2.467   3.490  0.8581 -0.7187  1.2762
 6001SOL    HW229640   0.255   2.322   3.514  0.9865 -1.6398 -2.0952
 6002SOL     OW29641   3.476   4.122   2.611 -0.9089 -0.3296 -0.2837
 6002SOL    HW129642   3.382   4.134   2.593 -0.9425 -0.3458 -0.1223
 6002SOL    HW229643   3.483   4.173   2.692 -1.2677  0.1144 -0.5324
 6003SOL     OW29644   3.822   2.932  16.858  0.3004  0.1789 -0.4046
 6003SOL    HW129645   3.791   2.993  16.925 -1.5053 -0.6273 -0.5107
 6003SOL    HW229646   3.877   2.991  16.807  0.0736 -0.7039 -1.6834
 6004SOL     OW29647   1.922   3.487   1.965 -1.1679 -0.3000 -0.2743
 6004SOL    HW129648   1.831   3.457   1.967 -1.1585 -0.3148 -0.1099
 6004SOL    HW229649   1.955   3.430   1.895 -0.0705  0.6483 -0.5409
 6005SOL     OW29650   4.522   2.214   5.060 -0.0067  0.1221 -0.2343
 6005SOL    HW129651   4.547   2.285   5.119 -0.1615  1.0363 -1.2777
 6005SOL    HW229652   4.515   2.255   4.974 -1.7621 -1.6858 -0.9614
 6006SOL     OW29653   0.547   2.472   7.294  0.0924  0.4108  0.9283
 6006SOL    HW129654   0.605   2.492   7.220  1.1151 -1.1832  1.3041
 6006SOL    HW229655   0.481   2.411   7.262 -1.4271  2.3055  0.4591
 6007SOL     OW29656   3.350   3.818   2.904  0.7290  0.4918  0.0553
 6007SOL    HW129657   3.433   3.827   2.858  0.0060 -1.6168 -1.6767
 6007SOL    HW229658   3.350   3.893   2.963 -4.0769 -0.0346  0.7035
 6008SOL     OW29659   4.614   2.757   7.504 -0.9261 -0.0793 -0.0535
 6008SOL    HW129660   4.525   2.749   7.537 -0.6041 -1.0082  0.5944
 6008SOL    HW229661   4.625   2.842   7.462 -0.7875 -0.5657 -0.9961
 6009SOL     OW29662   1.949   3.961   3.018  0.2102  0.1732  0.2135
 6009SOL    HW129663   1.900   4.032   3.058 -1.1725 -0.0546 -1.0770
 6009SOL    HW229664   2.033   4.007   3.008 -0.0501  0.5988 -0.0098
 6010SOL     OW29665   0.647   2.690   3.926 -0.1717  0.2291  0.5603
 6010SOL    HW129666   0.618   2.765   3.977 -2.3679 -0.8253  0.8678
 6010SOL    HW229667   0.741   2.709   3.936 -0.3605  1.5195 -0.1332
 6011SOL     OW29668   4.442   1.413   2.763  0.1864  0.3752 -0.6167
 6011SOL    HW129669   4.480   1.370   2.839 -1.4801  0.9561  0.5312
 6011SOL    HW229670   4.518   1.444   2.713  0.6312  2.3451  1.3014
 6012SOL     OW29671   0.910   4.018   7.265 -0.5091 -0.1759 -0.0338
 6012SOL    HW129672   0.826   4.034   7.223 -1.3099 -1.7944  0.9212
 6012SOL    HW229673   0.877   4.052   7.348  1.5844  1.0151  0.2981
 6013SOL     OW29674   2.180   1.669  16.390 -0.4832 -0.0457 -0.0688
 6013SOL    HW129675   2.092   1.702  16.373 -1.2803 -2.2656 -0.2985
 6013SOL    HW229676   2.211   1.671  16.300  0.1788 -0.6659  0.1440
 6014SOL     OW29677   3.902   3.391  12.170 -0.5825 -0.4981  0.1468
 6014SOL    HW129678   3.934   3.397  12.080 -1.9790  0.8892 -0.2680
 6014SOL    HW229679   3.977   3.425  12.217  0.7639 -2.3966 -0.6316
 6015SOL     OW29680   1.127   4.547  11.718 -0.1876 -0.7666  0.3567
 6015SOL    HW129681   1.051   4.604  11.705  0.4813 -0.3620 -1.8305
 6015SOL    HW229682   1.098   4.456  11.716 -1.2480 -0.4672  1.7186
 6016SOL     OW29683   1.733   3.788  12.370  0.1236 -0.2236 -0.5551
 6016SOL    HW129684   1.737   3.739  12.288  0.5846 -0.6177 -0.2939
 6016SOL    HW229685   1.762   3.877  12.347 -2.3847  0.4491 -1.1251
 6017SOL     OW29686   4.146   0.259   2.325 -0.2524  0.2451 -0.1684
 6017SOL    HW129687   4.053   0.282   2.319 -0.2670  0.4377  0.6848
 6017SOL    HW229688   4.143   0.164   2.314 -1.3556  0.2978 -0.3363
 6018SOL     OW29689   1.189   0.352   3.324 -0.3357 -0.2776  0.5269
 6018SOL    HW129690   1.136   0.345   3.404  1.3490 -1.8100  1.5143
 6018SOL    HW229691   1.271   0.393   3.353  0.3763 -0.4806 -1.2196
 6019SOL     OW29692   1.440   1.209  11.697 -0.2979 -0.3978 -0.5317
 6019SOL    HW129693   1.533   1.196  11.679 -0.1937 -1.3937  0.7434
 6019SOL    HW229694   1.436   1.302  11.718 -2.0829 -0.3944 -0.9401
 6020SOL     OW29695   4.372   1.392   8.332 -0.2312 -0.2038 -0.3143
 6020SOL    HW129696   4.280   1.379   8.308 -0.8051 -0.2522  1.9301
 6020SOL    HW229697   4.371   1.487   8.323  0.1587  0.0179  2.1550
 6021SOL     OW29698   2.627   0.929   4.647  0.3139 -0.1219  0.2193
 6021SOL    HW129699   2.587   0.942   4.561  1.9590 -3.6988 -1.1026
 6021SOL    HW229700   2.697   0.864   4.632 -0.8394 -1.2885 -0.1103
 6022SOL     OW29701   1.733   4.521   0.573 -0.8356  0.2238  0.4047
 6022SOL    HW129702   1.744   4.576   0.496  0.4413 -1.0446 -0.3085
 6022SOL    HW229703   1.656   4.472   0.542 -0.7450 -0.2338  0.9067
 6023SOL     OW29704   0.287   0.357   7.116 -0.4393 -0.2570  0.0275
 6023SOL    HW129705   0.194   0.356   7.092 -0.6485 -0.3251  0.8414
 6023SOL    HW229706   0.312   0.278   7.069 -0.4459 -1.0618  1.3778
 6024SOL     OW29707   4.150   1.001  13.316  0.2184  0.3263  0.0091
 6024SOL    HW129708   4.169   1.092  13.342  0.1013  0.5157 -0.5637
 6024SOL    HW229709   4.056   1.006  13.302  0.2422  0.5117 -0.0927
 6025SOL     OW29710   2.864   1.762  10.430  0.4613  0.1606  0.3962
 6025SOL    HW129711   2.783   1.724  10.463 -0.0224  0.7425 -0.1088
 6025SOL    HW229712   2.928   1.747  10.498  0.1896 -2.5699  0.0423
 6026SOL     OW29713   1.045   1.205  14.723  0.3427 -0.1080  0.0117
 6026SOL    HW129714   1.131   1.163  14.730  0.6399  0.4572 -0.2390
 6026SOL    HW229715   0.994   1.131  14.757  0.0997  0.6533  1.2859
 6027SOL     OW29716   1.336   1.013  11.272  0.4984 -0.2251  0.0545
 6027SOL    HW129717   1.285   0.933  11.263 -1.3675  0.9770 -0.1454
 6027SOL    HW229718   1.308   1.056  11.353  0.6524  1.2300 -0.6616
 6028SOL     OW29719   0.788   4.724  16.681  0.0104  0.4082 -0.7076
 6028SOL    HW129720   0.872   4.705  16.641  0.3549 -0.2835  0.3415
 6028SOL    HW229721   0.783   4.661  16.753 -1.7334 -0.1744 -1.3305
 6029SOL     OW29722   0.391   3.555   0.507  0.3893 -0.1246  0.0662
 6029SOL    HW129723   0.468   3.603   0.538  1.4815 -1.8548  0.0530
 6029SOL    HW229724   0.394   3.582   0.415  0.0504  0.5372  0.2464
 6030SOL     OW29725   0.184   1.834  12.789  0.0532  0.2541 -0.5600
 6030SOL    HW129726   0.163   1.812  12.698 -1.5529  1.4106 -0.4540
 6030SOL    HW229727   0.236   1.755  12.804 -0.7476 -0.1678 -0.0469
 6031SOL     OW29728   1.724   4.466   9.750  0.0549 -0.1783  0.1891
 6031SOL    HW129729   1.798   4.473   9.810 -2.5241  0.5718  3.3028
 6031SOL    HW229730   1.763   4.407   9.686 -1.6163  0.2880 -1.2649
 6032SOL     OW29731   4.429   0.611   0.183 -0.2199  0.6199 -0.2465
 6032SOL    HW129732   4.456   0.615   0.092 -1.0444  2.3661 -0.4101
 6032SOL    HW229733   4.516   0.587   0.215 -0.9086  2.6924  3.1680
 6033SOL     OW29734   1.020   4.480   6.229  0.4325  0.1706  0.6636
 6033SOL    HW129735   0.967   4.429   6.290 -2.1146  0.2066 -1.4911
 6033SOL    HW229736   0.954   4.543   6.200  0.8133 -0.7360 -2.1539
 6034SOL     OW29737   2.390   2.612  11.949  0.1815 -0.4669 -0.4258
 6034SOL    HW129738   2.355   2.644  12.032 -0.0165  1.2868 -1.1904
 6034SOL    HW229739   2.322   2.545  11.938 -0.1194 -0.3809  0.9487
 6035SOL     OW29740   0.367   2.764   4.700  0.0080 -0.3610  0.8060
 6035SOL    HW129741   0.416   2.846   4.702  0.0902 -0.3679 -0.6770
 6035SOL    HW229742   0.284   2.790   4.741 -0.4434 -1.4114  0.5718
 6036SOL     OW29743   0.878   0.603   6.937 -0.1381 -0.3538 -0.0478
 6036SOL    HW129744   0.833   0.611   6.853 -1.4982  0.5496  0.7618
 6036SOL    HW229745   0.961   0.559   6.921 -0.4528 -1.2794  0.8278
 6037SOL     OW29746   0.610   3.624  11.282  0.2239  0.1621 -0.2650
 6037SOL    HW129747   0.522   3.634  11.319 -0.4655  0.4157 -1.9822
 6037SOL    HW229748   0.652   3.574  11.353  1.7455  0.6832 -0.7901
 6038SOL     OW29749   4.273   0.840  11.716 -0.0625  0.1521 -0.0722
 6038SOL    HW129750   4.187   0.883  11.716 -0.5148 -0.7649  2.9271
 6038SOL    HW229751   4.313   0.898  11.651 -0.4254  0.2921 -0.1738
 6039SOL     OW29752   2.658   2.337   8.352 -0.5792  0.1899  0.3688
 6039SOL    HW129753   2.596   2.399   8.314 -0.6886 -0.8500 -1.1859
 6039SOL    HW229754   2.609   2.256   8.338  0.9785 -0.2609 -2.3738
 6040SOL     OW29755   0.439   0.723   4.140 -0.8033 -0.1655  0.2521
 6040SOL    HW129756   0.378   0.777   4.091  2.6342  0.8505 -2.8966
 6040SOL    HW229757   0.508   0.729   4.073 -3.0624  0.5697 -2.0059
 6041SOL     OW29758   1.676   1.292   3.045  0.0175  0.2897 -0.8714
 6041SOL    HW129759   1.643   1.292   3.135 -0.5488  0.4345 -1.0797
 6041SOL    HW229760   1.759   1.339   3.049 -0.6185  1.2456  1.1455
 6042SOL     OW29761   1.715   4.042   2.361  0.4946  0.1629  0.0389
 6042SOL    HW129762   1.633   4.044   2.411  0.6276 -0.0177  0.2628
 6042SOL    HW229763   1.775   3.999   2.421  0.3293 -1.1588 -0.7379
 6043SOL     OW29764   1.125   0.279  10.049  0.0508 -0.0706  0.2661
 6043SOL    HW129765   1.218   0.301  10.061 -0.6360  2.0908  1.5566
 6043SOL    HW229766   1.089   0.364  10.073  1.3638  0.1019  1.5916
 6044SOL     OW29767   3.501   2.482  11.676 -0.2424  0.0264  0.1817
 6044SOL    HW129768   3.418   2.436  11.684  0.6062 -1.7162 -1.0044
 6044SOL    HW229769   3.513   2.526  11.760 -2.5706  0.0411  0.5003
 6045SOL     OW29770   0.991   4.283   8.357  0.9716 -0.0331 -0.3724
 6045SOL    HW129771   1.078   4.314   8.379  1.3034 -0.2478 -1.3696
 6045SOL    HW229772   0.990   4.306   8.264 -0.5814 -1.0840 -0.6244
 6046SOL     OW29773   4.281   1.241   7.359  0.1762 -0.5829 -0.1034
 6046SOL    HW129774   4.330   1.200   7.430 -3.1393 -0.8048  2.0661
 6046SOL    HW229775   4.272   1.164   7.302  1.6150 -0.3833 -0.6082
 6047SOL     OW29776   4.433   2.172   6.871 -0.2606 -0.1943 -0.2619
 6047SOL    HW129777   4.411   2.079   6.883 -1.2484 -0.3723 -3.3576
 6047SOL    HW229778   4.420   2.182   6.776 -0.1538  0.0259 -0.2529
 6048SOL     OW29779   3.030   3.435   4.492  0.6928 -0.5328 -0.0604
 6048SOL    HW129780   3.074   3.431   4.407  2.8895 -0.0476  1.0554
 6048SOL    HW229781   3.087   3.503   4.527  2.3081 -1.1787 -1.4608
 6049SOL     OW29782   4.280   1.048   7.182  0.2973  0.0036 -0.1466
 6049SOL    HW129783   4.352   0.998   7.142  1.8207  2.8929 -1.0544
 6049SOL    HW229784   4.215   0.979   7.167 -0.8861  1.4165 -1.5128
 6050SOL     OW29785   4.334   3.948   7.498 -0.1340  0.0376 -0.1883
 6050SOL    HW129786   4.377   3.934   7.582  1.7223  0.1817 -1.0986
 6050SOL    HW229787   4.248   3.981   7.522  0.1168 -0.2857  1.1317
 6051SOL     OW29788   1.025   3.600   7.861 -0.5304  0.0797 -0.3300
 6051SOL    HW129789   1.070   3.664   7.807  0.6891 -0.9718 -0.5572
 6051SOL    HW229790   0.944   3.577   7.816 -1.2948 -1.2415  1.7068
 6052SOL     OW29791   0.531   2.063   9.501  0.1005 -0.5177 -0.7120
 6052SOL    HW129792   0.439   2.077   9.480 -0.1636 -1.6633 -0.3113
 6052SOL    HW229793   0.523   1.996   9.569  0.9492  0.6820  0.5822
 6053SOL     OW29794   0.077   3.882   2.765 -0.2131 -0.5796  0.1092
 6053SOL    HW129795   0.006   3.870   2.702 -0.6718  1.0546  0.3358
 6053SOL    HW229796   0.090   3.977   2.766 -0.3769 -0.5421 -1.2270
 6054SOL     OW29797   1.298   4.455   7.382 -0.5166  0.5093  0.1134
 6054SOL    HW129798   1.245   4.436   7.305 -0.4524 -2.3274  0.7782
 6054SOL    HW229799   1.224   4.462   7.442 -1.5603 -0.4411 -1.0646
 6055SOL     OW29800   3.127   4.729   5.010  0.5802  0.0035  0.5888
 6055SOL    HW129801   3.196   0.043   4.968 -0.0388 -0.6804 -1.2414
 6055SOL    HW229802   3.179   4.656   5.043 -0.6195 -1.6485 -1.1425
 6056SOL     OW29803   4.052   1.652  16.320  0.3240 -0.5142  0.3343
 6056SOL    HW129804   4.051   1.565  16.281 -0.3965 -0.6564  0.6717
 6056SOL    HW229805   4.051   1.645  16.416 -1.2490  0.8072  0.4178
 6057SOL     OW29806   2.142   2.470  13.506  0.3613 -0.5852 -0.3217
 6057SOL    HW129807   2.145   2.506  13.417 -1.0266 -0.8687 -0.4848
 6057SOL    HW229808   2.208   2.525  13.546 -1.0228 -0.5188  1.8513
 6058SOL     OW29809   2.044   2.694   4.742 -0.3516  0.3125  0.2235
 6058SOL    HW129810   2.071   2.609   4.777  0.7305  1.1466  1.4240
 6058SOL    HW229811   1.955   2.673   4.715 -0.6520  1.1085  0.6110
 6059SOL     OW29812   0.515   1.676  12.766  0.4816 -0.3539  0.4571
 6059SOL    HW129813   0.578   1.746  12.781  0.3048  0.2245 -1.4477
 6059SOL    HW229814   0.475   1.706  12.684  1.8857 -0.2413 -0.1906
 6060SOL     OW29815   4.093   4.047   3.099 -0.1870  0.5962  0.1217
 6060SOL    HW129816   4.037   4.059   3.022  0.7889 -0.7228 -0.7973
 6060SOL    HW229817   4.055   4.118   3.151 -0.9576  1.0518 -1.0579
 6061SOL     OW29818   4.416   3.559  12.913  0.5134  0.8199 -0.1508
 6061SOL    HW129819   4.497   3.595  12.949  1.4165 -0.2354 -1.1474
 6061SOL    HW229820   4.437   3.471  12.881  0.6715  0.9928 -0.5207
 6062SOL     OW29821   4.530   3.056   3.732  0.3472 -0.3230  0.4117
 6062SOL    HW129822   4.554   3.106   3.654  1.1920 -2.0478 -0.4385
 6062SOL    HW229823   4.448   3.019   3.697 -0.2329  1.9366 -0.6506
 6063SOL     OW29824   0.335   1.577   3.913  0.1164  0.2009 -0.0048
 6063SOL    HW129825   0.419   1.588   3.958  0.7767 -3.0711 -0.4300
 6063SOL    HW229826   0.295   1.658   3.943 -1.1589 -0.2370 -0.5196
 6064SOL     OW29827   2.609   2.731  10.352  0.0425  0.4751  0.2433
 6064SOL    HW129828   2.592   2.704  10.262  0.7627 -0.5013  0.4045
 6064SOL    HW229829   2.674   2.668  10.384 -1.2270 -0.2928  1.3052
 6065SOL     OW29830   4.243   0.173   5.560  0.3052  0.0866 -0.0272
 6065SOL    HW129831   4.163   0.154   5.609 -0.3403  2.5493 -0.1287
 6065SOL    HW229832   4.263   0.249   5.614  0.8137 -0.5215  0.6458
 6066SOL     OW29833   3.336   2.738   8.998 -0.4381  0.7134  0.1322
 6066SOL    HW129834   3.395   2.749   9.073 -1.4541 -0.7703  1.1565
 6066SOL    HW229835   3.285   2.818   8.990 -0.9989  0.4552  1.0382
 6067SOL     OW29836   0.424   0.059  10.272 -0.3654  0.3818  0.4663
 6067SOL    HW129837   0.333   0.073  10.298 -0.2042  0.4573  0.9918
 6067SOL    HW229838   0.406   0.010  10.192 -0.3587  1.6675 -0.3242
 6068SOL     OW29839   1.163   2.422   2.918  0.3419  0.0457 -0.5846
 6068SOL    HW129840   1.105   2.377   2.980 -1.3223  0.3545 -1.9469
 6068SOL    HW229841   1.245   2.402   2.963 -0.5045 -0.0064  0.9334
 6069SOL     OW29842   0.253   1.352   4.555  0.0486 -0.5904 -0.7809
 6069SOL    HW129843   0.339   1.315   4.537  0.7570  0.2264  0.9258
 6069SOL    HW229844   0.197   1.274   4.564  2.4523 -2.1737  0.6045
 6070SOL     OW29845   2.007   0.876   5.974 -0.3288  0.2382 -0.0177
 6070SOL    HW129846   1.952   0.909   6.045  0.7895  1.6908  0.1781
 6070SOL    HW229847   1.990   0.785   5.997 -1.1117  0.6093  0.8750
 6071SOL     OW29848   0.833   0.646   0.703  0.0865  0.3423 -0.3330
 6071SOL    HW129849   0.893   0.615   0.635  0.0247 -0.6320  0.0508
 6071SOL    HW229850   0.791   0.563   0.725 -1.9064  1.8541  1.5023
 6072SOL     OW29851   3.099   0.822  16.984 -0.0901 -0.0824  0.2927
 6072SOL    HW129852   3.025   0.793  16.930 -0.2375  2.8700 -1.0859
 6072SOL    HW229853   3.174   0.787  16.936  0.7172  0.8129  0.9148
 6073SOL     OW29854   3.337   4.247   4.756 -0.0508 -0.3937  0.3072
 6073SOL    HW129855   3.326   4.305   4.680  0.3508  0.4873  0.9160
 6073SOL    HW229856   3.431   4.248   4.777 -0.2102 -1.0157  1.0375
 6074SOL     OW29857   0.922   2.735   3.955  0.7176  0.1423  0.1545
 6074SOL    HW129858   1.003   2.783   3.936  0.3752  1.1967  1.3849
 6074SOL    HW229859   0.937   2.648   3.917 -1.0422 -0.3462  0.5744
 6075SOL     OW29860   1.508   2.719   2.073  0.0165  0.0949 -0.1288
 6075SOL    HW129861   1.442   2.656   2.044 -0.1105  1.5873 -3.0470
 6075SOL    HW229862   1.490   2.746   2.163  2.1826  2.4209 -0.3909
 6076SOL     OW29863   0.102   0.663  13.819  0.1139  0.2693 -0.2606
 6076SOL    HW129864   0.080   0.756  13.819 -0.5337  0.1101  0.1994
 6076SOL    HW229865   0.182   0.666  13.871  1.6795  3.0305 -2.8189
 6077SOL     OW29866   3.523   2.591   3.458 -0.0243 -0.1125  0.5319
 6077SOL    HW129867   3.434   2.624   3.452  0.4660  0.9798 -0.7195
 6077SOL    HW229868   3.553   2.573   3.369  2.4725  1.2024  1.1134
 6078SOL     OW29869   1.543   0.024  15.266 -0.1657 -0.2542  0.6155
 6078SOL    HW129870   1.600   4.708  15.212  1.7408  1.0068  1.3931
 6078SOL    HW229871   1.543   0.112  15.229  2.2622 -0.6424 -0.2760
 6079SOL     OW29872   3.742   3.492   3.567 -0.1297  0.3710  0.2228
 6079SOL    HW129873   3.707   3.488   3.477  0.8908  3.0676 -0.2993
 6079SOL    HW229874   3.836   3.493   3.548 -0.0567 -1.9330  0.5232
 6080SOL     OW29875   4.026   1.098   5.523 -0.3441 -0.4499 -0.7805
 6080SOL    HW129876   3.930   1.099   5.519 -0.2917 -0.3756 -1.8631
 6080SOL    HW229877   4.038   1.122   5.615  2.6885  1.2233 -1.6006
 6081SOL     OW29878   1.179   2.108   4.351 -0.5895  0.0952  0.3350
 6081SOL    HW129879   1.207   2.019   4.333 -1.7314 -0.0255 -0.8274
 6081SOL    HW229880   1.263   2.137   4.387 -0.1651  1.2534 -1.5649
 6082SOL     OW29881   2.265   4.168  17.411  0.3517 -0.1493  0.1153
 6082SOL    HW129882   2.241   4.083  17.449 -0.1040  0.1414  0.4774
 6082SOL    HW229883   2.216   4.233  17.462  0.6618 -0.1699  0.4410
 6083SOL     OW29884   0.967   3.000  12.931  0.1570 -0.2285 -0.0981
 6083SOL    HW129885   0.996   2.999  12.840 -1.4976  1.3835 -0.6494
 6083SOL    HW229886   1.024   3.069  12.964 -1.4723  1.1588 -0.2050
 6084SOL     OW29887   2.697   2.034   7.875  0.5363 -0.0530  0.2228
 6084SOL    HW129888   2.750   2.107   7.843 -0.8054  0.1877 -1.4481
 6084SOL    HW229889   2.763   1.965   7.865 -0.6255 -1.3030  1.1019
 6085SOL     OW29890   1.784   0.955   3.286  0.0826  0.2790 -0.1776
 6085SOL    HW129891   1.690   0.936   3.281  0.2550 -0.1054 -2.1676
 6085SOL    HW229892   1.804   0.933   3.377  0.6918 -1.0871 -0.6294
 6086SOL     OW29893   4.489   2.207   0.929  0.1602  0.6808 -0.0584
 6086SOL    HW129894   4.555   2.140   0.948  0.2475  0.7630 -0.0749
 6086SOL    HW229895   4.425   2.152   0.882 -0.2369  1.1801 -0.1026
 6087SOL     OW29896   2.000   2.780   3.129  0.3809  0.2514 -0.1313
 6087SOL    HW129897   1.915   2.823   3.121 -0.7358 -1.4776  2.4250
 6087SOL    HW229898   2.033   2.837   3.199  4.0136 -0.3001 -1.3973
 6088SOL     OW29899   2.377   2.606   7.954 -0.3779 -0.6232  0.1113
 6088SOL    HW129900   2.446   2.669   7.976 -0.6363 -0.5319  0.6611
 6088SOL    HW229901   2.351   2.649   7.873  2.5738  1.7687  0.4501
 6089SOL     OW29902   0.650   4.636  10.471  0.0242  0.3461 -0.4589
 6089SOL    HW129903   0.667   4.592  10.388 -0.0505  0.2928 -0.4460
 6089SOL    HW229904   0.652   4.562  10.532 -1.0999  0.5893 -0.1304
 6090SOL     OW29905   1.635   2.368  14.819 -0.0185 -0.2929 -0.4166
 6090SOL    HW129906   1.603   2.308  14.752  2.6924 -1.4709 -0.6378
 6090SOL    HW229907   1.553   2.393  14.863  1.0302  0.8737  0.8770
 6091SOL     OW29908   2.386   2.721   8.380 -0.5033  0.1721  0.1424
 6091SOL    HW129909   2.331   2.697   8.455  0.7985  1.0814  1.3800
 6091SOL    HW229910   2.462   2.773   8.404 -2.1672  2.4354  0.5021
 6092SOL     OW29911   0.584   1.850  13.105 -0.2233 -0.7985 -0.4411
 6092SOL    HW129912   0.653   1.878  13.166  1.2763 -2.1816 -1.5293
 6092SOL    HW229913   0.510   1.905  13.133 -0.8044 -1.7920 -0.0138
 6093SOL     OW29914   4.690   2.533  11.065 -0.2466  0.9889 -0.3796
 6093SOL    HW129915   4.709   2.608  11.120 -1.5538 -0.9708  2.7303
 6093SOL    HW229916   4.595   2.544  11.075 -0.4679  0.2045 -1.5720
 6094SOL     OW29917   4.260   1.752  15.512  0.5308  0.6863  0.4126
 6094SOL    HW129918   4.216   1.675  15.475  0.5996 -0.4401  2.6521
 6094SOL    HW229919   4.194   1.772  15.579 -0.5428 -1.1020 -0.1012
 6095SOL     OW29920   1.372   4.027   0.811  0.0407  0.0471 -0.0100
 6095SOL    HW129921   1.441   4.055   0.752  3.4576 -1.2738  3.3424
 6095SOL    HW229922   1.295   4.002   0.761 -1.0339  1.9565  0.6782
 6096SOL     OW29923   0.338   0.160   5.094 -0.0784  0.0237 -0.4884
 6096SOL    HW129924   0.328   0.067   5.078  1.1406 -0.1593 -0.2196
 6096SOL    HW229925   0.432   0.163   5.076  0.0747  1.0635  0.4672
 6097SOL     OW29926   3.114   0.211   3.564  0.3171  0.4872  0.1769
 6097SOL    HW129927   3.085   0.152   3.494 -2.2570  1.9613 -0.0196
 6097SOL    HW229928   3.047   0.193   3.630  0.1653  2.6608  0.6220
 6098SOL     OW29929   3.040   1.363  17.385 -0.2914  0.4793 -0.5192
 6098SOL    HW129930   3.105   1.347  17.452 -0.8502 -0.4046 -0.1963
 6098SOL    HW229931   3.045   1.280  17.337  2.2246  0.5855 -0.4384
 6099SOL     OW29932   3.326   3.548  12.426 -0.5668 -0.2346 -0.2594
 6099SOL    HW129933   3.374   3.527  12.506 -4.0909 -2.6800  1.2135
 6099SOL    HW229934   3.237   3.518  12.446  0.2003 -0.7774  2.3480
 6100SOL     OW29935   0.658   1.629   2.230 -0.3142 -0.3869 -0.4798
 6100SOL    HW129936   0.660   1.702   2.169 -0.2964 -0.1570 -0.2032
 6100SOL    HW229937   0.652   1.555   2.169 -0.9314 -0.1210 -0.7398
 6101SOL     OW29938   1.912   3.885   2.500  0.6173 -0.1741  0.7602
 6101SOL    HW129939   1.857   3.814   2.467  0.0209  0.4261  0.4476
 6101SOL    HW229940   1.989   3.855   2.546 -0.0267 -0.8749  1.3727
 6102SOL     OW29941   4.205   2.089  14.891  0.2853 -0.6692 -0.3162
 6102SOL    HW129942   4.198   2.001  14.928  1.0219 -1.3201 -1.7416
 6102SOL    HW229943   4.278   2.129  14.938  1.2986  0.4477 -2.8225
 6103SOL     OW29944   4.186   1.678   2.733  0.6139 -0.3525 -0.4767
 6103SOL    HW129945   4.244   1.627   2.677  0.8584 -0.3410 -0.2317
 6103SOL    HW229946   4.234   1.760   2.745  1.7189 -1.0174 -0.3819
 6104SOL     OW29947   4.479   2.994   8.062 -0.2140 -0.4067 -0.4315
 6104SOL    HW129948   4.402   2.967   8.012  0.7934  0.1805 -2.2800
 6104SOL    HW229949   4.541   2.931   8.027 -0.4740 -0.5928 -0.5562
 6105SOL     OW29950   3.067   3.721   1.884  0.2609  0.2922  0.0165
 6105SOL    HW129951   3.127   3.657   1.846 -0.8458 -0.9513  0.3613
 6105SOL    HW229952   2.984   3.674   1.881  0.8188 -0.7471  1.2105
 6106SOL     OW29953   1.960   1.540   9.281  0.1225  1.1279  0.4381
 6106SOL    HW129954   1.916   1.615   9.323  1.3570  2.9495 -1.4972
 6106SOL    HW229955   1.956   1.561   9.187 -1.6968  1.7581  0.6568
 6107SOL     OW29956   4.180   4.556   9.156 -0.7355 -0.2685 -0.7732
 6107SOL    HW129957   4.095   4.587   9.125 -1.3602 -2.3717 -1.1998
 6107SOL    HW229958   4.138   4.496   9.219  2.6915 -0.7750  1.0134
 6108SOL     OW29959   4.257   3.706  11.517  0.2914 -0.3717  0.2784
 6108SOL    HW129960   4.266   3.611  11.515  0.9192 -0.3296  0.9146
 6108SOL    HW229961   4.208   3.727  11.438  0.6055 -2.3343 -0.4308
 6109SOL     OW29962   1.266   0.575   3.746 -0.6098  0.0017  0.2265
 6109SOL    HW129963   1.298   0.655   3.788 -0.1074  0.0063 -0.1586
 6109SOL    HW229964   1.344   0.525   3.771  0.2685  0.8018 -0.8450
 6110SOL     OW29965   0.748   4.555  11.435  0.2120  0.2814  0.0195
 6110SOL    HW129966   0.749   4.506  11.353  0.5873  0.6149 -0.1755
 6110SOL    HW229967   0.659   4.590  11.435 -0.4286 -1.3191  1.6105
 6111SOL     OW29968   4.607   1.115   2.132  0.4728 -0.4195  0.0122
 6111SOL    HW129969   4.622   1.120   2.226 -1.9118 -0.4244  0.4047
 6111SOL    HW229970   4.625   1.209   2.127  1.4134 -0.5887  0.2876
 6112SOL     OW29971   1.010   1.421   4.580 -0.3197 -0.0794  0.0239
 6112SOL    HW129972   1.032   1.381   4.664  0.1577 -0.7385 -0.4159
 6112SOL    HW229973   1.006   1.342   4.526 -1.1188 -0.1473  0.1896
 6113SOL     OW29974   3.200   0.589  10.493 -0.1605 -0.1275 -0.6890
 6113SOL    HW129975   3.177   0.608  10.402 -0.1418  0.3613 -0.5926
 6113SOL    HW229976   3.243   0.667  10.528 -1.2113  0.8305 -1.5279
 6114SOL     OW29977   0.510   1.762   4.985  0.5281  0.2822  0.0009
 6114SOL    HW129978   0.548   1.734   5.068  0.9879 -0.2058 -0.3677
 6114SOL    HW229979   0.471   1.680   4.954 -0.9609  1.7013 -1.9048
 6115SOL     OW29980   1.386   3.346   4.768 -0.0039  0.0318 -0.1289
 6115SOL    HW129981   1.393   3.300   4.852  1.1403 -0.7597 -0.6648
 6115SOL    HW229982   1.450   3.301   4.714 -1.7216  0.0490 -2.1748
 6116SOL     OW29983   1.046   3.489   1.441  0.5320 -0.3750 -0.5450
 6116SOL    HW129984   1.090   3.448   1.366 -1.6434 -1.3078 -1.3012
 6116SOL    HW229985   1.119   3.508   1.500 -0.0871 -0.2161  0.1733
 6117SOL     OW29986   0.873   3.353  12.580 -0.2131 -0.0690 -0.1499
 6117SOL    HW129987   0.967   3.343  12.568 -0.2306  0.0329 -0.3866
 6117SOL    HW229988   0.838   3.282  12.526 -2.3264  0.2033  0.8608
 6118SOL     OW29989   1.069   1.284   7.230 -0.4431 -0.4322 -0.1409
 6118SOL    HW129990   0.974   1.280   7.237 -0.4279  3.1421  1.9348
 6118SOL    HW229991   1.083   1.369   7.190 -1.6111 -1.2567 -2.3135
 6119SOL     OW29992   4.578   0.792  10.725 -0.1892  0.1294 -0.4786
 6119SOL    HW129993   4.549   0.839  10.647 -0.7297  0.9026  0.1967
 6119SOL    HW229994   4.533   0.708  10.713 -0.8938  0.1329  2.2235
 6120SOL     OW29995   0.782   1.580   1.944  0.4102  0.6857  0.0067
 6120SOL    HW129996   0.771   1.519   1.871 -2.0079  2.6596 -1.3192
 6120SOL    HW229997   0.690   1.599   1.963  0.4481  0.7631  0.1105
 6121SOL     OW29998   2.243   3.534   6.063  0.6719 -0.4119 -0.2437
 6121SOL    HW129999   2.194   3.518   6.143 -2.6186  3.8638 -1.3897
 6121SOL    HW230000   2.271   3.443   6.054  0.3552 -0.4235 -1.1722
 6122SOL     OW30001   2.303   1.394   0.039 -0.0679 -0.2711 -0.1836
 6122SOL    HW130002   2.269   1.393  17.697  2.3333  0.0079 -1.1115
 6122SOL    HW230003   2.267   1.476   0.071 -1.0368 -1.0886  0.7834
 6123SOL     OW30004   3.848   3.832   7.363  0.5655  0.0979  0.4869
 6123SOL    HW130005   3.795   3.842   7.284  0.2254  0.5995  0.7807
 6123SOL    HW230006   3.803   3.900   7.412  0.6465 -0.0483  0.7646
 6124SOL     OW30007   0.992   0.356   8.277  0.0526 -0.0182 -0.6825
 6124SOL    HW130008   0.978   0.450   8.284  0.8135  0.0215  0.2716
 6124SOL    HW230009   0.904   0.322   8.261  0.3948 -1.3534  0.2652
 6125SOL     OW30010   2.865   0.060   3.315 -0.0343  0.1871  0.2110
 6125SOL    HW130011   2.916   0.138   3.292  0.0844  0.0245 -0.0785
 6125SOL    HW230012   2.830   0.020   3.235  0.0852  1.8952 -0.7043
 6126SOL     OW30013   0.391   3.995   2.132  0.3372  0.0642  0.5970
 6126SOL    HW130014   0.335   4.064   2.096 -0.3487 -1.9757 -2.2627
 6126SOL    HW230015   0.358   3.959   2.215 -1.3712 -0.8748 -0.4853
 6127SOL     OW30016   4.657   0.854   9.910  0.0020 -0.5762  1.0131
 6127SOL    HW130017   4.732   0.795   9.909  1.0709  0.7802  0.4508
 6127SOL    HW230018   4.581   0.796   9.900 -0.5835  0.5697 -1.3818
 6128SOL     OW30019   1.711   3.235  11.712  0.0457  0.8745 -0.2673
 6128SOL    HW130020   1.801   3.246  11.680 -0.5595  2.0016 -1.5843
 6128SOL    HW230021   1.711   3.283  11.795 -0.1440 -1.4751  1.0925
 6129SOL     OW30022   1.315   2.449   3.675 -0.3495 -0.1756  0.0110
 6129SOL    HW130023   1.298   2.368   3.723 -0.6932  0.2038  0.5398
 6129SOL    HW230024   1.409   2.462   3.684 -0.4251  0.4070 -0.0401
 6130SOL     OW30025   3.971   1.692  14.425  0.4736  0.2545  0.4697
 6130SOL    HW130026   3.940   1.740  14.502  2.8292  2.0866  0.2519
 6130SOL    HW230027   4.065   1.705  14.420  0.7024 -1.6879 -0.1219
 6131SOL     OW30028   0.895   1.135   4.106  0.0398  0.1796  0.2140
 6131SOL    HW130029   0.988   1.151   4.122  0.2453 -1.6150  0.7855
 6131SOL    HW230030   0.860   1.181   4.182  0.2083  0.6321  0.0128
 6132SOL     OW30031   3.218   2.852   0.121 -0.4116  0.1434  0.0131
 6132SOL    HW130032   3.132   2.874   0.085  0.0840  3.3165  0.7179
 6132SOL    HW230033   3.246   2.930   0.169 -2.0740  0.0941  1.0522
 6133SOL     OW30034   0.776   0.743   3.227 -0.0775  0.6698  0.2113
 6133SOL    HW130035   0.856   0.727   3.278 -0.4657  0.7955  0.8545
 6133SOL    HW230036   0.755   0.652   3.208 -0.3510  1.3563 -2.7917
 6134SOL     OW30037   3.470   4.128  11.718  0.3829  0.6067 -0.4153
 6134SOL    HW130038   3.501   4.212  11.752 -0.9219  1.2355 -0.7980
 6134SOL    HW230039   3.414   4.113  11.794  1.6730 -2.6111 -0.0916
 6135SOL     OW30040   3.169   2.605   6.419 -0.2283 -0.0531 -0.4107
 6135SOL    HW130041   3.143   2.568   6.504  0.6902  0.5539  0.1259
 6135SOL    HW230042   3.263   2.589   6.419 -0.1205  0.6323 -0.8749
 6136SOL     OW30043   2.800   0.976   0.113  0.5682 -0.8865 -0.0101
 6136SOL    HW130044   2.837   1.008   0.195 -0.6466  2.7180 -0.8253
 6136SOL    HW230045   2.722   0.932   0.146  0.1210 -1.0901 -1.3110
 6137SOL     OW30046   4.650   2.519   6.627 -0.4572 -0.5707  0.0230
 6137SOL    HW130047   4.657   2.432   6.587  0.2175 -0.0511 -1.0159
 6137SOL    HW230048   4.661   2.559   6.540 -0.6369  1.4279  0.9135
 6138SOL     OW30049   1.253   4.629   2.452  0.1426 -0.1667  0.1435
 6138SOL    HW130050   1.185   4.666   2.508 -1.2868 -0.1897 -1.5779
 6138SOL    HW230051   1.317   4.699   2.438 -1.1683  0.9712 -0.1055
 6139SOL     OW30052   3.587   3.014  16.722 -0.9639 -0.1470  0.0235
 6139SOL    HW130053   3.503   2.997  16.764 -0.3972  1.9658  2.0196
 6139SOL    HW230054   3.646   2.958  16.773 -2.9854 -1.1530  1.2681
 6140SOL     OW30055   3.374   1.875   6.482 -0.3351 -0.3343  0.1720
 6140SOL    HW130056   3.377   1.784   6.513 -1.8338  0.5207  2.8346
 6140SOL    HW230057   3.281   1.888   6.464 -1.0025  0.0032  3.8841
 6141SOL     OW30058   0.475   0.383   7.339 -0.4535 -0.7975 -0.0056
 6141SOL    HW130059   0.419   0.353   7.267  0.5562 -1.2158 -0.6206
 6141SOL    HW230060   0.523   0.305   7.369 -2.0678 -1.3912  1.0019
 6142SOL     OW30061   3.785   1.845   2.838 -0.1249  0.5725 -0.3570
 6142SOL    HW130062   3.721   1.784   2.799 -0.4251  0.5221  0.2220
 6142SOL    HW230063   3.848   1.779   2.867 -1.8588 -0.4138  1.1277
 6143SOL     OW30064   1.808   3.310   8.382 -0.1382 -0.2504 -0.3435
 6143SOL    HW130065   1.779   3.220   8.394 -1.5226  0.2203 -0.2168
 6143SOL    HW230066   1.903   3.305   8.368  0.3638  2.0612  2.1520
 6144SOL     OW30067   2.814   0.234  13.871  0.3053  0.0129 -0.1155
 6144SOL    HW130068   2.773   0.317  13.846 -1.4952 -1.0071 -0.4977
 6144SOL    HW230069   2.889   0.269  13.920  0.0593 -1.3494  1.2246
 6145SOL     OW30070   2.364   2.928  16.779 -0.0707 -0.1246 -0.1898
 6145SOL    HW130071   2.394   2.936  16.869 -0.3126  0.6877 -0.1764
 6145SOL    HW230072   2.340   3.021  16.774 -0.2908 -0.2297 -1.1655
 6146SOL     OW30073   1.058   2.467   6.091  0.2919  0.5660  0.2882
 6146SOL    HW130074   1.009   2.461   6.009  0.2767 -1.3252  0.4469
 6146SOL    HW230075   1.067   2.562   6.096  1.5724  0.4515  0.3258
 6147SOL     OW30076   1.370   1.492  11.980 -0.2059 -0.1497  0.3346
 6147SOL    HW130077   1.426   1.460  12.051  0.0542 -0.0986  0.1546
 6147SOL    HW230078   1.285   1.498  12.023  0.2575  2.1902  0.8863
 6148SOL     OW30079   1.787   2.544   0.975  0.5849 -0.1185 -0.1596
 6148SOL    HW130080   1.772   2.566   1.067  0.9125  1.1443 -0.4099
 6148SOL    HW230081   1.835   2.462   0.984 -0.6064 -1.1186 -2.7384
 6149SOL     OW30082   4.389   1.896   6.851 -0.1070 -0.3782  0.2053
 6149SOL    HW130083   4.415   1.871   6.940  2.2230  1.1529 -0.0413
 6149SOL    HW230084   4.304   1.858   6.829 -0.5751  1.3768 -1.0137
 6150SOL     OW30085   1.153   3.369   5.071  0.4519 -0.3458  0.3805
 6150SOL    HW130086   1.097   3.445   5.059 -0.4236 -1.3828 -2.1907
 6150SOL    HW230087   1.240   3.408   5.058  0.0449 -0.3006 -2.2376
 6151SOL     OW30088   1.410   3.262  12.181  0.1217 -0.1501  0.0061
 6151SOL    HW130089   1.357   3.318  12.124  0.6498  0.6209  0.2690
 6151SOL    HW230090   1.452   3.330  12.234 -1.9748  0.4458  0.9030
 6152SOL     OW30091   0.921   3.321   9.109  0.6187 -0.7865  0.6381
 6152SOL    HW130092   0.870   3.350   9.185 -1.2917 -1.6472 -0.3045
 6152SOL    HW230093   0.983   3.258   9.145 -1.6726 -4.0048 -1.0646
 6153SOL     OW30094   0.312   2.753   7.830  0.4344  0.5816  0.3496
 6153SOL    HW130095   0.400   2.761   7.793  1.1489 -1.9216  1.5319
 6153SOL    HW230096   0.262   2.793   7.758  0.7626 -1.2998 -0.9074
 6154SOL     OW30097   2.447   0.575  11.479 -0.1892  0.0464 -0.0445
 6154SOL    HW130098   2.362   0.574  11.436 -0.1992  2.0168 -0.0729
 6154SOL    HW230099   2.435   0.638  11.551  0.8549  2.6029 -2.1352
 6155SOL     OW30100   3.472   4.491  16.376 -0.2920  0.5678  0.5509
 6155SOL    HW130101   3.465   4.482  16.471 -1.2303  0.9674  0.5169
 6155SOL    HW230102   3.564   4.482  16.353 -0.4021 -1.3032  0.8490
 6156SOL     OW30103   4.527   3.110  16.627 -0.1423 -0.0245  0.3521
 6156SOL    HW130104   4.490   3.108  16.716  1.8172 -0.4040  1.1536
 6156SOL    HW230105   4.606   3.160  16.645  0.7420 -0.5199 -2.1553
 6157SOL     OW30106   3.913   1.701   2.605  0.1506  0.0078  0.1847
 6157SOL    HW130107   3.985   1.704   2.668 -0.3762  3.2825  0.6507
 6157SOL    HW230108   3.917   1.608   2.587  2.7973  0.3138 -0.8245
 6158SOL     OW30109   4.405   2.841   5.100  0.5508  0.2317  0.2070
 6158SOL    HW130110   4.399   2.768   5.038 -1.3636  0.1352  0.5076
 6158SOL    HW230111   4.354   2.912   5.061  1.1996  1.6402  1.9385
 6159SOL     OW30112   4.060   0.522   1.630  0.3833 -0.2185  0.4143
 6159SOL    HW130113   4.124   0.518   1.701  0.9790  0.3917 -0.0833
 6159SOL    HW230114   4.050   0.429   1.608 -1.8226  0.1213 -0.0324
 6160SOL     OW30115   0.974   1.275   3.845  0.3285 -0.4397 -0.5747
 6160SOL    HW130116   0.938   1.357   3.880  0.9269 -0.4448  0.0627
 6160SOL    HW230117   0.923   1.214   3.898  2.1072 -1.5094 -0.0955
 6161SOL     OW30118   4.427   2.704   6.862  0.7134 -0.6654  0.1748
 6161SOL    HW130119   4.448   2.794   6.889  2.2467 -1.0599  0.2807
 6161SOL    HW230120   4.460   2.650   6.933 -0.7311 -4.7743 -2.2915
 6162SOL     OW30121   0.151   3.771   7.809  0.1446  0.2042 -0.2899
 6162SOL    HW130122   0.230   3.815   7.779  0.2361  1.6732  2.1745
 6162SOL    HW230123   0.171   3.678   7.796 -1.4512 -0.0098 -1.2555
 6163SOL     OW30124   2.695   1.861  10.797 -0.5125  0.7610  0.0892
 6163SOL    HW130125   2.738   1.839  10.880  0.9764  0.8273 -0.6581
 6163SOL    HW230126   2.764   1.918  10.762 -1.5827  0.7392 -2.0115
 6164SOL     OW30127   1.067   3.931   5.486 -0.5613  0.8132  0.3776
 6164SOL    HW130128   1.079   3.837   5.500 -2.7133  0.5581  0.4975
 6164SOL    HW230129   1.061   3.959   5.578  2.2325 -2.4484  1.5585
 6165SOL     OW30130   3.557   0.056   0.139 -0.2698  0.3483 -0.4402
 6165SOL    HW130131   3.467   0.050   0.171  0.1722 -3.1887  0.1227
 6165SOL    HW230132   3.579   0.135   0.189 -0.5310  0.1135  0.0423
 6166SOL     OW30133   1.328   3.623   7.954 -0.3200 -0.7120 -0.2732
 6166SOL    HW130134   1.266   3.668   7.896 -1.1294 -1.6293 -0.1323
 6166SOL    HW230135   1.277   3.600   8.032 -0.8593  0.1168 -0.3831
 6167SOL     OW30136   2.665   4.611   4.229 -0.0205 -0.1346 -0.1408
 6167SOL    HW130137   2.631   4.567   4.151 -0.6630  1.4827 -0.7958
 6167SOL    HW230138   2.648   4.705   4.215  0.8922  0.3083  1.6621
 6168SOL     OW30139   0.103   4.578   5.590  0.1877 -0.0244 -0.2167
 6168SOL    HW130140   0.161   4.522   5.640  0.1092 -0.6325 -0.8005
 6168SOL    HW230141   0.068   4.525   5.518  1.8631  0.2956 -1.2591
 6169SOL     OW30142   2.847   0.825   8.862 -0.1613 -0.1557  0.1130
 6169SOL    HW130143   2.887   0.739   8.872 -0.2371 -0.1349  0.5688
 6169SOL    HW230144   2.753   0.810   8.871  0.0285 -2.0865 -1.1692
 6170SOL     OW30145   2.958   0.540   8.404  0.3243 -0.2044  0.0688
 6170SOL    HW130146   3.053   0.530   8.413  0.4671 -0.8965 -2.2517
 6170SOL    HW230147   2.937   0.481   8.332  2.3235  0.1846 -0.8343
 6171SOL     OW30148   3.608   0.196   3.665  0.5766  0.3375  0.7745
 6171SOL    HW130149   3.516   0.204   3.690  0.4388  1.6289 -0.1369
 6171SOL    HW230150   3.646   0.253   3.732 -1.0943  0.5724  1.4995
 6172SOL     OW30151   0.178   3.651   2.322 -0.0649  0.1292 -0.2656
 6172SOL    HW130152   0.248   3.670   2.384  0.5310  0.4070 -1.0191
 6172SOL    HW230153   0.099   3.694   2.353 -1.4111 -3.5323  1.3564
 6173SOL     OW30154   4.727   1.503  16.808 -0.3561  0.1201  0.4471
 6173SOL    HW130155   0.031   1.445  16.744 -0.4965  0.4534  0.0561
 6173SOL    HW230156   0.049   1.578  16.799  2.6065 -1.9586  2.5335
 6174SOL     OW30157   3.910   0.215   1.250  0.3027 -0.3536 -0.0661
 6174SOL    HW130158   3.949   0.148   1.193  0.1619  0.9493 -1.6990
 6174SOL    HW230159   3.870   0.155   1.313  0.3464  0.1255  0.4164
 6175SOL     OW30160   1.030   1.254   5.591  0.2737 -0.3966 -0.5307
 6175SOL    HW130161   1.060   1.343   5.606 -0.6144 -0.3140  0.7962
 6175SOL    HW230162   0.942   1.259   5.553 -1.3516 -0.6563  3.1736
 6176SOL     OW30163   3.216   2.585   6.740  0.3351  0.0095  0.0987
 6176SOL    HW130164   3.290   2.540   6.700 -0.1949 -1.4043  0.7052
 6176SOL    HW230165   3.229   2.572   6.834  2.2416  0.0610 -0.1622
 6177SOL     OW30166   4.357   3.986  13.952 -0.0410  0.5047 -0.1556
 6177SOL    HW130167   4.389   4.062  14.001 -1.0822 -0.0406  1.3610
 6177SOL    HW230168   4.433   3.929  13.966 -0.2817  0.4146  0.7495
 6178SOL     OW30169   0.227   3.014   8.534  0.7290 -0.2228 -0.0788
 6178SOL    HW130170   0.134   3.038   8.533  0.5752 -0.7674  2.0492
 6178SOL    HW230171   0.240   2.997   8.627  0.4729  2.2872  0.4111
 6179SOL     OW30172   0.381   1.597   9.193 -0.3927 -0.3948 -0.3708
 6179SOL    HW130173   0.404   1.599   9.286 -0.2196  2.4950 -0.4632
 6179SOL    HW230174   0.351   1.688   9.186  0.0932 -0.3105 -1.3373
 6180SOL     OW30175   4.650   1.075   0.314  0.0708  0.6452 -0.2208
 6180SOL    HW130176   4.663   1.136   0.241 -1.0845 -0.3714 -1.2980
 6180SOL    HW230177   4.559   1.058   0.287 -0.3866 -1.3738  2.5289
 6181SOL     OW30178   1.334   3.205   4.427 -0.0888  0.1513  0.6382
 6181SOL    HW130179   1.284   3.281   4.457 -0.5233  0.2803 -0.4368
 6181SOL    HW230180   1.266   3.140   4.442  0.8116 -0.4961  1.9444
 6182SOL     OW30181   4.404   2.458   7.535 -0.2173 -1.0381 -0.9259
 6182SOL    HW130182   4.367   2.546   7.544  0.1286 -0.8193 -1.6458
 6182SOL    HW230183   4.498   2.472   7.531 -0.5488  1.6208  0.7667
 6183SOL     OW30184   1.457   4.733   9.854  0.5845 -0.1936 -0.7705
 6183SOL    HW130185   1.522   4.730   9.784 -0.6577  0.4539 -1.9288
 6183SOL    HW230186   1.519   4.698   9.919 -0.3750  0.6199  0.5866
 6184SOL     OW30187   0.946   1.259   0.077  0.5403 -0.0779  0.0932
 6184SOL    HW130188   0.903   1.176   0.098  1.4099 -0.7340 -0.6754
 6184SOL    HW230189   0.965   1.250  17.731  3.8047  2.3311  0.5107
 6185SOL     OW30190   1.234   2.975   3.244 -0.2825  0.0976  0.2297
 6185SOL    HW130191   1.244   2.997   3.152 -0.6810  1.5982  0.5530
 6185SOL    HW230192   1.308   2.916   3.255 -1.3417 -1.5085 -1.2235
 6186SOL     OW30193   2.466   1.915   7.837  0.0618 -0.5113 -0.5046
 6186SOL    HW130194   2.555   1.948   7.844 -0.0421 -0.2644 -0.3669
 6186SOL    HW230195   2.455   1.874   7.922 -1.7207 -2.1622 -1.5251
 6187SOL     OW30196   2.435   1.919   2.980  0.1570 -0.4526 -0.5096
 6187SOL    HW130197   2.389   1.958   2.906  0.6317  3.5143  1.3078
 6187SOL    HW230198   2.488   1.853   2.936  0.8881 -0.8733  1.0054
 6188SOL     OW30199   2.005   3.515   4.358 -0.2445 -0.0319  0.1261
 6188SOL    HW130200   2.031   3.424   4.366 -2.6316 -0.8834 -1.6603
 6188SOL    HW230201   2.088   3.558   4.377  0.8240 -1.2434 -1.8572
 6189SOL     OW30202   3.869   2.301  16.841 -0.6955  0.4370 -0.3280
 6189SOL    HW130203   3.850   2.285  16.748 -0.6840  0.6551 -0.3674
 6189SOL    HW230204   3.840   2.389  16.862 -0.7055  0.4371 -0.3426
 6190SOL     OW30205   0.278   0.431  10.643 -0.0818 -0.1548 -0.0342
 6190SOL    HW130206   0.299   0.522  10.663 -2.1274 -0.0196  1.4447
 6190SOL    HW230207   0.345   0.412  10.576  0.6981  1.1826  0.3588
 6191SOL     OW30208   2.323   3.907   1.744 -0.2777  0.2496  0.1725
 6191SOL    HW130209   2.404   3.863   1.718 -0.0117  1.7421 -1.5241
 6191SOL    HW230210   2.262   3.833   1.744  0.5933 -0.4726  0.6553
 6192SOL     OW30211   2.444   1.551   4.968 -0.1864 -0.0724 -0.1242
 6192SOL    HW130212   2.436   1.525   4.876  3.5357 -0.5488 -0.3081
 6192SOL    HW230213   2.471   1.643   4.963 -1.0495  0.1797 -0.2055
 6193SOL     OW30214   3.746   1.088   5.578  0.7994  0.1438  0.3465
 6193SOL    HW130215   3.691   1.160   5.545  2.0363  1.5846  1.4379
 6193SOL    HW230216   3.719   1.097   5.670 -1.9495  0.9275 -0.5180
 6194SOL     OW30217   4.406   0.510  10.993  0.0824 -0.2178 -0.0721
 6194SOL    HW130218   4.457   0.485  10.916  0.8614 -2.9785  1.3355
 6194SOL    HW230219   4.347   0.435  11.000 -0.0450  0.0816  2.1335
 6195SOL     OW30220   0.101   3.538  14.946  1.0619 -0.3651 -0.2968
 6195SOL    HW130221   0.065   3.452  14.929  2.1382 -1.3825  2.5563
 6195SOL    HW230222   0.196   3.521  14.949  1.2075  0.3797 -0.5190
 6196SOL     OW30223   0.152   1.307   7.912 -0.1117 -0.2551 -0.7607
 6196SOL    HW130224   0.217   1.331   7.847 -1.2454 -0.1331 -1.8479
 6196SOL    HW230225   0.110   1.391   7.929  0.7228 -0.3362  1.7550
 6197SOL     OW30226   3.085   0.319   1.420 -0.1092 -0.0598  0.2755
 6197SOL    HW130227   3.090   0.414   1.433 -1.8920 -0.3001  2.8303
 6197SOL    HW230228   3.032   0.287   1.494  0.1749 -1.6116 -0.1936
 6198SOL     OW30229   3.242   4.103   8.454 -0.3162 -0.2628 -0.7643
 6198SOL    HW130230   3.299   4.073   8.525 -0.1937  0.2257 -0.6556
 6198SOL    HW230231   3.232   4.026   8.398 -2.0583 -1.1590  0.7407
 6199SOL     OW30232   0.572   2.676   7.470 -0.3306 -0.4271 -0.3121
 6199SOL    HW130233   0.547   2.602   7.415 -2.9347 -0.8900  1.4364
 6199SOL    HW230234   0.608   2.733   7.403  0.7379  0.7415  1.2558
 6200SOL     OW30235   2.108   1.783   6.334 -0.0188  0.2580  0.5112
 6200SOL    HW130236   2.121   1.751   6.423 -0.6798  0.0669  0.5362
 6200SOL    HW230237   2.018   1.755   6.324 -0.7562  2.6073  0.4165
 6201SOL     OW30238   0.809   0.382   0.817 -0.1068  0.4893  0.5473
 6201SOL    HW130239   0.817   0.436   0.896  1.1307  2.8967 -1.2283
 6201SOL    HW230240   0.778   0.304   0.864 -0.5161  0.6478  0.5446
 6202SOL     OW30241   1.169   1.813   6.069  0.0997 -0.1359  0.2239
 6202SOL    HW130242   1.142   1.856   5.988 -0.4425  1.2409  1.1363
 6202SOL    HW230243   1.238   1.876   6.091 -0.3248  1.2299 -2.3202
 6203SOL     OW30244   1.652   3.458  13.336  0.0450  0.1602  0.3194
 6203SOL    HW130245   1.679   3.379  13.289 -0.2007  0.4850 -0.3766
 6203SOL    HW230246   1.627   3.427  13.423  1.5831 -0.4052  0.5647
 6204SOL     OW30247   1.394   3.188  13.525 -0.0769  0.1426 -0.1966
 6204SOL    HW130248   1.449   3.267  13.535 -1.2716  1.2369 -2.3680
 6204SOL    HW230249   1.465   3.136  13.487 -0.3499 -0.3697  0.0013
 6205SOL     OW30250   2.694   4.083  12.157 -0.0404 -0.1124  0.0066
 6205SOL    HW130251   2.650   4.127  12.085  1.8985  1.6908 -0.0712
 6205SOL    HW230252   2.692   4.159  12.215 -1.1356 -0.5938  0.6000
 6206SOL     OW30253   3.920   1.101  12.238 -0.7674 -0.4230  0.5541
 6206SOL    HW130254   3.900   1.014  12.272  0.2231  0.0649  2.3814
 6206SOL    HW230255   3.988   1.125  12.301  1.3779  0.5934 -2.1327
 6207SOL     OW30256   4.392   4.357   8.810 -0.0488  0.3739  0.0528
 6207SOL    HW130257   4.319   4.329   8.754  2.0438 -2.6327 -1.1382
 6207SOL    HW230258   4.370   4.309   8.889 -1.3176 -0.0202 -0.5380
 6208SOL     OW30259   1.843   1.319   6.252  0.1872 -0.1814 -0.2211
 6208SOL    HW130260   1.904   1.264   6.301 -0.7575 -0.6083  0.4917
 6208SOL    HW230261   1.768   1.332   6.311 -0.8341 -0.2930 -1.4980
 6209SOL     OW30262   3.018   4.336   4.318 -0.1736  0.4231 -0.7900
 6209SOL    HW130263   3.026   4.307   4.227 -0.3720 -1.2656 -0.2607
 6209SOL    HW230264   2.927   4.335   4.344  0.3116  1.7999  0.9086
 6210SOL     OW30265   0.468   3.634   2.405  0.0008 -0.0880 -0.3583
 6210SOL    HW130266   0.545   3.691   2.408 -1.5437  1.8857  1.8678
 6210SOL    HW230267   0.460   3.606   2.496 -1.2600  2.6336  0.3669
 6211SOL     OW30268   0.113   3.353   7.330  0.4612  0.4211 -0.2834
 6211SOL    HW130269   0.076   3.300   7.260  0.7418 -1.4777  1.0108
 6211SOL    HW230270   0.191   3.304   7.357  1.6329  2.0220 -0.7365
 6212SOL     OW30271   2.632   0.861   8.251  0.2662 -0.2447 -0.0693
 6212SOL    HW130272   2.593   0.775   8.235  2.6976 -1.5345  0.9499
 6212SOL    HW230273   2.713   0.844   8.299 -0.8856  0.3398  2.0977
 6213SOL     OW30274   2.482   0.347   7.580  0.1100  0.3977  0.0490
 6213SOL    HW130275   2.452   0.401   7.507  1.8226  0.3294 -0.7153
 6213SOL    HW230276   2.544   0.286   7.539 -0.2803  0.4964 -0.6794
 6214SOL     OW30277   2.686   0.921  14.604  0.0211  0.1212  0.4882
 6214SOL    HW130278   2.692   0.855  14.535  1.3848 -1.4792  2.1446
 6214SOL    HW230279   2.598   0.900  14.634  0.5161  0.7184  2.3564
 6215SOL     OW30280   0.922   0.714   8.787 -0.4264  0.2964  0.7809
 6215SOL    HW130281   0.850   0.759   8.832 -0.9454  0.4318 -0.2015
 6215SOL    HW230282   0.865   0.648   8.747 -0.2243  1.0594 -0.7255
 6216SOL     OW30283   0.390   3.594   7.918 -0.1013  0.3633 -0.1563
 6216SOL    HW130284   0.421   3.551   7.838  1.6766  0.2972  0.5722
 6216SOL    HW230285   0.303   3.560   7.936 -0.2688 -0.1724 -1.9225
 6217SOL     OW30286   2.722   4.363   0.496  0.3837  0.0082 -0.2079
 6217SOL    HW130287   2.700   4.456   0.482  3.0229  0.2934 -2.4340
 6217SOL    HW230288   2.693   4.344   0.585  1.8908  2.9804  0.9294
 6218SOL     OW30289   1.463   3.598   4.465  0.5783  0.2685  0.4912
 6218SOL    HW130290   1.456   3.688   4.495  1.8693  0.1217  1.2347
 6218SOL    HW230291   1.556   3.577   4.471  0.9906  2.2600  1.0932
 6219SOL     OW30292   1.012   3.405   0.074 -0.6706 -0.1514 -0.1963
 6219SOL    HW130293   1.089   3.461   0.063 -1.2094  0.3169 -1.5873
 6219SOL    HW230294   0.988   3.385  17.731  0.2580  0.4716 -0.5742
 6220SOL     OW30295   4.282   1.014  14.739 -0.4187 -0.2677  0.9510
 6220SOL    HW130296   4.189   1.017  14.758 -0.1286 -0.1694  2.3343
 6220SOL    HW230297   4.316   0.974  14.819 -0.2570  0.5561  1.2970
 6221SOL     OW30298   1.320   1.338  17.615  0.1751 -0.5715  0.6524
 6221SOL    HW130299   1.322   1.349  17.520 -1.3613  0.3610  0.7242
 6221SOL    HW230300   1.233   1.375  17.631 -0.7335 -1.9261 -1.1358
 6222SOL     OW30301   0.270   4.420   8.436 -0.2830  0.7334  0.3441
 6222SOL    HW130302   0.356   4.456   8.413  0.6536 -0.7609  1.4382
 6222SOL    HW230303   0.210   4.448   8.367  0.5441 -0.3201 -0.8101
 6223SOL     OW30304   3.051   2.073   0.943 -0.6402 -0.3123  0.1002
 6223SOL    HW130305   3.001   2.005   0.987  2.8215 -1.4297  2.2874
 6223SOL    HW230306   2.987   2.132   0.901  0.6579 -0.5856 -2.2743
 6224SOL     OW30307   0.471   0.488   4.489 -0.1129  0.0491 -0.2307
 6224SOL    HW130308   0.421   0.516   4.565  1.5183 -1.4658  1.4057
 6224SOL    HW230309   0.560   0.501   4.522  0.6689 -0.7819 -2.0193
 6225SOL     OW30310   1.918   4.711   3.275  0.0905 -0.1830  0.4565
 6225SOL    HW130311   1.891   0.013   3.358 -2.5293 -0.5357 -0.2427
 6225SOL    HW230312   1.892   0.038   3.209  3.7602 -0.0579 -0.9057
 6226SOL     OW30313   1.904   2.468   6.537 -0.6314  0.0054  0.2223
 6226SOL    HW130314   1.822   2.511   6.514 -1.4247 -0.8526  1.4236
 6226SOL    HW230315   1.979   2.519   6.506  0.9816 -2.3769  0.2183
 6227SOL     OW30316   4.579   3.590   8.853  0.0431  0.0433  0.6284
 6227SOL    HW130317   4.582   3.495   8.844 -1.2119  0.1438 -0.9522
 6227SOL    HW230318   4.502   3.597   8.796 -1.0857  1.2083  2.3041
 6228SOL     OW30319   3.491   0.910   8.864  0.1216  0.3029 -0.1479
 6228SOL    HW130320   3.485   0.933   8.772  0.1621 -0.8843 -0.4548
 6228SOL    HW230321   3.398   0.891   8.880 -0.1805  1.6090 -0.3642
 6229SOL     OW30322   4.502   0.077   0.712 -0.1247 -0.4802  0.4157
 6229SOL    HW130323   4.449   0.102   0.788 -0.3362 -1.0594  0.4566
 6229SOL    HW230324   4.480   0.145   0.649 -0.4901 -0.3576  0.6785
 6230SOL     OW30325   4.194   1.699   8.028 -0.3069  0.6246 -0.4169
 6230SOL    HW130326   4.200   1.794   8.015  4.1074  0.1356 -1.7638
 6230SOL    HW230327   4.100   1.683   8.040 -0.0779 -0.7070 -0.3976
 6231SOL     OW30328   3.330   2.183   3.974 -0.0880  0.0996 -0.0877
 6231SOL    HW130329   3.267   2.256   3.977 -0.2456 -0.0260 -0.3374
 6231SOL    HW230330   3.411   2.232   3.989  0.5350 -1.4133  1.3884
 6232SOL     OW30331   4.104   2.311   3.024 -0.4477 -0.0393  0.6516
 6232SOL    HW130332   4.064   2.329   3.109 -2.5701 -3.9398  0.5156
 6232SOL    HW230333   4.194   2.342   3.033  0.2193 -1.8810  0.4285
 6233SOL     OW30334   4.435   1.522   1.303 -0.2712  0.3725 -0.3706
 6233SOL    HW130335   4.392   1.454   1.251 -0.1491 -0.3011  0.4179
 6233SOL    HW230336   4.380   1.597   1.280  0.0839  1.0484  0.9964
 6234SOL     OW30337   2.057   4.558   6.162 -0.0773  0.0801 -0.1545
 6234SOL    HW130338   2.006   4.505   6.101 -0.2364  0.3526 -0.2585
 6234SOL    HW230339   2.132   4.499   6.167  0.8482  1.3113  0.7850
 6235SOL     OW30340   3.997   3.045   6.673  0.0387  0.2587  0.0810
 6235SOL    HW130341   3.983   3.128   6.628  1.9641  0.9771  0.7752
 6235SOL    HW230342   3.905   3.031   6.693  0.1247 -1.4882 -0.7091
 6236SOL     OW30343   0.394   4.630   6.522 -0.5312 -0.3487  0.2433
 6236SOL    HW130344   0.317   4.644   6.578 -0.4255  0.3731  0.2085
 6236SOL    HW230345   0.429   4.719   6.517 -1.1489 -0.0798  0.6368
 6237SOL     OW30346   1.074   3.407   3.276 -0.5765 -0.1789  0.1485
 6237SOL    HW130347   1.017   3.334   3.250 -1.4946  0.8453 -0.6923
 6237SOL    HW230348   1.137   3.413   3.205 -0.8734 -2.1565 -0.2896
 6238SOL     OW30349   0.862   3.471   3.566  0.0127  0.0988  0.1804
 6238SOL    HW130350   0.953   3.448   3.585 -0.3740 -1.3202  0.2730
 6238SOL    HW230351   0.819   3.386   3.562 -2.2781  1.3072 -0.6447
 6239SOL     OW30352   1.983   0.347  10.586 -0.0758  0.3545  0.4770
 6239SOL    HW130353   2.018   0.268  10.628 -1.8791 -0.0299  1.2700
 6239SOL    HW230354   1.890   0.326  10.574 -0.4194  1.0285  1.9061
 6240SOL     OW30355   4.530   0.339   2.221 -0.4347  0.1977 -0.1041
 6240SOL    HW130356   4.475   0.417   2.217  0.6790  1.0937  2.5184
 6240SOL    HW230357   4.494   0.283   2.151 -1.0807  0.2131  0.2168
 6241SOL     OW30358   4.202   3.784   3.837  0.1606  0.3370  0.0643
 6241SOL    HW130359   4.176   3.751   3.751  1.3299 -1.2960  0.3310
 6241SOL    HW230360   4.223   3.697   3.872 -0.6753  0.1049 -0.0045
 6242SOL     OW30361   0.822   1.849   8.417  0.0061  0.0730  0.3972
 6242SOL    HW130362   0.727   1.842   8.408  0.1457 -0.9958 -0.3309
 6242SOL    HW230363   0.842   1.850   8.510 -1.4229 -0.5720  0.7054
 6243SOL     OW30364   2.854   4.722   0.208 -0.1293 -0.6454 -0.3200
 6243SOL    HW130365   2.846   4.629   0.229  1.2886 -0.4695  1.0067
 6243SOL    HW230366   2.812   4.715   0.122 -0.0928  0.2966 -0.4137
 6244SOL     OW30367   2.332   1.884  13.071 -0.1336  0.3649 -0.0848
 6244SOL    HW130368   2.347   1.956  13.132 -2.6084  0.8340 -0.0203
 6244SOL    HW230369   2.274   1.836  13.130 -0.2598  1.4174  0.6388
 6245SOL     OW30370   3.807   3.831   1.151  0.4290 -0.0652  0.3689
 6245SOL    HW130371   3.765   3.875   1.225  1.0065  1.9650 -0.5198
 6245SOL    HW230372   3.816   3.741   1.180  0.2757 -0.3337 -0.4133
 6246SOL     OW30373   4.281   1.851  12.608  0.4417  0.0706  0.0810
 6246SOL    HW130374   4.213   1.855  12.541  0.8420  1.0696 -0.2681
 6246SOL    HW230375   4.220   1.858  12.681  1.3796  0.8521  0.7930
 6247SOL     OW30376   3.426   3.903   6.787  0.4320 -1.0211 -0.1838
 6247SOL    HW130377   3.391   3.981   6.829  0.6051  0.2754 -2.4518
 6247SOL    HW230378   3.355   3.885   6.725  0.3611 -1.3232 -0.0163
 6248SOL     OW30379   3.196   2.342  14.162  0.5209 -0.4739  0.4957
 6248SOL    HW130380   3.181   2.314  14.071 -2.5626  1.2910  0.4776
 6248SOL    HW230381   3.291   2.335  14.168  0.3473 -2.0466  1.2863
 6249SOL     OW30382   1.026   1.639   7.799  0.0076 -0.2004 -0.6770
 6249SOL    HW130383   1.045   1.583   7.874  2.6686  1.6777  0.0362
 6249SOL    HW230384   1.092   1.614   7.734  1.5298 -0.1081  0.8351
 6250SOL     OW30385   2.206   4.339   2.866 -0.0229  0.3503 -0.2144
 6250SOL    HW130386   2.117   4.307   2.849 -0.2662 -0.2533  2.2360
 6250SOL    HW230387   2.196   4.434   2.854  2.4492  0.7335  0.7964
 6251SOL     OW30388   2.476   4.057  16.475  0.0512 -0.0179  0.1912
 6251SOL    HW130389   2.526   4.064  16.557 -0.2909  0.7715  0.3262
 6251SOL    HW230390   2.504   4.143  16.443 -3.1082  1.0924  0.4058
 6252SOL     OW30391   4.034   0.010   8.880  0.6539 -0.2080 -0.0576
 6252SOL    HW130392   3.945   0.021   8.912  0.6134  0.8313 -0.5421
 6252SOL    HW230393   4.029   4.664   8.833  0.6568 -1.0942  1.5240
 6253SOL     OW30394   1.332   3.578   1.584  0.1010  0.0675  0.3588
 6253SOL    HW130395   1.300   3.567   1.674 -1.1696  1.0336  0.0181
 6253SOL    HW230396   1.319   3.672   1.572 -0.6535 -0.2631 -1.3092
 6254SOL     OW30397   2.092   1.416   1.048  0.1559 -0.3955  0.0760
 6254SOL    HW130398   2.055   1.395   0.962  1.3334 -2.3730  0.0660
 6254SOL    HW230399   2.015   1.408   1.104  0.0566  0.5159  0.0743
 6255SOL     OW30400   3.196   4.204   3.147 -0.3704 -0.8845 -0.1376
 6255SOL    HW130401   3.162   4.192   3.059 -1.4692 -1.0298  0.3018
 6255SOL    HW230402   3.258   4.132   3.162  1.7057  0.9400  0.0144
 6256SOL     OW30403   3.243   2.492   9.012 -0.0860  0.0260  0.3798
 6256SOL    HW130404   3.260   2.510   9.105 -0.3679  1.8324  0.0757
 6256SOL    HW230405   3.268   2.579   8.981 -1.2663 -0.1907 -1.1657
 6257SOL     OW30406   4.251   4.323  16.417 -0.2916  0.0933 -0.2670
 6257SOL    HW130407   4.252   4.416  16.394 -2.0688 -0.4851 -2.5772
 6257SOL    HW230408   4.294   4.329  16.503  0.6396  1.0671 -0.8008
 6258SOL     OW30409   2.107   2.365   8.008  0.5081 -0.0910 -0.2691
 6258SOL    HW130410   2.158   2.341   8.085  0.9077 -0.1437 -0.5514
 6258SOL    HW230411   2.162   2.312   7.951  0.8029  2.9590 -2.8388
 6259SOL     OW30412   4.273   4.304   4.755  0.1564 -0.3925 -0.1045
 6259SOL    HW130413   4.262   4.234   4.690  1.1410  0.2197 -0.9396
 6259SOL    HW230414   4.336   4.355   4.704 -0.3302 -0.5322 -0.8478
 6260SOL     OW30415   4.612   0.635   7.217 -0.3016 -0.6962  0.2463
 6260SOL    HW130416   4.666   0.596   7.149 -1.9458 -0.2736 -1.3110
 6260SOL    HW230417   4.655   0.609   7.299 -0.9259  0.3139  0.8914
 6261SOL     OW30418   1.855   1.670   2.606  0.4251 -0.7393  0.3460
 6261SOL    HW130419   1.849   1.647   2.698 -0.4120 -2.3248 -0.1048
 6261SOL    HW230420   1.939   1.717   2.610 -0.6177  1.2021 -0.4891
 6262SOL     OW30421   3.708   3.593  12.466 -0.3006 -0.3342  0.2725
 6262SOL    HW130422   3.797   3.628  12.472 -1.1348  1.6296  1.0688
 6262SOL    HW230423   3.677   3.621  12.379 -0.3288  3.1495  1.4184
 6263SOL     OW30424   1.436   2.118   9.324 -0.3005 -0.7323  0.2534
 6263SOL    HW130425   1.363   2.062   9.350 -0.6481  0.2992  1.4722
 6263SOL    HW230426   1.510   2.070   9.361  1.4639  1.0725 -0.9529
 6264SOL     OW30427   2.147   1.459   9.459  0.1832 -0.2247 -0.7036
 6264SOL    HW130428   2.238   1.450   9.432  0.1776  0.6541 -1.0054
 6264SOL    HW230429   2.101   1.465   9.375 -2.0553 -1.2233  0.4504
 6265SOL     OW30430   4.337   4.364   3.963  0.3856 -0.0856  0.1785
 6265SOL    HW130431   4.262   4.423   3.963  1.3786  1.1861  2.0334
 6265SOL    HW230432   4.295   4.287   3.927  1.1931 -1.9551  3.1848
 6266SOL     OW30433   3.994   0.050   7.359 -0.2108  0.0690 -0.0021
 6266SOL    HW130434   4.000   0.014   7.447 -1.5804 -0.5918 -0.1822
 6266SOL    HW230435   4.010   0.143   7.376  1.9994  0.1205 -2.2120
 6267SOL     OW30436   2.916   1.574   3.869 -0.7501 -0.3041  0.5281
 6267SOL    HW130437   2.897   1.482   3.853  0.9539 -0.2389 -1.9646
 6267SOL    HW230438   2.974   1.566   3.944 -0.6573 -2.8021  0.2029
 6268SOL     OW30439   1.550   4.473   7.286 -0.0813 -0.1240 -0.2945
 6268SOL    HW130440   1.462   4.479   7.323 -0.1561 -0.5885 -0.3998
 6268SOL    HW230441   1.552   4.378   7.286 -0.2489 -0.1215 -1.1121
 6269SOL     OW30442   3.772   4.465   2.351 -0.1575 -0.3988 -0.0344
 6269SOL    HW130443   3.729   4.391   2.393 -1.7624  0.2479 -0.5411
 6269SOL    HW230444   3.732   4.451   2.266  0.0271  1.5571 -0.4500
 6270SOL     OW30445   0.866   3.292   7.937 -0.0185  0.0064  0.1413
 6270SOL    HW130446   0.930   3.360   7.957  1.5930 -2.4140  3.1700
 6270SOL    HW230447   0.791   3.321   7.988 -0.1243 -1.4149  0.8000
 6271SOL     OW30448   0.335   1.065   6.082  0.3800 -0.1271 -0.0407
 6271SOL    HW130449   0.421   1.101   6.058  0.2498  0.4257  0.3115
 6271SOL    HW230450   0.360   1.000   6.147  0.8082 -0.6263 -0.6967
 6272SOL     OW30451   3.659   2.004  11.887 -0.2982 -0.2146 -0.1535
 6272SOL    HW130452   3.633   1.912  11.876  0.5284 -0.5854  0.9962
 6272SOL    HW230453   3.705   2.016  11.804  0.3294 -1.2251  0.0537
 6273SOL     OW30454   1.146   2.066   2.853  0.2507  0.4019  0.0730
 6273SOL    HW130455   1.209   2.011   2.807 -1.9781 -0.3909 -2.0444
 6273SOL    HW230456   1.149   2.038   2.944  0.5031 -0.6097 -0.2560
 6274SOL     OW30457   4.059   4.628   7.581 -0.2498 -0.1164  0.4444
 6274SOL    HW130458   4.145   4.588   7.564 -0.6879 -0.6403 -0.5013
 6274SOL    HW230459   4.034   4.601   7.670  1.0750 -0.4129  0.7367
 6275SOL     OW30460   2.526   3.140   8.658 -0.2772 -0.4866 -0.5236
 6275SOL    HW130461   2.445   3.088   8.665 -0.9168  0.2672 -2.4237
 6275SOL    HW230462   2.481   3.220   8.631 -1.6892 -1.3740 -0.8270
 6276SOL     OW30463   2.684   3.700   9.756  0.5796  0.5086  0.0993
 6276SOL    HW130464   2.732   3.741   9.684 -0.3937 -0.1832 -0.9372
 6276SOL    HW230465   2.611   3.761   9.766 -0.0379 -0.0512 -0.9671
 6277SOL     OW30466   2.425   0.515   9.013 -0.3089  0.2640  0.5331
 6277SOL    HW130467   2.401   0.511   9.106  0.8603 -1.7210  0.7491
 6277SOL    HW230468   2.361   0.580   8.984 -0.9470 -0.8227 -0.4939
 6278SOL     OW30469   3.258   0.925  17.623  0.6281  1.0189  0.1677
 6278SOL    HW130470   3.232   0.848  17.674 -0.7811  2.2251  1.2725
 6278SOL    HW230471   3.353   0.922  17.621  0.5379 -1.0508 -1.1738
 6279SOL     OW30472   0.891   2.605   4.705  0.5590 -0.1710 -0.6416
 6279SOL    HW130473   0.966   2.568   4.752 -0.4180 -1.2389  0.0805
 6279SOL    HW230474   0.832   2.599   4.780  0.4966 -0.7051 -0.7394
 6280SOL     OW30475   4.649   3.751   5.487 -0.2460  0.4450 -0.0770
 6280SOL    HW130476   4.714   3.760   5.557  0.7892 -1.2521 -0.8186
 6280SOL    HW230477   4.666   3.664   5.452 -0.7578  0.0598  0.6363
 6281SOL     OW30478   1.136   4.557   0.374  0.2872 -0.0060 -0.2485
 6281SOL    HW130479   1.056   4.587   0.332  1.0202 -0.9288 -2.3077
 6281SOL    HW230480   1.188   4.545   0.294 -1.6027 -0.9306 -1.3310
 6282SOL     OW30481   4.680   2.785  12.629  0.3044  0.1446 -0.0682
 6282SOL    HW130482   4.698   2.692  12.616 -1.6708 -0.6706  2.9044
 6282SOL    HW230483   4.694   2.792  12.724 -2.1141  0.4631  0.2674
 6283SOL     OW30484   2.411   0.403   6.384 -0.0062 -0.7129 -0.0007
 6283SOL    HW130485   2.393   0.388   6.477 -2.4003 -0.8350 -0.5012
 6283SOL    HW230486   2.325   0.392   6.344  0.0032 -0.6435 -0.0399
 6284SOL     OW30487   2.181   0.902   4.740 -0.5675 -0.7038  0.0227
 6284SOL    HW130488   2.092   0.894   4.706 -0.3895 -2.1468 -0.1111
 6284SOL    HW230489   2.181   0.990   4.776 -0.0449 -1.4673  1.9172
 6285SOL     OW30490   0.909   0.139   8.622 -0.1889 -0.2039  1.0880
 6285SOL    HW130491   0.971   0.211   8.614  1.1236 -1.3787  0.7777
 6285SOL    HW230492   0.849   0.155   8.548  1.9271 -0.1299 -0.5985
 6286SOL     OW30493   1.416   0.069   6.186  0.3907  0.4641 -0.7857
 6286SOL    HW130494   1.346   0.010   6.215  1.2740 -0.1685  0.0294
 6286SOL    HW230495   1.401   0.062   6.091 -2.8585  0.4295 -0.2997
 6287SOL     OW30496   2.177   0.964  16.300  0.2892  0.7479  0.1269
 6287SOL    HW130497   2.141   0.959  16.211  0.9008  2.7987 -0.2190
 6287SOL    HW230498   2.115   1.022  16.344  0.3995  2.5122 -2.0534
 6288SOL     OW30499   3.924   1.197  11.781  0.1627  0.0274 -0.3308
 6288SOL    HW130500   3.882   1.111  11.767 -0.3826  0.0996  0.8641
 6288SOL    HW230501   3.908   1.211  11.874  2.0576  0.8908 -0.1461
 6289SOL     OW30502   3.170   3.518   8.020  0.6223 -0.3905  0.5612
 6289SOL    HW130503   3.148   3.574   7.945  0.6491 -2.3910 -0.9389
 6289SOL    HW230504   3.085   3.517   8.063 -0.1457 -0.8071 -0.9508
 6290SOL     OW30505   1.543   4.304  10.943 -0.2141 -0.0577 -0.1487
 6290SOL    HW130506   1.508   4.348  11.020 -1.9836  2.4736 -2.4066
 6290SOL    HW230507   1.634   4.333  10.946  0.1883 -1.3026 -0.5670
 6291SOL     OW30508   3.294   0.674   7.416 -0.2862  0.4912 -0.2732
 6291SOL    HW130509   3.363   0.651   7.479 -1.8597  2.6563  2.2410
 6291SOL    HW230510   3.325   0.763   7.403 -1.2247  1.1404  1.9079
 6292SOL     OW30511   1.180   1.056   7.098 -0.2284  0.1191  0.2039
 6292SOL    HW130512   1.163   1.078   7.006  1.3497  1.2570  0.1815
 6292SOL    HW230513   1.140   1.134   7.138 -0.0634 -0.5451  1.6547
 6293SOL     OW30514   4.225   1.465   4.826  0.0899 -0.2893  0.2782
 6293SOL    HW130515   4.149   1.461   4.884  0.0836 -1.6661  0.1777
 6293SOL    HW230516   4.209   1.385   4.776 -0.0001 -0.5279  0.6978
 6294SOL     OW30517   2.205   3.115  11.272 -0.0343  0.2187 -0.0729
 6294SOL    HW130518   2.295   3.098  11.298  0.9160  2.8546 -1.5817
 6294SOL    HW230519   2.151   3.085  11.345 -0.8116  2.0592  0.1249
 6295SOL     OW30520   2.734   3.136   7.218 -0.4995  0.4938  0.6500
 6295SOL    HW130521   2.730   3.050   7.176 -0.2811  1.5615 -1.5714
 6295SOL    HW230522   2.692   3.130   7.303  1.3190 -0.8138  1.4570
 6296SOL     OW30523   3.198   2.968   1.157 -0.0757  0.1353  0.1284
 6296SOL    HW130524   3.267   3.033   1.173 -0.6120  1.0264 -1.1406
 6296SOL    HW230525   3.187   2.973   1.062 -0.7662  3.3409  0.3658
 6297SOL     OW30526   4.445   3.977   6.974  0.2917 -0.1177 -0.1580
 6297SOL    HW130527   4.446   4.063   7.015  0.8753  0.7573 -1.9999
 6297SOL    HW230528   4.392   3.933   7.041 -0.3399 -2.1478 -1.9857
 6298SOL     OW30529   4.034   1.383   4.613 -0.5284  0.2017 -0.2342
 6298SOL    HW130530   4.013   1.471   4.583  0.4177 -0.6553 -3.3626
 6298SOL    HW230531   3.961   1.375   4.676  0.6193  0.6092  1.1400
 6299SOL     OW30532   2.196   1.295  16.221  0.1960 -0.3130 -0.2619
 6299SOL    HW130533   2.116   1.286  16.169 -0.1816 -0.3269  0.3293
 6299SOL    HW230534   2.164   1.273  16.308 -2.0787 -0.3430 -1.1018
 6300SOL     OW30535   2.413   0.335   7.219 -0.0597  0.2087  0.1504
 6300SOL    HW130536   2.369   0.265   7.171 -0.7484 -0.7361  2.2028
 6300SOL    HW230537   2.476   0.373   7.157  1.6892 -1.1511  1.0831
 6301SOL     OW30538   4.448   3.107   2.958  0.4249 -0.2697 -0.3474
 6301SOL    HW130539   4.461   3.018   2.990  2.7611  0.4292  0.6204
 6301SOL    HW230540   4.480   3.098   2.869  1.5804 -2.5443  0.3234
 6302SOL     OW30541   3.430   1.262   8.002 -0.0118  0.4037  0.5922
 6302SOL    HW130542   3.513   1.305   7.983 -0.4106  0.3832 -1.1798
 6302SOL    HW230543   3.456   1.171   8.018 -1.5497 -0.4874 -2.0077
 6303SOL     OW30544   3.623   2.647   7.876  0.5311 -0.5096 -0.2751
 6303SOL    HW130545   3.621   2.555   7.851  1.2793 -0.8517  0.9382
 6303SOL    HW230546   3.708   2.640   7.918  0.3510  1.2708  0.3972
 6304SOL     OW30547   2.949   0.305   1.176  0.0805  0.6520  0.3795
 6304SOL    HW130548   3.013   0.254   1.126  0.7719  0.6816  1.2214
 6304SOL    HW230549   3.002   0.310   1.255  1.2611 -0.9788 -0.3122
 6305SOL     OW30550   2.914   2.183  14.258  0.2582 -0.3057  0.1168
 6305SOL    HW130551   2.933   2.244  14.329 -1.4451  1.4386 -0.9244
 6305SOL    HW230552   2.967   2.221  14.189 -2.6424  1.6850 -1.0165
 6306SOL     OW30553   1.303   3.862   5.879 -0.5048 -0.5709 -0.3337
 6306SOL    HW130554   1.298   3.801   5.805  0.0263 -1.0675  0.0405
 6306SOL    HW230555   1.395   3.887   5.873 -0.3714 -0.7369  1.0507
 6307SOL     OW30556   0.679   1.544   3.462 -0.5543  0.7588  0.1584
 6307SOL    HW130557   0.639   1.631   3.470 -0.9526  0.6720 -0.7878
 6307SOL    HW230558   0.664   1.521   3.553 -0.1949 -0.9102 -0.2118
 6308SOL     OW30559   4.105   4.275   1.654 -0.0783 -0.4996 -0.4560
 6308SOL    HW130560   4.098   4.300   1.746  1.4305  0.7359 -0.6696
 6308SOL    HW230561   4.198   4.298   1.650  0.4692 -2.8072 -1.2921
 6309SOL     OW30562   3.141   3.610   4.658  0.8691  0.8849  0.0364
 6309SOL    HW130563   3.094   3.632   4.738 -2.9567 -1.5921 -1.5252
 6309SOL    HW230564   3.210   3.676   4.651 -0.5589  2.3734  0.0591
 6310SOL     OW30565   0.139   3.967  11.953 -0.1987  0.3597 -0.1734
 6310SOL    HW130566   0.178   3.901  12.010  1.3113  0.9345 -0.5422
 6310SOL    HW230567   0.050   3.973  11.986 -0.5003 -1.6090 -0.6297
 6311SOL     OW30568   2.617   0.184   7.289  0.0763 -0.1612 -0.2759
 6311SOL    HW130569   2.672   0.260   7.269 -1.0902  0.7699  0.0453
 6311SOL    HW230570   2.533   0.229   7.297 -1.2806 -2.3629 -1.8041
 6312SOL     OW30571   2.996   1.924   8.530  0.5168 -0.0101 -0.0310
 6312SOL    HW130572   2.939   1.892   8.600  1.0192 -0.6442  0.0913
 6312SOL    HW230573   2.933   1.917   8.458 -1.3876  2.6727  1.4035
 6313SOL     OW30574   4.306   3.081   7.030 -0.1937  0.0135 -0.2865
 6313SOL    HW130575   4.292   3.058   6.938 -0.8516 -1.3056  0.1447
 6313SOL    HW230576   4.238   3.036   7.081  0.6241  0.9311  1.5650
 6314SOL     OW30577   1.038   2.739   3.315  0.4794  0.2299 -0.9189
 6314SOL    HW130578   1.096   2.803   3.275  1.6176  0.6650  1.4234
 6314SOL    HW230579   1.094   2.665   3.338  0.8697  1.3340  1.6029
 6315SOL     OW30580   1.936   3.494   3.525 -0.1555 -0.1030  0.1814
 6315SOL    HW130581   1.852   3.450   3.534 -0.1994  0.0755  0.6403
 6315SOL    HW230582   1.924   3.578   3.568 -1.6592 -0.9526  1.4165
 6316SOL     OW30583   3.577   3.854  12.040  0.5016 -0.3304  0.1288
 6316SOL    HW130584   3.549   3.796  12.111 -1.4074  0.8824  0.3604
 6316SOL    HW230585   3.646   3.804  11.997 -0.8559 -0.3782 -1.9792
 6317SOL     OW30586   2.050   1.531   5.068  0.4068 -0.4456  0.4537
 6317SOL    HW130587   2.028   1.577   4.987 -0.6127  0.2480  1.1302
 6317SOL    HW230588   2.139   1.557   5.092 -0.4210  1.5730  1.3500
 6318SOL     OW30589   2.436   4.003   7.391 -0.3284 -0.0116  0.0765
 6318SOL    HW130590   2.368   3.942   7.363  0.3148  0.5884 -2.7980
 6318SOL    HW230591   2.399   4.019   7.477  4.1198  0.4799  1.9105
 6319SOL     OW30592   2.261   2.738  15.714  0.3791 -0.6919 -0.2843
 6319SOL    HW130593   2.323   2.716  15.644  0.4737  1.2994 -0.8264
 6319SOL    HW230594   2.243   2.828  15.689  1.5605 -0.8573 -1.7354
 6320SOL     OW30595   4.445   1.748  13.204  0.0654  0.0894 -0.3020
 6320SOL    HW130596   4.363   1.748  13.155 -0.5847 -1.5229  0.7856
 6320SOL    HW230597   4.499   1.783  13.133 -2.7428  2.8804 -1.0858
 6321SOL     OW30598   2.234   2.858  10.679  0.0147 -0.0379 -0.1058
 6321SOL    HW130599   2.317   2.872  10.633  0.1299  1.5171  0.5677
 6321SOL    HW230600   2.239   2.925  10.747  1.1271 -0.8344  0.5928
 6322SOL     OW30601   4.033   0.382   2.071 -0.0805  0.1747 -0.3333
 6322SOL    HW130602   4.073   0.316   2.127  1.5732  0.6987 -0.8961
 6322SOL    HW230603   4.003   0.325   2.000  2.5466  0.6865 -1.8732
 6323SOL     OW30604   4.397   2.725   6.544 -0.5404 -0.2388 -0.1274
 6323SOL    HW130605   4.382   2.819   6.535 -3.8122 -0.8809 -1.4976
 6323SOL    HW230606   4.426   2.718   6.635  0.9597 -0.7322 -0.6389
 6324SOL     OW30607   2.178   0.798   6.761 -0.0300  0.4438  0.3746
 6324SOL    HW130608   2.243   0.840   6.705  1.1628 -0.8218  0.8059
 6324SOL    HW230609   2.181   0.709   6.726  0.6485  1.0323 -1.0527
 6325SOL     OW30610   1.002   3.039   8.026 -0.4432 -0.0829 -0.1151
 6325SOL    HW130611   0.963   3.043   8.114 -2.4078 -2.9211 -0.8607
 6325SOL    HW230612   0.952   3.110   7.985 -0.7251 -1.0816 -1.5175
 6326SOL     OW30613   2.847   1.688   5.332  0.3329 -0.3015 -0.4034
 6326SOL    HW130614   2.883   1.756   5.388 -0.1963 -1.3155  1.1465
 6326SOL    HW230615   2.925   1.639   5.306  1.9058  1.6752  0.7030
 6327SOL     OW30616   2.548   3.592   4.298 -0.1851  0.5216 -0.4311
 6327SOL    HW130617   2.616   3.561   4.237  0.8027 -1.7893  1.8722
 6327SOL    HW230618   2.587   3.677   4.317  0.4850  0.2729 -0.6700
 6328SOL     OW30619   2.581   2.550   3.806 -0.0373  1.0387 -0.3602
 6328SOL    HW130620   2.499   2.581   3.769 -0.8882  0.4626  1.0461
 6328SOL    HW230621   2.583   2.590   3.893  1.1990  1.3533 -0.5319
 6329SOL     OW30622   0.187   0.484   1.593  0.0062  0.2733  0.3428
 6329SOL    HW130623   0.127   0.552   1.562  0.1855 -0.3469 -1.3175
 6329SOL    HW230624   0.271   0.508   1.553  0.0495 -3.4157 -1.7839
 6330SOL     OW30625   1.799   0.864   6.766 -0.4092  0.4912  0.3320
 6330SOL    HW130626   1.824   0.889   6.676 -0.4131 -0.7950 -0.0321
 6330SOL    HW230627   1.705   0.848   6.761  0.1496 -2.5383 -0.4044
 6331SOL     OW30628   2.021   1.013   9.250 -0.2092 -0.4649 -0.4547
 6331SOL    HW130629   1.951   1.070   9.284  1.3664 -0.0126  2.0432
 6331SOL    HW230630   2.098   1.069   9.238  1.1518 -2.6133 -1.6601
 6332SOL     OW30631   2.969   2.494   8.755  0.2276  0.5887 -0.2916
 6332SOL    HW130632   2.902   2.446   8.705 -1.3947  1.1021  1.3867
 6332SOL    HW230633   3.045   2.500   8.697 -0.0924  1.9405 -0.5627
 6333SOL     OW30634   3.356   2.511   9.295 -0.2653 -0.2856 -0.1795
 6333SOL    HW130635   3.415   2.584   9.278 -0.3108 -0.0132  0.8098
 6333SOL    HW230636   3.392   2.436   9.249  0.6302  0.0519 -0.0176
 6334SOL     OW30637   4.101   1.774   0.826  0.1185  0.3150  0.0695
 6334SOL    HW130638   4.117   1.832   0.751 -1.6631 -1.3788 -1.6240
 6334SOL    HW230639   4.101   1.694   0.773 -0.1042  1.5292 -1.7679
 6335SOL     OW30640   2.197   0.793   2.646  0.0687 -0.2408 -0.1030
 6335SOL    HW130641   2.135   0.802   2.719 -1.2646  1.2665 -1.4438
 6335SOL    HW230642   2.223   0.885   2.643 -1.0214  0.0804  0.2729
 6336SOL     OW30643   4.338   2.905   2.143  0.4769 -0.0081  0.2004
 6336SOL    HW130644   4.364   2.988   2.102  1.3201 -0.0118  0.7359
 6336SOL    HW230645   4.277   2.935   2.210 -0.5522 -2.1695  0.2177
 6337SOL     OW30646   3.483   1.641   2.296 -0.0586  0.1014  0.5381
 6337SOL    HW130647   3.493   1.556   2.337  0.3763 -0.0905  0.0366
 6337SOL    HW230648   3.404   1.678   2.336 -0.5541  0.8819 -1.1156
 6338SOL     OW30649   3.143   2.754   9.802  0.0548  0.8697 -0.1168
 6338SOL    HW130650   3.054   2.742   9.835  0.5513  2.2032  1.6521
 6338SOL    HW230651   3.132   2.741   9.707 -1.3410 -0.7980  0.2794
 6339SOL     OW30652   3.752   3.905   3.598  0.1639 -0.2175 -0.0645
 6339SOL    HW130653   3.778   3.889   3.507 -2.2293 -4.0361 -0.0775
 6339SOL    HW230654   3.667   3.864   3.587 -0.0832  0.1093  0.6138
 6340SOL     OW30655   2.447   2.399   2.737 -0.2108  0.7575  0.6051
 6340SOL    HW130656   2.538   2.411   2.765  0.7862 -2.9435 -1.1023
 6340SOL    HW230657   2.464   2.338   2.666  0.0025  1.4464  0.0695
 6341SOL     OW30658   1.423   2.490  11.914 -0.1275 -0.7449  0.7458
 6341SOL    HW130659   1.352   2.449  11.964 -1.0488  0.1956  0.2024
 6341SOL    HW230660   1.451   2.422  11.853  2.8893 -1.0207  2.4984
 6342SOL     OW30661   0.613   0.555   8.316  0.2533 -0.2572  0.2554
 6342SOL    HW130662   0.559   0.531   8.391 -0.4369  0.3710 -0.0373
 6342SOL    HW230663   0.691   0.577   8.366 -0.7175  0.2085  1.5667
 6343SOL     OW30664   2.436   1.809   2.175  0.1476 -0.5234 -0.2304
 6343SOL    HW130665   2.470   1.803   2.086  0.2381  0.1318 -0.2428
 6343SOL    HW230666   2.354   1.764   2.155  0.1429 -1.6249  2.2458
 6344SOL     OW30667   1.424   2.252   8.475 -0.0200 -0.3843  0.2434
 6344SOL    HW130668   1.392   2.194   8.406 -1.9616 -0.0556  0.8715
 6344SOL    HW230669   1.364   2.232   8.547  1.1901 -1.9494  0.8105
 6345SOL     OW30670   2.570   2.912  12.452  0.8528  0.0135 -0.3108
 6345SOL    HW130671   2.605   2.964  12.380  1.0939  1.2233  0.6931
 6345SOL    HW230672   2.564   2.973  12.526  0.6977  1.9205 -1.8853
 6346SOL     OW30673   0.941   3.736  11.667  0.1601  0.0479 -0.4220
 6346SOL    HW130674   0.858   3.722  11.713 -0.0695  2.4609 -0.0843
 6346SOL    HW230675   0.915   3.757  11.577  0.9852 -1.7636 -1.0770
 6347SOL     OW30676   4.189   3.399   7.058 -0.5624 -0.3128  0.1825
 6347SOL    HW130677   4.229   3.422   7.142 -0.5286 -0.2222  0.1416
 6347SOL    HW230678   4.131   3.474   7.046 -0.5102 -0.6024 -1.8910
 6348SOL     OW30679   2.918   0.680   7.336  0.2308 -0.5661 -0.0002
 6348SOL    HW130680   2.898   0.607   7.395  0.5697 -0.0333  0.7751
 6348SOL    HW230681   2.836   0.681   7.287  1.0403  0.7532 -1.3061
 6349SOL     OW30682   4.732   0.929   3.331  0.4657  0.7493  0.2557
 6349SOL    HW130683   4.694   0.842   3.318  4.0652 -0.8576  0.3671
 6349SOL    HW230684   0.084   0.895   3.332  0.1279 -0.0800  2.5569
 6350SOL     OW30685   4.268   2.705   2.556  0.0244  0.3235  0.2731
 6350SOL    HW130686   4.235   2.615   2.568  1.3549 -0.7551 -4.1548
 6350SOL    HW230687   4.301   2.702   2.466  0.6564  2.1108  0.4522
 6351SOL     OW30688   3.797   0.652  13.033 -0.2536  0.5934 -0.2953
 6351SOL    HW130689   3.727   0.712  13.061  0.4665  1.4417 -0.3121
 6351SOL    HW230690   3.818   0.611  13.117  1.7380  1.7486 -0.2328
 6352SOL     OW30691   4.737   4.257   4.634 -0.1909 -0.2320 -0.0551
 6352SOL    HW130692   0.056   4.334   4.626  0.7617 -0.9931 -0.6395
 6352SOL    HW230693   0.004   4.216   4.547  0.5362  0.9777 -0.5945
 6353SOL     OW30694   0.080   0.920   2.119 -0.3194  0.0652 -0.3402
 6353SOL    HW130695   0.086   0.894   2.211 -0.8446 -1.1418 -0.6417
 6353SOL    HW230696   0.021   0.996   2.121 -1.2892 -0.6923  0.1353
 6354SOL     OW30697   3.465   2.383   1.745 -0.1766  0.6779  0.7009
 6354SOL    HW130698   3.494   2.458   1.694 -2.0272 -1.1813 -3.1006
 6354SOL    HW230699   3.521   2.310   1.716  2.3278  2.5168  0.9508
 6355SOL     OW30700   0.605   1.836  10.126 -0.0024  0.0720 -0.0738
 6355SOL    HW130701   0.567   1.923  10.134 -0.0790  0.0155  0.1700
 6355SOL    HW230702   0.606   1.841  10.030  1.1866  2.6978  0.0622
 6356SOL     OW30703   0.531   4.520   8.087  0.4883  0.3499  0.2060
 6356SOL    HW130704   0.479   4.592   8.052 -1.3699 -0.4527  1.2763
 6356SOL    HW230705   0.600   4.513   8.021 -0.1582 -0.6226 -0.3831
 6357SOL     OW30706   0.082   1.273   3.407 -0.0970  0.1947  0.1258
 6357SOL    HW130707   0.172   1.294   3.432  0.3821  0.1078 -1.5492
 6357SOL    HW230708   0.038   1.271   3.492 -0.2679 -1.5166  0.0063
 6358SOL     OW30709   4.397   0.267  17.440 -0.5626 -0.3286 -1.1519
 6358SOL    HW130710   4.377   0.226  17.524 -2.5887  0.7776 -1.0955
 6358SOL    HW230711   4.483   0.232  17.416 -0.4670 -0.6527 -0.3178
 6359SOL     OW30712   3.440   2.491   5.773  0.1025  0.1700 -0.1738
 6359SOL    HW130713   3.491   2.443   5.838 -1.2354  0.6248  1.2292
 6359SOL    HW230714   3.434   2.578   5.813 -0.1660 -0.7491  1.7924
 6360SOL     OW30715   2.875   3.358   3.342  0.2824  0.1596  0.0412
 6360SOL    HW130716   2.969   3.372   3.328  0.0986  0.8415 -0.5364
 6360SOL    HW230717   2.873   3.346   3.437  0.8257  1.9985  0.3005
 6361SOL     OW30718   1.439   1.897   6.781 -0.0074  0.5400  0.4870
 6361SOL    HW130719   1.374   1.893   6.851 -1.0953 -2.5950 -0.6981
 6361SOL    HW230720   1.420   1.971   6.723 -0.1569  1.3340  1.5526
 6362SOL     OW30721   1.866   4.253   4.606 -0.2776 -0.1173 -0.0247
 6362SOL    HW130722   1.889   4.257   4.514  1.4640  0.3956  0.4242
 6362SOL    HW230723   1.771   4.253   4.598 -0.3395  1.2214  0.7271
 6363SOL     OW30724   4.248   0.867   3.346 -0.3115 -0.1379  0.4878
 6363SOL    HW130725   4.189   0.840   3.416 -1.1543 -0.4656 -0.3471
 6363SOL    HW230726   4.326   0.813   3.362 -1.4333 -0.8735  3.3704
 6364SOL     OW30727   0.937   3.149  15.500  0.0572 -0.3082  0.3858
 6364SOL    HW130728   0.995   3.124  15.428 -0.5611  0.4059 -0.3609
 6364SOL    HW230729   0.867   3.191  15.450  0.4160  0.2516  0.3554
 6365SOL     OW30730   1.269   2.435  11.529  0.3996 -0.2383 -0.1070
 6365SOL    HW130731   1.237   2.459  11.442  0.7225 -0.5338 -0.3068
 6365SOL    HW230732   1.324   2.507  11.561  0.7888 -0.7166  0.2776
 6366SOL     OW30733   0.073   1.475   3.857 -0.7171  0.1023  0.6926
 6366SOL    HW130734   0.164   1.468   3.884 -1.1971 -1.5934  1.8624
 6366SOL    HW230735   0.066   1.564   3.824  3.7342  0.3310  0.4677
 6367SOL     OW30736   2.437   0.046   4.959  0.5394  0.0195  0.3338
 6367SOL    HW130737   2.429   4.694   4.925  2.4876 -0.4742  1.1664
 6367SOL    HW230738   2.431   0.030   5.053  1.9005 -0.3585  0.3662
 6368SOL     OW30739   4.388   0.669   5.731 -0.2569  0.3033 -0.3519
 6368SOL    HW130740   4.385   0.667   5.635 -0.2921  0.4859 -0.3544
 6368SOL    HW230741   4.424   0.757   5.746  1.8183 -0.8041  1.2641
 6369SOL     OW30742   1.522   0.638  14.997 -0.4713  0.0413 -0.5412
 6369SOL    HW130743   1.554   0.554  14.964  1.9526  1.0742 -0.8058
 6369SOL    HW230744   1.492   0.679  14.915 -0.1671  0.5792 -0.3813
 6370SOL     OW30745   0.599   4.009   1.786 -0.1770 -0.2108 -0.0698
 6370SOL    HW130746   0.659   3.942   1.819  0.8250 -0.5047 -2.4413
 6370SOL    HW230747   0.553   3.951   1.726  0.6889 -0.3034 -0.6445
 6371SOL     OW30748   1.819   3.425   7.460 -0.0640 -0.1787  0.1903
 6371SOL    HW130749   1.781   3.355   7.514 -1.5064 -0.8439 -1.6828
 6371SOL    HW230750   1.744   3.453   7.408 -0.1952 -0.3397  0.2931
 6372SOL     OW30751   2.865   3.120   7.788 -0.3639 -0.5105  0.3300
 6372SOL    HW130752   2.870   3.156   7.699  0.7491  1.2041  1.0779
 6372SOL    HW230753   2.771   3.105   7.793 -0.4882 -0.1428 -0.9237
 6373SOL     OW30754   0.176   2.218  15.579 -0.0145  0.3605  0.0117
 6373SOL    HW130755   0.246   2.210  15.513  0.3484 -0.7797  0.5389
 6373SOL    HW230756   0.218   2.204  15.664  1.0693 -0.3685 -0.6432
 6374SOL     OW30757   2.046   4.145   6.063  0.7073  0.2328  0.4986
 6374SOL    HW130758   2.007   4.189   6.139 -2.1196 -2.6628  0.7093
 6374SOL    HW230759   2.096   4.071   6.097 -0.5131 -1.4925 -1.4817
 6375SOL     OW30760   4.487   0.743   1.050 -0.3075  0.1065 -0.2292
 6375SOL    HW130761   4.439   0.684   0.992  0.1928 -0.1392 -0.4010
 6375SOL    HW230762   4.521   0.675   1.108 -2.5146  1.2256  2.3362
 6376SOL     OW30763   2.780   2.208   9.663 -0.3651  0.0342  1.1120
 6376SOL    HW130764   2.726   2.237   9.737  1.5554  0.2392  2.4475
 6376SOL    HW230765   2.861   2.247   9.697  0.1715 -0.1135  0.0009
 6377SOL     OW30766   3.957   2.405   2.196 -0.0647  0.1685 -0.2389
 6377SOL    HW130767   3.896   2.441   2.261  0.5354  3.5919 -1.5711
 6377SOL    HW230768   4.022   2.475   2.187 -0.1651  0.0724 -1.7265
 6378SOL     OW30769   2.901   2.859   2.896  0.4792 -0.5266  0.2090
 6378SOL    HW130770   2.990   2.832   2.919 -0.8693 -0.9314  4.8855
 6378SOL    HW230771   2.851   2.818   2.966  1.8920  0.8638  2.0155
 6379SOL     OW30772   2.537   3.690   8.945 -0.2611 -0.7094 -0.2394
 6379SOL    HW130773   2.568   3.639   8.870 -2.2915 -1.5038 -0.5509
 6379SOL    HW230774   2.445   3.712   8.931  0.3051  1.2547 -0.8050
 6380SOL     OW30775   4.220   1.392   3.459  0.5119  0.2138  1.0235
 6380SOL    HW130776   4.309   1.418   3.435  0.8129 -1.3274  0.4571
 6380SOL    HW230777   4.169   1.377   3.379 -1.5213  1.3345  2.1245
 6381SOL     OW30778   2.005   2.775   0.735 -0.0129  0.4229  0.0818
 6381SOL    HW130779   1.943   2.759   0.806  0.2674  0.5711  0.3615
 6381SOL    HW230780   2.061   2.831   0.788  2.6630 -3.3686  1.2662
 6382SOL     OW30781   4.614   0.825   4.693  0.3082  0.1918  0.3617
 6382SOL    HW130782   4.671   0.899   4.674 -1.4779  1.8776  1.5877
 6382SOL    HW230783   4.535   0.871   4.665  0.1412 -1.7676 -2.5005
 6383SOL     OW30784   1.041   0.930   4.958  0.4312 -0.3239 -0.0326
 6383SOL    HW130785   1.001   0.875   4.890  0.9909  0.2442 -0.8267
 6383SOL    HW230786   1.129   0.930   4.920 -0.0411 -0.5489 -1.1443
 6384SOL     OW30787   0.158   2.479   5.455  0.5978  0.4214  0.0640
 6384SOL    HW130788   0.238   2.462   5.405 -0.5415 -0.9744 -1.2626
 6384SOL    HW230789   0.100   2.520   5.392  4.5647  1.0068 -3.1886
 6385SOL     OW30790   3.565   1.596   1.445  0.2754 -0.2651  0.1403
 6385SOL    HW130791   3.490   1.560   1.398 -0.3784  0.1144  0.9154
 6385SOL    HW230792   3.517   1.654   1.503 -0.5454 -0.9780  0.1668
 6386SOL     OW30793   4.329   2.485   3.098 -0.3679 -0.6572 -0.4546
 6386SOL    HW130794   4.341   2.513   3.007 -1.2993 -1.8292 -0.9289
 6386SOL    HW230795   4.417   2.499   3.134 -0.4754 -1.6457  0.1916
 6387SOL     OW30796   2.671   1.796   8.801  0.5348 -0.1326  0.2626
 6387SOL    HW130797   2.581   1.800   8.833  1.0457  1.0185  1.5529
 6387SOL    HW230798   2.723   1.788   8.881  2.2686 -0.5114 -0.9074
 6388SOL     OW30799   3.698   4.336   3.133  0.3915  0.3181  0.3225
 6388SOL    HW130800   3.768   4.401   3.126  1.2484 -0.3421  2.5579
 6388SOL    HW230801   3.659   4.354   3.218  0.7863  0.8817  0.3846
 6389SOL     OW30802   4.154   0.657   8.583 -0.1671  0.4050 -0.3561
 6389SOL    HW130803   4.242   0.656   8.622 -1.0877 -2.9375  1.6502
 6389SOL    HW230804   4.154   0.562   8.573 -0.7188  0.4109 -0.4252
 6390SOL     OW30805   0.545   3.338   5.488  0.3842 -0.2553  0.0919
 6390SOL    HW130806   0.603   3.304   5.419 -0.0295 -0.0387 -0.3598
 6390SOL    HW230807   0.458   3.309   5.461  1.6412 -1.1421 -3.0673
 6391SOL     OW30808   2.105   1.552   8.142 -0.0742 -0.1649 -0.0852
 6391SOL    HW130809   2.101   1.602   8.223 -2.3600 -1.3488  0.5562
 6391SOL    HW230810   2.073   1.463   8.161  1.4734  0.0525  3.5511
 6392SOL     OW30811   2.589   0.393  11.611  0.3622  0.5044 -0.1459
 6392SOL    HW130812   2.526   0.451  11.568  0.1890 -0.1147 -0.7421
 6392SOL    HW230813   2.560   0.396  11.702 -1.7035 -2.2339 -0.6898
 6393SOL     OW30814   0.623   2.601   8.344 -0.6783  0.6591  0.0941
 6393SOL    HW130815   0.696   2.660   8.324 -1.6053  1.0990 -2.0211
 6393SOL    HW230816   0.598   2.641   8.427  1.8169  0.9939  0.6735
 6394SOL     OW30817   3.771   4.441  13.018  0.2079  0.2407  0.1487
 6394SOL    HW130818   3.683   4.480  13.026  0.4940  0.8355  0.4140
 6394SOL    HW230819   3.783   4.442  12.923  0.1986 -0.3560  0.1427
 6395SOL     OW30820   2.481   3.677  10.080 -0.1268  1.1238 -0.0577
 6395SOL    HW130821   2.440   3.752  10.123 -1.3349  0.4433 -0.0418
 6395SOL    HW230822   2.433   3.668   9.998  0.6888 -1.0290 -0.3111
 6396SOL     OW30823   2.816   0.070   2.170 -0.7240 -0.4932  0.6792
 6396SOL    HW130824   2.795   0.138   2.234 -1.7235 -0.4085  0.2639
 6396SOL    HW230825   2.737   0.016   2.179 -0.3171 -1.0559  0.8261
 6397SOL     OW30826   0.810   0.899  10.784  0.6146 -0.0348  0.3946
 6397SOL    HW130827   0.772   0.977  10.824 -1.0039  0.6930 -2.5562
 6397SOL    HW230828   0.734   0.841  10.797 -1.1636  1.8902 -1.4707
 6398SOL     OW30829   2.386   4.671   1.317  0.7663 -0.0510 -0.3858
 6398SOL    HW130830   2.441   4.714   1.383  1.1620 -0.8839 -0.1605
 6398SOL    HW230831   2.342   4.607   1.374  0.3437 -1.6513 -2.5346
 6399SOL     OW30832   3.347   0.573   2.435 -0.8268  0.5488  0.4945
 6399SOL    HW130833   3.355   0.520   2.356 -2.7704  2.0788 -0.7241
 6399SOL    HW230834   3.385   0.517   2.502 -1.9498  2.5011  2.7529
 6400SOL     OW30835   2.407   4.421   5.176  0.3108  0.2252 -0.2701
 6400SOL    HW130836   2.388   4.513   5.196  2.8508  0.2886  1.7482
 6400SOL    HW230837   2.346   4.403   5.105 -0.1602 -0.8907  0.4106
 6401SOL     OW30838   0.307   0.990  10.420  0.1704  0.2162  0.0646
 6401SOL    HW130839   0.328   1.074  10.378  0.5185  0.1209  0.0450
 6401SOL    HW230840   0.302   0.930  10.345  0.9998  0.3778 -0.1243
 6402SOL     OW30841   1.196   0.288   8.474 -0.0445  0.4315 -0.4847
 6402SOL    HW130842   1.130   0.329   8.530 -0.6385  0.2432 -1.0375
 6402SOL    HW230843   1.144   0.261   8.398  0.5877 -0.4008 -0.6192
 6403SOL     OW30844   2.362   2.403   1.636 -0.2882 -0.3238  0.6896
 6403SOL    HW130845   2.306   2.463   1.587  0.7345  0.3541  0.3530
 6403SOL    HW230846   2.337   2.322   1.591 -0.8257  1.4263 -2.1468
 6404SOL     OW30847   2.373   2.086   5.970 -0.1173 -0.5381  0.0689
 6404SOL    HW130848   2.279   2.102   5.960 -0.3622 -0.4678  2.6967
 6404SOL    HW230849   2.407   2.099   5.881  2.2538 -3.2551  0.5962
 6405SOL     OW30850   0.740   4.454   6.377 -0.0627  0.4989 -1.1604
 6405SOL    HW130851   0.711   4.523   6.318  0.5292  0.5674 -1.3719
 6405SOL    HW230852   0.660   4.401   6.381  0.0641  0.3124 -1.1167
 6406SOL     OW30853   3.010   4.059   3.773 -0.0126  0.6205 -0.0389
 6406SOL    HW130854   3.045   4.002   3.842 -2.4945 -1.9652 -0.9193
 6406SOL    HW230855   2.977   4.114   3.844 -1.0183  3.3595 -2.6430
 6407SOL     OW30856   0.557   1.298  15.406 -0.8456  0.1865 -0.3066
 6407SOL    HW130857   0.639   1.281  15.452 -0.3082 -0.0415 -1.3432
 6407SOL    HW230858   0.499   1.257  15.470 -0.6613  1.9996  1.0127
 6408SOL     OW30859   2.198   1.183   3.014 -0.0328 -0.1223 -0.1550
 6408SOL    HW130860   2.114   1.137   3.003  0.1580 -1.0210  2.0801
 6408SOL    HW230861   2.261   1.119   2.980 -0.1589  0.9570 -2.3798
 6409SOL     OW30862   4.248   3.736   9.127  0.5999  0.5135  0.0378
 6409SOL    HW130863   4.263   3.653   9.172 -1.1178  2.4890  4.2513
 6409SOL    HW230864   4.329   3.737   9.076  1.4193 -1.4757  1.3028
 6410SOL     OW30865   2.927   2.733  13.637 -0.1827 -0.4926 -0.3721
 6410SOL    HW130866   2.994   2.799  13.617 -2.2293  1.9263  0.6893
 6410SOL    HW230867   2.848   2.783  13.616 -0.5535 -0.6470  0.6399
 6411SOL     OW30868   4.489   3.990  13.689  0.5789  0.2717 -0.1604
 6411SOL    HW130869   4.463   4.033  13.607 -0.7022  1.5415  0.9187
 6411SOL    HW230870   4.412   4.016  13.739  1.2104 -2.3293  2.1613
 6412SOL     OW30871   3.906   1.040   3.832  0.5964 -0.1607  0.3656
 6412SOL    HW130872   3.977   1.012   3.774 -0.0321  1.5453 -1.2354
 6412SOL    HW230873   3.903   1.136   3.826  0.7983 -0.2715 -1.3801
 6413SOL     OW30874   3.613   3.635  12.197 -0.1850 -0.1695 -0.2103
 6413SOL    HW130875   3.695   3.594  12.170 -0.0735 -0.4694  0.5900
 6413SOL    HW230876   3.557   3.558  12.197 -0.1909 -0.1625 -0.4966
 6414SOL     OW30877   2.559   0.895   0.485 -0.0589  0.6667  0.3132
 6414SOL    HW130878   2.541   0.974   0.535  0.7428  1.2136 -0.2757
 6414SOL    HW230879   2.469   0.864   0.473 -0.2225  1.3451 -0.1957
 6415SOL     OW30880   3.342   2.506  15.458 -0.2396  0.1134  0.2212
 6415SOL    HW130881   3.395   2.471  15.387 -0.6889  0.0320 -0.0755
 6415SOL    HW230882   3.408   2.512  15.527 -0.3161  1.3131  0.1790
 6416SOL     OW30883   0.465   0.827   6.914  0.4639  0.5206  0.0766
 6416SOL    HW130884   0.449   0.755   6.975 -1.1582  0.9207  0.1273
 6416SOL    HW230885   0.465   0.775   6.833 -0.2035  2.8851 -1.4532
 6417SOL     OW30886   3.402   2.326  13.281 -0.1135 -0.5561  0.2679
 6417SOL    HW130887   3.347   2.336  13.359 -1.0740 -3.7037 -0.0401
 6417SOL    HW230888   3.469   2.268  13.317 -0.3317 -0.3175  1.0563
 6418SOL     OW30889   0.412   4.425   3.652 -0.3946 -0.0621  0.8510
 6418SOL    HW130890   0.475   4.494   3.630 -0.8247  0.0526 -0.0198
 6418SOL    HW230891   0.455   4.381   3.725 -0.2290 -0.0159  0.7816
 6419SOL     OW30892   2.628   3.567   6.040  0.3313 -0.1404 -0.4572
 6419SOL    HW130893   2.634   3.652   6.084  0.0702 -1.0109  1.2808
 6419SOL    HW230894   2.673   3.593   5.960  1.9828  1.2137  0.8968
 6420SOL     OW30895   4.039   2.672   1.731  0.3660 -0.1822  0.0570
 6420SOL    HW130896   3.993   2.736   1.676 -2.0868 -0.2936  2.0234
 6420SOL    HW230897   4.082   2.739   1.785  0.7595  0.4993 -1.0917
 6421SOL     OW30898   2.726   1.377  11.627 -0.1881  0.1647 -0.8499
 6421SOL    HW130899   2.766   1.457  11.591 -0.8220  1.6182  1.6731
 6421SOL    HW230900   2.649   1.382  11.570  0.1562 -0.4860 -1.3759
 6422SOL     OW30901   0.831   0.405   3.775 -0.3735 -0.2195  0.7176
 6422SOL    HW130902   0.746   0.447   3.772  0.7481  1.7154 -2.9571
 6422SOL    HW230903   0.893   0.477   3.765 -0.9902 -0.2054 -2.9307
 6423SOL     OW30904   4.369   0.455  12.195  0.8760  0.2689  0.4692
 6423SOL    HW130905   4.372   0.534  12.248  1.1194  0.0857  0.7296
 6423SOL    HW230906   4.406   0.394  12.258 -2.4669 -0.6675  1.5491
 6424SOL     OW30907   0.686   3.352   2.489 -0.2689  0.2923  0.2612
 6424SOL    HW130908   0.730   3.307   2.561 -1.0703 -0.3786  0.3332
 6424SOL    HW230909   0.596   3.358   2.519 -0.1547  0.2610  0.6140
 6425SOL     OW30910   1.472   2.079   2.644  0.0839  0.1858 -0.1250
 6425SOL    HW130911   1.532   2.026   2.592 -0.0384  0.1183 -0.1979
 6425SOL    HW230912   1.385   2.044   2.624 -0.5511  0.8013  1.4882
 6426SOL     OW30913   2.861   3.161   2.240  0.0316 -0.2682 -0.0586
 6426SOL    HW130914   2.814   3.224   2.185  1.7494  0.7631 -0.3442
 6426SOL    HW230915   2.847   3.204   2.324  2.8656  1.9388 -0.7282
 6427SOL     OW30916   2.331   3.837   9.602 -0.0598  0.2768  0.4232
 6427SOL    HW130917   2.339   3.742   9.610  1.9049  0.4741  0.8391
 6427SOL    HW230918   2.385   3.871   9.673  0.6301  0.4062 -0.1658
 6428SOL     OW30919   0.718   1.821  15.814 -0.1899  0.4634  0.1766
 6428SOL    HW130920   0.662   1.776  15.877  2.0478 -0.4689  1.4956
 6428SOL    HW230921   0.798   1.819  15.867  0.9864  3.3297 -1.5027
 6429SOL     OW30922   2.076   0.097   6.096 -0.3315  0.0121  0.0246
 6429SOL    HW130923   2.153   0.093   6.153  0.0865  1.0138 -0.4821
 6429SOL    HW230924   2.034   0.014   6.122 -0.4046 -0.3018 -1.0794
 6430SOL     OW30925   1.617   3.716   1.918  0.4936  0.2356 -0.1367
 6430SOL    HW130926   1.531   3.675   1.910 -0.1328  0.7963  3.5928
 6430SOL    HW230927   1.615   3.725   2.013 -1.5419 -1.5233 -0.0058
 6431SOL     OW30928   0.095   0.456   1.278  0.2148  0.5423 -0.4921
 6431SOL    HW130929   0.118   0.548   1.294  0.2080  0.7483 -1.6358
 6431SOL    HW230930   0.179   0.412   1.271  0.1699  0.2155  1.0890
 6432SOL     OW30931   4.605   3.823   4.642 -0.2438  0.1265 -0.4690
 6432SOL    HW130932   4.619   3.779   4.558 -1.6205 -0.9445 -0.1366
 6432SOL    HW230933   4.687   3.807   4.688 -0.3643  1.6130  0.2557
 6433SOL     OW30934   2.981   1.737  14.560 -0.1656 -0.0531 -0.3502
 6433SOL    HW130935   2.989   1.816  14.506 -0.0033 -0.0432 -0.3098
 6433SOL    HW230936   2.891   1.749  14.590 -0.8711  2.9708 -3.7611
 6434SOL     OW30937   0.279   0.841   7.173 -0.3501  0.2483 -0.1221
 6434SOL    HW130938   0.352   0.872   7.226  0.4446 -0.9874 -0.4823
 6434SOL    HW230939   0.319   0.765   7.131  1.6864  2.4420 -2.1300
 6435SOL     OW30940   3.386   3.531   8.840  0.1474  0.7827 -0.3983
 6435SOL    HW130941   3.460   3.544   8.899 -0.0939  1.6029 -0.2769
 6435SOL    HW230942   3.357   3.622   8.831  0.3499  0.7602 -1.3177
 6436SOL     OW30943   2.200   0.869   7.928  0.0753  0.0131 -0.4157
 6436SOL    HW130944   2.247   0.789   7.905  1.1984  0.5996 -0.1633
 6436SOL    HW230945   2.154   0.844   8.008  2.1225 -0.8685  0.4818
 6437SOL     OW30946   0.336   0.020   8.890 -0.0830  0.1542 -0.2366
 6437SOL    HW130947   0.385   0.016   8.808  0.9929  1.0839  0.3502
 6437SOL    HW230948   0.267   4.699   8.861  0.4432 -0.5487 -0.0669
 6438SOL     OW30949   0.530   4.097  16.675  0.0746  0.1262 -0.2895
 6438SOL    HW130950   0.526   4.151  16.754  0.0062  0.0015 -0.2068
 6438SOL    HW230951   0.482   4.162  16.625 -1.1760 -2.8693 -2.9990
 6439SOL     OW30952   0.587   2.905  12.058  0.4264 -0.0817  0.2241
 6439SOL    HW130953   0.535   2.976  12.022  2.0835  2.6653  3.2445
 6439SOL    HW230954   0.528   2.830  12.050  0.2174 -0.1340  2.2608
 6440SOL     OW30955   0.681   3.062   6.722  0.2396 -0.4374  0.5131
 6440SOL    HW130956   0.725   3.019   6.795 -1.9453 -3.2336  0.1708
 6440SOL    HW230957   0.598   3.094   6.756 -0.8606 -2.2011 -0.5558
 6441SOL     OW30958   1.009   1.609   3.117  0.7195 -0.3717 -0.5895
 6441SOL    HW130959   1.065   1.577   3.046  1.1965  0.7421 -0.7035
 6441SOL    HW230960   0.942   1.540   3.120 -0.3038  0.7187  1.9258
 6442SOL     OW30961   1.879   4.613   6.359 -0.1823  0.5230  0.4324
 6442SOL    HW130962   1.927   4.625   6.441  0.7755 -2.4398  0.3120
 6442SOL    HW230963   1.951   4.592   6.299 -0.2320 -1.3429  1.0207
 6443SOL     OW30964   4.453   4.583   8.380 -0.4454 -0.2223 -0.0422
 6443SOL    HW130965   4.388   4.617   8.318  0.2028 -0.9438 -1.1114
 6443SOL    HW230966   4.477   4.500   8.338  1.9853  0.9755 -1.0335
 6444SOL     OW30967   4.278   4.091   8.111 -0.3890  0.0306 -0.1451
 6444SOL    HW130968   4.348   4.131   8.161 -0.3106  1.1835 -1.1923
 6444SOL    HW230969   4.311   4.005   8.086  0.7713  0.5421 -0.3497
 6445SOL     OW30970   0.184   0.608   8.027  0.2580 -0.2397  0.6460
 6445SOL    HW130971   0.105   0.654   7.999 -0.5164 -1.8276  0.1980
 6445SOL    HW230972   0.234   0.678   8.070  0.5139 -0.1375  0.1811
 6446SOL     OW30973   0.648   1.445   3.781  0.5148  0.5030 -0.2421
 6446SOL    HW130974   0.719   1.382   3.768  0.5715  0.4765  0.2025
 6446SOL    HW230975   0.633   1.440   3.875  0.0291  0.3545 -0.3295
 6447SOL     OW30976   4.408   0.805  11.054 -0.1242  0.4175 -0.6895
 6447SOL    HW130977   4.470   0.763  11.114  0.9105  1.0584 -1.3217
 6447SOL    HW230978   4.400   0.729  10.997  0.8414 -0.1659 -0.0349
 6448SOL     OW30979   1.119   0.449   1.972 -0.1004 -0.2618  0.1606
 6448SOL    HW130980   1.207   0.475   1.945  0.0526 -0.0089  0.8980
 6448SOL    HW230981   1.086   0.524   2.022  0.7427 -0.0099  0.3292
 6449SOL     OW30982   1.376   4.078   9.213  0.0321  0.4548 -0.4521
 6449SOL    HW130983   1.294   4.125   9.225 -0.6375 -0.8746  0.1989
 6449SOL    HW230984   1.352   3.989   9.187 -0.7057  0.2214  0.9914
 6450SOL     OW30985   1.394   1.533   3.861 -0.1754  0.5294  0.0194
 6450SOL    HW130986   1.483   1.538   3.895 -0.3065  0.9546  0.2877
 6450SOL    HW230987   1.414   1.493   3.776 -1.7432 -1.1618  0.4473
 6451SOL     OW30988   2.057   0.836   5.047  0.3457  0.4255 -0.3693
 6451SOL    HW130989   2.046   0.848   5.142 -0.1846 -0.1565 -0.3566
 6451SOL    HW230990   2.069   0.927   5.021 -1.8592 -0.0410 -3.0840
 6452SOL     OW30991   2.462   2.205   9.301  0.5533  0.1460 -0.1892
 6452SOL    HW130992   2.401   2.259   9.352 -1.0019 -0.5568 -1.3145
 6452SOL    HW230993   2.542   2.256   9.315  1.3154 -0.3591 -2.6971
 6453SOL     OW30994   2.919   4.073   9.777 -0.9693 -0.4020 -0.0870
 6453SOL    HW130995   2.961   4.018   9.844 -2.3142 -3.5302 -1.8187
 6453SOL    HW230996   2.905   4.155   9.825  0.3168  0.7427 -1.6562
 6454SOL     OW30997   2.836   1.906   6.888 -0.3637 -0.1648  0.1403
 6454SOL    HW130998   2.921   1.941   6.915 -0.4574  0.4103 -0.3047
 6454SOL    HW230999   2.838   1.812   6.904  0.8345 -0.1801 -0.1352
 6455SOL     OW31000   1.847   1.873   1.307  0.3107 -0.0559 -0.1602
 6455SOL    HW131001   1.837   1.867   1.212 -1.2016  0.0162 -0.0079
 6455SOL    HW231002   1.760   1.908   1.328 -0.5069 -1.4463 -1.2524
 6456SOL     OW31003   4.408   3.122  11.656  0.2089 -0.4086 -0.4014
 6456SOL    HW131004   4.442   3.194  11.708 -1.8147 -0.3921  0.9016
 6456SOL    HW231005   4.473   3.053  11.673 -3.7631 -3.6593  1.6305
 6457SOL     OW31006   0.126   1.689   1.184 -0.4553 -0.3844  0.4157
 6457SOL    HW131007   0.107   1.778   1.155  2.1162 -0.1785 -0.5790
 6457SOL    HW231008   0.060   1.680   1.253 -3.1694 -2.6196 -2.4416
 6458SOL     OW31009   1.860   4.174  15.324 -1.0210 -0.0898  0.4874
 6458SOL    HW131010   1.770   4.176  15.356 -0.9694 -1.4364  0.7279
 6458SOL    HW231011   1.914   4.179  15.403  0.7013  1.6985 -0.7915
 6459SOL     OW31012   1.702   0.957   5.367  0.0791 -0.3432  0.4628
 6459SOL    HW131013   1.666   0.994   5.286  0.3684  1.0235  0.9700
 6459SOL    HW231014   1.682   1.028   5.427  0.2335  2.0989 -2.3821
 6460SOL     OW31015   3.354   2.269   1.291  0.4182 -0.2627  0.0221
 6460SOL    HW131016   3.386   2.181   1.314 -0.0538 -0.8088 -1.3687
 6460SOL    HW231017   3.430   2.325   1.307 -0.6812  1.1686  0.2231
 6461SOL     OW31018   0.295   3.805   2.897  0.4865 -1.2896  0.4106
 6461SOL    HW131019   0.275   3.856   2.976 -0.7684 -0.7231 -0.2923
 6461SOL    HW231020   0.221   3.814   2.837 -1.9698 -0.9262  3.5019
 6462SOL     OW31021   1.827   2.803  11.448 -0.0870  0.0240  0.2029
 6462SOL    HW131022   1.829   2.887  11.402  1.4784 -1.3363 -2.2435
 6462SOL    HW231023   1.746   2.817  11.498  0.9905  5.4324  0.4198
 6463SOL     OW31024   0.044   3.448   0.319 -0.2198 -0.4074  0.3470
 6463SOL    HW131025   0.104   3.380   0.350 -1.3207 -1.3527  0.4197
 6463SOL    HW231026   0.093   3.528   0.340 -1.8493  0.8502 -0.6015
 6464SOL     OW31027   1.461   3.058  10.953 -0.2665 -0.2003  0.4506
 6464SOL    HW131028   1.380   3.014  10.978  2.0912 -3.7442  1.8055
 6464SOL    HW231029   1.521   3.059  11.027  0.8714  2.9262 -0.5119
 6465SOL     OW31030   3.394   0.425   0.798  0.0520  0.1113  0.4223
 6465SOL    HW131031   3.363   0.335   0.791  1.8118 -0.3477 -1.2611
 6465SOL    HW231032   3.422   0.423   0.890 -0.9769 -1.1709  0.7125
 6466SOL     OW31033   2.495   1.356   3.387  0.1865 -0.0118  0.6831
 6466SOL    HW131034   2.491   1.261   3.381  1.2916 -0.0426  0.3221
 6466SOL    HW231035   2.484   1.373   3.293  1.9391  0.8092  0.6200
 6467SOL     OW31036   2.111   1.160  11.939  0.1393 -0.3821 -0.1442
 6467SOL    HW131037   2.206   1.160  11.932  0.2571 -0.5507  1.3896
 6467SOL    HW231038   2.098   1.066  11.951 -1.5021  0.2104  2.8567
 6468SOL     OW31039   2.940   3.963   5.820 -0.4540 -0.1673  0.0451
 6468SOL    HW131040   3.011   3.923   5.871 -0.1776 -1.5275 -1.4023
 6468SOL    HW231041   2.925   3.907   5.744 -1.4037  0.0155  0.1033
 6469SOL     OW31042   3.261   1.691  14.060  0.0811 -0.0965 -0.6854
 6469SOL    HW131043   3.190   1.750  14.032  0.0478  0.5341  0.7359
 6469SOL    HW231044   3.270   1.620  13.997 -1.1776  0.1347 -1.1333
 6470SOL     OW31045   1.451   1.172   2.271 -0.1517  0.0401  0.5537
 6470SOL    HW131046   1.385   1.104   2.279  0.4485 -0.4572  1.3497
 6470SOL    HW231047   1.498   1.141   2.194 -0.2931  0.0486  0.4643
 6471SOL     OW31048   2.142   0.764   4.374  0.3538 -0.1231  0.6447
 6471SOL    HW131049   2.221   0.790   4.328 -0.6872 -0.0544 -1.0828
 6471SOL    HW231050   2.086   0.726   4.307 -1.0804  0.9274  1.2486
 6472SOL     OW31051   3.908   1.232   5.816 -0.1747  0.4701  0.5430
 6472SOL    HW131052   3.965   1.287   5.870 -1.1340  0.4032  1.6120
 6472SOL    HW231053   3.942   1.144   5.835 -2.6483  0.1639  3.6831
 6473SOL     OW31054   3.043   4.511   8.818  0.1547  0.3389 -0.7650
 6473SOL    HW131055   2.955   4.476   8.802 -0.8562  2.7759 -0.4905
 6473SOL    HW231056   3.092   4.460   8.882  0.6588  0.8795 -0.7236
 6474SOL     OW31057   2.845   2.351   5.118 -0.1625  0.0464 -0.3172
 6474SOL    HW131058   2.925   2.326   5.164  0.1351  0.0106 -0.8485
 6474SOL    HW231059   2.785   2.279   5.138  0.0251  0.4583  1.6871
 6475SOL     OW31060   1.343   0.578  14.643 -0.0396  0.1973  0.4856
 6475SOL    HW131061   1.337   0.482  14.634 -2.6672  0.2706  1.3609
 6475SOL    HW231062   1.298   0.616  14.568  1.3961 -1.3131 -1.1477
 6476SOL     OW31063   0.022   0.405   3.549 -0.3426  0.4318 -0.0054
 6476SOL    HW131064   0.075   0.484   3.535  0.2974  0.4704  2.5878
 6476SOL    HW231065   0.022   0.362   3.464  1.6913  0.2247  0.0994
 6477SOL     OW31066   2.435   3.963   8.635  0.2597 -0.1631  0.5829
 6477SOL    HW131067   2.357   3.987   8.585  0.1548  1.7756  1.6671
 6477SOL    HW231068   2.440   4.042   8.689 -1.2088 -2.0934  3.5993
 6478SOL     OW31069   1.433   3.119   1.551  0.5759  0.2257 -0.0067
 6478SOL    HW131070   1.479   3.093   1.631 -0.8107 -0.1277  0.6764
 6478SOL    HW231071   1.492   3.086   1.483  0.0754  2.0027 -1.2812
 6479SOL     OW31072   4.624   4.287   2.130  0.1399  0.4446  0.3844
 6479SOL    HW131073   4.678   4.282   2.052 -0.2112 -0.4353  0.1920
 6479SOL    HW231074   4.614   4.382   2.125  1.2483  0.5805  0.8643
 6480SOL     OW31075   3.580   0.473  13.000 -0.2910 -0.1199  0.0759
 6480SOL    HW131076   3.603   0.401  13.059  2.2446 -0.8638 -1.7952
 6480SOL    HW231077   3.663   0.521  13.005 -0.1621 -0.6521  2.9182
 6481SOL     OW31078   0.889   3.564   5.025  0.1979  0.1551  0.3668
 6481SOL    HW131079   0.864   3.562   4.933  0.6675  0.0153  0.2450
 6481SOL    HW231080   0.947   3.640   5.031 -0.1575  0.5663 -1.3334
 6482SOL     OW31081   2.740   0.627   4.236  0.6359  0.2995  0.3120
 6482SOL    HW131082   2.675   0.644   4.304 -0.8265 -1.8183 -0.5681
 6482SOL    HW231083   2.803   0.580   4.289  1.2227  0.4658 -0.2302
 6483SOL     OW31084   1.961   3.064   1.876  0.0274  0.2307  0.8022
 6483SOL    HW131085   2.018   3.037   1.804 -2.1844  0.0542 -0.9119
 6483SOL    HW231086   2.021   3.089   1.945 -0.4807  2.5295  0.4127
 6484SOL     OW31087   1.585   0.806   6.559  0.3195  0.4144  0.0543
 6484SOL    HW131088   1.598   0.897   6.589  0.1571  0.2968  0.4837
 6484SOL    HW231089   1.521   0.774   6.622  1.3430  2.8091  2.3241
 6485SOL     OW31090   4.423   0.855   3.110 -0.0014  0.3779 -1.2019
 6485SOL    HW131091   4.362   0.786   3.084  1.0695 -0.5726 -1.1843
 6485SOL    HW231092   4.362   0.925   3.135  0.7126  0.7114 -0.3760
 6486SOL     OW31093   0.896   2.019  12.932  0.1487 -0.1369  0.1494
 6486SOL    HW131094   0.959   1.960  12.891 -0.0697 -1.6001  1.9067
 6486SOL    HW231095   0.951   2.084  12.977  1.2979 -1.2211  0.3309
 6487SOL     OW31096   0.251   2.898  16.578  0.2467  0.0842 -0.2816
 6487SOL    HW131097   0.162   2.933  16.572  0.9270  1.2084 -3.7268
 6487SOL    HW231098   0.267   2.870  16.488  1.7657  0.4482 -0.1200
 6488SOL     OW31099   0.882   3.209   7.671  0.2013 -0.3351 -0.1184
 6488SOL    HW131100   0.851   3.238   7.757 -4.2713 -0.6383 -1.6323
 6488SOL    HW231101   0.966   3.250   7.655  0.3400 -0.5515  0.0522
 6489SOL     OW31102   2.427   1.708  17.690  0.3595  0.2331  0.5756
 6489SOL    HW131103   2.427   1.627  17.638 -0.3736  0.4404  0.2576
 6489SOL    HW231104   2.350   1.761  17.668  1.1768  1.3560  0.4533
 6490SOL     OW31105   3.023   4.370   6.259  0.3441 -0.7793  0.1328
 6490SOL    HW131106   3.100   4.411   6.217 -1.8371  1.7914 -1.3911
 6490SOL    HW231107   2.970   4.358   6.180  0.6283 -1.5588  0.0671
 6491SOL     OW31108   3.977   4.001   3.797  0.6023 -0.1421  0.1799
 6491SOL    HW131109   3.930   3.953   3.729  0.9885 -2.0252  1.2641
 6491SOL    HW231110   3.908   4.061   3.824  1.4036  0.7657  0.2248
 6492SOL     OW31111   0.714   0.398  13.364 -0.7923 -0.2995  0.1630
 6492SOL    HW131112   0.637   0.405  13.421 -0.3419  0.6056  0.6602
 6492SOL    HW231113   0.669   0.359  13.289 -0.8124  0.1798 -0.0763
 6493SOL     OW31114   3.784   1.261   1.079  0.1549  0.0667  0.2203
 6493SOL    HW131115   3.746   1.197   1.019  0.5837 -0.3021  0.3395
 6493SOL    HW231116   3.782   1.201   1.153  0.4178 -0.3453 -0.1074
 6494SOL     OW31117   0.171   4.056   3.940  0.1249 -0.1784  0.3215
 6494SOL    HW131118   0.109   3.985   3.923 -0.7843  0.8863 -0.7873
 6494SOL    HW231119   0.131   4.134   3.903  0.4816 -1.4628 -2.8613
 6495SOL     OW31120   0.017   1.702   5.523 -0.1099  0.2300  0.2427
 6495SOL    HW131121   0.089   1.766   5.524 -2.0988  2.4632  2.1463
 6495SOL    HW231122   4.681   1.760   5.502 -0.4083 -0.3553 -0.3124
 6496SOL     OW31123   0.325   2.270  10.988  0.1911 -0.2047  0.0699
 6496SOL    HW131124   0.391   2.219  11.036  1.9331  3.4957  1.5865
 6496SOL    HW231125   0.389   2.331  10.951 -0.2784 -0.8025 -1.7331
 6497SOL     OW31126   0.573   3.036  12.712  0.3506  0.2245  0.0401
 6497SOL    HW131127   0.601   2.986  12.788 -1.2028 -1.0272 -0.2179
 6497SOL    HW231128   0.655   3.064  12.670 -0.2270  1.4975 -0.2672
 6498SOL     OW31129   1.151   1.219   4.144 -0.1205 -0.1281  0.2488
 6498SOL    HW131130   1.204   1.295   4.122 -0.9431  0.3741  0.0186
 6498SOL    HW231131   1.183   1.220   4.234  0.2207 -1.2816  0.1404
 6499SOL     OW31132   4.691   0.323   6.781 -0.5451  0.0973 -0.0224
 6499SOL    HW131133   4.678   0.389   6.714 -0.3426  0.3034  0.1396
 6499SOL    HW231134   4.624   0.257   6.760  1.1079 -2.0028  1.2676
 6500SOL     OW31135   0.737   3.989   6.615  0.3147 -0.0872  0.1451
 6500SOL    HW131136   0.652   4.029   6.632  0.9839  1.4390 -0.0370
 6500SOL    HW231137   0.740   3.903   6.657  0.6262  1.4691  3.2950
 6501SOL     OW31138   2.889   3.827   1.636 -0.4321  0.2548  0.3803
 6501SOL    HW131139   2.900   3.745   1.588  0.5640  0.8355 -0.3897
 6501SOL    HW231140   2.942   3.799   1.711  2.0025  1.7716 -0.7469
 6502SOL     OW31141   3.065   3.305   4.908 -0.2037  0.5299  0.1552
 6502SOL    HW131142   3.035   3.293   4.818  2.1013 -0.5407 -0.4661
 6502SOL    HW231143   3.154   3.338   4.905 -0.2263  0.5066 -0.7565
 6503SOL     OW31144   0.193   0.721   8.718  0.0778  0.2395  0.4148
 6503SOL    HW131145   0.217   0.668   8.641 -1.9059  0.3412 -0.2768
 6503SOL    HW231146   0.112   0.675   8.738 -0.7619  1.7064  0.3365
 6504SOL     OW31147   2.865   3.432   4.712  0.2543 -0.1194  0.0723
 6504SOL    HW131148   2.796   3.365   4.709  1.1103 -0.9517 -0.8413
 6504SOL    HW231149   2.927   3.400   4.647  1.6177 -0.4083  1.5030
 6505SOL     OW31150   3.207   2.237   4.997  0.2050  0.6452 -0.3194
 6505SOL    HW131151   3.172   2.244   5.086 -1.9084 -0.2581 -1.0795
 6505SOL    HW231152   3.301   2.252   5.009  0.0492  0.8151  0.6330
 6506SOL     OW31153   4.320   0.149  17.702  0.7350  0.7476  0.0929
 6506SOL    HW131154   4.372   0.146   0.034  0.7931  0.4559  0.0433
 6506SOL    HW231155   4.249   0.207  17.729  0.5045 -0.0991  1.3119
 6507SOL     OW31156   4.213   0.493   1.881  0.3876  0.1550  0.1637
 6507SOL    HW131157   4.247   0.579   1.906 -0.3256  0.9923 -1.7499
 6507SOL    HW231158   4.153   0.482   1.955  0.1038  0.2801 -0.0490
 6508SOL     OW31159   3.718   1.155   4.077  0.3232  0.1153 -0.0828
 6508SOL    HW131160   3.798   1.106   4.094 -0.4226 -1.8470 -2.1898
 6508SOL    HW231161   3.768   1.229   4.044 -0.0970  1.0679  1.4319
 6509SOL     OW31162   1.828   0.486   3.738  0.0060 -0.4713  0.0968
 6509SOL    HW131163   1.912   0.504   3.778 -0.5765 -1.1655  1.6088
 6509SOL    HW231164   1.842   0.418   3.672  1.7122  0.4857 -0.5379
 6510SOL     OW31165   1.303   2.337   5.798  0.4936  0.4788  0.0350
 6510SOL    HW131166   1.313   2.390   5.877  0.0658 -1.6316  1.4823
 6510SOL    HW231167   1.344   2.255   5.824 -0.4327 -0.0784 -0.2514
 6511SOL     OW31168   3.065   2.061   6.888 -0.0721  0.1337 -0.5732
 6511SOL    HW131169   3.151   2.101   6.875  0.4229 -0.1957  1.5810
 6511SOL    HW231170   3.004   2.133   6.873  1.4192  1.0117 -2.4256
 6512SOL     OW31171   3.659   1.760  12.908 -0.4220 -0.3581 -0.0674
 6512SOL    HW131172   3.580   1.792  12.865  1.5009  3.2648 -0.9323
 6512SOL    HW231173   3.714   1.836  12.890 -0.2328 -0.2687  0.8809
 6513SOL     OW31174   2.022   0.377   5.755 -0.4812  0.3000 -0.2499
 6513SOL    HW131175   2.103   0.420   5.783 -0.2916  0.6407 -1.3132
 6513SOL    HW231176   2.015   0.414   5.667  1.4536 -0.1760 -0.6057
 6514SOL     OW31177   2.696   2.303   9.403 -0.8636 -0.0844  0.1637
 6514SOL    HW131178   2.748   2.241   9.454  3.5622  1.7121 -2.1253
 6514SOL    HW231179   2.764   2.334   9.343  0.2300 -0.0134  1.4379
 6515SOL     OW31180   0.401   1.052   5.243  0.6530  0.3094 -0.1466
 6515SOL    HW131181   0.334   1.108   5.283 -0.2802 -0.8722 -0.0482
 6515SOL    HW231182   0.357   1.013   5.167 -0.7904  0.1441  0.7664
 6516SOL     OW31183   1.538   1.157  15.860  0.1567  0.1164  0.2855
 6516SOL    HW131184   1.551   1.194  15.948 -1.4591 -0.8762  0.9411
 6516SOL    HW231185   1.443   1.163  15.855  0.0864 -2.4110 -1.2398
 6517SOL     OW31186   2.547   3.564   1.891  0.6387  0.0879  0.5246
 6517SOL    HW131187   2.465   3.524   1.919 -0.7649  1.8554 -1.0906
 6517SOL    HW231188   2.526   3.589   1.801  1.5292 -0.1266  0.2559
 6518SOL     OW31189   1.572   1.568  17.233 -0.0676 -0.0409  0.7481
 6518SOL    HW131190   1.494   1.555  17.179  0.4818 -2.9287  0.6146
 6518SOL    HW231191   1.642   1.507  17.209  0.5675  0.3190  1.6653
 6519SOL     OW31192   0.020   1.073   4.661  0.1637  0.3156  0.1496
 6519SOL    HW131193   0.053   1.083   4.571  0.8197 -2.7529  0.0582
 6519SOL    HW231194   4.729   1.164   4.666  0.6653  0.4239  0.9512
 6520SOL     OW31195   2.973   0.924  10.162  0.4352  0.3541  0.0906
 6520SOL    HW131196   2.898   0.948  10.107  0.3913 -2.5421 -1.1147
 6520SOL    HW231197   2.941   0.933  10.251 -1.4661  2.2747 -0.7934
 6521SOL     OW31198   2.526   3.067   4.721 -0.7071  0.4266 -0.6829
 6521SOL    HW131199   2.467   3.000   4.686  1.1474 -1.0581 -0.9638
 6521SOL    HW231200   2.483   3.089   4.803 -3.3135  0.1122 -1.9475
 6522SOL     OW31201   3.126   0.801   9.952  0.0036  0.2387  0.5143
 6522SOL    HW131202   3.107   0.881  10.001  2.3992 -0.3111  2.3084
 6522SOL    HW231203   3.218   0.807   9.928  0.4636 -0.1062  2.2093
 6523SOL     OW31204   0.407   4.693   7.487 -0.1886  0.4148  0.1444
 6523SOL    HW131205   0.398   0.043   7.451 -0.2834  1.5125  2.8151
 6523SOL    HW231206   0.331   4.675   7.544  0.7826 -3.3036  0.2950
 6524SOL     OW31207   2.781   3.326   7.957  0.5965 -0.2314  0.3599
 6524SOL    HW131208   2.698   3.278   7.958  1.2582 -1.3794  0.3747
 6524SOL    HW231209   2.838   3.263   7.914  0.9778  0.7156 -0.5074
 6525SOL     OW31210   1.751   0.818   5.788  0.0115 -0.4159 -0.3544
 6525SOL    HW131211   1.846   0.827   5.798  0.0096 -0.9243  0.1153
 6525SOL    HW231212   1.739   0.771   5.705 -2.8536  1.1594 -0.8254
 6526SOL     OW31213   0.479   4.498  17.055 -0.1222 -0.5127  0.1754
 6526SOL    HW131214   0.418   4.490  16.982  0.2438 -0.5415 -0.1312
 6526SOL    HW231215   0.420   4.499  17.130 -0.6108  0.7149 -0.2302
 6527SOL     OW31216   1.674   4.013  11.724  0.8389 -0.2304  0.3907
 6527SOL    HW131217   1.704   4.101  11.747  0.2422 -0.0290  0.4004
 6527SOL    HW231218   1.580   4.014  11.743  0.2762  0.4369 -2.3635
 6528SOL     OW31219   3.259   4.617   5.405  0.1041 -0.1520  0.0877
 6528SOL    HW131220   3.167   4.632   5.424  0.4716  0.0989  1.7267
 6528SOL    HW231221   3.298   4.681   5.465 -2.3667  0.6173  0.8366
 6529SOL     OW31222   2.596   2.929   8.471  0.0348 -0.2210 -0.0381
 6529SOL    HW131223   2.674   2.873   8.473 -0.4295 -0.7321  3.2696
 6529SOL    HW231224   2.626   2.997   8.531  1.3508  0.9360 -2.0292
 6530SOL     OW31225   3.885   4.434   5.194  0.5801 -0.0234  0.4955
 6530SOL    HW131226   3.855   4.525   5.193 -0.3168 -0.3004  1.3674
 6530SOL    HW231227   3.884   4.420   5.100 -1.2873 -0.0360  0.5075
 6531SOL     OW31228   1.411   3.658   6.858 -0.2150 -0.1524  0.0331
 6531SOL    HW131229   1.354   3.735   6.865 -1.0546 -0.8862  1.4418
 6531SOL    HW231230   1.431   3.637   6.950 -2.1680  0.1542  0.5363
 6532SOL     OW31231   0.735   1.738   5.430  0.6601  0.0501 -0.7489
 6532SOL    HW131232   0.733   1.741   5.334  1.4346 -1.7900 -0.8368
 6532SOL    HW231233   0.740   1.833   5.438 -0.4649  0.0034  0.3716
 6533SOL     OW31234   2.034   1.799  17.266 -0.2335  0.1876 -0.2414
 6533SOL    HW131235   2.037   1.828  17.357  0.5843 -1.8936  0.3799
 6533SOL    HW231236   2.035   1.706  17.289  3.7204  0.5689  1.1989
 6534SOL     OW31237   0.188   1.597   5.738 -0.2294 -0.2034  0.1944
 6534SOL    HW131238   0.132   1.617   5.663  1.2388 -0.1351 -0.8938
 6534SOL    HW231239   0.139   1.521   5.768 -0.6548  0.3977  0.9945
 6535SOL     OW31240   3.894   3.612  16.651 -0.1967 -0.0122  0.0816
 6535SOL    HW131241   3.933   3.627  16.565 -1.0041 -1.3439 -0.5189
 6535SOL    HW231242   3.909   3.699  16.688  3.2593 -0.4818 -0.2116
 6536SOL     OW31243   4.108   0.390   6.624  0.4008  0.6675  0.5828
 6536SOL    HW131244   4.194   0.424   6.648  0.3920  0.1060  1.4092
 6536SOL    HW231245   4.124   0.303   6.588  0.3263  1.8953 -2.3988
 6537SOL     OW31246   3.675   0.430   5.933  0.2512  0.1416  0.0226
 6537SOL    HW131247   3.735   0.502   5.913  0.8688  0.4862  3.0249
 6537SOL    HW231248   3.603   0.483   5.968  0.6808  0.0040  1.1122
 6538SOL     OW31249   0.570   2.645  15.998 -0.8409  0.0629 -0.1241
 6538SOL    HW131250   0.566   2.550  15.992  1.0995 -0.1733  2.4744
 6538SOL    HW231251   0.664   2.659  15.999 -0.6597 -1.2620  0.8979
 6539SOL     OW31252   3.749   2.317   6.709  0.2598 -0.2411  0.3514
 6539SOL    HW131253   3.833   2.321   6.755  0.3166 -0.6412  0.2835
 6539SOL    HW231254   3.767   2.236   6.661 -1.3805  0.2135 -1.0269
 6540SOL     OW31255   2.269   2.641   5.061  0.2465 -0.4256  0.4099
 6540SOL    HW131256   2.246   2.733   5.046 -0.6208 -1.0539 -2.1937
 6540SOL    HW231257   2.255   2.630   5.155  1.9799  1.6380  0.9189
 6541SOL     OW31258   2.199   0.494   8.334 -0.2216  0.0834 -0.8411
 6541SOL    HW131259   2.177   0.409   8.372 -2.5128  0.4780 -1.2772
 6541SOL    HW231260   2.184   0.485   8.240 -1.3807 -0.1326 -0.6393
 6542SOL     OW31261   4.661   1.692   4.098 -0.2329 -0.4740  0.0091
 6542SOL    HW131262   4.577   1.684   4.143 -0.4379 -0.2050 -0.3248
 6542SOL    HW231263   4.709   1.744   4.162  2.9084 -3.3066 -0.0354
 6543SOL     OW31264   3.847   2.503   5.516 -0.1043 -0.4738 -0.1302
 6543SOL    HW131265   3.917   2.464   5.464  1.3934  2.1544 -0.0899
 6543SOL    HW231266   3.798   2.548   5.446 -0.5353  0.2246  0.6258
 6544SOL     OW31267   3.395   1.424   3.270  0.6635  0.4734 -0.3118
 6544SOL    HW131268   3.439   1.414   3.354  1.9896 -0.1191 -1.0876
 6544SOL    HW231269   3.338   1.499   3.290 -0.4851 -0.3603 -0.4701
 6545SOL     OW31270   3.725   1.147   7.004 -0.1902  0.0845 -0.7723
 6545SOL    HW131271   3.690   1.176   7.088 -0.0986 -2.9662  0.3197
 6545SOL    HW231272   3.747   1.055   7.018 -0.3750  0.3444  1.1927
 6546SOL     OW31273   2.044   0.264   8.958  0.7872  0.6032 -0.1845
 6546SOL    HW131274   2.086   0.284   8.875  1.0781 -0.9705 -0.4210
 6546SOL    HW231275   2.007   0.352   8.971  0.6638  0.7040 -1.2068
 6547SOL     OW31276   3.707   0.150  11.070 -0.0567  0.3961 -0.2898
 6547SOL    HW131277   3.612   0.137  11.076  0.2263 -1.1632  0.6752
 6547SOL    HW231278   3.743   0.068  11.039 -1.0922  0.1873 -0.9512
 6548SOL     OW31279   1.461   3.948  10.251 -0.0620  0.7276  0.3552
 6548SOL    HW131280   1.443   4.030  10.297 -0.1411 -0.0641  1.7427
 6548SOL    HW231281   1.498   3.888  10.315  0.1560  0.1350 -0.3325
 6549SOL     OW31282   4.649   1.422  12.027 -0.2452 -0.0602  0.2233
 6549SOL    HW131283   4.735   1.414  11.987 -0.8448 -0.6391 -0.9508
 6549SOL    HW231284   4.613   1.469  11.952  0.7711 -0.3855 -0.4666
 6550SOL     OW31285   4.142   4.097   5.870 -0.1355 -0.3370 -0.4010
 6550SOL    HW131286   4.230   4.066   5.845  0.3122 -0.8495  1.8045
 6550SOL    HW231287   4.150   4.098   5.965 -1.8050 -0.6231 -0.2618
 6551SOL     OW31288   0.849   4.076   9.473  0.2371  0.1395 -0.4602
 6551SOL    HW131289   0.939   4.097   9.494  0.3576  0.6205 -1.4401
 6551SOL    HW231290   0.828   4.145   9.410 -0.6753  0.5626  0.3108
 6552SOL     OW31291   0.793   3.378   9.332 -0.2522 -0.2285  0.4730
 6552SOL    HW131292   0.848   3.456   9.338 -1.7621  0.9939 -1.4230
 6552SOL    HW231293   0.828   3.334   9.409 -1.8967 -2.8157 -0.2379
 6553SOL     OW31294   3.575   2.196   1.553  0.0469 -0.1583 -0.5703
 6553SOL    HW131295   3.557   2.247   1.475 -0.9553 -1.8178 -1.4231
 6553SOL    HW231296   3.579   2.109   1.512  0.1878 -1.7741  2.8431
 6554SOL     OW31297   4.679   4.452   6.881  0.3064  0.0026 -0.4484
 6554SOL    HW131298   4.679   4.419   6.971  0.0870 -1.7971 -1.1088
 6554SOL    HW231299   4.605   4.396   6.856  0.4279 -0.9544  1.3217
 6555SOL     OW31300   0.749   1.562   6.942 -0.4962 -0.3308 -0.3065
 6555SOL    HW131301   0.669   1.510   6.952  0.2885 -1.4427  0.1604
 6555SOL    HW231302   0.778   1.532   6.856 -3.3543  0.2129 -1.4682
 6556SOL     OW31303   1.062   2.863   2.302  0.9005  0.2975 -0.2026
 6556SOL    HW131304   0.999   2.936   2.304  0.3516 -0.2381  3.2032
 6556SOL    HW231305   1.112   2.875   2.383  2.3331  1.4905 -1.2793
 6557SOL     OW31306   3.911   2.616   4.066  0.0944  1.0140 -0.4380
 6557SOL    HW131307   3.903   2.706   4.032  0.5155  0.8723 -0.9096
 6557SOL    HW231308   3.988   2.630   4.121 -0.7382  1.0759  0.7151
 6558SOL     OW31309   2.883   1.784   4.890 -0.3805  0.4213 -0.4990
 6558SOL    HW131310   2.959   1.734   4.860 -0.3494  0.7532 -0.9630
 6558SOL    HW231311   2.855   1.723   4.958  0.9528  1.3783  0.8939
 6559SOL     OW31312   2.974   0.013  15.704  0.5891 -0.1939 -0.8643
 6559SOL    HW131313   3.020   0.095  15.684  1.0647 -0.1534  0.3599
 6559SOL    HW231314   2.901   0.041  15.759  2.5947  1.6210  0.8776
 6560SOL     OW31315   4.670   2.737   8.796 -0.3764 -0.1207 -1.1023
 6560SOL    HW131316   4.725   2.758   8.872 -1.5040 -0.1478 -0.2823
 6560SOL    HW231317   4.732   2.723   8.724  2.8083 -0.2229  1.6745
 6561SOL     OW31318   3.785   1.509   4.977  0.1740  0.3286 -0.0064
 6561SOL    HW131319   3.776   1.595   4.935  1.4355 -0.6119 -2.1937
 6561SOL    HW231320   3.705   1.461   4.955  1.2929 -0.6197 -1.9729
 6562SOL     OW31321   3.894   3.926  15.838 -0.2142 -0.2197  0.3596
 6562SOL    HW131322   3.818   3.952  15.786 -0.1225  1.0556  0.8684
 6562SOL    HW231323   3.851   3.865  15.897 -2.4475  1.1588  0.1333
 6563SOL     OW31324   0.830   4.073   7.815 -0.1379 -0.0800 -0.1449
 6563SOL    HW131325   0.767   4.077   7.743  0.8358  0.7807 -0.9444
 6563SOL    HW231326   0.825   3.984   7.849 -2.1482  1.4823  3.6766
 6564SOL     OW31327   0.385   3.312   3.766 -0.0517 -0.0120  0.2141
 6564SOL    HW131328   0.395   3.219   3.743  1.1526  0.3912 -0.8979
 6564SOL    HW231329   0.467   3.327   3.815 -0.3724 -0.2995  0.8400
 6565SOL     OW31330   4.685   1.297   6.299 -0.1089 -0.6810 -0.4570
 6565SOL    HW131331   4.717   1.238   6.367 -0.6219 -0.5793 -0.1265
 6565SOL    HW231332   4.605   1.259   6.264  0.0180  0.1825 -1.6982
 6566SOL     OW31333   0.747   0.703   5.234  0.4039 -0.2842  0.3388
 6566SOL    HW131334   0.800   0.626   5.214  0.1689 -0.3098 -0.1829
 6566SOL    HW231335   0.802   0.745   5.300 -0.6182  0.3297  0.8015
 6567SOL     OW31336   2.891   2.261   3.973 -0.1769 -0.3676  0.3126
 6567SOL    HW131337   2.943   2.230   3.898  1.1573  2.3185  0.1051
 6567SOL    HW231338   2.905   2.199   4.045  2.3773 -2.2242 -1.7923
 6568SOL     OW31339   0.600   3.716   0.572 -0.8919 -0.1079  0.0038
 6568SOL    HW131340   0.665   3.783   0.553 -1.4691  1.0546  2.1071
 6568SOL    HW231341   0.624   3.689   0.661 -0.9196  0.8108  0.2901
 6569SOL     OW31342   0.650   0.024   1.526 -0.8877 -0.2409  0.1731
 6569SOL    HW131343   0.595   0.102   1.525  0.6648  0.8396 -1.2646
 6569SOL    HW231344   0.703   0.033   1.446 -1.1182  0.8319  0.1506
 6570SOL     OW31345   0.963   2.400   8.680 -0.5717 -0.1777  0.1742
 6570SOL    HW131346   1.000   2.333   8.738  0.5399  1.8583  1.8093
 6570SOL    HW231347   0.869   2.383   8.688 -0.6385  0.2290  0.2224
 6571SOL     OW31348   3.358   1.154   1.802  0.3113 -0.0134  0.6470
 6571SOL    HW131349   3.432   1.094   1.805  0.9076  0.5981 -1.7259
 6571SOL    HW231350   3.405   1.236   1.819  1.1307 -0.4853  0.6162
 6572SOL     OW31351   4.288   1.174  15.627 -0.2620 -0.0615  0.4035
 6572SOL    HW131352   4.316   1.174  15.535 -2.2123 -1.5671 -0.1842
 6572SOL    HW231353   4.241   1.091  15.637 -0.2683 -0.0123  0.7768
 6573SOL     OW31354   2.116   2.003   1.676 -0.0691  0.5334  0.0930
 6573SOL    HW131355   2.097   2.049   1.758  1.3562 -0.0338  0.7302
 6573SOL    HW231356   2.160   2.073   1.629 -0.1303  0.4478 -0.0923
 6574SOL     OW31357   3.272   3.312   7.832  0.2623  0.0092  0.0619
 6574SOL    HW131358   3.270   3.222   7.865  1.9309  0.4914  1.4943
 6574SOL    HW231359   3.236   3.354   7.910  2.7702 -0.7486  1.6399
 6575SOL     OW31360   2.086   0.273   2.008  0.7019  0.2396  0.0294
 6575SOL    HW131361   2.136   0.353   1.991 -0.6030  1.0334 -0.0512
 6575SOL    HW231362   2.115   0.263   2.099 -0.8257  1.4540  0.6455
 6576SOL     OW31363   1.149   0.567  13.277 -0.0572 -0.2572  0.5831
 6576SOL    HW131364   1.132   0.526  13.362 -1.8766  1.8598  1.2428
 6576SOL    HW231365   1.164   0.657  13.308  0.0374  0.7131 -2.2672
 6577SOL     OW31366   3.639   2.437   6.023  0.1907 -0.0694  0.3602
 6577SOL    HW131367   3.684   2.437   5.939 -1.1596  0.3350 -0.3707
 6577SOL    HW231368   3.641   2.532   6.033 -4.9506  0.0596  0.1644
 6578SOL     OW31369   3.541   1.228   0.261  0.4923  0.1577  0.1646
 6578SOL    HW131370   3.513   1.187   0.179 -2.0973  1.1692  0.5718
 6578SOL    HW231371   3.458   1.269   0.281 -0.5358 -1.7109 -0.2929
 6579SOL     OW31372   2.161   2.572   9.492  0.1896 -0.2583 -1.3557
 6579SOL    HW131373   2.130   2.661   9.472  1.2770  0.4583  0.1369
 6579SOL    HW231374   2.149   2.579   9.587 -3.8330 -1.9372 -1.7518
 6580SOL     OW31375   4.502   2.599  13.013  0.3950 -0.1480  0.1301
 6580SOL    HW131376   4.418   2.564  13.042  0.1828  0.4854  0.2851
 6580SOL    HW231377   4.556   2.520  13.007 -0.5436 -0.9732  2.6545
 6581SOL     OW31378   3.380   1.308   5.778  0.2654  0.0480  0.1555
 6581SOL    HW131379   3.464   1.328   5.737 -0.1874  1.7026  0.0043
 6581SOL    HW231380   3.380   1.374   5.848 -0.2865 -0.3194  0.5026
 6582SOL     OW31381   0.951   2.132   5.540  0.4126  0.0308 -0.2285
 6582SOL    HW131382   0.973   2.165   5.627 -1.9577  0.4096  0.2292
 6582SOL    HW231383   1.009   2.176   5.477 -0.4477  2.1015  0.4160
 6583SOL     OW31384   3.673   1.889   3.160 -0.5345 -0.0778  0.0488
 6583SOL    HW131385   3.752   1.916   3.206 -1.3275  1.4371  0.5501
 6583SOL    HW231386   3.609   1.923   3.223  1.0186  0.6138  1.2493
 6584SOL     OW31387   2.743   1.517  17.592 -0.7069 -0.2082 -0.0862
 6584SOL    HW131388   2.667   1.488  17.541 -1.3862  1.4487 -0.0091
 6584SOL    HW231389   2.713   1.576  17.661 -0.3293  0.4174 -0.4568
 6585SOL     OW31390   4.281   3.345   4.717  0.6543 -0.2684 -0.2670
 6585SOL    HW131391   4.273   3.351   4.813 -0.9240  1.3334 -0.4964
 6585SOL    HW231392   4.255   3.255   4.699  0.2679  0.0101 -1.0587
 6586SOL     OW31393   1.825   0.368   3.495  0.9695  0.6461  0.1681
 6586SOL    HW131394   1.879   0.427   3.442  0.5747  0.0398 -0.9159
 6586SOL    HW231395   1.739   0.410   3.488  0.0181 -1.3797 -0.4741
 6587SOL     OW31396   3.555   3.784   7.481 -0.1211  0.3166  0.5990
 6587SOL    HW131397   3.627   3.724   7.498  1.4134  2.3180  1.1418
 6587SOL    HW231398   3.522   3.744   7.400 -0.1509 -0.3847  0.9572
 6588SOL     OW31399   4.061   1.755   3.128 -0.5017  0.0971 -0.0039
 6588SOL    HW131400   4.032   1.681   3.182 -1.7642  0.6350  0.0728
 6588SOL    HW231401   4.033   1.833   3.177 -2.2987 -1.6363  1.7131
 6589SOL     OW31402   1.543   0.263   1.947  0.6272 -0.0164 -0.8516
 6589SOL    HW131403   1.557   0.206   1.871  0.0334 -1.4695  0.1461
 6589SOL    HW231404   1.613   0.233   2.004 -0.2893  2.6583  1.6794
 6590SOL     OW31405   2.265   3.476   7.748 -0.0032  0.5051 -0.1944
 6590SOL    HW131406   2.288   3.548   7.690 -0.6925  0.6946 -0.2346
 6590SOL    HW231407   2.219   3.533   7.809  0.9373  0.6946  0.3483
 6591SOL     OW31408   0.447   0.844   9.937 -0.0960 -0.3074  0.7327
 6591SOL    HW131409   0.524   0.788   9.927  0.2113  0.4920 -1.2583
 6591SOL    HW231410   0.471   0.916   9.879 -1.4059 -0.7263 -0.3146
 6592SOL     OW31411   2.299   1.267   6.790 -0.4128  0.5896  0.3894
 6592SOL    HW131412   2.310   1.281   6.884 -0.3317 -1.2900  0.6593
 6592SOL    HW231413   2.219   1.215   6.783  0.7035 -0.9690 -0.8122
 6593SOL     OW31414   0.639   4.108   2.051 -0.2792 -0.1022 -0.2958
 6593SOL    HW131415   0.622   4.117   1.958 -0.9578  0.8897 -0.0748
 6593SOL    HW231416   0.564   4.052   2.070 -1.2057  1.3981  0.4798
 6594SOL     OW31417   2.914   2.657   1.645 -0.1129  0.4458  0.0381
 6594SOL    HW131418   2.967   2.734   1.665 -1.0165  0.8162  1.0581
 6594SOL    HW231419   2.922   2.617   1.732 -1.2798 -2.1397 -1.0292
 6595SOL     OW31420   2.871   1.107   0.348 -0.4372 -0.3097 -0.5723
 6595SOL    HW131421   2.956   1.143   0.323 -0.6725  1.0364  0.5721
 6595SOL    HW231422   2.890   1.036   0.409  0.4497  0.2222 -0.2233
 6596SOL     OW31423   3.385   2.820   8.298 -0.3198 -0.4097  0.9640
 6596SOL    HW131424   3.379   2.726   8.281 -0.9761 -0.1407 -0.2667
 6596SOL    HW231425   3.417   2.848   8.212  0.4232 -1.0324  1.0346
 6597SOL     OW31426   2.205   2.247   8.255 -0.2535 -0.3523  0.3211
 6597SOL    HW131427   2.288   2.237   8.301  0.0610  1.2851  0.1288
 6597SOL    HW231428   2.157   2.174   8.292 -0.7084 -0.0163  0.3981
 6598SOL     OW31429   3.093   3.412  13.674 -0.4780 -0.2042  0.1164
 6598SOL    HW131430   3.117   3.503  13.691  1.0571 -0.3153 -1.4822
 6598SOL    HW231431   3.144   3.371  13.744  1.6592 -0.7676 -1.7734
 6599SOL     OW31432   2.541   4.083   2.662  0.0098  0.4814 -0.1397
 6599SOL    HW131433   2.629   4.048   2.649 -0.2371  0.5359 -1.9414
 6599SOL    HW231434   2.493   4.011   2.622  0.7305 -1.5757  2.7390
 6600SOL     OW31435   1.150   2.916   7.814  0.1456 -0.1131  0.2686
 6600SOL    HW131436   1.091   2.957   7.877  1.3442 -0.4562  1.6072
 6600SOL    HW231437   1.199   2.993   7.783 -1.2879  0.7488  0.1316
 6601SOL     OW31438   3.105   0.327  13.357  0.3087 -0.0270 -0.5391
 6601SOL    HW131439   3.128   0.297  13.445 -0.9028  1.7613  0.3794
 6601SOL    HW231440   3.082   0.419  13.369 -0.7966 -0.4351  0.4980
 6602SOL     OW31441   2.647   1.334   8.161  0.3438 -0.0411 -0.1284
 6602SOL    HW131442   2.691   1.311   8.079  0.7228 -1.8515  0.5868
 6602SOL    HW231443   2.578   1.268   8.167  0.4199  0.1157  2.4238
 6603SOL     OW31444   3.564   0.216   9.951  0.4026 -0.0172 -0.2206
 6603SOL    HW131445   3.471   0.204   9.970  0.4585 -1.8455 -1.1057
 6603SOL    HW231446   3.566   0.214   9.855  0.6362  0.3375 -0.2216
 6604SOL     OW31447   1.488   0.309   4.036 -0.1033  0.2579  0.2020
 6604SOL    HW131448   1.399   0.286   4.010  0.2001  1.4999 -1.9352
 6604SOL    HW231449   1.550   0.255   3.986 -0.7204 -0.8345  0.6024
 6605SOL     OW31450   3.019   1.504  14.044  0.1010  0.0588  0.0935
 6605SOL    HW131451   3.052   1.569  14.106 -0.7251  0.0383  0.5639
 6605SOL    HW231452   3.016   1.548  13.959  1.1220 -0.1029 -0.0259
 6606SOL     OW31453   3.493   1.310   8.819  0.5535  0.1326 -0.2621
 6606SOL    HW131454   3.461   1.221   8.802 -1.5143  1.2229 -2.0355
 6606SOL    HW231455   3.588   1.306   8.826  0.3279 -1.7392  1.6549
 6607SOL     OW31456   2.927   4.191   8.986  0.0288  0.1641 -0.3277
 6607SOL    HW131457   2.861   4.185   9.056 -0.0355  3.2840 -0.1285
 6607SOL    HW231458   2.870   4.223   8.916  0.6291  1.9356 -0.0023
 6608SOL     OW31459   3.506   4.548  13.062 -0.5777  0.0600 -0.3454
 6608SOL    HW131460   3.448   4.509  13.127  0.4541  0.1008  0.6064
 6608SOL    HW231461   3.486   4.492  12.987 -1.3240  1.8155 -1.4536
 6609SOL     OW31462   3.639   1.723   6.429 -0.0262 -0.2921 -0.1754
 6609SOL    HW131463   3.566   1.716   6.491  1.0500 -0.6611  1.0601
 6609SOL    HW231464   3.705   1.682   6.485 -0.1335  0.3871  0.4361
 6610SOL     OW31465   0.584   1.561   1.429  0.0268  0.3875  0.1231
 6610SOL    HW131466   0.533   1.568   1.349 -2.7145  0.1779  1.8655
 6610SOL    HW231467   0.555   1.473   1.453  0.3156 -0.4118 -2.4533
 6611SOL     OW31468   3.132   1.536   4.245  0.2653 -0.5335  0.4700
 6611SOL    HW131469   3.139   1.532   4.150 -0.6309 -0.5835  0.4068
 6611SOL    HW231470   3.037   1.540   4.253  0.3208  0.3208  0.6528
 6612SOL     OW31471   3.587   3.201   7.204 -0.0726 -0.6132  0.1359
 6612SOL    HW131472   3.606   3.218   7.296  1.2871 -1.6413  0.0508
 6612SOL    HW231473   3.552   3.288   7.189  1.4064  0.0837  0.7645
 6613SOL     OW31474   2.434   1.803   8.107  0.3024 -0.6190 -0.2549
 6613SOL    HW131475   2.478   1.728   8.149 -0.5564 -0.7667  0.3778
 6613SOL    HW231476   2.354   1.799   8.159  0.2939 -0.6945 -0.2736
 6614SOL     OW31477   4.482   4.371   3.296  0.1255  0.0503 -0.0645
 6614SOL    HW131478   4.467   4.311   3.223  0.6648  0.4600 -0.5099
 6614SOL    HW231479   4.577   4.364   3.293 -0.0508 -1.9866 -0.8112
 6615SOL     OW31480   2.632   3.899   7.071 -0.5171  0.0109 -0.5831
 6615SOL    HW131481   2.672   3.812   7.062 -0.5095  0.2560 -2.9121
 6615SOL    HW231482   2.540   3.875   7.073 -0.9092  1.5423 -0.1980
 6616SOL     OW31483   2.023   0.019   7.189 -0.1367  0.0819 -0.0948
 6616SOL    HW131484   1.957   4.686   7.195  1.1379 -0.8886  2.6345
 6616SOL    HW231485   1.978   0.086   7.139  0.2883 -0.2423 -0.9041
 6617SOL     OW31486   1.980   0.249   4.019  0.0473  0.2267  0.3433
 6617SOL    HW131487   1.937   0.322   4.064 -0.1773  0.1646  0.2290
 6617SOL    HW231488   2.063   0.251   4.066  0.6554 -0.9608 -0.6868
 6618SOL     OW31489   2.761   1.453   1.725 -0.1098  0.0183  0.4363
 6618SOL    HW131490   2.812   1.530   1.697 -0.1054  0.6289  2.0859
 6618SOL    HW231491   2.772   1.396   1.650 -0.4170 -0.8454  1.0528
 6619SOL     OW31492   3.899   3.400   6.195 -0.1154  0.3619 -0.5790
 6619SOL    HW131493   3.935   3.488   6.201 -2.4008  1.2877 -0.4564
 6619SOL    HW231494   3.965   3.340   6.230 -0.8651 -0.5988 -0.7838
 6620SOL     OW31495   4.620   1.277   4.192 -0.1906  0.1239 -0.3838
 6620SOL    HW131496   4.529   1.284   4.161 -0.0356 -0.9208 -1.0642
 6620SOL    HW231497   4.658   1.198   4.155  2.3937  0.5791  1.3469
 6621SOL     OW31498   2.360   2.948   7.907 -0.2168  0.3959 -0.0424
 6621SOL    HW131499   2.299   2.915   7.841 -0.4780 -0.8516  0.8260
 6621SOL    HW231500   2.435   2.979   7.857  0.2409 -1.8990 -0.7698
 6622SOL     OW31501   0.286   3.306   5.390  0.6363  0.1050 -0.1200
 6622SOL    HW131502   0.240   3.276   5.468  1.5597 -2.3801 -0.5513
 6622SOL    HW231503   0.259   3.398   5.382  0.8531  0.2648  1.0127
 6623SOL     OW31504   3.460   2.276   7.327  0.4654  0.1970 -0.5516
 6623SOL    HW131505   3.530   2.220   7.359 -0.0659  0.3775  0.9229
 6623SOL    HW231506   3.440   2.251   7.236  0.1323 -0.8236 -0.1923
 6624SOL     OW31507   1.406   4.245   1.312 -0.3186  0.3697 -0.1464
 6624SOL    HW131508   1.446   4.329   1.294 -2.7534  2.1105  2.4378
 6624SOL    HW231509   1.385   4.226   1.221 -0.5641 -0.3998  0.0635
 6625SOL     OW31510   4.504   1.856   3.272  0.1221 -0.0995 -0.2615
 6625SOL    HW131511   4.436   1.854   3.339 -1.4720  0.1498 -1.8931
 6625SOL    HW231512   4.456   1.831   3.193 -0.5096  0.4954 -0.0653
 6626SOL     OW31513   2.272   3.465   2.278  0.0979  0.0534 -0.3806
 6626SOL    HW131514   2.335   3.531   2.249 -1.1027  1.4147  0.1245
 6626SOL    HW231515   2.242   3.425   2.197 -1.2090  1.2528 -0.4858
 6627SOL     OW31516   2.459   2.906  10.549  0.0415 -0.1930  0.4141
 6627SOL    HW131517   2.524   2.885  10.617 -0.7683  1.7384  1.7891
 6627SOL    HW231518   2.504   2.876  10.470 -2.0978 -0.9589 -0.5257
 6628SOL     OW31519   3.530   4.215  16.658 -0.3876 -0.0163 -0.3941
 6628SOL    HW131520   3.618   4.232  16.626  0.4039  0.4326  2.0295
 6628SOL    HW231521   3.490   4.176  16.580 -2.3048  2.5053 -0.6986
 6629SOL     OW31522   3.548   3.385   2.706  0.0188 -0.3305 -0.4631
 6629SOL    HW131523   3.633   3.342   2.702  0.3210  0.2017  0.4050
 6629SOL    HW231524   3.570   3.473   2.677  0.7723 -0.9903 -1.8958
 6630SOL     OW31525   1.300   1.466   5.221 -0.4920  0.0377  0.2713
 6630SOL    HW131526   1.265   1.410   5.290 -1.9734 -1.1564 -1.4380
 6630SOL    HW231527   1.222   1.453   5.167 -0.1284 -2.6056  0.4163
 6631SOL     OW31528   2.220   1.303   8.627 -0.0405 -0.3699 -0.5157
 6631SOL    HW131529   2.175   1.276   8.706 -0.4082  0.7987 -0.3222
 6631SOL    HW231530   2.277   1.226   8.622  1.6472  0.9436 -1.4132
 6632SOL     OW31531   3.533   1.513  16.868  0.7324 -0.1350 -0.0988
 6632SOL    HW131532   3.524   1.455  16.944 -0.0700 -0.5097 -0.4747
 6632SOL    HW231533   3.617   1.558  16.881  0.0510  1.2939 -0.5802
 6633SOL     OW31534   1.483   2.971   7.698 -0.3166  0.0081 -0.5642
 6633SOL    HW131535   1.432   3.023   7.761  0.3263 -0.2031  0.1336
 6633SOL    HW231536   1.535   3.039   7.655 -1.6489 -0.0579 -2.2531
 6634SOL     OW31537   0.888   1.844  11.018 -0.1390 -0.2334 -0.3231
 6634SOL    HW131538   0.968   1.839  10.966 -1.3256 -0.4248 -2.1621
 6634SOL    HW231539   0.826   1.813  10.951 -0.9711 -1.0926  0.8486
 6635SOL     OW31540   1.980   0.651  10.834  0.0767 -0.3126 -0.1714
 6635SOL    HW131541   2.058   0.681  10.788  0.7861  1.1911  1.9859
 6635SOL    HW231542   1.922   0.713  10.789  0.7201  0.9264  0.7067
 6636SOL     OW31543   1.276   1.254   4.392  0.3782  0.2285 -0.2208
 6636SOL    HW131544   1.336   1.196   4.437 -0.9775 -0.2792  0.9446
 6636SOL    HW231545   1.344   1.313   4.359 -0.9232  1.9802  0.1938
 6637SOL     OW31546   2.017   3.881  16.835  0.0881 -0.1233 -0.4093
 6637SOL    HW131547   1.994   3.790  16.857 -2.7321  0.4736 -0.8266
 6637SOL    HW231548   2.097   3.872  16.783  0.1652  0.2909 -0.3590
 6638SOL     OW31549   3.307   2.585   9.943 -0.0844 -0.2385  0.7445
 6638SOL    HW131550   3.254   2.648   9.895  0.9991 -0.3363 -0.5612
 6638SOL    HW231551   3.360   2.557   9.869  2.3584  1.7922  1.7486
 6639SOL     OW31552   0.032   2.513   9.534  0.1113  0.0839  0.2802
 6639SOL    HW131553   0.031   2.604   9.566  0.5038  0.3588 -0.4884
 6639SOL    HW231554   4.695   2.487   9.587 -0.0695 -1.0964 -0.5768
 6640SOL     OW31555   1.028   2.873   1.300 -0.5049  0.1576  0.1805
 6640SOL    HW131556   0.992   2.938   1.359  2.0518  0.9268  0.8856
 6640SOL    HW231557   0.970   2.878   1.224  2.1608  1.8844 -1.7434
 6641SOL     OW31558   0.596   1.443   6.558 -0.3929 -0.5609  0.5810
 6641SOL    HW131559   0.655   1.483   6.621  1.0252 -1.1467 -0.3695
 6641SOL    HW231560   0.661   1.374   6.543  0.5461  0.4690 -0.1242
 6642SOL     OW31561   2.147   1.102   5.608 -0.3311  0.0024 -0.3198
 6642SOL    HW131562   2.242   1.115   5.597 -0.1396 -2.0987 -1.0259
 6642SOL    HW231563   2.139   1.012   5.577  0.2656  0.1618 -0.9294
 6643SOL     OW31564   1.971   0.089   1.121  0.3417 -0.8594  0.1230
 6643SOL    HW131565   1.955   0.009   1.072 -0.3446 -0.6234 -0.0345
 6643SOL    HW231566   2.065   0.080   1.137  0.1352  1.2187  2.5648
 6644SOL     OW31567   1.103   3.180   2.988  0.0520  0.0792  0.1871
 6644SOL    HW131568   1.084   3.266   2.951 -1.7323 -1.5420 -2.6811
 6644SOL    HW231569   1.016   3.141   2.984  0.6571 -1.5373  2.7911
 6645SOL     OW31570   4.512   3.245   8.132  0.0452 -0.1941 -0.3639
 6645SOL    HW131571   4.512   3.227   8.226  0.0138 -1.2515 -0.5587
 6645SOL    HW231572   4.515   3.153   8.104 -2.4288 -1.1251  2.4349
 6646SOL     OW31573   4.049   4.202   2.828 -0.3994  0.3981  1.3367
 6646SOL    HW131574   4.112   4.139   2.793 -2.2761 -0.5609 -0.3225
 6646SOL    HW231575   4.109   4.273   2.852 -0.5851  0.9155  0.2948
 6647SOL     OW31576   2.456   2.492   4.872  0.6476  0.3992 -0.1681
 6647SOL    HW131577   2.398   2.417   4.860 -3.5046  3.3240  1.8219
 6647SOL    HW231578   2.418   2.550   4.938 -0.3756  0.6176 -0.9512
 6648SOL     OW31579   3.711   0.621   1.410 -0.3736 -0.3119  0.1609
 6648SOL    HW131580   3.617   0.617   1.430 -0.4931  0.8350 -0.1987
 6648SOL    HW231581   3.712   0.665   1.325  2.6241 -1.1533 -0.2280
 6649SOL     OW31582   2.715   0.851   2.349  0.4671  0.1471 -0.1204
 6649SOL    HW131583   2.644   0.914   2.334 -1.0655 -1.2459  1.1783
 6649SOL    HW231584   2.668   0.787   2.403 -0.0145  0.6656  0.0705
 6650SOL     OW31585   4.256   0.606  11.501  0.3772 -0.2528  0.3241
 6650SOL    HW131586   4.296   0.689  11.526 -2.3353  1.0979  0.2069
 6650SOL    HW231587   4.226   0.582  11.589 -1.6591  1.7357  0.1690
 6651SOL     OW31588   1.237   3.294   2.658 -0.1926 -0.0266 -0.4093
 6651SOL    HW131589   1.313   3.253   2.618 -0.4411 -0.1696 -0.7376
 6651SOL    HW231590   1.289   3.345   2.721 -0.1863  0.0546 -0.4796
 6652SOL     OW31591   2.295   0.844   6.235 -0.4268 -0.4743  0.1179
 6652SOL    HW131592   2.274   0.761   6.192  2.3489 -0.3073 -1.5579
 6652SOL    HW231593   2.220   0.849   6.295  0.3328  0.1066  1.0179
 6653SOL     OW31594   0.260   4.468   5.256 -0.3466 -0.4811 -0.4747
 6653SOL    HW131595   0.244   4.380   5.221  0.4435 -1.2373  1.0483
 6653SOL    HW231596   0.175   4.491   5.293  0.7129 -2.1655  3.0670
 6654SOL     OW31597   3.775   4.532   7.336 -0.3040  0.2011  0.0867
 6654SOL    HW131598   3.763   4.513   7.243  1.2105  0.8548 -0.2444
 6654SOL    HW231599   3.868   4.553   7.348 -0.0873  0.3154 -1.7495
 6655SOL     OW31600   3.991   2.698   2.707  0.2197  0.2182  0.0129
 6655SOL    HW131601   4.083   2.722   2.711  0.1007  0.8107 -0.8174
 6655SOL    HW231602   4.003   2.614   2.751  1.2479 -0.3168 -1.2967
 6656SOL     OW31603   3.134   4.015   8.974 -0.1359 -0.4244  0.4518
 6656SOL    HW131604   3.059   4.073   8.991 -0.2675  0.2969 -2.6066
 6656SOL    HW231605   3.089   3.930   8.970 -1.6859  0.4439 -0.8800
 6657SOL     OW31606   3.528   0.947  17.601  0.5261  0.4638 -0.4398
 6657SOL    HW131607   3.613   0.953  17.644 -0.4538  0.9024  1.4573
 6657SOL    HW231608   3.536   0.868  17.548  0.8317 -0.7052  1.3584
 6658SOL     OW31609   0.078   1.232  15.671  0.1195  0.1751  0.6856
 6658SOL    HW131610   0.120   1.261  15.590 -1.5609 -1.5864 -0.8187
 6658SOL    HW231611   0.034   1.153  15.641 -2.1469  0.9990  1.8133
 6659SOL     OW31612   3.928   1.877   8.567  0.2517  0.5276  0.6339
 6659SOL    HW131613   3.920   1.849   8.658  0.6629  0.9680  0.8034
 6659SOL    HW231614   3.834   1.877   8.546  0.7125  0.9281 -1.4905
 6660SOL     OW31615   3.072   0.225   6.376 -0.8641  0.1829  0.1654
 6660SOL    HW131616   3.079   0.299   6.316 -0.3275 -1.3256 -1.6274
 6660SOL    HW231617   3.077   0.280   6.455 -0.9221 -0.1203  0.3804
 6661SOL     OW31618   1.963   1.031   7.449 -0.1788 -0.3655 -0.1653
 6661SOL    HW131619   2.015   1.073   7.380 -1.9842  1.4518 -0.3935
 6661SOL    HW231620   1.994   1.079   7.526 -0.3186 -3.3962  1.8087
 6662SOL     OW31621   4.528   4.368  15.397  0.1498 -0.0928  0.0953
 6662SOL    HW131622   4.456   4.343  15.338  0.8017  1.1351 -1.2029
 6662SOL    HW231623   4.527   4.296  15.461 -0.0697  1.5438  1.9273
 6663SOL     OW31624   0.120   1.769   6.904 -0.0889  0.0676 -0.3457
 6663SOL    HW131625   0.056   1.780   6.834 -1.0466 -2.1617  0.2016
 6663SOL    HW231626   0.064   1.725   6.968  0.1633  2.2839  1.4401
 6664SOL     OW31627   1.451   3.135  10.670  0.2884  0.4645 -0.2312
 6664SOL    HW131628   1.452   3.077  10.747 -0.6189  0.2669 -0.3600
 6664SOL    HW231629   1.546   3.142  10.664  0.5360 -1.5786  1.1883
 6665SOL     OW31630   1.635   1.808   7.411  0.3470  0.2906 -0.0348
 6665SOL    HW131631   1.659   1.718   7.431  0.5563  0.7645  1.8156
 6665SOL    HW231632   1.556   1.805   7.466  0.3943  0.3555  0.0366
 6666SOL     OW31633   4.560   3.039   2.687  0.0356 -0.0679  0.3841
 6666SOL    HW131634   4.622   3.112   2.688 -0.3717  0.2971 -0.5361
 6666SOL    HW231635   4.606   2.969   2.642  0.1629  1.5524 -1.9952
 6667SOL     OW31636   3.906   4.334   3.658  0.1423 -0.3595 -0.5137
 6667SOL    HW131637   3.950   4.347   3.574  0.3443 -2.6164 -0.7575
 6667SOL    HW231638   3.835   4.283   3.619 -0.0846  1.2290 -2.1879
 6668SOL     OW31639   0.037   1.554   8.997 -0.4665  0.5118  0.3597
 6668SOL    HW131640   0.112   1.517   8.950 -0.0222  0.3906  1.1611
 6668SOL    HW231641   4.704   1.540   8.933  0.3244  4.2304 -1.2974
 6669SOL     OW31642   3.749   1.174   8.820 -0.7131  0.2293 -0.3293
 6669SOL    HW131643   3.778   1.084   8.835 -2.0635  0.2989  2.6175
 6669SOL    HW231644   3.680   1.152   8.758 -0.8687 -0.3150  0.0338
 6670SOL     OW31645   3.612   2.733   0.793  0.3036 -0.4600 -0.3271
 6670SOL    HW131646   3.623   2.774   0.879  1.6270 -0.4589 -0.5111
 6670SOL    HW231647   3.576   2.651   0.829  0.3947 -0.3820 -0.0574
 6671SOL     OW31648   0.835   3.160  10.694 -0.2998  0.1317 -0.4212
 6671SOL    HW131649   0.813   3.072  10.662 -0.6935  0.5935 -1.4065
 6671SOL    HW231650   0.760   3.181  10.750 -1.2019 -0.9117 -1.2187
 6672SOL     OW31651   2.376   1.515   8.732  0.4628  0.2560 -0.1666
 6672SOL    HW131652   2.325   1.547   8.806  2.4679  1.3942  0.7297
 6672SOL    HW231653   2.308   1.455   8.701 -0.1601  1.5807 -1.3491
 6673SOL     OW31654   2.874   2.225   6.707 -0.0306  0.0131 -0.2773
 6673SOL    HW131655   2.805   2.193   6.648 -1.8013  0.4618  1.5754
 6673SOL    HW231656   2.946   2.255   6.651 -0.6651  1.0452 -0.5533
 6674SOL     OW31657   1.909   2.441   3.392  0.1989  0.2585 -0.0357
 6674SOL    HW131658   1.972   2.484   3.333 -0.0204 -0.7351 -0.9788
 6674SOL    HW231659   1.981   2.416   3.450 -2.1154 -0.7050  2.4052
 6675SOL     OW31660   0.677   1.514   9.708  0.3682  0.1472  0.8925
 6675SOL    HW131661   0.700   1.597   9.748  1.7299 -0.0562  0.5448
 6675SOL    HW231662   0.624   1.469   9.774  1.2421 -1.2846  0.6178
 6676SOL     OW31663   2.848   0.259   8.836 -0.2843  0.2645 -0.2696
 6676SOL    HW131664   2.802   0.308   8.768 -0.1997 -0.1368 -0.6100
 6676SOL    HW231665   2.937   0.259   8.800  0.4754 -0.6691  1.5812
 6677SOL     OW31666   2.601   2.514   6.445 -0.4198 -0.0070 -0.2972
 6677SOL    HW131667   2.685   2.473   6.463 -0.3189  1.0482  1.6344
 6677SOL    HW231668   2.534   2.446   6.447  0.8091 -1.2253 -1.1306
 6678SOL     OW31669   1.704   2.610   7.536 -0.1882  0.3135 -0.1288
 6678SOL    HW131670   1.787   2.617   7.583  0.1024  1.4275 -0.8257
 6678SOL    HW231671   1.682   2.523   7.569 -1.1561  0.5178 -0.2313
 6679SOL     OW31672   1.479   2.536  16.391  0.6965 -0.0597  0.0880
 6679SOL    HW131673   1.405   2.536  16.330  1.6057  3.5864 -1.0465
 6679SOL    HW231674   1.523   2.606  16.342 -1.3051  0.2254 -1.2966
 6680SOL     OW31675   2.268   4.101  10.691  0.5318 -0.2383  0.3497
 6680SOL    HW131676   2.345   4.067  10.737  1.4696  0.2216 -0.8815
 6680SOL    HW231677   2.256   4.045  10.614  2.0668 -0.9970  0.6645
 6681SOL     OW31678   0.565   0.504   5.185 -0.1800 -0.0490  0.2823
 6681SOL    HW131679   0.599   0.592   5.202 -0.1988  0.2464 -1.2804
 6681SOL    HW231680   0.640   0.453   5.215  1.4029  3.2052  1.8965
 6682SOL     OW31681   3.709   4.003   4.930  0.3293 -0.2931  0.6576
 6682SOL    HW131682   3.686   4.025   4.839 -0.2216 -0.9143  0.6472
 6682SOL    HW231683   3.695   4.085   4.977  0.9634 -0.3256  0.9091
 6683SOL     OW31684   0.783   0.734   1.860  0.7643 -0.0791 -0.2862
 6683SOL    HW131685   0.710   0.779   1.820 -0.5758 -1.0626  1.0513
 6683SOL    HW231686   0.836   0.737   1.781  1.6706 -0.1398  0.3129
 6684SOL     OW31687   3.960   1.657  13.108  0.0191  0.2737  0.2457
 6684SOL    HW131688   3.898   1.719  13.069 -1.3448 -1.2357 -0.0118
 6684SOL    HW231689   3.902   1.602  13.161  0.1639 -0.5133 -0.4133
 6685SOL     OW31690   0.450   4.398   7.831  0.2334 -0.0951  0.2961
 6685SOL    HW131691   0.489   4.321   7.790 -1.0725 -1.6967  2.0373
 6685SOL    HW231692   0.385   4.364   7.892  0.1013  0.7441  0.6196
 6686SOL     OW31693   2.496   0.227   2.261  0.1120  0.5654  0.2724
 6686SOL    HW131694   2.573   0.283   2.271  0.7206 -0.1159 -0.6588
 6686SOL    HW231695   2.445   0.253   2.338  1.0791  0.2229  1.0241
 6687SOL     OW31696   3.662   4.279   6.762  0.3716 -0.5536 -0.6479
 6687SOL    HW131697   3.646   4.194   6.720  0.1369 -1.4315  1.2224
 6687SOL    HW231698   3.621   4.342   6.703  2.6943  0.0570 -1.6138
 6688SOL     OW31699   0.586   1.424   3.230  0.4643  0.0454  0.0258
 6688SOL    HW131700   0.615   1.463   3.312  3.1581  0.5786 -1.1872
 6688SOL    HW231701   0.508   1.477   3.212 -1.2266 -2.2828  0.4857
 6689SOL     OW31702   3.584   0.440   8.429 -0.0794 -0.2213 -0.1672
 6689SOL    HW131703   3.598   0.524   8.472  2.7865  0.4717 -2.5045
 6689SOL    HW231704   3.526   0.407   8.497 -0.6403 -1.1073 -1.0653
 6690SOL     OW31705   0.853   0.163   2.586  0.5923 -0.2129 -0.2931
 6690SOL    HW131706   0.948   0.167   2.574  0.5188  2.3051 -0.2133
 6690SOL    HW231707   0.808   0.154   2.503 -0.2485  2.8187 -0.1728
 6691SOL     OW31708   1.805   1.917   3.316 -0.0267  0.1649 -0.1808
 6691SOL    HW131709   1.777   1.988   3.259 -1.5924  0.7897  1.3458
 6691SOL    HW231710   1.754   1.845   3.278 -0.1552  0.6153 -0.8472
 6692SOL     OW31711   0.434   0.284  12.251 -0.2404 -0.4194  0.2774
 6692SOL    HW131712   0.497   0.335  12.200  1.2591 -2.1362  0.4223
 6692SOL    HW231713   0.474   0.197  12.247 -1.0271 -0.6951 -1.5937
 6693SOL     OW31714   1.799   1.786   5.000  0.6683  0.5031 -0.2203
 6693SOL    HW131715   1.802   1.693   4.979  0.9609  1.1128 -2.8818
 6693SOL    HW231716   1.711   1.803   4.966  0.7414  1.5888  0.1376
 6694SOL     OW31717   4.361   0.210   4.042  0.5362  0.5761  0.2222
 6694SOL    HW131718   4.337   0.278   3.979 -1.0531  0.5998  0.8701
 6694SOL    HW231719   4.444   0.249   4.070  0.4803  1.4889 -0.8854
 6695SOL     OW31720   1.221   1.047  10.134  0.2181 -0.1117 -0.4115
 6695SOL    HW131721   1.249   0.959  10.160  1.6772  0.0710 -1.3526
 6695SOL    HW231722   1.147   1.054  10.194  1.5070 -2.9368  1.5122
 6696SOL     OW31723   4.483   3.347   1.271  0.3469  0.5349  0.4872
 6696SOL    HW131724   4.504   3.254   1.262 -0.5143  0.0641  3.3153
 6696SOL    HW231725   4.415   3.346   1.204  1.1231 -1.4875 -0.2948
 6697SOL     OW31726   1.196   2.678  11.340 -0.7491  0.2017 -0.1156
 6697SOL    HW131727   1.211   2.762  11.383  1.5372  2.2022 -4.8131
 6697SOL    HW231728   1.236   2.690  11.254 -1.1378 -0.7666 -0.4350
 6698SOL     OW31729   4.481   1.972  12.486  0.3587 -0.1755 -0.3117
 6698SOL    HW131730   4.521   1.888  12.465  2.3542  0.6591  0.2085
 6698SOL    HW231731   4.424   1.943  12.558  0.7929 -0.1881  0.0302
 6699SOL     OW31732   3.892   2.452  12.929  0.0190 -0.1030  0.2388
 6699SOL    HW131733   3.801   2.464  12.901 -0.2355 -1.0371  0.6440
 6699SOL    HW231734   3.911   2.545  12.925 -0.8708  0.0360 -0.5244
 6700SOL     OW31735   4.284   4.314  12.639  0.4518  0.1226 -0.1543
 6700SOL    HW131736   4.277   4.306  12.734  1.8007  2.0288  0.1206
 6700SOL    HW231737   4.348   4.385  12.636  0.1234  0.4187 -0.1395
 6701SOL     OW31738   3.913   1.930  14.870  0.7636 -0.2886 -0.6749
 6701SOL    HW131739   3.969   2.004  14.890 -0.2601  0.1320  0.6658
 6701SOL    HW231740   3.969   1.863  14.908 -0.3754 -0.9690 -0.1864
 6702SOL     OW31741   1.809   3.169   5.468  0.0632  0.6434 -0.1350
 6702SOL    HW131742   1.895   3.204   5.490  0.8141 -0.7201 -0.9139
 6702SOL    HW231743   1.844   3.085   5.441  0.3630  0.5379  0.5845
 6703SOL     OW31744   2.376   1.029   8.505  0.6458  0.0871 -0.3527
 6703SOL    HW131745   2.287   1.007   8.531  0.1816  0.8612 -1.3002
 6703SOL    HW231746   2.420   0.960   8.555  1.8075  0.9141 -0.2238
 6704SOL     OW31747   3.613   1.542   2.042  0.3900 -0.0213  0.1222
 6704SOL    HW131748   3.705   1.567   2.027  0.0061  1.5806  0.3978
 6704SOL    HW231749   3.604   1.596   2.121 -0.6775 -0.7703  0.5037
 6705SOL     OW31750   2.514   0.382   7.881 -0.2552  0.2529 -0.2705
 6705SOL    HW131751   2.502   0.373   7.786 -1.0732  0.8182 -0.2224
 6705SOL    HW231752   2.453   0.454   7.898  0.1199  0.8614 -1.4363
 6706SOL     OW31753   2.289   1.808   8.410 -0.1750 -0.0306 -0.3184
 6706SOL    HW131754   2.301   1.895   8.372 -2.6459  0.9239  1.0608
 6706SOL    HW231755   2.193   1.807   8.411 -0.2293  3.3497 -2.0226
 6707SOL     OW31756   0.452   4.208  17.322  0.8077 -0.2102 -0.0296
 6707SOL    HW131757   0.472   4.151  17.396 -0.2795 -1.3103 -0.5905
 6707SOL    HW231758   0.537   4.208  17.278  0.0678 -1.2034 -1.4498
 6708SOL     OW31759   4.112   0.484   9.274 -0.6680 -0.2721 -1.0600
 6708SOL    HW131760   4.127   0.530   9.357 -1.2166 -2.1444  0.0919
 6708SOL    HW231761   4.199   0.453   9.250 -0.0415 -1.1338  2.2437
 6709SOL     OW31762   2.903   1.319   2.340  0.1746 -0.5316  0.0167
 6709SOL    HW131763   2.918   1.346   2.249 -1.0566 -1.5595 -0.4989
 6709SOL    HW231764   2.991   1.335   2.375 -0.1091 -0.5454  0.7358
 6710SOL     OW31765   2.555   3.389   2.663  0.6069  0.7610  0.4425
 6710SOL    HW131766   2.646   3.417   2.676  0.0417  0.8734  4.2327
 6710SOL    HW231767   2.523   3.466   2.616 -0.9628 -1.2616 -1.7879
 6711SOL     OW31768   0.240   3.555   4.891 -0.3343 -0.0712 -0.4087
 6711SOL    HW131769   0.224   3.496   4.817  3.0715 -1.4489 -0.0533
 6711SOL    HW231770   0.335   3.565   4.885 -0.1997 -0.7485  0.7747
 6712SOL     OW31771   2.296   0.939  17.309 -0.0563 -0.2007  0.5307
 6712SOL    HW131772   2.385   0.909  17.291 -0.5046 -0.8716 -0.5624
 6712SOL    HW231773   2.254   0.862  17.271  0.0789 -0.5473  1.0926
 6713SOL     OW31774   0.168   3.140   7.635 -0.0819  0.3760 -0.2605
 6713SOL    HW131775   0.087   3.189   7.618  0.3883  0.2318 -2.7966
 6713SOL    HW231776   0.232   3.183   7.579 -1.9173 -0.1516 -2.7290
 6714SOL     OW31777   3.245   2.973   2.780 -0.2053 -0.0695 -0.0149
 6714SOL    HW131778   3.246   3.007   2.869 -1.3687 -0.0261 -0.0206
 6714SOL    HW231779   3.320   3.024   2.748  0.0259 -1.4038 -1.5913
 6715SOL     OW31780   4.183   2.077   1.078 -0.3552  0.1799 -0.3735
 6715SOL    HW131781   4.161   1.989   1.107 -0.4703  0.6552  1.0138
 6715SOL    HW231782   4.187   2.067   0.983  1.4294 -0.0354 -0.2737
 6716SOL     OW31783   2.300   3.107  15.001 -0.2535 -0.4581 -0.3167
 6716SOL    HW131784   2.296   3.023  14.956  0.8591 -1.4551  1.4681
 6716SOL    HW231785   2.240   3.161  14.949  0.7257  0.9627  0.0123
 6717SOL     OW31786   3.420   0.245  11.112 -0.3660  0.2523 -0.5279
 6717SOL    HW131787   3.399   0.332  11.077 -0.6042 -0.1598 -1.4017
 6717SOL    HW231788   3.339   0.238  11.162  1.0671  0.3920  1.8181
 6718SOL     OW31789   3.995   0.804   8.954  0.1287 -0.3170  0.3746
 6718SOL    HW131790   4.016   0.716   8.924  1.0400  0.1380 -0.2878
 6718SOL    HW231791   3.991   0.777   9.046 -1.2568 -1.8008 -0.1113
 6719SOL     OW31792   0.961   2.743   8.053 -0.4979  0.0870  0.1829
 6719SOL    HW131793   0.941   2.696   7.972 -0.2587 -0.4246  0.4233
 6719SOL    HW231794   0.953   2.836   8.029 -1.6444 -0.0205  0.1253
 6720SOL     OW31795   3.689   1.775   9.032 -0.2754 -0.2235  0.5380
 6720SOL    HW131796   3.601   1.802   9.007  0.3032  1.0279 -0.1361
 6720SOL    HW231797   3.669   1.712   9.102  1.8995 -0.2318  1.1581
 6721SOL     OW31798   0.331   0.890  14.539 -0.3015  0.2241 -0.0531
 6721SOL    HW131799   0.249   0.907  14.493  1.2858 -0.2290 -2.9920
 6721SOL    HW231800   0.331   0.794  14.542 -1.0927  0.2691  1.8630
 6722SOL     OW31801   3.389   0.150  12.702 -0.9389  0.1324 -0.1676
 6722SOL    HW131802   3.364   0.165  12.793  0.2706 -2.0067  0.5336
 6722SOL    HW231803   3.423   0.234  12.672  1.7930 -1.2871 -1.0087
 6723SOL     OW31804   2.892   0.682   2.098  0.0593 -0.1905 -0.0995
 6723SOL    HW131805   2.873   0.726   2.016  2.3268 -0.6442 -0.8693
 6723SOL    HW231806   2.895   0.762   2.150 -2.8385 -0.6489  0.7622
 6724SOL     OW31807   4.635   3.127   1.195 -0.0730 -0.0553  0.2120
 6724SOL    HW131808   4.706   3.155   1.138 -0.7911  0.9443 -0.2067
 6724SOL    HW231809   4.686   3.058   1.237 -3.1443 -1.9715  0.8390
 6725SOL     OW31810   4.183   1.928   4.094  0.1777 -0.0764  0.2958
 6725SOL    HW131811   4.246   1.999   4.081  0.7181 -0.7434 -0.7198
 6725SOL    HW231812   4.104   1.981   4.102 -1.9213 -3.0052 -0.9132
 6726SOL     OW31813   2.858   1.525   8.583  0.0573 -0.1482  0.1700
 6726SOL    HW131814   2.942   1.548   8.621 -1.2618  0.9891  2.4442
 6726SOL    HW231815   2.817   1.491   8.663  0.3759 -0.0554  0.3739
 6727SOL     OW31816   1.646   4.048   8.099  0.0037  0.0943  0.7578
 6727SOL    HW131817   1.700   3.973   8.075  1.8527  2.2424 -1.7529
 6727SOL    HW231818   1.571   4.000   8.133 -0.1919 -1.8339 -2.4702
 6728SOL     OW31819   3.874   1.208   8.097  0.2368  0.2890  0.8905
 6728SOL    HW131820   3.939   1.267   8.134  0.6318  0.3792  0.0551
 6728SOL    HW231821   3.795   1.253   8.126 -0.0787  0.4035 -0.1401
 6729SOL     OW31822   2.388   3.826   7.141  0.0558 -0.6532 -0.0377
 6729SOL    HW131823   2.309   3.859   7.183  0.6242 -0.7259  1.1212
 6729SOL    HW231824   2.351   3.775   7.070 -0.2361  1.9126 -1.7385
 6730SOL     OW31825   1.401   0.762  11.750  0.6565  0.4636 -0.1564
 6730SOL    HW131826   1.323   0.815  11.768 -0.0820 -0.2789 -1.1913
 6730SOL    HW231827   1.406   0.757  11.655 -1.3900  0.1636 -0.2495
 6731SOL     OW31828   0.922   3.220  14.029 -0.1266 -0.2370 -0.1338
 6731SOL    HW131829   0.864   3.148  14.005 -0.0611 -0.1115 -0.6535
 6731SOL    HW231830   0.852   3.285  14.034 -1.2351 -1.6453  2.8683
 6732SOL     OW31831   3.007   4.691  10.486 -0.1584 -0.1610 -0.2530
 6732SOL    HW131832   3.076   4.725  10.542 -0.2068 -0.0934 -0.2346
 6732SOL    HW231833   2.981   4.608  10.526 -0.7845  1.2221  2.2076
 6733SOL     OW31834   1.244   2.053   3.429 -0.0286  0.0120  0.1160
 6733SOL    HW131835   1.192   1.974   3.440  1.5800 -1.0533  0.0391
 6733SOL    HW231836   1.227   2.096   3.513  1.0526  2.1801 -0.7645
 6734SOL     OW31837   4.711   4.121   5.227 -0.0848 -0.2707  0.0561
 6734SOL    HW131838   0.015   4.156   5.306  0.7345  0.2665 -0.6095
 6734SOL    HW231839   0.020   4.170   5.160  1.6192 -2.1648 -0.1689
 6735SOL     OW31840   0.078   0.628   5.336 -0.0367 -0.4907  0.0521
 6735SOL    HW131841   0.165   0.599   5.361  1.1821  0.7128 -2.7770
 6735SOL    HW231842   0.101   0.707   5.287 -3.2821 -0.0713 -0.8042
 6736SOL     OW31843   3.450   3.659   4.451  0.7491 -0.3021  0.4966
 6736SOL    HW131844   3.371   3.695   4.491  0.3364 -0.3296 -0.2790
 6736SOL    HW231845   3.470   3.576   4.493  2.4320 -0.2062 -0.1133
 6737SOL     OW31846   3.271   2.827  13.738  0.3428  0.3959 -0.1286
 6737SOL    HW131847   3.214   2.841  13.662 -1.1290 -0.7395  0.7680
 6737SOL    HW231848   3.338   2.894  13.746 -0.5384  1.1111  1.2850
 6738SOL     OW31849   3.730   2.270   7.047 -0.0319 -0.4786  0.4191
 6738SOL    HW131850   3.793   2.198   7.040  2.2466  1.6295 -0.8113
 6738SOL    HW231851   3.782   2.348   7.066  0.2157 -0.4278 -0.4734
 6739SOL     OW31852   0.963   1.928   4.593 -0.0842 -0.0142  0.2134
 6739SOL    HW131853   1.017   1.879   4.531  0.7249  2.5625 -1.0788
 6739SOL    HW231854   0.967   1.869   4.669 -1.1852  2.3567  2.1255
 6740SOL     OW31855   1.803   1.287   4.293 -0.2617 -0.0155 -0.0225
 6740SOL    HW131856   1.797   1.367   4.239  1.2681  2.4546  3.4616
 6740SOL    HW231857   1.755   1.311   4.372 -1.5296 -0.3918 -0.6834
 6741SOL     OW31858   2.781   0.331  13.033  0.2210  0.1637 -0.4303
 6741SOL    HW131859   2.854   0.289  13.079  1.3871  2.4086 -0.2603
 6741SOL    HW231860   2.803   0.316  12.941 -0.3730 -1.9872 -0.2334
 6742SOL     OW31861   0.997   3.549   9.337 -0.0816 -0.1038 -0.0080
 6742SOL    HW131862   1.041   3.582   9.416 -3.1058 -2.8350  2.7943
 6742SOL    HW231863   1.066   3.554   9.270 -0.1752 -2.3978 -0.3007
 6743SOL     OW31864   0.940   4.349   5.249  0.0839  0.1988 -0.0415
 6743SOL    HW131865   0.874   4.297   5.203 -0.9915  0.9413  0.6399
 6743SOL    HW231866   0.936   4.315   5.339 -1.2431 -0.4755 -0.3556
 6744SOL     OW31867   0.975   0.009   6.991  0.1077 -0.2924 -0.0058
 6744SOL    HW131868   0.924   4.667   6.972 -2.1115  1.2062 -0.1931
 6744SOL    HW231869   1.051   4.717   6.941  0.2995 -0.0809  0.1630
 6745SOL     OW31870   4.650   1.332   5.474 -0.5112 -0.6129  0.6939
 6745SOL    HW131871   4.556   1.340   5.459 -0.7756 -1.2678  1.9251
 6745SOL    HW231872   4.685   1.363   5.391 -2.3803  0.4311  0.3054
 6746SOL     OW31873   2.887   2.903   1.364  0.2928 -0.3809 -0.7001
 6746SOL    HW131874   2.870   2.948   1.281  0.2757 -2.4896 -1.8295
 6746SOL    HW231875   2.897   2.980   1.420 -1.7558  1.5968 -3.0378
 6747SOL     OW31876   1.699   1.976   2.506 -0.1951 -0.2213 -0.3660
 6747SOL    HW131877   1.728   2.050   2.453 -0.9249 -0.1181 -0.6155
 6747SOL    HW231878   1.774   1.916   2.505 -0.1877 -0.2679  2.2778
 6748SOL     OW31879   0.763   3.224   3.567  0.2967  0.2389  0.5350
 6748SOL    HW131880   0.741   3.191   3.654  1.2659 -1.5735  0.0972
 6748SOL    HW231881   0.851   3.187   3.557  0.4236  0.7488 -0.2603
 6749SOL     OW31882   4.232   0.810   1.961  0.0239  1.0966 -0.1283
 6749SOL    HW131883   4.142   0.806   1.992  0.8719  0.5804  2.2777
 6749SOL    HW231884   4.243   0.905   1.967  1.3687  0.8914  0.5594
 6750SOL     OW31885   2.677   4.508   9.177  0.0960  0.2791 -0.1772
 6750SOL    HW131886   2.632   4.566   9.115 -2.3287 -1.5651 -0.1423
 6750SOL    HW231887   2.653   4.551   9.259 -2.6549  0.5290 -1.1090
 6751SOL     OW31888   0.391   3.770   9.205 -0.3546 -0.1016 -0.5576
 6751SOL    HW131889   0.376   3.813   9.121  3.3438  0.0497 -1.1204
 6751SOL    HW231890   0.429   3.841   9.256  0.9685 -0.0688 -1.5941
 6752SOL     OW31891   1.483   4.600   6.846  0.0055 -0.3057 -0.0169
 6752SOL    HW131892   1.415   4.535   6.830 -1.0599  0.5262  1.1585
 6752SOL    HW231893   1.503   4.638   6.761 -2.9010 -0.9250 -0.9571
 6753SOL     OW31894   0.826   0.905   3.003  0.0341 -0.5977 -0.0544
 6753SOL    HW131895   0.857   0.844   2.936  0.1405  0.8214 -1.2878
 6753SOL    HW231896   0.794   0.845   3.071  1.9849 -3.2792 -1.5318
 6754SOL     OW31897   3.903   3.577  14.101  0.0712  0.3287 -0.9717
 6754SOL    HW131898   3.968   3.624  14.154 -0.6453  1.4095 -1.0611
 6754SOL    HW231899   3.947   3.579  14.016 -0.0626 -1.3141 -1.0887
 6755SOL     OW31900   1.520   0.897   3.155  0.6982  0.1307  0.3505
 6755SOL    HW131901   1.472   0.860   3.081  2.3369 -0.0715 -0.5906
 6755SOL    HW231902   1.479   0.983   3.166 -1.0450 -0.9167  2.1781
 6756SOL     OW31903   4.598   1.720   4.869  0.6177 -0.0519  0.4214
 6756SOL    HW131904   4.506   1.722   4.843  0.0963 -0.0105  2.2562
 6756SOL    HW231905   4.607   1.626   4.857  0.1552 -0.0320 -0.0612
 6757SOL     OW31906   4.717   1.804   0.271  0.1892 -0.7417  0.1586
 6757SOL    HW131907   4.734   1.736   0.206  2.1368 -0.6126  0.5268
 6757SOL    HW231908   4.622   1.795   0.276 -0.0067  0.7417 -1.0936
 6758SOL     OW31909   3.072   2.535   5.392  0.2030 -0.5936  0.7280
 6758SOL    HW131910   3.130   2.556   5.464 -0.3722  0.4263  0.8937
 6758SOL    HW231911   2.990   2.568   5.429  1.7198  0.8582  2.7639
 6759SOL     OW31912   3.240   2.294   8.239 -0.2850  0.0690  0.2273
 6759SOL    HW131913   3.238   2.226   8.172 -0.7652  1.8648 -1.5797
 6759SOL    HW231914   3.145   2.304   8.248 -0.1427  1.7914 -0.0643
 6760SOL     OW31915   4.345   1.892   2.746 -0.0827  0.0754  0.1562
 6760SOL    HW131916   4.385   1.959   2.691  1.8533 -0.7037  0.6408
 6760SOL    HW231917   4.298   1.949   2.807 -0.5840  1.4149 -1.5033
 6761SOL     OW31918   4.167   1.968  14.065  0.3866  0.1833 -0.1719
 6761SOL    HW131919   4.175   1.884  14.111 -0.2610 -0.2917 -0.9161
 6761SOL    HW231920   4.242   1.970  14.006 -0.4213  3.5851 -1.0593
 6762SOL     OW31921   3.966   0.600   9.968 -0.5246 -0.2039  0.0148
 6762SOL    HW131922   4.026   0.554   9.909  0.0659  0.7410 -0.1244
 6762SOL    HW231923   3.953   0.681   9.919  0.4082 -0.1386 -0.1314
 6763SOL     OW31924   1.396   3.860   3.012  0.1852 -0.0169 -0.5786
 6763SOL    HW131925   1.483   3.828   3.039  1.0985  0.4834 -2.9329
 6763SOL    HW231926   1.400   3.946   3.054  0.4018 -0.7677  0.9642
 6764SOL     OW31927   3.244   1.877  10.471 -0.0893 -0.2340  0.1375
 6764SOL    HW131928   3.288   1.803  10.430  0.7970 -0.0062  0.6688
 6764SOL    HW231929   3.165   1.830  10.494  0.2291 -0.5795  0.5178
 6765SOL     OW31930   0.445   2.356   7.770  0.2134 -0.1866 -0.0625
 6765SOL    HW131931   0.362   2.358   7.723 -0.3203  0.3695  0.9031
 6765SOL    HW231932   0.452   2.263   7.791  0.5099 -0.6553 -2.2193
 6766SOL     OW31933   1.631   0.526   2.143  0.0655  0.0878 -0.1080
 6766SOL    HW131934   1.713   0.502   2.186 -1.2061 -1.0596  1.6496
 6766SOL    HW231935   1.622   0.616   2.174 -0.1905 -0.8683  2.5803
 6767SOL     OW31936   2.038   1.916   6.030 -0.4713  0.0631 -0.1487
 6767SOL    HW131937   2.034   1.978   6.103  1.1258  0.2788 -0.2358
 6767SOL    HW231938   2.058   1.972   5.955  1.7004 -0.1464  0.2588
 6768SOL     OW31939   4.646   0.571  13.661 -0.3804 -0.2896 -0.1358
 6768SOL    HW131940   4.706   0.583  13.735  1.3889 -0.2463 -1.5737
 6768SOL    HW231941   4.574   0.624  13.694 -0.0064 -0.2599  0.6259
 6769SOL     OW31942   3.382   4.540   7.274 -0.1256 -0.0026 -0.1269
 6769SOL    HW131943   3.347   4.510   7.191 -2.7299  0.8789  0.6596
 6769SOL    HW231944   3.388   4.633   7.255  3.0571 -0.2997 -0.6216
 6770SOL     OW31945   0.776   3.656   9.187  0.0595  0.2122  0.2465
 6770SOL    HW131946   0.857   3.624   9.227  1.6503  2.7974 -0.9372
 6770SOL    HW231947   0.791   3.750   9.182  0.5171  0.1519  0.4871
 6771SOL     OW31948   0.890   4.298   7.454 -0.0831  0.0248 -0.4148
 6771SOL    HW131949   0.814   4.356   7.448 -0.9450 -1.1597 -1.0384
 6771SOL    HW231950   0.956   4.366   7.466  0.2947  0.1242 -3.2093
 6772SOL     OW31951   3.258   3.442   2.026 -0.2637 -0.1959 -0.1144
 6772SOL    HW131952   3.242   3.349   2.013  0.1884 -0.1766 -0.8202
 6772SOL    HW231953   3.172   3.459   2.064  0.9031 -2.1697  3.4791
 6773SOL     OW31954   1.477   3.197   3.280  0.1164  0.3089  0.1723
 6773SOL    HW131955   1.384   3.193   3.303  0.5760  0.9422  2.1651
 6773SOL    HW231956   1.463   3.210   3.186  1.5492 -0.8617 -0.2068
 6774SOL     OW31957   1.468   3.607   3.886  0.1538 -0.3517 -0.2992
 6774SOL    HW131958   1.424   3.651   3.814 -2.1025 -1.6883  0.2748
 6774SOL    HW231959   1.405   3.538   3.905  1.3696 -0.6585  2.7042
 6775SOL     OW31960   2.566   0.583   5.136  0.2157  0.2285  0.3632
 6775SOL    HW131961   2.608   0.548   5.057 -1.3050  0.6837 -0.6448
 6775SOL    HW231962   2.479   0.544   5.127 -0.0490  1.3523 -1.9346
 6776SOL     OW31963   1.087   0.914   3.801  0.2070  0.0167  0.5789
 6776SOL    HW131964   1.146   0.951   3.866 -1.6508  1.4421  1.4671
 6776SOL    HW231965   1.124   0.950   3.721 -2.0651  0.1317 -0.4296
 6777SOL     OW31966   2.864   4.500   7.015 -0.4235  0.2383  0.3440
 6777SOL    HW131967   2.824   4.460   7.092 -2.4827  1.1826 -0.2468
 6777SOL    HW231968   2.940   4.441   7.010 -1.3314 -0.7146 -2.1060
 6778SOL     OW31969   3.172   0.165   8.143 -0.1404  0.0799 -0.0392
 6778SOL    HW131970   3.250   0.200   8.187  0.2338  1.3872 -1.7338
 6778SOL    HW231971   3.115   0.146   8.218  0.9696 -1.2359  0.4831
 6779SOL     OW31972   3.635   1.040   1.866 -0.1396 -0.2879  0.2195
 6779SOL    HW131973   3.664   0.982   1.795  0.4096  1.2046 -0.7545
 6779SOL    HW231974   3.705   1.105   1.871 -0.9094  0.5381  0.2016
 6780SOL     OW31975   3.447   2.059   3.604 -0.0264 -0.1685  0.0887
 6780SOL    HW131976   3.519   2.032   3.661 -0.6302 -0.4705  0.7098
 6780SOL    HW231977   3.380   2.055   3.672  0.9931  1.1537  1.1480
 6781SOL     OW31978   1.147   3.716   5.032 -0.2725  0.0217  0.1964
 6781SOL    HW131979   1.231   3.703   5.076 -0.2582 -0.7067 -0.0511
 6781SOL    HW231980   1.093   3.744   5.107  0.9324 -0.9548  1.4194
 6782SOL     OW31981   0.269   3.166  10.506  0.3475 -0.3445 -0.0724
 6782SOL    HW131982   0.270   3.180  10.411  0.7736 -1.1936 -0.1966
 6782SOL    HW231983   0.353   3.200  10.537 -0.3754 -1.3338  2.9128
 6783SOL     OW31984   4.331   1.813   9.787  0.1917 -0.6856 -0.2814
 6783SOL    HW131985   4.314   1.868   9.863  0.3354  1.1910 -1.5934
 6783SOL    HW231986   4.365   1.737   9.834  1.3267 -0.9085 -1.4496
 6784SOL     OW31987   0.337   2.141   5.446  0.0181  0.0977  0.3379
 6784SOL    HW131988   0.413   2.093   5.480  0.0885 -0.0517 -0.0396
 6784SOL    HW231989   0.378   2.228   5.435  0.0721 -0.1313 -1.2468
 6785SOL     OW31990   1.085   1.490   7.061  0.1390 -0.5520  0.1171
 6785SOL    HW131991   1.147   1.543   7.010 -0.2569  1.1271  1.3983
 6785SOL    HW231992   1.046   1.453   6.981  0.9925 -0.3456 -0.4040
 6786SOL     OW31993   1.119   2.503   9.768 -0.3894 -0.4522 -0.4636
 6786SOL    HW131994   1.033   2.544   9.775  0.5516  1.5431 -0.6391
 6786SOL    HW231995   1.150   2.523   9.680 -0.2240  0.8710 -0.0982
 6787SOL     OW31996   1.951   3.940   1.296  0.2375  0.2556 -0.2218
 6787SOL    HW131997   1.966   3.991   1.376  2.0603 -1.6338  0.6442
 6787SOL    HW231998   1.867   3.901   1.318 -0.0718  1.0131 -0.0485
 6788SOL     OW31999   2.577   3.163   8.003 -0.1562  0.3554  0.6180
 6788SOL    HW132000   2.579   3.112   7.922 -1.5861  0.0166  0.8080
 6788SOL    HW232001   2.565   3.093   8.067 -0.8048  1.2271  1.4549
 6789SOL     OW32002   4.320   1.628   9.379 -0.0352 -0.2031 -0.3726
 6789SOL    HW132003   4.336   1.538   9.409 -1.6036  0.1966  1.7078
 6789SOL    HW232004   4.352   1.671   9.459  0.0096 -2.2984  0.7358
 6790SOL     OW32005   3.644   1.548   9.167 -0.3498  0.0970  0.1043
 6790SOL    HW132006   3.706   1.556   9.239 -0.7844  2.2654  0.2189
 6790SOL    HW232007   3.640   1.453   9.152 -0.9137  0.1449 -0.0752
 6791SOL     OW32008   0.880   4.557   5.867  0.0092 -0.6077  0.0394
 6791SOL    HW132009   0.824   4.627   5.900  0.0963 -1.0149  1.0821
 6791SOL    HW232010   0.841   4.560   5.780  2.8206  2.1488 -1.0954
 6792SOL     OW32011   4.423   4.098   5.063  0.2734  0.2097  0.3194
 6792SOL    HW132012   4.440   4.071   4.973  0.5946 -2.8276  1.2821
 6792SOL    HW232013   4.506   4.098   5.111 -0.7311 -0.2775  2.0493
 6793SOL     OW32014   1.876   1.931   6.869 -0.5197  0.0398  0.0938
 6793SOL    HW132015   1.857   1.995   6.800 -0.8231  0.8488  0.9194
 6793SOL    HW232016   1.794   1.935   6.918 -1.1847  1.0338 -1.1074
 6794SOL     OW32017   4.188   3.564   6.560  0.0191 -0.0196 -0.0486
 6794SOL    HW132018   4.275   3.537   6.591 -0.7235 -0.9867  1.1931
 6794SOL    HW232019   4.218   3.652   6.538 -0.7080  0.3473  0.4311
 6795SOL     OW32020   0.808   3.438  17.148 -0.2663 -0.5058  0.2226
 6795SOL    HW132021   0.781   3.405  17.062  1.6975 -1.4909 -0.0237
 6795SOL    HW232022   0.904   3.440  17.143 -0.1853  1.1806  2.5653
 6796SOL     OW32023   3.583   0.457  10.061  0.6225  0.0551 -0.4157
 6796SOL    HW132024   3.585   0.368  10.026  0.2925 -0.5850  1.1748
 6796SOL    HW232025   3.523   0.505  10.005 -3.8218 -1.4135  3.0442
 6797SOL     OW32026   0.869   0.047   2.141  0.4498  0.6012  0.1518
 6797SOL    HW132027   0.914   0.121   2.100 -1.5577  1.6679 -0.1250
 6797SOL    HW232028   0.840   0.081   2.226 -2.5357  0.8746 -0.9541
 6798SOL     OW32029   4.479   2.779   3.795  0.1328 -0.7226  1.0030
 6798SOL    HW132030   4.400   2.792   3.742  0.2959 -0.5883  0.7888
 6798SOL    HW232031   4.509   2.870   3.786 -0.4634 -0.6816 -0.5715
 6799SOL     OW32032   1.907   1.274   9.300 -0.1153 -0.1348  0.0752
 6799SOL    HW132033   1.952   1.268   9.216 -1.7672  1.7753 -0.9468
 6799SOL    HW232034   1.915   1.367   9.321  1.1865 -0.0113 -1.0279
 6800SOL     OW32035   4.022   0.584   3.508 -0.1615  0.0397 -0.8431
 6800SOL    HW132036   4.082   0.562   3.579  0.7032 -2.1491 -2.2703
 6800SOL    HW232037   3.947   0.535   3.542  0.9152 -1.4551 -0.6534
 6801SOL     OW32038   3.610   0.019   8.167 -0.2528  0.4647  0.0305
 6801SOL    HW132039   3.680   0.079   8.141  0.1914  0.2400  0.7092
 6801SOL    HW232040   3.583   0.059   8.249  1.5895  3.0529 -0.6335
 6802SOL     OW32041   3.420   1.762   1.921  0.2884 -0.3020  0.1366
 6802SOL    HW132042   3.494   1.739   1.978  1.1365 -1.6226 -1.4853
 6802SOL    HW232043   3.410   1.679   1.875 -0.9066  0.1163 -0.3389
 6803SOL     OW32044   4.190   4.588   2.731  0.3525 -0.1494  0.0219
 6803SOL    HW132045   4.098   4.599   2.755  1.4446  4.2177  2.1443
 6803SOL    HW232046   4.189   4.621   2.641  0.5092  1.2312  0.5307
 6804SOL     OW32047   0.301   3.548   9.013 -0.1224 -0.7315  0.5538
 6804SOL    HW132048   0.263   3.628   8.979  0.6837 -0.6034 -0.0293
 6804SOL    HW232049   0.310   3.567   9.107 -4.2867  0.7985  0.6416
 6805SOL     OW32050   4.501   2.633  10.768  0.7299 -0.1392  0.4925
 6805SOL    HW132051   4.453   2.705  10.727 -0.0076 -0.3603  0.9701
 6805SOL    HW232052   4.513   2.571  10.696  1.4272  0.1404  0.3592
 6806SOL     OW32053   3.531   1.180   4.339  0.1308  0.6665  0.9415
 6806SOL    HW132054   3.575   1.251   4.387 -0.8981  2.4541 -0.7708
 6806SOL    HW232055   3.592   1.156   4.270 -1.1110  1.4317 -0.4263
 6807SOL     OW32056   1.255   1.081  11.522 -0.3894 -0.2257 -0.2064
 6807SOL    HW132057   1.322   1.119  11.580  0.1950  0.1200 -1.0993
 6807SOL    HW232058   1.201   1.040  11.589 -1.8023  1.0342 -0.5689
 6808SOL     OW32059   0.739   0.657  14.384  0.0512 -0.0701 -0.3845
 6808SOL    HW132060   0.734   0.689  14.294 -0.4476 -1.3041 -0.7843
 6808SOL    HW232061   0.793   0.721  14.432 -1.0027  0.1968  0.4328
 6809SOL     OW32062   1.606   0.290   5.337 -0.1345  0.1468 -0.3175
 6809SOL    HW132063   1.636   0.348   5.407 -3.8899  0.1815  1.3061
 6809SOL    HW232064   1.636   0.207   5.373  0.4117  0.4866  0.0129
 6810SOL     OW32065   3.174   4.124  17.381  0.2183  0.3662  0.2775
 6810SOL    HW132066   3.095   4.129  17.435  0.9593 -1.7541  1.5692
 6810SOL    HW232067   3.147   4.151  17.294 -0.3557 -1.7970 -0.1944
 6811SOL     OW32068   4.361   4.519   6.126 -0.0353  0.2565 -0.1589
 6811SOL    HW132069   4.377   4.547   6.036  0.3055  1.4822  0.2926
 6811SOL    HW232070   4.339   4.606   6.158 -0.4338  0.4125 -0.8806
 6812SOL     OW32071   2.919   4.622   1.359 -0.1560 -0.3044  0.1115
 6812SOL    HW132072   2.885   4.534   1.340  1.2479 -0.6824 -0.6980
 6812SOL    HW232073   2.921   4.622   1.454  1.3125  0.7032  0.0847
 6813SOL     OW32074   4.215   3.727   1.486 -0.2514 -0.4918 -0.3960
 6813SOL    HW132075   4.265   3.809   1.482 -0.9437 -0.0744 -0.4775
 6813SOL    HW232076   4.207   3.722   1.391 -2.6820 -0.0409 -0.2107
 6814SOL     OW32077   0.023   1.953   1.493  0.2053 -0.6022  0.2967
 6814SOL    HW132078   0.107   1.910   1.473  0.2197 -0.0094 -0.8985
 6814SOL    HW232079   4.707   1.913   1.425  2.9118 -1.6177 -1.2139
 6815SOL     OW32080   3.657   4.171  11.936  0.6145 -0.6964 -0.0914
 6815SOL    HW132081   3.618   4.084  11.924  0.8090 -0.6759 -0.8561
 6815SOL    HW232082   3.595   4.217  11.992  2.2262  1.3096  0.0478
 6816SOL     OW32083   3.159   1.653   9.028  0.1660 -0.1458  0.2641
 6816SOL    HW132084   3.235   1.596   9.018  0.1694  0.1954 -1.6515
 6816SOL    HW232085   3.139   1.649   9.122 -0.5713 -0.8110  0.0830
 6817SOL     OW32086   3.621   2.928   5.558 -0.4367  0.0727 -0.0996
 6817SOL    HW132087   3.635   2.979   5.638  0.1836  1.0329 -0.8136
 6817SOL    HW232088   3.545   2.968   5.515 -0.1882 -0.8795 -1.4355
 6818SOL     OW32089   3.174   1.178   7.143  0.7559  0.1004 -0.1270
 6818SOL    HW132090   3.266   1.178   7.116  1.1172 -0.4473  1.0976
 6818SOL    HW232091   3.167   1.264   7.184 -0.8281 -0.2711  0.3855
 6819SOL     OW32092   1.573   3.257   4.566 -0.4388 -0.1902 -0.4259
 6819SOL    HW132093   1.622   3.320   4.512 -0.4905  1.2627  1.2305
 6819SOL    HW232094   1.500   3.235   4.508 -1.2554  0.8446  0.2128
 6820SOL     OW32095   2.510   2.392   3.272  0.5811  0.0305  0.0325
 6820SOL    HW132096   2.520   2.296   3.275 -0.8297 -0.1482 -1.2184
 6820SOL    HW232097   2.442   2.400   3.206  0.6996 -0.2538 -0.1280
 6821SOL     OW32098   4.167   0.308   2.932  0.4877  0.1650  0.1968
 6821SOL    HW132099   4.232   0.238   2.933 -1.2131 -1.4108  1.1646
 6821SOL    HW232100   4.096   0.263   2.979  0.1688  1.4173  0.9023
 6822SOL     OW32101   0.808   3.908   9.261 -0.4690  0.1781 -0.2670
 6822SOL    HW132102   0.822   3.971   9.332 -1.0149  2.3952 -2.1283
 6822SOL    HW232103   0.895   3.901   9.223 -1.0359  1.0422 -1.7069
 6823SOL     OW32104   1.196   4.675   2.998 -0.0928  0.2552  0.1048
 6823SOL    HW132105   1.279   4.647   3.035  0.2175 -0.2200 -0.9726
 6823SOL    HW232106   1.239   4.731   2.934  1.4608  1.7552  2.4512
 6824SOL     OW32107   1.499   0.527  16.699  0.2012  0.3314  0.0557
 6824SOL    HW132108   1.524   0.560  16.785  2.5984 -0.3339 -0.3998
 6824SOL    HW232109   1.406   0.502  16.701  0.5177 -0.8006  0.5253
 6825SOL     OW32110   0.095   0.890   2.413 -0.1259  0.6010  0.4567
 6825SOL    HW132111   0.024   0.938   2.455 -1.0912  0.4789 -1.0435
 6825SOL    HW232112   0.078   0.805   2.452 -1.1409  0.9789  0.8308
 6826SOL     OW32113   1.441   2.193   4.328  0.1782  0.0656 -0.0841
 6826SOL    HW132114   1.436   2.143   4.246 -0.3282  1.9179 -1.1895
 6826SOL    HW232115   1.522   2.160   4.367  0.0040 -0.0348  0.1872
 6827SOL     OW32116   2.581   2.711  11.796  0.2253  0.3002  0.7563
 6827SOL    HW132117   2.513   2.700  11.862 -1.4938 -1.7792 -1.3298
 6827SOL    HW232118   2.541   2.768  11.731  1.0510 -0.3182 -0.3013
 6828SOL     OW32119   1.471   1.881   6.302  0.2145  0.1785  0.4722
 6828SOL    HW132120   1.438   1.928   6.227 -0.8675 -1.2794  0.0377
 6828SOL    HW232121   1.564   1.903   6.291  1.1493 -2.9031  2.0633
 6829SOL     OW32122   0.893   2.452   5.874 -0.3356 -0.5543 -0.4044
 6829SOL    HW132123   0.955   2.510   5.832  0.1304 -1.5675 -1.1088
 6829SOL    HW232124   0.811   2.470   5.828 -2.0477 -2.3045  1.9348
 6830SOL     OW32125   3.107   0.397  10.067  0.1008 -0.2169 -0.4626
 6830SOL    HW132126   3.114   0.378  10.161  1.0543  2.7894  0.0451
 6830SOL    HW232127   3.184   0.349  10.037  0.6899  0.1488  0.4892
 6831SOL     OW32128   3.635   1.860   4.326 -0.3061  0.3356 -0.0313
 6831SOL    HW132129   3.619   1.947   4.363  2.2988 -0.1167  2.1303
 6831SOL    HW232130   3.624   1.885   4.234 -1.0878  3.2132  0.8272
 6832SOL     OW32131   3.641   3.925   8.612 -0.4080  0.4929 -0.1647
 6832SOL    HW132132   3.669   3.979   8.538  0.6727 -1.3898 -1.1225
 6832SOL    HW232133   3.557   3.966   8.637 -1.2300  0.5729 -3.0849
 6833SOL     OW32134   1.598   0.683  14.725  0.4899  0.2706 -0.1132
 6833SOL    HW132135   1.510   0.646  14.717 -0.6561  2.6810  1.2114
 6833SOL    HW232136   1.620   0.637  14.644  0.0905 -1.1592  0.5920
 6834SOL     OW32137   4.088   2.463  12.644 -0.3917 -0.1305 -0.2263
 6834SOL    HW132138   4.163   2.435  12.591 -0.8770 -1.0625 -0.4382
 6834SOL    HW232139   4.047   2.382  12.674 -0.2100  0.1937  0.9026
 6835SOL     OW32140   3.118   4.536   1.984  0.7929 -0.0200 -0.2650
 6835SOL    HW132141   3.197   4.515   2.034  1.8962  0.2911 -1.8613
 6835SOL    HW232142   3.125   4.631   1.980 -0.7314  0.1136  0.3288
 6836SOL     OW32143   1.596   1.125  12.117 -0.0798 -0.0023  0.3807
 6836SOL    HW132144   1.537   1.052  12.098  0.0120  0.3890 -1.4010
 6836SOL    HW232145   1.657   1.097  12.049 -0.9301  0.4880 -0.5789
 6837SOL     OW32146   1.682   2.226   8.434  0.1676 -0.0081  0.3687
 6837SOL    HW132147   1.698   2.276   8.513  1.2362  1.7401 -0.9698
 6837SOL    HW232148   1.587   2.234   8.423  0.6199  0.0923 -3.4304
 6838SOL     OW32149   2.188   1.662   4.631 -0.0553 -0.4417  0.2618
 6838SOL    HW132150   2.262   1.716   4.604 -1.8902  1.7163 -0.4603
 6838SOL    HW232151   2.128   1.664   4.557 -2.5498  1.0716  2.3031
 6839SOL     OW32152   4.399   3.415   5.331 -0.1260  0.5184  0.1399
 6839SOL    HW132153   4.379   3.504   5.302 -1.6150  0.7202  1.7924
 6839SOL    HW232154   4.309   3.382   5.330  0.2856 -0.5056 -3.3774
 6840SOL     OW32155   0.036   2.944   7.080 -1.1069 -0.6106  0.8833
 6840SOL    HW132156   0.124   2.922   7.051 -2.7741 -1.4032 -3.5931
 6840SOL    HW232157   0.002   2.868   7.126 -3.4725  0.2393  0.5431
 6841SOL     OW32158   3.905   1.489   6.187  0.4781  0.1577 -0.1547
 6841SOL    HW132159   3.968   1.467   6.256  1.6145 -2.7087 -2.0752
 6841SOL    HW232160   3.942   1.434   6.117  2.6302  1.3710  0.0330
 6842SOL     OW32161   0.271   3.722   8.497 -0.3710 -0.2781  0.0472
 6842SOL    HW132162   0.299   3.631   8.499  0.8192  0.0870 -0.3363
 6842SOL    HW232163   0.175   3.717   8.506 -0.6355  1.3184 -1.9394
 6843SOL     OW32164   2.298   4.274   4.581  0.3244 -0.3022 -0.2866
 6843SOL    HW132165   2.347   4.350   4.549  0.8988 -0.5881 -0.0752
 6843SOL    HW232166   2.240   4.310   4.649 -0.1421  0.5961 -1.1588
 6844SOL     OW32167   4.706   3.983   7.116  0.0960  0.0045  0.4222
 6844SOL    HW132168   4.648   3.994   7.040 -0.1772 -0.2658  0.5919
 6844SOL    HW232169   0.045   4.038   7.099  0.6276 -0.4489  1.3391
 6845SOL     OW32170   1.564   1.089   5.165 -0.0878 -0.0539 -0.0491
 6845SOL    HW132171   1.572   1.164   5.106  0.0650 -0.4955 -0.5778
 6845SOL    HW232172   1.487   1.121   5.213 -1.0766 -2.9129  0.2496
 6846SOL     OW32173   0.769   3.998   3.088  0.3305 -0.4775 -0.1182
 6846SOL    HW132174   0.753   3.904   3.095 -2.3848  0.0983  1.3223
 6846SOL    HW232175   0.725   4.023   3.007  0.9045  2.2524  0.3877
 6847SOL     OW32176   4.036   2.970   7.686 -0.4516 -0.0643 -0.2073
 6847SOL    HW132177   4.073   2.995   7.602  0.0523 -0.8138 -0.2047
 6847SOL    HW232178   4.075   2.883   7.687  0.4188  0.3217  0.1611
 6848SOL     OW32179   0.533   2.771  12.996 -0.0550 -0.0853 -0.0971
 6848SOL    HW132180   0.604   2.713  12.967 -2.1583 -1.9816 -1.3855
 6848SOL    HW232181   0.583   2.852  13.008  1.3384 -0.4630 -3.1745
 6849SOL     OW32182   3.977   4.070  10.692  0.2733 -0.0820  0.1276
 6849SOL    HW132183   4.015   4.154  10.718  1.4703 -0.3020 -0.9047
 6849SOL    HW232184   3.984   4.063  10.597 -0.7576 -0.4593  0.0862
 6850SOL     OW32185   4.418   3.916  10.931 -0.2179 -0.3957  0.3743
 6850SOL    HW132186   4.356   3.956  10.870  1.3804 -1.4852 -1.9563
 6850SOL    HW232187   4.393   3.948  11.018  0.0081 -0.4127  0.4440
 6851SOL     OW32188   1.149   2.445  10.229  0.7504  0.2654 -0.2011
 6851SOL    HW132189   1.206   2.500  10.283  0.0975 -0.6766  1.4391
 6851SOL    HW232190   1.191   2.439  10.143 -0.7831  1.9019 -1.0577
 6852SOL     OW32191   3.647   3.242   7.495  0.9040 -0.1458 -0.3246
 6852SOL    HW132192   3.704   3.166   7.483 -0.3176 -1.0257 -0.5293
 6852SOL    HW232193   3.612   3.220   7.581  1.4784 -1.0531 -0.3291
 6853SOL     OW32194   0.131   1.079   2.962 -0.5608 -0.0938  0.4844
 6853SOL    HW132195   0.188   1.152   2.938 -1.1103 -0.7667 -2.9185
 6853SOL    HW232196   0.075   1.111   3.033  0.7119  1.9653  0.5447
 6854SOL     OW32197   2.240   1.259  15.370 -0.7970  0.0302 -0.1100
 6854SOL    HW132198   2.171   1.319  15.340 -0.7505  0.3389  0.3885
 6854SOL    HW232199   2.293   1.226  15.298  0.1752  1.5719 -0.1205
 6855SOL     OW32200   1.083   3.347   4.688  0.9167  0.9098  0.6982
 6855SOL    HW132201   1.171   3.323   4.716  0.7608 -1.4233 -0.8542
 6855SOL    HW232202   1.061   3.268   4.638 -0.2150  1.8073 -0.2315
 6856SOL     OW32203   1.224   2.317   6.726 -0.5290 -0.3140 -0.1655
 6856SOL    HW132204   1.164   2.323   6.652 -0.0050  1.1155 -0.4786
 6856SOL    HW232205   1.309   2.300   6.686 -0.4210  0.0511 -0.0931
 6857SOL     OW32206   0.474   2.341  10.492 -0.2129 -0.2816  0.3800
 6857SOL    HW132207   0.546   2.300  10.444 -0.6839  0.3491 -0.8594
 6857SOL    HW232208   0.487   2.305  10.580 -1.9069 -2.5836 -0.2936
 6858SOL     OW32209   0.726   1.292   7.753  0.1340  0.2275 -0.2701
 6858SOL    HW132210   0.680   1.222   7.706 -0.1113 -0.3537  0.8376
 6858SOL    HW232211   0.657   1.338   7.801  2.4033  1.0922  2.1350
 6859SOL     OW32212   2.933   4.150  14.642  0.3045  1.2380 -0.0451
 6859SOL    HW132213   2.949   4.087  14.571  1.0488 -2.4799  3.4129
 6859SOL    HW232214   3.011   4.206  14.635  1.4128 -0.1401  1.1705
 6860SOL     OW32215   3.993   0.127   4.922  0.3553 -0.0394  0.0959
 6860SOL    HW132216   3.908   0.123   4.965  0.9962 -0.1932  1.3299
 6860SOL    HW232217   4.048   0.151   4.997  0.7191 -1.3479  0.2401
 6861SOL     OW32218   2.313   0.587   7.869 -0.2112  0.2006  0.2438
 6861SOL    HW132219   2.243   0.563   7.931 -0.9659 -0.5640 -0.9148
 6861SOL    HW232220   2.270   0.581   7.784  0.4756 -0.8162 -0.0331
 6862SOL     OW32221   1.126   2.611   5.143  0.5448  0.6222 -0.3385
 6862SOL    HW132222   1.146   2.536   5.086  2.4054  0.3636  0.6612
 6862SOL    HW232223   1.162   2.686   5.096  0.7923  1.7774  1.6918
 6863SOL     OW32224   1.516   2.119   1.118  0.0166  0.0149  0.0077
 6863SOL    HW132225   1.535   2.044   1.061  0.0562  0.3051 -0.3650
 6863SOL    HW232226   1.600   2.162   1.104  0.6538 -1.3582 -0.4061
 6864SOL     OW32227   2.093   0.645   4.879  0.4678 -0.2689 -0.1167
 6864SOL    HW132228   2.089   0.719   4.939 -1.7260 -1.1284  0.8142
 6864SOL    HW232229   2.155   0.680   4.815  0.0753 -0.9611 -0.8800
 6865SOL     OW32230   1.153   3.869  16.588 -0.3833 -0.1095  0.3245
 6865SOL    HW132231   1.120   3.790  16.544 -0.7789  1.8079 -2.8325
 6865SOL    HW232232   1.196   3.833  16.666  0.8961  2.2563  0.7148
 6866SOL     OW32233   0.716   0.323   8.200 -0.0950  0.1345 -0.3192
 6866SOL    HW132234   0.649   0.344   8.134 -0.9199  2.3249  1.2068
 6866SOL    HW232235   0.733   0.409   8.239  2.5015 -0.1324 -0.9019
 6867SOL     OW32236   2.472   3.871  16.297  0.4979 -0.4493  0.7065
 6867SOL    HW132237   2.473   3.934  16.368 -0.6767 -0.4527  0.7177
 6867SOL    HW232238   2.566   3.867  16.279  0.8453 -2.2249  2.8783
 6868SOL     OW32239   4.686   1.904   1.234 -0.3294  0.0409 -0.0743
 6868SOL    HW132240   4.675   1.903   1.139 -1.6023  1.3735  0.0481
 6868SOL    HW232241   4.602   1.949   1.249 -0.0696  0.1878  0.9621
 6869SOL     OW32242   4.120   2.529   6.538 -0.0485  0.2531  0.0825
 6869SOL    HW132243   4.081   2.606   6.497 -1.9246  0.5762  2.4672
 6869SOL    HW232244   4.155   2.571   6.617 -0.6607  1.0347 -0.0678
 6870SOL     OW32245   3.792   4.095   3.054  0.2118 -0.3243  0.4130
 6870SOL    HW132246   3.797   4.190   3.063 -1.4569 -0.2454  0.5093
 6870SOL    HW232247   3.728   4.073   3.122  0.0896 -0.9440  0.0906
 6871SOL     OW32248   0.114   4.010   8.529 -0.2580  0.1254  0.2718
 6871SOL    HW132249   0.206   3.984   8.515 -0.7482 -0.4060 -1.9445
 6871SOL    HW232250   0.126   4.082   8.590  1.0685 -1.0160  1.3630
 6872SOL     OW32251   4.408   1.861   2.419  0.0182 -0.5940  0.0479
 6872SOL    HW132252   4.383   1.784   2.470  0.2572 -0.3877  0.4861
 6872SOL    HW232253   4.489   1.885   2.465 -1.7588 -0.3459  3.0567
 6873SOL     OW32254   3.303   0.633   9.044  0.4864  0.4285  0.1171
 6873SOL    HW132255   3.224   0.660   8.997  1.4906 -0.8886 -2.3063
 6873SOL    HW232256   3.372   0.659   8.983  1.3553 -1.5817  0.2691
 6874SOL     OW32257   3.345   0.923  14.914  0.8302  0.4127  0.0748
 6874SOL    HW132258   3.290   1.001  14.916 -0.7607 -0.7196  0.4133
 6874SOL    HW232259   3.287   0.858  14.874 -0.4703  0.1405  2.4039
 6875SOL     OW32260   0.663   3.743   6.708 -0.1372  0.6610  0.0460
 6875SOL    HW132261   0.656   3.773   6.799 -1.5178 -0.9119  0.4540
 6875SOL    HW232262   0.574   3.718   6.683  0.8858 -0.2890 -2.7021
 6876SOL     OW32263   1.749   4.289   5.712  0.0768 -0.0848 -0.0961
 6876SOL    HW132264   1.722   4.286   5.803 -1.9553 -1.1636 -0.7375
 6876SOL    HW232265   1.841   4.313   5.720 -0.0688 -0.3264  2.2060
 6877SOL     OW32266   0.260   4.014   2.428  0.2339  0.4794  0.5090
 6877SOL    HW132267   0.297   3.950   2.489 -0.4252 -0.1093  0.2813
 6877SOL    HW232268   0.179   3.979   2.391  1.7508 -1.3867 -1.0501
 6878SOL     OW32269   3.477   1.669   3.135 -0.2008  0.1993 -0.7526
 6878SOL    HW132270   3.518   1.660   3.221  0.9305  1.2170 -1.1827
 6878SOL    HW232271   3.537   1.729   3.091 -1.8798  0.6644 -2.4263
 6879SOL     OW32272   3.073   2.629  15.408  0.2462  0.1486  0.0584
 6879SOL    HW132273   3.068   2.715  15.450 -0.9595 -0.2008  0.6517
 6879SOL    HW232274   3.020   2.651  15.331  1.1690 -1.3533 -0.9959
 6880SOL     OW32275   3.321   0.057   6.546  0.1264  0.3104  0.0319
 6880SOL    HW132276   3.306   4.703   6.571 -0.7328 -0.5385 -3.5142
 6880SOL    HW232277   3.251   0.079   6.484 -0.4192 -0.9129  0.2076
 6881SOL     OW32278   3.012   4.285   8.156 -0.2288 -0.5130  0.1975
 6881SOL    HW132279   2.985   4.285   8.248 -0.2459 -1.0647  0.1928
 6881SOL    HW232280   3.053   4.371   8.150  0.4152 -0.7901  0.6452
 6882SOL     OW32281   0.953   2.350  12.191 -0.7480  0.1652  0.1921
 6882SOL    HW132282   0.860   2.331  12.202 -0.8884  0.3900 -0.6631
 6882SOL    HW232283   0.994   2.263  12.191 -1.8444 -0.3300 -1.8989
 6883SOL     OW32284   3.690   3.717  15.717 -0.0903 -0.6345 -0.2213
 6883SOL    HW132285   3.650   3.800  15.741  1.9597  0.1906  0.4086
 6883SOL    HW232286   3.681   3.666  15.798 -0.9470 -0.8672 -0.4660
 6884SOL     OW32287   0.982   0.903   9.052  0.2665 -0.0887  0.2950
 6884SOL    HW132288   0.938   0.845   9.114  0.1825  2.1479  2.3121
 6884SOL    HW232289   1.045   0.943   9.112  2.5413 -0.7363 -1.6705
 6885SOL     OW32290   1.750   0.640   7.478  0.0301 -0.3054  0.6380
 6885SOL    HW132291   1.818   0.579   7.507  0.4864 -0.6985 -1.2791
 6885SOL    HW232292   1.811   0.701   7.436 -0.5634 -1.9017 -2.4931
 6886SOL     OW32293   0.558   4.500   2.180  0.0099 -0.7284 -0.3276
 6886SOL    HW132294   0.526   4.440   2.112 -0.7275 -1.5735  0.7596
 6886SOL    HW232295   0.552   4.437   2.252  0.8858 -0.6670 -0.2019
 6887SOL     OW32296   0.609   1.930   8.878  0.0199 -0.2869  0.0158
 6887SOL    HW132297   0.647   1.895   8.958  1.1662  0.6190 -0.1291
 6887SOL    HW232298   0.545   1.859   8.866  0.2238 -0.6082  0.8637
 6888SOL     OW32299   4.677   1.866   8.979 -0.2857  0.2005  0.2152
 6888SOL    HW132300   4.708   1.782   8.944  0.3669  0.1031  1.0260
 6888SOL    HW232301   4.659   1.837   9.069  0.4276 -1.6411 -0.2375
 6889SOL     OW32302   1.233   4.323   1.507  0.7603 -0.1567  0.0447
 6889SOL    HW132303   1.316   4.348   1.547  0.4721  0.4574  0.2672
 6889SOL    HW232304   1.260   4.299   1.418 -1.2750  1.0882 -0.9332
 6890SOL     OW32305   3.782   4.146   4.121  0.2824 -0.1368  1.1173
 6890SOL    HW132306   3.798   4.223   4.068 -0.5648 -2.7009 -2.8683
 6890SOL    HW232307   3.857   4.090   4.101 -0.7847 -0.6005 -1.6233
 6891SOL     OW32308   1.473   0.680   7.005  0.1061  0.3172  0.2991
 6891SOL    HW132309   1.383   0.687   7.036 -0.8276 -1.5512 -2.0660
 6891SOL    HW232310   1.455   0.720   6.920  1.3243  0.4722  0.1165
 6892SOL     OW32311   2.311   3.873  15.128  0.1602 -0.4652  0.1947
 6892SOL    HW132312   2.383   3.923  15.169  0.6776 -1.5233  0.5680
 6892SOL    HW232313   2.239   3.934  15.145 -0.1517  0.0684 -3.1125
 6893SOL     OW32314   4.719   3.277   3.072 -0.1691  0.1954 -0.3263
 6893SOL    HW132315   4.624   3.281   3.063  0.0106 -1.2767 -2.8070
 6893SOL    HW232316   0.011   3.353   3.021  1.8647  0.5800  1.3873
 6894SOL     OW32317   1.139   3.060   1.514  0.0918 -0.3119 -0.0900
 6894SOL    HW132318   1.140   3.001   1.438 -1.4536 -2.3974  1.5010
 6894SOL    HW232319   1.214   3.023   1.562  1.8924 -0.0817 -2.6840
 6895SOL     OW32320   3.257   4.686   7.966 -0.0220 -0.2493 -0.2545
 6895SOL    HW132321   3.216   0.023   8.011 -0.8660 -1.0827  0.3593
 6895SOL    HW232322   3.276   4.725   7.881 -0.0270 -2.1133 -1.1267
 6896SOL     OW32323   3.284   0.169   1.761  0.5570 -0.6222 -0.4635
 6896SOL    HW132324   3.231   0.135   1.689 -1.3242  0.4741  0.3962
 6896SOL    HW232325   3.340   0.227   1.710  2.7071 -1.1632  1.2434
 6897SOL     OW32326   2.285   1.469   1.493  0.3789  0.0428  0.5105
 6897SOL    HW132327   2.287   1.464   1.398  0.0229 -1.3384  0.5825
 6897SOL    HW232328   2.272   1.563   1.504 -2.7159 -0.1315 -1.7220
 6898SOL     OW32329   3.913   0.707   7.565  0.2752  0.2204 -0.1926
 6898SOL    HW132330   3.966   0.781   7.598  1.0781 -0.4893  0.1119
 6898SOL    HW232331   3.974   0.635   7.580  0.0929  0.0452 -0.3092
 6899SOL     OW32332   1.555   0.515  11.782 -0.5730 -0.4783 -0.4497
 6899SOL    HW132333   1.631   0.540  11.834 -0.0302 -0.9865 -1.0086
 6899SOL    HW232334   1.508   0.596  11.763  1.4437  0.3155 -1.9787
 6900SOL     OW32335   3.124   1.908   3.339  0.0530 -0.1814 -0.1126
 6900SOL    HW132336   3.168   1.991   3.359 -2.9005  1.3753  0.0042
 6900SOL    HW232337   3.131   1.903   3.244  2.6871  0.0786  0.0664
 6901SOL     OW32338   2.457   0.269   8.289 -0.6640 -0.2184 -0.2078
 6901SOL    HW132339   2.413   0.312   8.361 -1.8006  0.9785 -1.6113
 6901SOL    HW232340   2.396   0.200   8.261 -0.6400  0.3855 -1.7507
 6902SOL     OW32341   0.465   2.636   4.490  0.1410  0.2715 -0.3950
 6902SOL    HW132342   0.396   2.678   4.438  0.7142  0.7728 -0.7433
 6902SOL    HW232343   0.436   2.661   4.578 -4.1206 -1.1645 -1.3611
 6903SOL     OW32344   4.154   3.682   7.804 -0.0578  0.3959  0.6739
 6903SOL    HW132345   4.226   3.745   7.810 -0.4164  0.7851  0.8871
 6903SOL    HW232346   4.129   3.706   7.714  2.5179  0.4404 -0.0541
 6904SOL     OW32347   3.666   1.458   9.551 -0.2472 -0.8728 -0.3875
 6904SOL    HW132348   3.724   1.510   9.495  1.0635 -0.7394  1.0895
 6904SOL    HW232349   3.665   1.371   9.511 -0.7984 -0.7286 -0.6907
 6905SOL     OW32350   2.538   3.243  13.055 -0.3700  0.2320 -0.2347
 6905SOL    HW132351   2.477   3.184  13.011  0.9614 -0.8085 -0.6942
 6905SOL    HW232352   2.483   3.313  13.089 -1.9467 -1.4260  0.6875
 6906SOL     OW32353   2.639   0.319  15.704 -0.2568 -0.3376  0.0750
 6906SOL    HW132354   2.718   0.327  15.652 -0.5402 -2.4551 -0.6839
 6906SOL    HW232355   2.594   0.242  15.667 -0.2459  0.0848 -0.8078
 6907SOL     OW32356   3.408   0.268   8.244 -0.9059 -0.2865 -0.0436
 6907SOL    HW132357   3.447   0.221   8.317  2.1900  0.3798 -1.2390
 6907SOL    HW232358   3.443   0.357   8.253 -0.6803 -0.3357 -0.4129
 6908SOL     OW32359   1.842   1.797   6.146 -0.1029 -0.2277  0.5027
 6908SOL    HW132360   1.829   1.716   6.096 -2.8094  0.0789  0.7293
 6908SOL    HW232361   1.917   1.837   6.101 -3.3914  1.8687 -3.1323
 6909SOL     OW32362   3.265   4.480   2.439 -0.1751  0.2372 -0.4291
 6909SOL    HW132363   3.238   4.520   2.356  0.6398  2.3924  0.3403
 6909SOL    HW232364   3.357   4.508   2.440 -0.6042  1.6383  0.1237
 6910SOL     OW32365   4.673   0.177  17.451  0.3173  0.5183  0.3119
 6910SOL    HW132366   4.688   0.083  17.447  3.7791  0.9467  2.5775
 6910SOL    HW232367   0.021   0.214  17.476 -0.1043  1.6517  0.0727
 6911SOL     OW32368   4.160   2.667  15.009  0.0033  0.3894 -0.7000
 6911SOL    HW132369   4.112   2.622  14.939 -0.1965 -1.0148  0.3436
 6911SOL    HW232370   4.246   2.624  15.003 -0.4172 -0.1442 -3.1210
 6912SOL     OW32371   2.418   1.182  10.850 -0.0907 -0.0430 -0.4118
 6912SOL    HW132372   2.361   1.201  10.925  0.3465 -1.0678  0.1859
 6912SOL    HW232373   2.501   1.151  10.885  0.8538  3.9555  0.9458
 6913SOL     OW32374   2.130   4.378  12.655 -0.4696 -0.5932  0.4642
 6913SOL    HW132375   2.112   4.464  12.617  0.2448 -0.3380  0.7091
 6913SOL    HW232376   2.077   4.381  12.735  1.6676  0.4313  1.8377
 6914SOL     OW32377   2.642   1.681  11.771  0.2078  0.1149 -0.2590
 6914SOL    HW132378   2.586   1.637  11.835  0.2604 -0.2829 -0.4848
 6914SOL    HW232379   2.729   1.640  11.778 -0.6814 -1.6554  0.4384
 6915SOL     OW32380   0.467   0.297   4.298  0.2985  0.1362  0.0223
 6915SOL    HW132381   0.464   0.379   4.348 -1.4343 -0.1083  0.3221
 6915SOL    HW232382   0.442   0.244   4.374 -5.0569  1.4977 -0.7985
 6916SOL     OW32383   3.286   3.422   4.934  0.3916 -0.0607 -0.1963
 6916SOL    HW132384   3.265   3.513   4.912  3.2410  0.6787  0.0644
 6916SOL    HW232385   3.351   3.434   5.003  0.3312 -2.5379  0.2985
 6917SOL     OW32386   2.001   4.158   7.132 -0.0398 -1.0011  0.7515
 6917SOL    HW132387   2.000   4.133   7.039 -0.6214  1.2031  0.1530
 6917SOL    HW232388   1.911   4.141   7.159 -1.0004 -1.4284 -2.6825
 6918SOL     OW32389   2.982   2.223   4.834 -0.2034 -0.1303 -0.0787
 6918SOL    HW132390   2.916   2.189   4.895  1.8272 -0.4629  1.9356
 6918SOL    HW232391   3.060   2.220   4.890  0.6197  0.9941 -1.1662
 6919SOL     OW32392   0.323   0.216   2.942  0.5020 -0.7637 -0.6980
 6919SOL    HW132393   0.262   0.178   3.005 -0.3478  4.5603  1.5998
 6919SOL    HW232394   0.316   0.161   2.863 -0.2291 -1.7885  0.0782
 6920SOL     OW32395   1.460   4.151   4.938  0.3556  0.1145 -0.4933
 6920SOL    HW132396   1.410   4.210   4.881  1.5233  1.9687  0.4223
 6920SOL    HW232397   1.403   4.075   4.949 -0.8006  1.2955  1.6117
 6921SOL     OW32398   3.803   3.571   2.577  0.5843 -0.0990  0.2783
 6921SOL    HW132399   3.861   3.539   2.647 -0.1166 -1.2864  0.3182
 6921SOL    HW232400   3.800   3.489   2.528 -2.3943 -1.6104  2.9848
 6922SOL     OW32401   2.004   2.620   0.308 -0.6725 -0.0459 -0.1887
 6922SOL    HW132402   2.034   2.657   0.392  0.7372 -1.7673  0.0754
 6922SOL    HW232403   1.941   2.557   0.343  0.8292 -1.4286  0.0633
 6923SOL     OW32404   0.345   0.696  10.685 -0.1033 -0.3268  0.4779
 6923SOL    HW132405   0.335   0.784  10.650 -0.0259  0.0683  1.4434
 6923SOL    HW232406   0.439   0.681  10.698 -0.7058 -3.8326  0.8995
 6924SOL     OW32407   2.230   1.827  17.551  0.6448 -0.5852 -0.3173
 6924SOL    HW132408   2.137   1.829  17.572  0.8945 -2.1711  0.8967
 6924SOL    HW232409   2.246   1.921  17.542  0.6819 -0.5070  0.5441
 6925SOL     OW32410   3.987   3.182  11.721 -0.2088  0.2654  0.0390
 6925SOL    HW132411   3.968   3.247  11.654 -0.3194 -0.7136 -0.8794
 6925SOL    HW232412   4.061   3.130  11.689 -2.1103 -1.8964 -0.8367
 6926SOL     OW32413   2.986   1.071   6.047 -0.0407  0.9142  0.3603
 6926SOL    HW132414   2.903   1.105   6.081  0.2344  3.3679 -1.4137
 6926SOL    HW232415   2.994   1.111   5.960  0.8952 -0.5671 -0.2247
 6927SOL     OW32416   3.665   3.501   1.678 -0.2222  0.0600 -0.7852
 6927SOL    HW132417   3.604   3.429   1.699  2.1117 -1.4275  0.8844
 6927SOL    HW232418   3.598   3.569   1.677  1.1538  1.4154  0.6384
 6928SOL     OW32419   4.349   2.283   7.966  0.5354  0.1773 -0.8745
 6928SOL    HW132420   4.362   2.263   7.873 -1.4570  0.7197 -1.2588
 6928SOL    HW232421   4.384   2.372   7.960 -0.1618  0.5313  0.5727
 6929SOL     OW32422   4.289   3.403   8.919 -0.4846  0.1878  0.7418
 6929SOL    HW132423   4.226   3.355   8.864  0.8505 -0.6899 -0.0099
 6929SOL    HW232424   4.341   3.454   8.858 -1.1605 -0.5402 -0.4356
 6930SOL     OW32425   2.154   2.646   2.333 -0.1024  0.6136  0.3586
 6930SOL    HW132426   2.186   2.560   2.304 -0.2673  0.3181  1.0523
 6930SOL    HW232427   2.234   2.678   2.375  1.3458 -2.6959  0.1003
 6931SOL     OW32428   2.787   3.715   6.781 -0.4288  0.4584 -0.3438
 6931SOL    HW132429   2.725   3.739   6.712 -1.0635 -4.8960 -1.5891
 6931SOL    HW232430   2.745   3.652   6.839  1.7370 -0.2781  0.4214
 6932SOL     OW32431   3.499   2.572   6.339 -0.0710 -0.5970 -0.0185
 6932SOL    HW132432   3.485   2.596   6.247  2.0304  0.0387 -0.1600
 6932SOL    HW232433   3.543   2.654   6.361  0.9402 -0.9997 -0.5854
 6933SOL     OW32434   1.762   4.199   9.974  0.2586 -0.2287 -0.4676
 6933SOL    HW132435   1.752   4.160   9.887 -1.6767 -0.9772  0.0893
 6933SOL    HW232436   1.681   4.184  10.023 -0.2123 -2.0160 -1.7929
 6934SOL     OW32437   0.493   2.084   7.832  0.2742  0.0340 -0.2005
 6934SOL    HW132438   0.480   2.081   7.737 -1.7521  0.5048  0.0551
 6934SOL    HW232439   0.583   2.062   7.857  0.6713  1.0466 -0.7312
 6935SOL     OW32440   3.556   1.115   6.771  0.1520 -0.2441 -0.1322
 6935SOL    HW132441   3.480   1.173   6.778  0.1491 -0.4608  1.7947
 6935SOL    HW232442   3.586   1.130   6.861 -0.9041  1.4418 -0.0596
 6936SOL     OW32443   2.029   1.999   9.265  0.1898  0.0158  0.4767
 6936SOL    HW132444   2.046   2.016   9.357 -3.1709 -1.9927  1.4487
 6936SOL    HW232445   2.120   2.013   9.235  0.2651  1.1017  1.2104
 6937SOL     OW32446   3.611   3.937  15.848  0.2053  1.0382 -0.1537
 6937SOL    HW132447   3.614   3.974  15.936  1.0591 -0.7393  0.5630
 6937SOL    HW232448   3.521   3.958  15.823 -0.2001 -0.3916  0.1410
 6938SOL     OW32449   4.130   0.715  12.768  0.2429 -0.3731  0.4507
 6938SOL    HW132450   4.224   0.697  12.769  0.1862 -0.7831 -2.2035
 6938SOL    HW232451   4.124   0.735  12.674 -1.2652  2.0986  1.0858
 6939SOL     OW32452   2.586   1.658   5.998  0.0884  0.3338 -0.5993
 6939SOL    HW132453   2.642   1.590   6.034  0.3578  1.2580  0.7241
 6939SOL    HW232454   2.501   1.614   6.010  0.9148 -0.4222  2.3677
 6940SOL     OW32455   0.099   4.689  16.187  0.4901  0.1073 -0.1513
 6940SOL    HW132456   0.037   0.003  16.240  0.0913  0.4059 -0.9092
 6940SOL    HW232457   0.175   4.683  16.246  1.6950  3.1685 -1.4058
 6941SOL     OW32458   1.730   3.355   4.757 -0.0122 -0.0580 -0.4839
 6941SOL    HW132459   1.758   3.273   4.798  0.6680 -0.8322 -2.4815
 6941SOL    HW232460   1.690   3.319   4.678 -0.5477 -1.7959  0.5905
 6942SOL     OW32461   0.899   4.440   1.317  0.2313 -0.7078  0.1977
 6942SOL    HW132462   0.891   4.466   1.409  1.5139  0.8023 -0.1340
 6942SOL    HW232463   0.934   4.352   1.332  0.4138 -0.3707  1.7593
 6943SOL     OW32464   1.926   3.243   1.559  0.6553  0.2948  0.1802
 6943SOL    HW132465   1.911   3.335   1.534 -1.0815  0.3928  1.5568
 6943SOL    HW232466   1.904   3.234   1.652 -2.8292  1.1565 -0.5495
 6944SOL     OW32467   0.422   3.840   4.511 -0.1243 -0.0588 -0.4132
 6944SOL    HW132468   0.382   3.925   4.532  1.9195  1.1110 -1.3139
 6944SOL    HW232469   0.471   3.860   4.432  1.0827 -2.2371 -0.1996
 6945SOL     OW32470   1.705   1.973  14.885 -0.3607  0.7162 -0.9420
 6945SOL    HW132471   1.783   1.946  14.837 -1.1520 -2.9004 -0.1455
 6945SOL    HW232472   1.644   1.999  14.816  1.2535  0.4076 -2.4663
 6946SOL     OW32473   4.442   2.912   5.914 -0.4014  0.5930 -0.2590
 6946SOL    HW132474   4.528   2.944   5.941 -1.1517  0.4792  2.2112
 6946SOL    HW232475   4.440   2.828   5.960 -2.5002  0.9897  0.3432
 6947SOL     OW32476   4.058   1.571  15.419  0.2884 -0.1801  0.4047
 6947SOL    HW132477   3.999   1.628  15.370  1.6247  0.6399 -0.2476
 6947SOL    HW232478   3.994   1.530  15.478  0.6415 -1.1865  0.0928
 6948SOL     OW32479   0.173   4.219   7.170  0.7435  0.2193  0.6350
 6948SOL    HW132480   0.254   4.208   7.219  1.0570 -0.0695  0.0473
 6948SOL    HW232481   0.118   4.276   7.224 -0.4772  1.2241 -1.6876
 6949SOL     OW32482   2.080   1.193   5.854 -0.3908  0.4807 -0.0943
 6949SOL    HW132483   2.108   1.157   5.770  1.4184 -1.0436  1.1619
 6949SOL    HW232484   2.041   1.272   5.817 -0.0739  1.7529  2.2563
 6950SOL     OW32485   0.627   3.020   8.752 -0.4646 -0.3811  0.1127
 6950SOL    HW132486   0.643   3.080   8.825 -2.2544  0.2511 -0.0225
 6950SOL    HW232487   0.671   2.941   8.785  1.7216  0.6205 -0.3567
 6951SOL     OW32488   4.546   1.213   5.149 -0.1012  0.6050  0.6856
 6951SOL    HW132489   4.531   1.120   5.164  0.4979  0.4139  0.1225
 6951SOL    HW232490   4.634   1.216   5.185 -1.0818 -1.9143  3.2100
 6952SOL     OW32491   3.713   2.134   9.091  0.3865  0.8939  0.9032
 6952SOL    HW132492   3.796   2.153   9.135  0.2392  1.2800  1.0117
 6952SOL    HW232493   3.670   2.217   9.109 -0.9191  0.6697 -1.1717
 6953SOL     OW32494   1.018   0.662   1.674 -0.4552  0.5542  0.7386
 6953SOL    HW132495   1.020   0.711   1.592 -0.4527 -0.9273 -0.1474
 6953SOL    HW232496   0.980   0.579   1.645  0.6935  0.6188 -0.9360
 6954SOL     OW32497   0.349   1.193  11.624  0.3959 -0.7824 -0.0586
 6954SOL    HW132498   0.328   1.106  11.590 -0.6519 -0.3783 -0.4415
 6954SOL    HW232499   0.434   1.175  11.665 -0.7091 -1.7154  1.8375
 6955SOL     OW32500   3.333   2.217   2.606 -0.1973  0.2257 -0.0985
 6955SOL    HW132501   3.417   2.247   2.570 -0.1008 -0.3879 -0.3879
 6955SOL    HW232502   3.365   2.148   2.664 -1.7662  0.9429  1.6134
 6956SOL     OW32503   2.717   2.962   5.703  0.2159  0.4154 -0.3568
 6956SOL    HW132504   2.700   2.962   5.609 -0.9920  2.3912 -0.1337
 6956SOL    HW232505   2.679   3.039   5.745  0.4398  0.4785 -0.2725
 6957SOL     OW32506   0.005   0.985  12.632 -0.4610 -0.1468  0.2425
 6957SOL    HW132507   4.693   1.010  12.710  2.9428  1.9322  1.7422
 6957SOL    HW232508   4.671   1.000  12.569 -1.7964  0.8911  2.0029
 6958SOL     OW32509   2.973   2.437   7.830 -0.1251 -0.7036  0.2997
 6958SOL    HW132510   2.988   2.342   7.828  1.4208 -0.4364 -1.1535
 6958SOL    HW232511   2.952   2.458   7.921 -0.3578 -2.4758  0.6588
 6959SOL     OW32512   0.369   1.850   6.201 -0.3264 -0.2924  0.2837
 6959SOL    HW132513   0.402   1.901   6.275  0.7526  1.4572 -1.3754
 6959SOL    HW232514   0.434   1.787   6.170  2.3664  1.5987  2.0691
 6960SOL     OW32515   1.747   3.565   3.854  0.0130  0.3152  0.3534
 6960SOL    HW132516   1.759   3.613   3.772  1.3409  0.0282  0.3832
 6960SOL    HW232517   1.651   3.561   3.863 -0.0323  0.4967 -0.0522
 6961SOL     OW32518   3.369   1.475   1.328  0.4695 -0.2878 -1.0883
 6961SOL    HW132519   3.405   1.409   1.268  0.6813 -1.6780  0.5549
 6961SOL    HW232520   3.291   1.431   1.363  0.6696  0.3907  0.1941
 6962SOL     OW32521   2.744   3.708   3.372  0.3814  0.2510  0.1567
 6962SOL    HW132522   2.706   3.627   3.339 -2.2499  1.1259  1.0421
 6962SOL    HW232523   2.814   3.672   3.426  1.5963 -0.2090 -1.7345
 6963SOL     OW32524   0.305   2.351   8.235 -0.4349  0.8054 -0.3085
 6963SOL    HW132525   0.322   2.258   8.223  1.1293  0.8836  1.1601
 6963SOL    HW232526   0.318   2.391   8.149 -1.3901 -0.9486 -1.2559
 6964SOL     OW32527   1.936   0.120  15.238  0.3028  0.0635 -0.0279
 6964SOL    HW132528   1.985   0.065  15.176 -0.4437  1.7083 -2.0860
 6964SOL    HW232529   1.995   0.195  15.246 -1.0075  1.0818  0.0581
 6965SOL     OW32530   4.118   1.727   5.085  0.3345 -0.2435 -0.4113
 6965SOL    HW132531   4.049   1.768   5.138  1.1496 -1.2351  1.3808
 6965SOL    HW232532   4.110   1.766   4.998 -2.6433 -2.0842 -0.9508
 6966SOL     OW32533   3.742   3.380   1.447 -0.5161 -0.3412  0.1235
 6966SOL    HW132534   3.832   3.357   1.469 -0.9059 -2.6687 -0.7888
 6966SOL    HW232535   3.724   3.428   1.528 -1.0966 -1.5701  0.7167
 6967SOL     OW32536   1.025   2.816   9.089  0.0848  0.0241  0.2850
 6967SOL    HW132537   1.110   2.824   9.134  0.4748 -0.2962 -0.3906
 6967SOL    HW232538   1.047   2.748   9.025  0.1325 -0.9926  1.3753
 6968SOL     OW32539   3.100   3.475  15.045  0.0713 -0.0528 -0.0235
 6968SOL    HW132540   3.146   3.513  14.970  0.6280  2.0024  1.3612
 6968SOL    HW232541   3.043   3.547  15.072 -0.4018 -0.8165  1.0255
 6969SOL     OW32542   2.740   0.349   6.394 -0.0117 -0.2163 -0.1892
 6969SOL    HW132543   2.753   0.395   6.477  2.5224 -0.9748 -0.1457
 6969SOL    HW232544   2.789   0.405   6.333  0.7679 -1.0312 -0.3072
 6970SOL     OW32545   0.872   4.702   6.222 -0.0518  0.7329  0.0012
 6970SOL    HW132546   0.902   0.047   6.184 -0.7736  0.7681 -0.4866
 6970SOL    HW232547   0.778   4.721   6.225 -0.2712 -0.3826  0.2960
 6971SOL     OW32548   0.807   0.508   7.694  0.0005 -0.4977  0.3985
 6971SOL    HW132549   0.860   0.497   7.773  1.7664  0.1022 -0.7187
 6971SOL    HW232550   0.864   0.474   7.626 -0.3728 -2.5886  1.1229
 6972SOL     OW32551   2.945   2.500   5.695  0.2179  0.4942  0.7817
 6972SOL    HW132552   2.886   2.532   5.764  0.6198  3.0159 -0.0487
 6972SOL    HW232553   2.903   2.415   5.686 -0.2355  1.1300 -2.8625
 6973SOL     OW32554   0.765   1.592  13.082 -0.1476 -0.1555 -0.1155
 6973SOL    HW132555   0.676   1.560  13.070 -0.6036 -0.3787  3.7079
 6973SOL    HW232556   0.748   1.685  13.094 -2.5718 -0.5915 -0.0663
 6974SOL     OW32557   0.720   2.442   6.109 -0.4809 -0.0501 -0.4280
 6974SOL    HW132558   0.802   2.422   6.064 -1.1252 -0.0264 -1.6009
 6974SOL    HW232559   0.689   2.528   6.081 -1.3617 -0.8186 -1.8247
 6975SOL     OW32560   1.861   1.423   7.734  0.1450 -0.1503  0.1846
 6975SOL    HW132561   1.921   1.493   7.707  2.0512 -0.9447  2.2976
 6975SOL    HW232562   1.802   1.468   7.795 -0.0444  1.2563 -1.0580
 6976SOL     OW32563   2.320   3.367  13.180 -0.8200 -0.0764  0.3678
 6976SOL    HW132564   2.278   3.281  13.185 -1.0088  0.0997  1.8768
 6976SOL    HW232565   2.378   3.360  13.256 -0.4791  0.6388  0.1727
 6977SOL     OW32566   3.923   2.930   2.993 -0.2940  0.4035  0.1719
 6977SOL    HW132567   3.964   2.919   3.078  0.4410  0.5208 -0.1619
 6977SOL    HW232568   3.987   2.900   2.928  0.6261  1.5054  0.5670
 6978SOL     OW32569   4.197   3.550   5.935 -0.3587  0.1580 -0.2927
 6978SOL    HW132570   4.227   3.623   5.881  2.5671  0.0370  1.1766
 6978SOL    HW232571   4.282   3.516   5.964 -1.4192 -0.0724  2.4829
 6979SOL     OW32572   3.717   3.313   3.340  0.3950  0.3976 -0.1607
 6979SOL    HW132573   3.788   3.334   3.279 -0.1982 -0.5646 -1.1894
 6979SOL    HW232574   3.646   3.354   3.291  0.3337  0.6098  0.1062
 6980SOL     OW32575   2.733   3.832   9.490  0.0319  0.0193 -0.7106
 6980SOL    HW132576   2.703   3.923   9.486 -1.6453 -0.4488  1.9302
 6980SOL    HW232577   2.714   3.811   9.398  1.2337  0.6593 -1.1041
 6981SOL     OW32578   3.859   2.185   9.798 -0.2069  0.3649  0.0916
 6981SOL    HW132579   3.832   2.257   9.741 -0.7446 -1.4349 -1.8765
 6981SOL    HW232580   3.794   2.195   9.867 -1.0578  1.5267 -0.8782
 6982SOL     OW32581   0.654   3.158  16.983  0.6278  0.0528 -0.1897
 6982SOL    HW132582   0.642   3.239  16.933 -2.5930 -0.6838 -0.6056
 6982SOL    HW232583   0.563   3.135  17.001  1.3793 -1.0639  2.2452
 6983SOL     OW32584   0.669   1.066   1.816 -0.2396  0.1710 -0.2128
 6983SOL    HW132585   0.764   1.079   1.823 -0.5005 -0.1884  3.9607
 6983SOL    HW232586   0.661   1.000   1.748 -0.4969  0.3074 -0.3131
 6984SOL     OW32587   4.637   0.756   8.247  0.1046  0.4003  0.5400
 6984SOL    HW132588   4.594   0.810   8.181 -2.1995 -2.5198 -0.3698
 6984SOL    HW232589   4.674   0.822   8.305  2.1270 -0.2048 -0.0563
 6985SOL     OW32590   2.963   1.271  12.698  0.4210  0.4438 -0.6945
 6985SOL    HW132591   2.958   1.347  12.755 -0.4907  0.6692 -1.0833
 6985SOL    HW232592   2.964   1.193  12.754 -0.0576  0.3439 -0.8292
 6986SOL     OW32593   4.520   3.197   4.819  0.1103  0.0703  0.1350
 6986SOL    HW132594   4.442   3.172   4.770 -0.3998 -0.4756  1.2448
 6986SOL    HW232595   4.492   3.270   4.874  0.3856  0.6601 -0.5003
 6987SOL     OW32596   2.238   4.627   6.969  0.1835 -0.5593 -0.3643
 6987SOL    HW132597   2.285   4.548   6.998 -2.1049 -1.8275 -0.0841
 6987SOL    HW232598   2.148   4.602   6.990 -0.2498 -0.0198 -1.5870
 6988SOL     OW32599   0.855   4.440   4.025  0.1765 -0.1427 -0.2371
 6988SOL    HW132600   0.926   4.379   4.047  1.0053  0.4821 -1.2175
 6988SOL    HW232601   0.791   4.379   3.990 -1.5254  1.7241 -0.3805
 6989SOL     OW32602   1.000   4.121   0.146  0.2802  0.0542 -0.3397
 6989SOL    HW132603   0.909   4.148   0.138  0.1038 -0.0891  1.1584
 6989SOL    HW232604   1.033   4.155   0.062  0.3959  2.7649  0.7939
 6990SOL     OW32605   3.734   1.892   2.496  0.3641  0.1105  0.4513
 6990SOL    HW132606   3.796   1.821   2.514 -0.9392 -0.6303  2.0843
 6990SOL    HW232607   3.650   1.855   2.525  0.2069 -0.7273 -1.0356
 6991SOL     OW32608   0.823   3.114  17.179 -0.2575 -0.0288  0.4330
 6991SOL    HW132609   0.862   3.201  17.170 -0.9114  0.2589  0.3727
 6991SOL    HW232610   0.761   3.111  17.106 -0.6527  0.4589  0.7514
 6992SOL     OW32611   0.847   1.559   9.141 -0.0931 -0.0905  0.4469
 6992SOL    HW132612   0.783   1.598   9.200  0.7587  1.9379  0.0666
 6992SOL    HW232613   0.819   1.591   9.055  1.6321 -3.5516 -1.4164
 6993SOL     OW32614   2.263   3.530   8.434 -0.4116 -0.1883  0.2889
 6993SOL    HW132615   2.203   3.547   8.508 -1.4066  0.0982 -0.5830
 6993SOL    HW232616   2.313   3.609   8.455 -0.6793  0.2099 -0.5936
 6994SOL     OW32617   1.061   0.253   6.354 -0.1308 -0.5007 -0.3651
 6994SOL    HW132618   1.059   0.314   6.428  0.0326 -0.2950 -0.5262
 6994SOL    HW232619   0.991   0.189   6.365 -1.4896  1.3501  1.7618
 6995SOL     OW32620   2.083   1.156   8.806  0.1926 -0.3653 -0.3401
 6995SOL    HW132621   2.101   1.111   8.889 -1.8371 -0.0027  0.2978
 6995SOL    HW232622   1.990   1.176   8.814  0.0177 -1.4641  0.3444
 6996SOL     OW32623   4.332   1.388   2.170  0.4016  0.1123  0.3672
 6996SOL    HW132624   4.267   1.347   2.113  1.4629  2.7941 -2.8314
 6996SOL    HW232625   4.356   1.469   2.123 -0.2645  1.6517  2.6953
 6997SOL     OW32626   3.294   0.074   4.796 -0.0036 -0.2053 -0.2446
 6997SOL    HW132627   3.330   4.727   4.822  2.9175  0.8021 -0.9921
 6997SOL    HW232628   3.246   0.056   4.715  0.4695  2.3778 -1.1205
 6998SOL     OW32629   3.423   4.004  16.791  0.4332 -0.6104 -0.2900
 6998SOL    HW132630   3.489   4.069  16.768 -0.4133 -0.1923 -1.5441
 6998SOL    HW232631   3.347   4.054  16.761  1.5974  1.4229  0.1781
 6999SOL     OW32632   0.497   0.936   8.499  0.4527  0.2443  0.2126
 6999SOL    HW132633   0.403   0.923   8.513  0.4287  0.9675  0.7606
 6999SOL    HW232634   0.522   0.972   8.585  0.4633  0.4907  0.1069
 7000SOL     OW32635   1.483   0.811   6.276  0.2644  0.0029  0.0550
 7000SOL    HW132636   1.511   0.811   6.368 -1.3837 -0.2570  0.5513
 7000SOL    HW232637   1.563   0.775   6.238  0.7305  0.9686  0.1163
 7001SOL     OW32638   2.240   4.565   4.563  0.0537 -0.3165  0.4880
 7001SOL    HW132639   2.237   4.651   4.606 -0.7162 -0.6050  1.0141
 7001SOL    HW232640   2.191   4.521   4.633 -1.9400  3.1677  1.2751
 7002SOL     OW32641   1.416   0.522   4.230 -0.1793 -0.0218 -0.1007
 7002SOL    HW132642   1.447   0.452   4.173  2.4201  2.3477 -1.6249
 7002SOL    HW232643   1.487   0.537   4.293  1.6305  1.4313 -2.4574
 7003SOL     OW32644   1.842   4.498  12.785 -0.2044  0.0104  0.1152
 7003SOL    HW132645   1.777   4.568  12.781 -1.8354 -1.4415  1.1950
 7003SOL    HW232646   1.848   4.467  12.695  0.3505  2.0351 -0.5275
 7004SOL     OW32647   1.855   0.407   6.526 -0.0097  0.1139 -0.3876
 7004SOL    HW132648   1.845   0.375   6.436 -1.2102  0.5922 -0.4303
 7004SOL    HW232649   1.852   0.323   6.573 -0.9221  1.3940  1.8327
 7005SOL     OW32650   0.550   3.681  16.487 -0.1974 -0.2072  0.5271
 7005SOL    HW132651   0.593   3.761  16.517 -1.3551  0.6244 -0.0149
 7005SOL    HW232652   0.595   3.665  16.404 -0.1860  1.4349  0.2078
 7006SOL     OW32653   4.507   0.950   8.066 -0.2135  0.5176 -0.0921
 7006SOL    HW132654   4.483   0.981   7.979 -1.7591  0.0056  0.1466
 7006SOL    HW232655   4.429   0.969   8.119  0.2157 -1.6712  1.3563
 7007SOL     OW32656   0.832   4.113   2.476  0.5581  0.3895 -0.4237
 7007SOL    HW132657   0.762   4.056   2.507  0.9635  0.3970  0.4889
 7007SOL    HW232658   0.863   4.159   2.553 -0.3875 -0.3046  0.3675
 7008SOL     OW32659   0.147   1.588   4.392  0.2617 -0.4758  0.6093
 7008SOL    HW132660   0.134   1.536   4.313  1.7172  0.8642 -0.5095
 7008SOL    HW232661   0.151   1.517   4.456 -1.1111 -0.4258  0.7542
 7009SOL     OW32662   4.622   1.979   5.529  0.3243 -0.4768 -0.4393
 7009SOL    HW132663   4.676   2.051   5.564 -1.9872  0.9703  0.1524
 7009SOL    HW232664   4.617   1.987   5.434 -0.5269 -1.6319 -0.4792
 7010SOL     OW32665   2.803   1.433   8.860  0.0856 -0.0001  0.3644
 7010SOL    HW132666   2.855   1.511   8.841  2.4674 -1.7201 -0.1059
 7010SOL    HW232667   2.865   1.389   8.918  0.0147  0.7368  0.9901
 7011SOL     OW32668   1.502   1.411   2.618  0.4236 -0.2422 -0.0582
 7011SOL    HW132669   1.585   1.404   2.667  1.7999  1.0563 -2.2140
 7011SOL    HW232670   1.502   1.503   2.593  0.3327 -0.1526  0.2683
 7012SOL     OW32671   0.014   0.484  10.119  0.1852  0.5982 -0.6491
 7012SOL    HW132672   0.021   0.493  10.214 -0.7040  2.4611 -0.7539
 7012SOL    HW232673   0.003   0.389  10.113  1.6919  0.3778  0.1136
 7013SOL     OW32674   3.100   3.805  12.984 -0.0084 -0.3956  0.0568
 7013SOL    HW132675   3.085   3.733  12.923  2.3882 -0.0489 -0.9434
 7013SOL    HW232676   3.015   3.845  13.002 -0.4996  0.1203 -3.5688
 7014SOL     OW32677   0.367   0.525  14.943  0.0066 -0.3469  0.1671
 7014SOL    HW132678   0.354   0.499  15.034  0.5363 -0.1406  0.3007
 7014SOL    HW232679   0.461   0.530  14.930  0.1351 -2.1116  0.3196
 7015SOL     OW32680   0.141   2.355  12.896 -0.4866  0.1603  0.3184
 7015SOL    HW132681   0.053   2.338  12.928  0.0518 -3.4544 -0.1346
 7015SOL    HW232682   0.174   2.436  12.935 -2.1311  0.2582  1.4962
 7016SOL     OW32683   2.863   0.515   6.170  0.7397 -0.0517  0.4949
 7016SOL    HW132684   2.861   0.605   6.136  2.6735  0.4459  1.6869
 7016SOL    HW232685   2.957   0.515   6.186  0.6286 -1.6181  1.1080
 7017SOL     OW32686   2.928   4.539   1.606  0.0217  0.1224 -0.2616
 7017SOL    HW132687   2.946   4.602   1.675  0.5202 -0.9909  0.6156
 7017SOL    HW232688   2.924   4.458   1.656 -0.5114  1.3687  1.7061
 7018SOL     OW32689   4.196   3.874   2.063 -0.8960  0.0813  0.1164
 7018SOL    HW132690   4.113   3.853   2.106  0.4983 -2.5389  1.5332
 7018SOL    HW232691   4.184   3.906   1.974  1.7965 -1.6115 -0.8754
 7019SOL     OW32692   1.963   3.872  15.379 -0.0621  0.2987 -0.7574
 7019SOL    HW132693   1.949   3.815  15.304 -0.4974 -1.2492  0.4927
 7019SOL    HW232694   2.027   3.934  15.344 -0.1712  0.8820  0.0811
 7020SOL     OW32695   1.303   1.541   7.520  0.4285 -0.0437 -0.5717
 7020SOL    HW132696   1.224   1.580   7.484  0.2785 -0.0095 -0.1983
 7020SOL    HW232697   1.351   1.532   7.437  0.3288 -0.1384 -0.6192
 7021SOL     OW32698   1.547   0.875   1.196  0.1331  0.0751  0.6254
 7021SOL    HW132699   1.634   0.836   1.201  0.4507  0.8214  0.8077
 7021SOL    HW232700   1.522   0.896   1.287 -0.2478  1.3619  0.2157
 7022SOL     OW32701   3.913   0.604   4.830 -0.6585 -0.1090 -0.2883
 7022SOL    HW132702   3.946   0.691   4.809  2.0279 -1.2572 -0.8252
 7022SOL    HW232703   3.820   0.591   4.807 -0.9402 -0.6198  1.0913
 7023SOL     OW32704   0.648   0.484   7.069  0.3901  0.5000  0.5185
 7023SOL    HW132705   0.726   0.531   7.042  0.6883 -0.7647 -0.8215
 7023SOL    HW232706   0.678   0.443   7.151 -0.7574 -1.3210  0.0204
 7024SOL     OW32707   2.934   0.844  17.557  0.5785  0.4689  0.1866
 7024SOL    HW132708   2.995   0.815  17.625 -2.1705  0.9031  2.8391
 7024SOL    HW232709   2.990   0.906  17.511 -2.3181  2.9971  0.0621
 7025SOL     OW32710   0.018   1.278   3.680 -0.1672 -0.4405 -1.1995
 7025SOL    HW132711   0.069   1.214   3.728 -0.9890  0.3529  0.7177
 7025SOL    HW232712   0.041   1.360   3.725  0.6663  0.0723 -2.5557
 7026SOL     OW32713   3.627   1.323   5.443 -0.3277 -0.5820  0.6494
 7026SOL    HW132714   3.547   1.283   5.410 -1.1636  2.2455 -0.7437
 7026SOL    HW232715   3.610   1.412   5.413 -2.0325 -1.1153  0.0570
 7027SOL     OW32716   3.297   4.514   8.618  0.0618  0.1454  0.4857
 7027SOL    HW132717   3.336   4.470   8.694  0.8831  2.5362  1.4472
 7027SOL    HW232718   3.345   4.467   8.549  1.9643  1.6711  0.7710
 7028SOL     OW32719   3.202   3.377   6.640  0.6372 -0.1919  0.2062
 7028SOL    HW132720   3.274   3.407   6.696 -0.4902  2.8784  0.0445
 7028SOL    HW232721   3.150   3.457   6.640 -0.3154 -0.8186  0.0666
 7029SOL     OW32722   1.640   1.411   3.784  0.0726  0.4529 -0.4423
 7029SOL    HW132723   1.677   1.373   3.704  0.2247 -1.7499  0.6733
 7029SOL    HW232724   1.715   1.459   3.818 -1.1889  2.6212 -0.6822
 7030SOL     OW32725   4.665   0.493   5.607 -0.0584 -0.4874 -0.5859
 7030SOL    HW132726   4.654   0.494   5.512 -0.1654  0.5979 -0.5625
 7030SOL    HW232727   0.022   0.481   5.621  0.5501  1.5904 -2.9115
 7031SOL     OW32728   1.666   0.161   3.850  0.8473  0.3531  0.1862
 7031SOL    HW132729   1.761   0.148   3.845  0.5363 -1.4555 -1.0359
 7031SOL    HW232730   1.639   0.075   3.817 -1.2870  0.6512  1.2028
 7032SOL     OW32731   0.540   1.276   2.735 -0.0164  0.2748 -1.6369
 7032SOL    HW132732   0.567   1.261   2.826  0.9468  0.4528 -1.8997
 7032SOL    HW232733   0.619   1.262   2.684  1.9644 -1.8576  1.9593
 7033SOL     OW32734   3.982   4.278  12.881 -0.2891  0.7652 -0.2455
 7033SOL    HW132735   4.071   4.279  12.914 -0.3834  0.3197  0.0169
 7033SOL    HW232736   3.986   4.203  12.821 -1.4208 -0.4589  1.2160
 7034SOL     OW32737   4.104   2.149   3.734  0.6771  0.4112 -0.6214
 7034SOL    HW132738   4.092   2.234   3.777  0.3433 -0.9088  1.9301
 7034SOL    HW232739   4.034   2.104   3.780  1.8508  0.4488  1.2221
 7035SOL     OW32740   2.939   2.847   4.526  0.2613  0.2497 -0.3006
 7035SOL    HW132741   2.884   2.907   4.475 -0.8609  1.6874  2.6083
 7035SOL    HW232742   2.872   2.818   4.588 -1.8508  0.3042 -2.5464
 7036SOL     OW32743   0.024   4.247  12.072  0.5097  0.1807  0.0294
 7036SOL    HW132744   4.688   4.292  12.114 -1.2163  0.9780 -3.8440
 7036SOL    HW232745   0.001   4.154  12.073 -1.8657  0.7963  1.9010
 7037SOL     OW32746   0.729   0.203   8.438 -0.2262 -0.1936  0.1141
 7037SOL    HW132747   0.639   0.190   8.467 -0.7950  2.3688 -0.4613
 7037SOL    HW232748   0.714   0.234   8.349  0.7947  0.5279  0.1924
 7038SOL     OW32749   1.161   1.685   8.976 -0.1726  0.8168 -0.1885
 7038SOL    HW132750   1.141   1.661   9.066  1.9743 -0.5099 -0.0510
 7038SOL    HW232751   1.087   1.656   8.923  0.0617  0.1411 -0.1497
 7039SOL     OW32752   2.348   1.894  17.120  0.5166  0.0076 -0.0712
 7039SOL    HW132753   2.325   1.812  17.164 -0.8399  0.5843  0.2869
 7039SOL    HW232754   2.313   1.874  17.034  0.5086 -0.7073  0.1005
 7040SOL     OW32755   4.637   3.705   2.012  0.0293 -0.6374 -0.0362
 7040SOL    HW132756   4.654   3.798   1.997 -1.2507 -0.3653  0.1698
 7040SOL    HW232757   4.719   3.680   1.970 -0.0998  0.4302 -0.9058
 7041SOL     OW32758   1.213   1.401   3.285  1.1162 -0.1387 -0.3931
 7041SOL    HW132759   1.197   1.419   3.193 -0.2126 -3.5620 -0.8209
 7041SOL    HW232760   1.129   1.358   3.299  0.9593  0.6465  1.1369
 7042SOL     OW32761   3.022   2.593   3.844  0.4730 -0.0087  0.2543
 7042SOL    HW132762   3.059   2.674   3.808  0.8652  0.0307  0.7453
 7042SOL    HW232763   2.956   2.569   3.779  1.0666  0.1982 -0.4346
 7043SOL     OW32764   4.360   4.680   4.015  0.1113  0.0124  0.0985
 7043SOL    HW132765   4.374   0.031   3.981 -0.6405 -0.9275 -2.6639
 7043SOL    HW232766   4.443   4.667   4.060 -0.5773 -0.9315  1.1096
 7044SOL     OW32767   2.102   3.337  15.820  0.2321 -0.4130  0.1703
 7044SOL    HW132768   2.016   3.374  15.841 -0.5280 -1.0337 -1.8354
 7044SOL    HW232769   2.129   3.390  15.745  0.5822 -1.9986 -0.8314
 7045SOL     OW32770   2.774   1.951  15.115  0.1441  0.2413  0.3623
 7045SOL    HW132771   2.717   1.978  15.188 -1.7843 -0.3977 -0.9182
 7045SOL    HW232772   2.808   2.037  15.094 -0.0958  0.5590  1.2684
 7046SOL     OW32773   4.595   4.602   4.696  0.1964  0.0723  0.6212
 7046SOL    HW132774   4.624   4.671   4.756  1.9021 -0.9493  0.9658
 7046SOL    HW232775   4.572   4.656   4.621 -0.4454 -0.8047  0.1866
 7047SOL     OW32776   0.879   0.663   2.528 -0.4180  0.0988 -0.2909
 7047SOL    HW132777   0.969   0.643   2.501 -0.7513 -1.9143  0.0568
 7047SOL    HW232778   0.864   0.711   2.447  0.4103  0.4851 -0.2163
 7048SOL     OW32779   1.524   0.270   7.079  0.1104  0.0075  0.0700
 7048SOL    HW132780   1.469   0.296   7.004 -1.3422  1.5876  1.6722
 7048SOL    HW232781   1.556   0.360   7.084 -3.0215  1.3113 -2.7230
 7049SOL     OW32782   4.729   3.085   4.516  0.0194  0.3239  0.1409
 7049SOL    HW132783   4.728   2.991   4.535  0.3993  0.2748 -0.0839
 7049SOL    HW232784   0.047   3.122   4.584  0.0284  1.6088 -0.5611
 7050SOL     OW32785   2.016   0.115   4.353  0.0917  0.4092 -0.2253
 7050SOL    HW132786   2.094   0.139   4.303 -0.2658  1.3162 -0.3533
 7050SOL    HW232787   1.956   0.092   4.282 -1.0713 -1.0533  1.2118
 7051SOL     OW32788   0.159   0.959   6.298  0.9584  0.4418  0.2179
 7051SOL    HW132789   0.148   0.979   6.391 -0.4060 -0.3348  0.2287
 7051SOL    HW232790   0.204   1.039   6.270  2.2277 -0.8864 -1.5013
 7052SOL     OW32791   4.371   1.032   2.008  0.4647  0.0907  0.0836
 7052SOL    HW132792   4.305   1.096   2.034 -1.1331 -1.0105 -1.2685
 7052SOL    HW232793   4.448   1.071   2.049 -0.4799 -0.1759  2.0840
 7053SOL     OW32794   4.302   1.266   5.974 -0.0902 -0.9129  0.0883
 7053SOL    HW132795   4.333   1.350   6.009 -1.1512 -0.4803 -0.0114
 7053SOL    HW232796   4.351   1.207   6.032  2.1756  0.4184 -0.4495
 7054SOL     OW32797   4.586   0.798   2.864 -0.1589  0.3622 -0.6582
 7054SOL    HW132798   4.542   0.811   2.948 -0.6206  0.8051 -0.9655
 7054SOL    HW232799   4.582   0.889   2.835 -1.8140 -0.0199 -1.6440
 7055SOL     OW32800   4.365   3.184   8.678  0.0331  0.2022  0.4389
 7055SOL    HW132801   4.419   3.250   8.721  0.8198 -2.1495  2.9932
 7055SOL    HW232802   4.293   3.157   8.735 -0.7327 -1.5176 -1.3244
 7056SOL     OW32803   0.722   3.762   1.884  0.7207  0.3920  0.3760
 7056SOL    HW132804   0.762   3.675   1.876  0.9337  0.3188  2.2140
 7056SOL    HW232805   0.784   3.803   1.944  0.6508 -0.8783  1.3376
 7057SOL     OW32806   3.821   4.220   1.938  0.0347  0.4340  0.2200
 7057SOL    HW132807   3.882   4.165   1.988 -1.5603 -0.8697  0.7354
 7057SOL    HW232808   3.884   4.277   1.894 -1.1338  0.0390 -2.0156
 7058SOL     OW32809   3.824   3.953  14.170  0.1302  0.7457  0.2777
 7058SOL    HW132810   3.858   3.868  14.197  0.9699  1.1492  0.4804
 7058SOL    HW232811   3.900   3.989  14.125  1.1002 -0.3122  1.0579
 7059SOL     OW32812   3.783   0.162   5.104 -0.1872 -0.3663  0.4482
 7059SOL    HW132813   3.739   0.213   5.171  0.0864  0.5104 -0.0427
 7059SOL    HW232814   3.713   0.119   5.055 -1.1079 -0.2908  1.6855
 7060SOL     OW32815   2.302   2.020   9.217  0.0465 -0.0765  0.8146
 7060SOL    HW132816   2.373   2.076   9.246  0.2393  1.2179 -2.1235
 7060SOL    HW232817   2.357   1.942   9.205 -0.1991 -0.2191  0.5973
 7061SOL     OW32818   3.290   2.890   6.778  0.5165  0.2070  0.0017
 7061SOL    HW132819   3.249   2.974   6.799 -1.3291 -0.5161 -0.6886
 7061SOL    HW232820   3.218   2.854   6.726 -1.3300  3.6383  0.1601
 7062SOL     OW32821   3.300   1.401  10.572 -0.0886  0.7564 -0.0917
 7062SOL    HW132822   3.348   1.466  10.521  0.7587  0.4443  0.3025
 7062SOL    HW232823   3.272   1.340  10.505 -0.7481 -1.7339  2.4615
 7063SOL     OW32824   4.559   2.003   3.601 -0.0814  0.4188 -0.1096
 7063SOL    HW132825   4.507   2.014   3.680 -1.3209  0.4869 -0.9320
 7063SOL    HW232826   4.562   1.911   3.577 -1.3048  0.6916 -1.3240
 7064SOL     OW32827   1.828   1.234  12.738 -0.1990 -0.0204  0.9839
 7064SOL    HW132828   1.811   1.255  12.646  1.5228 -1.7269  0.2668
 7064SOL    HW232829   1.789   1.307  12.786 -2.7902 -0.6319 -0.2054
 7065SOL     OW32830   1.026   1.041   0.327 -0.2023  0.4926  0.6958
 7065SOL    HW132831   1.076   1.040   0.409  1.0004  0.0505 -0.0448
 7065SOL    HW232832   1.018   0.951   0.295  0.7194  1.3790 -2.0063
 7066SOL     OW32833   4.448   0.722  13.712  0.3389 -0.0630  0.0451
 7066SOL    HW132834   4.435   0.812  13.682 -2.0303  0.6046  3.0885
 7066SOL    HW232835   4.363   0.707  13.754 -0.9220 -2.1265 -3.3177
 7067SOL     OW32836   1.867   4.118   8.614  0.5348  0.2063 -0.0555
 7067SOL    HW132837   1.832   4.088   8.530  1.8420 -0.0496 -0.5183
 7067SOL    HW232838   1.796   4.109   8.677 -0.1720  2.0132 -0.6071
 7068SOL     OW32839   3.834   2.923  13.632  0.5864 -0.5978 -0.1277
 7068SOL    HW132840   3.834   2.857  13.563 -1.4634 -0.9276  0.1946
 7068SOL    HW232841   3.806   2.865  13.703  0.9169  1.1615  1.4602
 7069SOL     OW32842   1.498   3.064   8.171 -0.8873 -0.1303 -0.1144
 7069SOL    HW132843   1.433   3.014   8.122 -0.0945 -1.3543  0.0675
 7069SOL    HW232844   1.534   3.116   8.100 -0.9571 -0.3778 -0.3308
 7070SOL     OW32845   3.376   3.474   4.035  0.9659 -0.0116  0.3418
 7070SOL    HW132846   3.384   3.380   4.054  0.1035  0.5590  3.4090
 7070SOL    HW232847   3.447   3.506   4.091  1.4838 -1.9347  0.7848
 7071SOL     OW32848   0.625   4.353   2.400 -0.0754  0.4132  0.0668
 7071SOL    HW132849   0.640   4.408   2.478  0.4561  0.4696 -0.0780
 7071SOL    HW232850   0.550   4.301   2.428 -0.0191 -0.3909 -1.3075
 7072SOL     OW32851   2.285   0.814  13.463  0.3000  0.2604  0.0168
 7072SOL    HW132852   2.237   0.800  13.381 -0.2004 -0.3137  0.4099
 7072SOL    HW232853   2.210   0.822  13.522 -0.3257  1.8493 -0.9929
 7073SOL     OW32854   4.375   0.218   5.001  0.1167 -0.3463 -0.0653
 7073SOL    HW132855   4.319   0.152   5.042  0.3541 -0.1465  0.5956
 7073SOL    HW232856   4.446   0.158   4.981  0.0106 -0.0607 -1.2484
 7074SOL     OW32857   3.159   3.390   3.068 -0.5676 -0.8867  0.2220
 7074SOL    HW132858   3.232   3.406   3.007 -0.8137 -1.8050 -0.3143
 7074SOL    HW232859   3.128   3.481   3.068 -0.1304 -0.7352  0.5677
 7075SOL     OW32860   4.088   2.154  16.620  0.0097  0.1341  0.0250
 7075SOL    HW132861   3.995   2.163  16.641 -0.3633 -0.0423 -1.5796
 7075SOL    HW232862   4.122   2.243  16.615 -0.4375  0.2320 -1.3294
 7076SOL     OW32863   2.167   1.285   4.563 -0.2459  0.2921 -0.2493
 7076SOL    HW132864   2.193   1.228   4.635 -2.0967  0.2721  0.4004
 7076SOL    HW232865   2.121   1.221   4.509 -1.6870  1.1208 -0.0029
 7077SOL     OW32866   1.198   1.915  15.971 -0.1094  0.1738  0.1463
 7077SOL    HW132867   1.206   2.007  15.944 -0.7688  0.4892  1.0096
 7077SOL    HW232868   1.292   1.901  15.984 -0.5751 -2.0864  0.9906
 7078SOL     OW32869   1.584   2.560   3.610  0.4849 -0.2906  0.0129
 7078SOL    HW132870   1.655   2.624   3.615 -0.1384  0.4948 -1.0349
 7078SOL    HW232871   1.579   2.523   3.698  0.7550  0.5048  0.3625
 7079SOL     OW32872   3.963   4.472   8.344  0.0383 -0.2759 -0.0233
 7079SOL    HW132873   3.959   4.561   8.308 -1.4331 -0.5841 -0.6058
 7079SOL    HW232874   4.019   4.495   8.418  0.0345  0.8183 -0.3544
 7080SOL     OW32875   4.474   3.548   4.626  0.4034 -0.1184 -0.1200
 7080SOL    HW132876   4.402   3.504   4.670  1.2550 -2.1240 -0.7298
 7080SOL    HW232877   4.488   3.621   4.688  2.5493 -0.0226 -0.6938
 7081SOL     OW32878   0.509   4.262   6.397  0.1753 -0.0260 -0.5198
 7081SOL    HW132879   0.479   4.178   6.362  0.7082  0.3240 -1.7984
 7081SOL    HW232880   0.439   4.318   6.364  1.3031 -0.9331 -4.4003
 7082SOL     OW32881   0.087   3.444   6.400 -0.5409  0.5959  0.2892
 7082SOL    HW132882   0.023   3.485   6.341 -0.1880  1.0982  0.2548
 7082SOL    HW232883   0.119   3.368   6.353  1.9505  0.7733  1.6738
 7083SOL     OW32884   0.810   0.414   4.125  0.0305 -0.2042 -0.5784
 7083SOL    HW132885   0.831   0.508   4.128  2.0903 -0.6239 -1.6144
 7083SOL    HW232886   0.893   0.371   4.146  0.1489 -0.0293 -0.6828
 7084SOL     OW32887   3.500   4.018   8.218 -0.0825 -0.4986  0.2643
 7084SOL    HW132888   3.446   3.943   8.246 -1.8938  0.9059  0.5485
 7084SOL    HW232889   3.429   4.067   8.177  0.4611 -0.4322 -0.5912
 7085SOL     OW32890   1.264   1.201   5.445 -0.3435 -0.2509 -0.7085
 7085SOL    HW132891   1.177   1.208   5.484  0.7484 -0.7094  1.8578
 7085SOL    HW232892   1.313   1.168   5.521  0.7633 -1.7365 -2.0506
 7086SOL     OW32893   0.345   0.364   6.504 -0.1886 -0.0604 -0.0176
 7086SOL    HW132894   0.405   0.411   6.446 -0.2061  0.9504  0.7821
 7086SOL    HW232895   0.286   0.436   6.527 -1.3984  0.0155 -3.3175
 7087SOL     OW32896   1.533   0.059   1.737 -0.2979  0.2212 -0.5152
 7087SOL    HW132897   1.520   0.148   1.703 -1.7480  0.5980  1.0675
 7087SOL    HW232898   1.444   0.028   1.722 -0.9402  1.5315  0.5805
 7088SOL     OW32899   1.555   3.796   6.379  0.2847 -0.1237 -0.4491
 7088SOL    HW132900   1.634   3.744   6.363  1.0739  0.5712  1.1894
 7088SOL    HW232901   1.516   3.739   6.446 -0.4479  1.8290  0.7943
 7089SOL     OW32902   2.327   0.662   3.678  0.4164  0.5705  0.1545
 7089SOL    HW132903   2.376   0.597   3.628  0.3767 -0.4508  1.4380
 7089SOL    HW232904   2.262   0.606   3.720 -0.0577  0.6411 -0.4872
 7090SOL     OW32905   2.015   3.634   9.228  0.2856  0.7481 -0.3433
 7090SOL    HW132906   1.994   3.596   9.142  0.3011  0.4081 -0.1971
 7090SOL    HW232907   2.026   3.724   9.197 -0.9645  1.9223  2.6385
 7091SOL     OW32908   2.472   1.062   3.337  0.5820 -0.4252  0.1370
 7091SOL    HW132909   2.391   1.012   3.331  0.8524 -0.6731 -1.5747
 7091SOL    HW232910   2.526   0.993   3.375  2.1095  0.2909 -0.7402
 7092SOL     OW32911   3.933   2.212   7.599  1.1407 -0.1164  0.3618
 7092SOL    HW132912   4.000   2.144   7.603  0.0758 -1.3885 -3.3919
 7092SOL    HW232913   3.933   2.224   7.504  0.9687 -2.9027  0.0108
 7093SOL     OW32914   0.301   3.098   1.254  0.3679  0.1966  0.0193
 7093SOL    HW132915   0.298   3.040   1.330 -0.3303  0.0734 -0.1045
 7093SOL    HW232916   0.276   3.183   1.291 -1.0019  0.1508 -0.8312
 7094SOL     OW32917   2.025   1.134   4.392  0.6971  0.0493 -0.1930
 7094SOL    HW132918   1.947   1.175   4.354  0.6303 -1.8067 -2.0840
 7094SOL    HW232919   1.994   1.046   4.372  0.9980 -0.3848  1.3019
 7095SOL     OW32920   2.991   2.711   3.372  0.0548  0.2245 -0.3332
 7095SOL    HW132921   2.961   2.725   3.282  0.9231 -2.4200 -1.0203
 7095SOL    HW232922   2.932   2.641   3.398  1.5066 -0.6711  0.4976
 7096SOL     OW32923   3.594   1.671   3.664 -0.5769  0.0051 -0.7526
 7096SOL    HW132924   3.685   1.696   3.678 -0.1846 -1.3314 -0.9616
 7096SOL    HW232925   3.573   1.606   3.731  1.0100 -0.0323 -0.3059
 7097SOL     OW32926   0.030   2.786   4.523 -0.3017  0.2208 -0.1427
 7097SOL    HW132927   0.109   2.789   4.470 -0.1167  0.1471  0.1277
 7097SOL    HW232928   4.721   2.722   4.470 -2.2318  1.3304  0.2013
 7098SOL     OW32929   4.310   0.765  14.596  0.3379 -0.9198  0.2199
 7098SOL    HW132930   4.309   0.856  14.626  0.7235 -1.8981  3.2042
 7098SOL    HW232931   4.219   0.755  14.569 -0.0943 -1.6836  1.9774
 7099SOL     OW32932   4.334   2.368   0.772 -0.4767  0.2281  0.7019
 7099SOL    HW132933   4.348   2.312   0.848  0.8965 -3.3703 -2.2064
 7099SOL    HW232934   4.268   2.326   0.715  1.5762 -1.3680 -0.4984
 7100SOL     OW32935   2.588   3.701  15.651 -0.3259 -0.1331  0.1432
 7100SOL    HW132936   2.533   3.727  15.725 -0.2606  1.4795 -0.3790
 7100SOL    HW232937   2.628   3.619  15.681 -3.0028 -1.7613 -0.7498
 7101SOL     OW32938   0.041   1.623   4.625 -0.4203  0.6779  0.0698
 7101SOL    HW132939   0.107   1.630   4.556  0.4256 -2.6446  0.5378
 7101SOL    HW232940   0.067   1.551   4.683 -0.2024  0.1807 -0.6376
 7102SOL     OW32941   3.233   2.373   0.232  0.3376 -0.2224 -0.3438
 7102SOL    HW132942   3.249   2.412   0.146 -1.0447  1.1523  0.0247
 7102SOL    HW232943   3.202   2.451   0.278  0.4908 -0.1990 -0.2800
 7103SOL     OW32944   2.814   4.362   7.958  0.1508 -0.6215 -0.0241
 7103SOL    HW132945   2.863   4.306   8.018  1.6807  1.0683  0.2739
 7103SOL    HW232946   2.885   4.402   7.908  0.3937 -0.4504  0.4536
 7104SOL     OW32947   0.771   2.344   5.460  0.6579 -0.3633 -0.4661
 7104SOL    HW132948   0.827   2.276   5.498 -1.4537 -1.8297  0.0218
 7104SOL    HW232949   0.827   2.421   5.467 -1.4483  0.9057  2.2683
 7105SOL     OW32950   3.941   3.875   5.085  0.0990 -0.0724  0.0461
 7105SOL    HW132951   3.890   3.925   5.022 -1.6836 -0.4822  1.1853
 7105SOL    HW232952   3.909   3.910   5.168 -1.3901  2.8854 -1.8217
 7106SOL     OW32953   2.726   4.421   1.316 -0.1808  0.7022 -0.1283
 7106SOL    HW132954   2.681   4.429   1.400  3.2439  0.5210  1.7132
 7106SOL    HW232955   2.655   4.382   1.265 -0.4255  0.3736  0.4650
 7107SOL     OW32956   1.396   4.329  10.737 -0.8414 -0.0760  0.6026
 7107SOL    HW132957   1.459   4.302  10.804 -0.9355  1.0357  1.1377
 7107SOL    HW232958   1.410   4.259  10.673  1.0620 -0.9657  1.9799
 7108SOL     OW32959   4.147   3.758   4.662 -0.0581 -0.0690  0.0839
 7108SOL    HW132960   4.103   3.772   4.746 -2.3755 -0.1929 -1.1270
 7108SOL    HW232961   4.087   3.689   4.635  0.2114 -0.7942  1.3182
 7109SOL     OW32962   3.437   4.107  17.073  0.2682  0.1879  0.3066
 7109SOL    HW132963   3.431   4.098  16.977  1.5551  0.0244  0.2437
 7109SOL    HW232964   3.386   4.033  17.107 -0.3413 -0.0851 -1.1931
 7110SOL     OW32965   3.122   4.369   9.020  0.2346 -0.4480  0.0045
 7110SOL    HW132966   3.057   4.306   8.988 -0.7300  0.7901 -0.4857
 7110SOL    HW232967   3.096   4.382   9.111 -0.2107  1.0411 -0.3307
 7111SOL     OW32968   1.515   4.591  12.501 -0.4894  0.8989  0.0040
 7111SOL    HW132969   1.476   4.675  12.476 -4.2364 -0.5692  0.8858
 7111SOL    HW232970   1.498   4.589  12.595 -1.0329  1.1394 -0.0872
 7112SOL     OW32971   3.163   2.350   5.857  0.5493 -0.1758  0.0674
 7112SOL    HW132972   3.191   2.429   5.904  1.1043 -0.3785  0.0838
 7112SOL    HW232973   3.195   2.369   5.769 -0.4476 -0.4280 -0.3492
 7113SOL     OW32974   1.053   2.343   6.528 -0.6363  0.2690 -0.3036
 7113SOL    HW132975   1.010   2.429   6.535  0.4441  0.6902  1.1925
 7113SOL    HW232976   0.983   2.292   6.488  0.3511 -0.2917 -1.3015
 7114SOL     OW32977   3.771   4.714   9.973 -0.1798 -0.2531  0.1543
 7114SOL    HW132978   3.701   0.042   9.969  1.3726  1.5331  2.5657
 7114SOL    HW232979   3.807   4.735  10.059  1.2503 -2.4035  0.0836
 7115SOL     OW32980   2.793   4.247  16.496  0.2094 -0.4577 -0.2817
 7115SOL    HW132981   2.727   4.275  16.560  0.0826 -2.3894  0.4034
 7115SOL    HW232982   2.742   4.249  16.415  1.3462  1.4961 -0.9471
 7116SOL     OW32983   0.704   3.315   7.511  0.1028  0.0916 -0.1129
 7116SOL    HW132984   0.743   3.269   7.585  0.5708 -2.6294 -2.0508
 7116SOL    HW232985   0.733   3.406   7.520  0.0533  0.2291 -1.3973
 7117SOL     OW32986   2.836   2.373   1.749  0.1590 -0.1866 -0.3606
 7117SOL    HW132987   2.758   2.402   1.703 -0.0330 -2.1118 -1.2535
 7117SOL    HW232988   2.898   2.362   1.676 -1.6910 -0.8858 -1.8401
 7118SOL     OW32989   3.018   1.404  13.618  0.2843 -0.1022  0.5557
 7118SOL    HW132990   3.038   1.336  13.683 -2.1686 -1.7247 -0.3880
 7118SOL    HW232991   3.089   1.454  13.659  1.5822 -2.6611  1.4542
 7119SOL     OW32992   3.586   3.274   1.238  0.4391  0.2290 -0.0725
 7119SOL    HW132993   3.622   3.294   1.325 -0.9594 -0.0174  0.5765
 7119SOL    HW232994   3.629   3.340   1.184 -0.8558 -1.0303 -2.6332
 7120SOL     OW32995   3.187   3.677   5.583  0.9176 -0.1402  0.2243
 7120SOL    HW132996   3.237   3.605   5.622 -0.4186 -2.6315 -2.6099
 7120SOL    HW232997   3.251   3.747   5.592  0.4791  0.2278  0.4626
 7121SOL     OW32998   4.070   2.376   8.214 -0.6144  0.3273  0.4478
 7121SOL    HW132999   4.101   2.297   8.258  1.2828  0.5041 -0.5708
 7121SOL    HW233000   4.120   2.450   8.247  0.6927 -0.8181  1.0181
 7122SOL     OW33001   2.077   2.573   1.024 -0.5290  0.1157  0.0247
 7122SOL    HW133002   2.096   2.665   1.009  1.9225 -0.5291 -0.8080
 7122SOL    HW233003   2.054   2.575   1.117  0.0417 -0.5138  0.1765
 7123SOL     OW33004   2.533   4.032   6.845 -0.6080 -0.1937 -0.0376
 7123SOL    HW133005   2.581   3.995   6.919 -0.9559 -0.2276  0.1748
 7123SOL    HW233006   2.463   4.081   6.888  1.2303  1.0564  1.5050
 7124SOL     OW33007   4.015   1.472   1.952  0.1961  0.2101  0.0631
 7124SOL    HW133008   4.004   1.530   2.027 -0.8185  1.3090 -0.9296
 7124SOL    HW233009   4.069   1.525   1.893 -0.2204 -2.2860 -2.5846
 7125SOL     OW33010   2.750   3.198   4.761 -0.4749  0.2606  0.2895
 7125SOL    HW133011   2.674   3.139   4.762 -0.2073 -0.0678  1.5491
 7125SOL    HW233012   2.817   3.131   4.775 -1.5199 -0.6777  0.8513
 7126SOL     OW33013   2.468   3.432  14.830 -0.3341  0.4520  0.0332
 7126SOL    HW133014   2.463   3.353  14.776 -1.8429 -0.5676  1.6616
 7126SOL    HW233015   2.506   3.395  14.910 -0.5584 -0.2504 -0.1877
 7127SOL     OW33016   0.311   2.107   4.043  0.1350  0.0375 -0.2376
 7127SOL    HW133017   0.382   2.136   3.986  1.7495 -1.6519  0.9110
 7127SOL    HW233018   0.361   2.073   4.118 -0.6991 -0.1607  0.2227
 7128SOL     OW33019   4.573   2.507   7.003  0.1610  0.5558  0.1258
 7128SOL    HW133020   4.598   2.438   7.065 -2.1641  1.2369  1.7962
 7128SOL    HW233021   4.575   2.467   6.916 -4.0286  0.9167 -0.1217
 7129SOL     OW33022   3.056   3.323  10.500 -0.4166  0.8595 -0.0755
 7129SOL    HW133023   3.010   3.280  10.428 -1.8754  0.9007  0.8338
 7129SOL    HW233024   3.146   3.290  10.494 -1.1834 -1.4604  1.0410
 7130SOL     OW33025   1.704   0.277  15.284  0.7703 -0.0844 -0.1100
 7130SOL    HW133026   1.760   0.199  15.291  1.2847  0.5113  2.6456
 7130SOL    HW233027   1.756   0.333  15.342 -0.1598 -0.7301  1.3590
 7131SOL     OW33028   3.966   2.251   7.316  0.0007 -0.0660 -0.2387
 7131SOL    HW133029   3.963   2.309   7.241  2.8427  1.0852  0.5489
 7131SOL    HW233030   4.052   2.212   7.299 -0.3752 -1.3360  0.7467
 7132SOL     OW33031   1.219   0.255   5.812  0.1075 -0.3345  0.4480
 7132SOL    HW133032   1.177   0.332   5.852  1.6117 -0.1341  1.6352
 7132SOL    HW233033   1.166   0.238   5.734  2.0751 -0.0240 -0.9486
 7133SOL     OW33034   0.159   1.743  17.309 -0.5809  0.6571 -0.1179
 7133SOL    HW133035   0.245   1.783  17.318 -0.7256  0.8112  0.5883
 7133SOL    HW233036   0.171   1.692  17.229  2.4649  1.6129 -0.2592
 7134SOL     OW33037   1.906   2.716   9.956  0.3270 -0.1431  0.1023
 7134SOL    HW133038   1.914   2.634  10.004  1.4668  0.5375  1.0629
 7134SOL    HW233039   1.816   2.744   9.973  0.6451  0.8363  0.1267
 7135SOL     OW33040   0.646   1.619  16.062 -0.0263 -0.0545 -0.4374
 7135SOL    HW133041   0.556   1.651  16.053  0.5268  1.4266 -0.6364
 7135SOL    HW233042   0.644   1.545  16.001 -1.1964 -0.3492 -0.0559
 7136SOL     OW33043   4.660   2.771   2.340  0.1692  0.1750  0.2825
 7136SOL    HW133044   4.706   2.788   2.258  1.6941  0.3322  1.1637
 7136SOL    HW233045   4.702   2.691   2.372 -0.2842 -0.8371 -1.6346
 7137SOL     OW33046   3.571   2.746  16.281 -0.3296 -0.0414  0.0351
 7137SOL    HW133047   3.648   2.803  16.285  1.3751 -2.5278  1.8955
 7137SOL    HW233048   3.539   2.756  16.371  0.4145  2.2141  0.0654
 7138SOL     OW33049   1.720   3.054   1.628 -0.1469  0.1347 -0.0700
 7138SOL    HW133050   1.785   3.027   1.692  3.0415  0.1810 -3.3045
 7138SOL    HW233051   1.772   3.101   1.562 -2.5799 -0.0738 -2.1530
 7139SOL     OW33052   2.923   0.267   4.999 -0.3712 -0.1947 -0.2432
 7139SOL    HW133053   2.944   0.210   4.926  0.1900  1.7018 -1.5586
 7139SOL    HW233054   2.871   0.338   4.961 -1.0691 -0.7229 -0.2789
 7140SOL     OW33055   0.672   1.798  10.859  0.1118 -0.5206 -0.0304
 7140SOL    HW133056   0.584   1.836  10.870  0.0436 -1.4920  2.8872
 7140SOL    HW233057   0.651   1.744  10.783  1.8454 -0.0551 -0.8423
 7141SOL     OW33058   1.075   1.130  17.606 -0.9065 -0.6918  0.2521
 7141SOL    HW133059   1.059   1.127  17.512 -2.9582  2.3581  0.5192
 7141SOL    HW233060   1.165   1.097  17.601 -0.7768 -0.1939 -0.5979
 7142SOL     OW33061   1.220   3.229   0.367  0.0747  0.3539 -0.9039
 7142SOL    HW133062   1.220   3.320   0.396  1.1818  0.4903 -1.2973
 7142SOL    HW233063   1.267   3.234   0.283  0.4981 -2.1102 -0.8201
 7143SOL     OW33064   4.143   2.720   7.731 -0.0221 -0.7357 -0.0730
 7143SOL    HW133065   4.084   2.645   7.723 -1.3652  0.2909  0.1906
 7143SOL    HW233066   4.189   2.701   7.813  0.5045 -2.3203 -0.7342
 7144SOL     OW33067   3.290   1.832   7.115 -0.3815  0.3959 -0.1000
 7144SOL    HW133068   3.271   1.861   7.204 -1.6131 -1.5982  0.2857
 7144SOL    HW233069   3.199   1.806   7.100  0.1918 -0.8760 -1.4304
 7145SOL     OW33070   3.330   0.529   1.958 -0.0195  0.1061 -0.0197
 7145SOL    HW133071   3.387   0.506   1.885 -0.1497 -2.6642  0.7529
 7145SOL    HW233072   3.307   0.618   1.930  2.3584  0.9758  0.8694
 7146SOL     OW33073   2.249   4.267  12.921 -0.3907 -0.3183  0.1423
 7146SOL    HW133074   2.166   4.315  12.927 -0.0862  0.6474 -3.5153
 7146SOL    HW233075   2.220   4.177  12.935 -0.8782  0.0110  1.2681
 7147SOL     OW33076   2.121   2.216   1.871 -0.6426 -0.6311  0.1119
 7147SOL    HW133077   2.200   2.172   1.838 -0.9402 -0.2691 -1.0924
 7147SOL    HW233078   2.167   2.276   1.929 -2.0573  0.6729 -0.1254
 7148SOL     OW33079   1.603   1.148   1.117 -0.1556 -0.3254 -0.3661
 7148SOL    HW133080   1.577   1.194   1.037  1.4699  2.6672  0.8104
 7148SOL    HW233081   1.553   1.067   1.120  0.2489 -0.5144  1.6547
 7149SOL     OW33082   4.358   4.049  16.431  0.0737  0.1103 -0.5179
 7149SOL    HW133083   4.336   4.141  16.421 -0.6136  0.0619  0.5418
 7149SOL    HW233084   4.430   4.039  16.369  2.1790  1.2373  1.7566
 7150SOL     OW33085   0.579   2.841   2.791 -0.4959  0.2502  0.3138
 7150SOL    HW133086   0.563   2.915   2.850  0.3883  0.9715 -0.3506
 7150SOL    HW233087   0.669   2.858   2.764 -0.0624  0.2416  1.7788
 7151SOL     OW33088   4.423   0.652  11.855  0.1883  0.0344  0.3965
 7151SOL    HW133089   4.397   0.723  11.796 -1.4758 -1.4779 -0.6902
 7151SOL    HW233090   4.364   0.581  11.829 -0.0962 -0.1550  1.5693
 7152SOL     OW33091   3.657   4.668   7.594  0.5538 -0.1594  0.1349
 7152SOL    HW133092   3.576   4.618   7.596  0.5638 -0.2157 -0.6331
 7152SOL    HW233093   3.714   4.602   7.554  0.2577 -1.7208  2.3118
 7153SOL     OW33094   2.488   2.855  11.585  0.2556  0.1075 -0.2677
 7153SOL    HW133095   2.397   2.881  11.570 -0.1951 -1.2341  0.1166
 7153SOL    HW233096   2.514   2.816  11.502 -1.8090 -0.6266 -0.5910
 7154SOL     OW33097   2.984   0.807   2.850 -0.2724 -0.5227 -0.1081
 7154SOL    HW133098   3.059   0.865   2.867  0.4392 -1.4890  0.0180
 7154SOL    HW233099   2.955   0.834   2.763  0.0325 -0.3208 -0.1511
 7155SOL     OW33100   2.733   1.394   5.562 -0.7199 -0.0115 -0.1675
 7155SOL    HW133101   2.782   1.466   5.602 -0.5219  0.2887 -0.9519
 7155SOL    HW233102   2.657   1.377   5.618  0.0783 -1.4680  0.4508
 7156SOL     OW33103   1.489   1.651   8.108  0.2956  0.1059  0.3641
 7156SOL    HW133104   1.452   1.657   8.020  0.1680  0.6343  0.4546
 7156SOL    HW233105   1.415   1.666   8.166  0.3346 -0.7367  0.6424
 7157SOL     OW33106   4.207   2.287   5.770 -0.0203 -0.5514 -0.0468
 7157SOL    HW133107   4.299   2.315   5.764 -0.0876 -0.1457  0.8300
 7157SOL    HW233108   4.171   2.369   5.803 -2.5258 -1.1600 -1.3406
 7158SOL     OW33109   3.826   4.636  11.009  0.7250 -0.6311 -0.0844
 7158SOL    HW133110   3.828   4.575  11.082 -3.9138 -1.5208 -0.6804
 7158SOL    HW233111   3.867   4.586  10.938  1.8700  0.9064 -0.5180
 7159SOL     OW33112   3.554   0.964   9.387 -0.3097 -0.3313 -0.0495
 7159SOL    HW133113   3.619   0.908   9.344  0.3808  0.5528 -0.1480
 7159SOL    HW233114   3.475   0.952   9.334  1.2359 -3.0358 -1.7676
 7160SOL     OW33115   4.550   2.422   4.838 -0.2754 -0.3798  0.8664
 7160SOL    HW133116   4.512   2.402   4.753 -0.6781 -0.5281  1.0844
 7160SOL    HW233117   4.514   2.507   4.864 -0.4408  0.0199 -0.6893
 7161SOL     OW33118   0.609   3.457   8.032 -0.3917  0.6743 -0.1087
 7161SOL    HW133119   0.646   3.510   8.103 -0.4881 -0.0200  0.4585
 7161SOL    HW233120   0.534   3.511   8.005 -0.8051  0.3748  0.4605
 7162SOL     OW33121   3.208   4.496  16.020 -0.2663  0.4179 -0.2891
 7162SOL    HW133122   3.280   4.556  16.039  0.7325 -1.1363  0.8190
 7162SOL    HW233123   3.235   4.431  16.085  0.5689 -0.6433 -1.6998
 7163SOL     OW33124   2.299   0.509   5.060 -0.2834  0.0952 -0.2998
 7163SOL    HW133125   2.300   0.586   5.004  1.7145 -1.2202 -2.0879
 7163SOL    HW233126   2.358   0.453   5.009  1.5916  0.4497  1.4642
 7164SOL     OW33127   4.623   4.576  13.038 -0.5245 -0.6915  0.1282
 7164SOL    HW133128   4.602   4.625  13.117 -2.6022 -1.5615  0.1008
 7164SOL    HW233129   4.557   4.507  13.043 -0.5203 -0.6935  0.1541
 7165SOL     OW33130   2.785   1.070   7.701 -0.1576  0.6131  0.0816
 7165SOL    HW133131   2.823   1.067   7.613 -1.5384 -2.8729 -0.3690
 7165SOL    HW233132   2.868   1.053   7.745 -1.3281 -0.3951  1.8804
 7166SOL     OW33133   0.455   0.527   0.672  0.0205 -0.0199  0.7549
 7166SOL    HW133134   0.437   0.475   0.594 -0.5406  0.2749  0.6902
 7166SOL    HW233135   0.516   0.598   0.648 -2.9180  1.8765 -1.0606
 7167SOL     OW33136   2.125   0.219   1.372 -0.5961 -0.1620 -0.2987
 7167SOL    HW133137   2.114   0.148   1.434 -1.9810 -0.8740 -1.3680
 7167SOL    HW233138   2.175   0.182   1.299  2.5272  0.2534  1.6377
 7168SOL     OW33139   4.323   1.200   1.414 -0.3245 -0.3082  0.1582
 7168SOL    HW133140   4.377   1.253   1.472 -3.4951  0.8010  2.0913
 7168SOL    HW233141   4.311   1.254   1.335  1.8092 -0.9485 -0.5944
 7169SOL     OW33142   1.216   3.455   4.446 -0.0272  0.0135  0.2000
 7169SOL    HW133143   1.297   3.504   4.433 -0.3705  0.6492  0.4498
 7169SOL    HW233144   1.178   3.479   4.530 -2.9533 -3.5041 -0.1206
 7170SOL     OW33145   1.780   3.645   9.466  0.2612 -0.3455 -0.6383
 7170SOL    HW133146   1.861   3.602   9.439 -0.6053  0.7152 -4.8787
 7170SOL    HW233147   1.711   3.584   9.438 -0.8528 -0.3963  2.2548
 7171SOL     OW33148   1.918   4.470   7.423 -0.7843  0.5128  0.7258
 7171SOL    HW133149   1.864   4.504   7.352  0.2417 -1.9306 -1.2155
 7171SOL    HW233150   2.010   4.496   7.413 -1.7808  2.4456 -3.1027
 7172SOL     OW33151   3.691   1.741   5.564  0.2290 -0.5046 -0.2884
 7172SOL    HW133152   3.678   1.819   5.509  0.6453 -0.5888 -0.5075
 7172SOL    HW233153   3.772   1.770   5.605 -0.9310  0.6753  1.1590
 7173SOL     OW33154   2.480   2.656  16.704  0.4421  0.2046  0.5871
 7173SOL    HW133155   2.440   2.740  16.727 -0.2718  0.5472 -1.9022
 7173SOL    HW233156   2.524   2.684  16.623 -2.1009 -1.8548 -1.4895
 7174SOL     OW33157   3.812   2.406   3.653 -0.7507 -0.9043  0.1416
 7174SOL    HW133158   3.782   2.491   3.683  1.4488  0.3544 -1.2058
 7174SOL    HW233159   3.780   2.403   3.562  0.5039 -2.2778 -0.2558
 7175SOL     OW33160   0.874   0.903   5.740 -0.1036  0.4561  0.4893
 7175SOL    HW133161   0.943   0.923   5.677 -0.4116  0.2516  0.0811
 7175SOL    HW233162   0.885   0.978   5.798 -0.6653 -0.5340  1.8702
 7176SOL     OW33163   1.085   3.404  15.167  0.4160 -0.5156  0.1345
 7176SOL    HW133164   1.043   3.319  15.175  2.6065 -1.4828  1.5405
 7176SOL    HW233165   1.027   3.458  15.220 -0.8111 -0.2246 -1.4976
 7177SOL     OW33166   3.635   1.241   3.219  0.2485  0.1153 -1.0492
 7177SOL    HW133167   3.625   1.316   3.159  0.5729 -0.8924 -2.3695
 7177SOL    HW233168   3.549   1.247   3.261  0.2689 -2.1610 -0.7089
 7178SOL     OW33169   2.218   1.589   2.105  0.5393 -0.1834 -0.7612
 7178SOL    HW133170   2.129   1.556   2.092  0.0831  0.0877  1.7495
 7178SOL    HW233171   2.274   1.536   2.048  0.0240 -0.6535 -0.8371
 7179SOL     OW33172   4.226   3.406   3.316  0.7507 -0.3437  0.5696
 7179SOL    HW133173   4.189   3.453   3.390 -1.4874 -2.0916  0.5437
 7179SOL    HW233174   4.316   3.403   3.348  0.6095  0.8286  1.0549
 7180SOL     OW33175   1.632   2.599  12.434 -0.0200  0.2682  0.2386
 7180SOL    HW133176   1.546   2.558  12.425  0.1076  0.2566 -0.9427
 7180SOL    HW233177   1.650   2.626  12.344  0.1745  3.1930  1.1834
 7181SOL     OW33178   1.843   0.122   7.499 -0.7371  0.2149  0.2427
 7181SOL    HW133179   1.810   0.209   7.475  0.2369  0.3655 -0.5055
 7181SOL    HW233180   1.763   0.072   7.483 -0.3916 -0.0588 -0.6133
 7182SOL     OW33181   3.599   4.736   6.881  0.0513  0.2294 -0.3732
 7182SOL    HW133182   3.558   0.083   6.860 -1.8578 -1.0457 -1.7530
 7182SOL    HW233183   3.595   4.686   6.799  0.9709 -0.7562  0.1955
 7183SOL     OW33184   0.054   4.060   3.260 -0.2525 -0.3995  0.5371
 7183SOL    HW133185   0.037   3.966   3.252 -1.0979 -0.2225  0.2117
 7183SOL    HW233186   0.029   4.079   3.351  1.1672 -0.1705  0.8753
 7184SOL     OW33187   3.070   0.123   8.413 -0.2002 -0.0749 -0.4225
 7184SOL    HW133188   3.016   0.057   8.457 -0.7170  0.4610 -0.2542
 7184SOL    HW233189   3.143   0.105   8.472  0.9219 -1.4423 -2.2263
 7185SOL     OW33190   3.389   0.448  11.655 -0.0403 -0.1366 -0.5586
 7185SOL    HW133191   3.453   0.453  11.584  0.7648  1.8324  0.2957
 7185SOL    HW233192   3.310   0.429  11.605  0.5184  0.6932 -1.7411
 7186SOL     OW33193   1.879   2.354   5.647 -0.9677 -0.4266 -0.3005
 7186SOL    HW133194   1.856   2.432   5.597  0.2263  0.2586  0.2177
 7186SOL    HW233195   1.917   2.390   5.727  2.4776 -1.1337 -1.5983
 7187SOL     OW33196   3.987   2.243   6.840 -0.3786  0.4367  0.2892
 7187SOL    HW133197   3.987   2.285   6.926  1.4450  1.6067 -0.2774
 7187SOL    HW233198   3.993   2.151   6.867 -0.3280  0.0369 -1.0878
 7188SOL     OW33199   1.007   3.142   7.085 -0.4220  0.1339  0.1769
 7188SOL    HW133200   0.969   3.174   7.166 -2.3079 -1.5379 -0.0600
 7188SOL    HW233201   1.081   3.095   7.125 -0.2401  0.2822  0.0173
 7189SOL     OW33202   0.716   4.626   1.217 -0.0838  0.1581 -0.1656
 7189SOL    HW133203   0.768   4.700   1.188 -1.4339  1.1828  0.0324
 7189SOL    HW233204   0.776   4.580   1.275  2.7834 -0.4951 -3.6314
 7190SOL     OW33205   3.687   1.500  12.703  0.5860  0.6923  0.1693
 7190SOL    HW133206   3.642   1.533  12.626  3.2585  0.2243 -1.5872
 7190SOL    HW233207   3.640   1.535  12.779 -2.3736  0.1598 -1.4339
 7191SOL     OW33208   1.955   0.103   8.092  0.5721 -0.4485  0.0129
 7191SOL    HW133209   2.040   0.139   8.064  0.9126 -1.8446 -0.7528
 7191SOL    HW233210   1.904   0.084   8.014 -2.3714  1.5297  1.4782
 7192SOL     OW33211   1.393   2.852  13.123  0.7368  0.3971 -0.1235
 7192SOL    HW133212   1.434   2.767  13.137 -2.5914 -0.7799  2.4729
 7192SOL    HW233213   1.407   2.853  13.028  2.6987  0.0700  0.1651
 7193SOL     OW33214   3.767   1.333  12.342 -0.9755 -0.5276 -0.4826
 7193SOL    HW133215   3.703   1.295  12.282 -0.2774  0.1630 -1.6625
 7193SOL    HW233216   3.845   1.341  12.288 -0.4941  0.2951  0.3292
 7194SOL     OW33217   1.497   2.144   5.905  0.1787 -0.2948 -0.1450
 7194SOL    HW133218   1.586   2.129   5.872  0.5911  0.3284  0.6907
 7194SOL    HW233219   1.516   2.219   5.961 -1.3615  1.5365 -2.0996
 7195SOL     OW33220   3.569   3.663   5.812  0.0732  0.3985  0.0123
 7195SOL    HW133221   3.602   3.683   5.899  0.1613  0.2002  0.0253
 7195SOL    HW233222   3.481   3.700   5.810 -0.4366 -0.8664 -0.8644
 7196SOL     OW33223   3.089   1.872   2.437 -0.1373 -0.1393 -0.4863
 7196SOL    HW133224   3.010   1.818   2.445 -0.3888  0.0590 -1.6738
 7196SOL    HW233225   3.060   1.938   2.499 -0.9423 -2.2762  1.4118
 7197SOL     OW33226   1.477   4.280   1.680 -0.5709  0.0254  0.0722
 7197SOL    HW133227   1.446   4.222   1.750  0.4819 -0.1534  0.3989
 7197SOL    HW233228   1.545   4.333   1.723  0.7853 -0.1145 -1.9199
 7198SOL     OW33229   4.482   1.029  10.917  0.2119  0.0071  0.1978
 7198SOL    HW133230   4.447   0.963  10.977  0.5502 -0.5956 -0.2758
 7198SOL    HW233231   4.464   1.005  10.826  1.5941  0.6912 -0.2557
 7199SOL     OW33232   0.409   1.853   3.745 -0.3811  0.0378  0.0382
 7199SOL    HW133233   0.351   1.778   3.763  0.8769 -0.2138  3.1125
 7199SOL    HW233234   0.462   1.820   3.673 -1.8188  0.0488 -1.0191
 7200SOL     OW33235   2.727   4.328  14.663 -0.2205 -0.5430  0.7263
 7200SOL    HW133236   2.680   4.250  14.633 -0.1157 -0.5420  0.5580
 7200SOL    HW233237   2.813   4.287  14.659 -1.2907 -3.0002  2.7632
 7201SOL     OW33238   1.452   4.297   8.860 -0.1088  0.3034 -0.1689
 7201SOL    HW133239   1.493   4.214   8.834 -0.4879  0.1379 -0.2455
 7201SOL    HW233240   1.517   4.343   8.912  1.2460 -0.5605 -1.0911
 7202SOL     OW33241   3.438   3.600   6.447 -0.8064 -0.0025 -0.7090
 7202SOL    HW133242   3.390   3.517   6.455  0.1185 -0.5298 -0.6667
 7202SOL    HW233243   3.485   3.603   6.363  1.0253  0.2030  0.3252
 7203SOL     OW33244   3.664   0.992   3.684  0.3044 -0.2624 -0.0268
 7203SOL    HW133245   3.752   0.998   3.721 -0.1514  0.1682  0.9936
 7203SOL    HW233246   3.662   1.080   3.646 -0.3271 -0.4139 -0.3383
 7204SOL     OW33247   2.423   1.379   9.390  0.6266  0.1097  0.0291
 7204SOL    HW133248   2.463   1.326   9.321  2.4026 -0.1445  1.2617
 7204SOL    HW233249   2.454   1.333   9.468 -0.4210  1.0281  0.9774
 7205SOL     OW33250   3.175   2.501   8.578 -0.5306 -0.4866  0.0553
 7205SOL    HW133251   3.236   2.490   8.505  1.6236 -1.3260  2.0071
 7205SOL    HW233252   3.219   2.566   8.631 -0.4502  0.3797 -1.0659
 7206SOL     OW33253   3.892   2.793   0.290  0.5609  0.0060  0.3371
 7206SOL    HW133254   3.806   2.789   0.249  0.0292 -4.5320  1.9539
 7206SOL    HW233255   3.895   2.701   0.314  0.2602 -0.7486 -2.5149
 7207SOL     OW33256   3.308   4.557   9.877 -0.2096  0.0613  0.1129
 7207SOL    HW133257   3.256   4.619   9.927  1.4762  2.1493 -0.7384
 7207SOL    HW233258   3.313   4.494   9.949 -0.4723 -1.6733 -1.3738
 7208SOL     OW33259   4.634   4.226  10.764  0.0255 -0.1520 -0.3742
 7208SOL    HW133260   4.636   4.142  10.718  1.1900 -0.5407  0.3715
 7208SOL    HW233261   4.676   4.282  10.699 -0.8092  0.9580  0.0487
 7209SOL     OW33262   2.803   2.637   8.282  0.1607 -0.4440  0.6875
 7209SOL    HW133263   2.819   2.547   8.313  2.7729 -0.5862 -1.1250
 7209SOL    HW233264   2.808   2.687   8.363 -0.7008  0.0266  0.4468
 7210SOL     OW33265   1.231   0.139   4.136  0.8520  0.2409  0.1533
 7210SOL    HW133266   1.269   0.094   4.212 -0.6401 -0.4383  0.4937
 7210SOL    HW233267   1.274   0.095   4.063  0.5687 -0.5417  0.4499
 7211SOL     OW33268   4.078   0.457   3.746 -0.0513 -0.2028  0.1066
 7211SOL    HW133269   4.004   0.508   3.779  0.1209  0.4604 -0.5349
 7211SOL    HW233270   4.044   0.375   3.709 -1.0433 -0.2475  1.0966
 7212SOL     OW33271   2.168   3.512   3.384 -0.1083 -0.3500 -0.1543
 7212SOL    HW133272   2.096   3.505   3.447 -0.7169 -2.2210 -1.0527
 7212SOL    HW233273   2.126   3.482   3.304  2.1934  0.5168 -1.6853
 7213SOL     OW33274   3.244   2.708   5.919  0.0029  0.1365 -0.2392
 7213SOL    HW133275   3.297   2.706   5.999 -0.0906  0.7624 -0.1619
 7213SOL    HW233276   3.178   2.773   5.942 -0.9899 -1.0891  0.3966
 7214SOL     OW33277   3.910   3.544  16.335 -0.4064 -0.3388 -0.2246
 7214SOL    HW133278   3.815   3.537  16.331 -0.6003  0.5648  2.3781
 7214SOL    HW233279   3.918   3.635  16.309 -0.7060 -0.0270  0.7604
 7215SOL     OW33280   2.586   1.729  12.627 -0.5580  0.1471 -0.1104
 7215SOL    HW133281   2.656   1.773  12.674 -2.5227  1.5988  1.4439
 7215SOL    HW233282   2.516   1.794  12.635 -0.6015 -0.2059  2.3071
 7216SOL     OW33283   2.498   1.439   4.423 -0.4584  0.0817  0.0512
 7216SOL    HW133284   2.575   1.479   4.464  1.0728 -0.9224 -1.8043
 7216SOL    HW233285   2.537   1.352   4.412 -0.9744 -0.2697  1.0684
 7217SOL     OW33286   0.100   2.416   8.926 -0.1728  0.4244  0.2281
 7217SOL    HW133287   0.134   2.500   8.894  2.2702 -0.1519  1.3999
 7217SOL    HW233288   0.178   2.362   8.933 -0.9456 -0.6841  0.3018
 7218SOL     OW33289   4.681   0.272   8.856 -0.0056  0.1219  0.1045
 7218SOL    HW133290   4.691   0.185   8.819 -0.8205  0.8323 -1.8103
 7218SOL    HW233291   4.603   0.247   8.905 -0.8447  1.6906 -0.4178
 7219SOL     OW33292   2.698   3.194  12.756 -0.5626 -0.3997 -0.1901
 7219SOL    HW133293   2.702   3.277  12.802 -0.0880  0.2729 -1.4406
 7219SOL    HW233294   2.622   3.196  12.697 -0.8620  0.3295  0.2253
 7220SOL     OW33295   4.090   2.333  13.519 -0.1601  0.0645  0.4289
 7220SOL    HW133296   4.076   2.353  13.426 -2.0898 -3.1950 -0.0049
 7220SOL    HW233297   4.181   2.362  13.517 -0.2987  0.4917  0.3588
 7221SOL     OW33298   3.687   0.724   3.639 -0.2622  0.1567 -0.4099
 7221SOL    HW133299   3.667   0.808   3.681  0.7694 -0.0456  0.5016
 7221SOL    HW233300   3.676   0.751   3.548 -0.3258  0.0351 -0.4386
 7222SOL     OW33301   3.836   3.568   3.022  0.7342  0.2617  0.1826
 7222SOL    HW133302   3.765   3.632   3.033  1.6351  1.7440 -2.5312
 7222SOL    HW233303   3.916   3.620   3.019  2.1319 -1.8830  0.6431
 7223SOL     OW33304   2.760   3.097  13.025 -0.3288 -0.4069  0.0032
 7223SOL    HW133305   2.733   3.064  13.111 -1.0159  0.0652 -0.0325
 7223SOL    HW233306   2.695   3.167  13.014 -1.6111 -1.5577  0.2901
 7224SOL     OW33307   2.650   2.979   6.185 -0.0822  0.2732  0.1396
 7224SOL    HW133308   2.578   3.031   6.149  0.6501 -0.8869 -3.0145
 7224SOL    HW233309   2.715   2.987   6.115  0.9559 -2.8222  0.7576
 7225SOL     OW33310   3.031   2.988   4.161  0.0651 -0.1602 -0.5481
 7225SOL    HW133311   2.996   3.063   4.115  1.7751  0.8786 -0.1498
 7225SOL    HW233312   3.032   3.021   4.251  1.3413 -1.2924 -0.1334
 7226SOL     OW33313   3.775   0.432   1.149  0.6833  0.0864  0.1894
 7226SOL    HW133314   3.794   0.487   1.224 -0.8655  1.3344 -0.3392
 7226SOL    HW233315   3.813   0.348   1.176  0.5672  0.3785  1.2458
 7227SOL     OW33316   2.626   0.674   0.010 -0.1364 -0.0064 -0.0747
 7227SOL    HW133317   2.543   0.701  17.719 -1.4305  1.1169  3.5050
 7227SOL    HW233318   2.625   0.735   0.084 -1.2117 -0.6157  0.4136
 7228SOL     OW33319   0.541   1.607   8.661  0.0481 -0.0864 -0.5277
 7228SOL    HW133320   0.461   1.656   8.682 -0.4961 -2.2496  2.5436
 7228SOL    HW233321   0.554   1.651   8.577 -1.5060  0.1308 -0.6634
 7229SOL     OW33322   4.123   4.485   8.563 -0.1063 -0.3955 -0.8195
 7229SOL    HW133323   4.187   4.547   8.598  0.8261 -1.3918 -0.7713
 7229SOL    HW233324   4.174   4.405   8.554  0.5172  0.0344 -1.1090
 7230SOL     OW33325   4.228   3.266   0.604  0.4117  0.4081  0.2196
 7230SOL    HW133326   4.218   3.242   0.697  0.2333 -0.1268  0.0627
 7230SOL    HW233327   4.184   3.351   0.603 -0.2136  0.0710 -0.2376
 7231SOL     OW33328   0.743   3.852   7.963 -0.3914 -0.4110 -0.7075
 7231SOL    HW133329   0.776   3.878   8.048  0.0499  0.9726 -1.3140
 7231SOL    HW233330   0.760   3.758   7.972  0.4553 -0.4544 -2.6443
 7232SOL     OW33331   0.083   3.218   7.111  0.1923 -0.1391  0.0591
 7232SOL    HW133332   0.062   3.287   7.048  0.6216  1.4361  1.6126
 7232SOL    HW233333   0.027   3.146   7.083 -0.9485  0.7938 -0.0409
 7233SOL     OW33334   2.221   1.979  14.160 -0.0122  0.4349 -0.5247
 7233SOL    HW133335   2.317   1.983  14.158 -0.0163  0.7184 -0.1986
 7233SOL    HW233336   2.200   2.008  14.071  7.6151 -0.7270 -2.7419
 7234SOL     OW33337   0.324   1.094   7.749  0.1444 -0.2928 -0.6177
 7234SOL    HW133338   0.377   1.165   7.713  0.9115 -0.6520 -0.2102
 7234SOL    HW233339   0.367   1.022   7.702 -0.4140 -2.9504  3.0031
 7235SOL     OW33340   2.530   4.100   6.386 -0.3395 -0.0060 -0.3159
 7235SOL    HW133341   2.482   4.084   6.305  0.8114 -0.8063 -0.8432
 7235SOL    HW233342   2.622   4.104   6.360  0.2512  0.5590  1.8745
 7236SOL     OW33343   1.758   0.655   8.920 -0.7603  0.3856  0.0648
 7236SOL    HW133344   1.819   0.602   8.868 -0.1225  1.9330 -0.7474
 7236SOL    HW233345   1.812   0.702   8.983 -0.6101 -2.2645  1.9264
 7237SOL     OW33346   1.992   3.864  13.113 -0.2646 -0.1608  0.4191
 7237SOL    HW133347   1.931   3.846  13.185 -0.0419  0.6804  0.8145
 7237SOL    HW233348   2.011   3.777  13.077 -1.7226 -1.1716  2.0924
 7238SOL     OW33349   2.626   3.465   3.322  0.5503 -0.3390  0.1420
 7238SOL    HW133350   2.570   3.389   3.305  0.7569 -0.4511 -0.0308
 7238SOL    HW233351   2.711   3.422   3.331  0.6459 -1.0775 -4.2348
 7239SOL     OW33352   1.070   3.226  13.081  0.4311 -0.1127 -0.2032
 7239SOL    HW133353   1.131   3.175  13.135 -1.3043 -0.7384  1.1677
 7239SOL    HW233354   0.985   3.215  13.123 -0.0611  3.7684 -0.1488
 7240SOL     OW33355   4.378   4.508   7.529 -0.1518 -0.2200 -0.1060
 7240SOL    HW133356   4.458   4.515   7.581 -0.6831  2.9350  0.3287
 7240SOL    HW233357   4.401   4.571   7.461  1.8511 -1.3249 -0.4380
 7241SOL     OW33358   0.549   2.578   7.924 -0.0568  0.2575 -0.2952
 7241SOL    HW133359   0.506   2.525   7.857 -1.4022 -0.1423  0.8869
 7241SOL    HW233360   0.575   2.647   7.863 -1.5676  1.5186  0.4759
 7242SOL     OW33361   2.055   2.442   5.209  0.1489 -0.1468 -0.1997
 7242SOL    HW133362   2.109   2.493   5.269  1.6689 -1.0958 -0.7717
 7242SOL    HW233363   2.084   2.352   5.224 -0.0626 -0.3938 -1.2472
 7243SOL     OW33364   0.302   0.755   1.759 -0.2371 -0.1262  0.1953
 7243SOL    HW133365   0.306   0.660   1.760 -0.8329 -0.1676 -2.0703
 7243SOL    HW233366   0.210   0.767   1.782  0.3082  0.7003  2.0431
 7244SOL     OW33367   0.154   1.362  11.662 -0.0086 -0.4783  0.1956
 7244SOL    HW133368   0.114   1.332  11.581  2.1039  0.9709 -1.3827
 7244SOL    HW233369   0.238   1.316  11.655  0.7636  1.2497 -1.8032
 7245SOL     OW33370   0.339   2.001   7.124 -0.6759 -0.0044 -0.5538
 7245SOL    HW133371   0.388   1.938   7.072 -0.4345 -1.6372  1.6277
 7245SOL    HW233372   0.327   2.067   7.056 -0.3590  0.1294 -0.4796
 7246SOL     OW33373   0.555   2.787   7.169  0.0449  0.2898 -0.3070
 7246SOL    HW133374   0.564   2.837   7.088  0.2349 -0.1136 -0.5370
 7246SOL    HW233375   0.636   2.809   7.216 -1.1883 -0.8693  2.3756
 7247SOL     OW33376   1.209   0.281  15.483  0.1152  0.0137 -0.1678
 7247SOL    HW133377   1.265   0.274  15.405 -0.9088 -0.5333 -0.8447
 7247SOL    HW233378   1.282   0.313  15.536  0.3839  0.2235 -0.6618
 7248SOL     OW33379   2.049   3.280   5.520 -0.2517  0.7911  0.2642
 7248SOL    HW133380   2.075   3.271   5.428 -0.6579 -0.4889  0.2732
 7248SOL    HW233381   2.012   3.367   5.529 -2.5886 -0.2009  0.2091
 7249SOL     OW33382   0.812   3.053  12.570  0.0507  0.1266 -0.7806
 7249SOL    HW133383   0.811   2.962  12.538 -1.2876  0.4056 -1.5108
 7249SOL    HW233384   0.907   3.066  12.572  0.0833 -0.7743  3.0565
 7250SOL     OW33385   1.150   3.621  12.474 -0.1133 -0.4942  0.1860
 7250SOL    HW133386   1.151   3.548  12.412 -1.6755 -0.4900  0.1545
 7250SOL    HW233387   1.241   3.651  12.467  0.2355 -1.6900 -0.3322
 7251SOL     OW33388   4.068   2.329   7.956  0.1574  0.2120 -0.4363
 7251SOL    HW133389   4.161   2.309   7.966 -0.1052 -1.4211 -1.1475
 7251SOL    HW233390   4.048   2.350   8.047 -0.9270  1.4689 -0.9657
 7252SOL     OW33391   3.199   1.832  12.810  0.3114  0.1320  0.5688
 7252SOL    HW133392   3.141   1.795  12.877  0.2782 -0.5135  0.1875
 7252SOL    HW233393   3.178   1.784  12.730  0.9715  1.4646 -0.4015
 7253SOL     OW33394   2.629   1.234   8.811 -0.3927  0.3752 -0.3977
 7253SOL    HW133395   2.676   1.178   8.749 -0.0915  0.6984 -0.4561
 7253SOL    HW233396   2.688   1.308   8.825 -1.7768  1.2418  0.8953
 7254SOL     OW33397   3.335   1.398  12.918  0.0124  0.1401 -0.0463
 7254SOL    HW133398   3.288   1.400  12.835  1.6550  0.2017 -0.9680
 7254SOL    HW233399   3.300   1.315  12.952 -0.0268 -0.6286 -1.9902
 7255SOL     OW33400   2.980   1.093   7.892 -0.2075  0.2945 -0.3134
 7255SOL    HW133401   2.996   1.062   7.981  0.2090  2.1126  0.2569
 7255SOL    HW233402   3.057   1.151   7.895 -1.2284  1.6767 -0.6148
 7256SOL     OW33403   2.389   0.301   5.458 -0.1887  0.2319  0.2699
 7256SOL    HW133404   2.318   0.251   5.498 -0.1009 -0.7933 -0.8665
 7256SOL    HW233405   2.399   0.372   5.522  1.4718  0.2884 -0.0488
 7257SOL     OW33406   1.979   1.767  13.875 -0.3551  0.1751 -0.1196
 7257SOL    HW133407   2.066   1.770  13.915 -0.2965 -0.5352 -0.2014
 7257SOL    HW233408   1.995   1.817  13.794  0.2506  1.7851  0.9852
 7258SOL     OW33409   1.073   1.889  12.752  0.8301 -0.1348 -0.3933
 7258SOL    HW133410   1.118   1.854  12.675  2.1326 -2.8603  1.6259
 7258SOL    HW233411   1.078   1.981  12.726  1.2426 -0.9570 -3.2847
 7259SOL     OW33412   2.090   3.858   6.157 -0.3667  0.2930 -0.2301
 7259SOL    HW133413   2.161   3.800   6.185 -0.2017  0.9836  0.8178
 7259SOL    HW233414   2.043   3.793   6.104 -0.0009  0.6627 -1.0044
 7260SOL     OW33415   0.276   0.791   8.215  0.0482  0.4883 -0.3509
 7260SOL    HW133416   0.262   0.820   8.305  0.1905  1.0091 -0.4949
 7260SOL    HW233417   0.250   0.862   8.156 -1.7736  0.7159  0.7239
 7261SOL     OW33418   2.924   4.611   5.155 -0.3659 -0.1241  0.1490
 7261SOL    HW133419   2.981   4.685   5.136 -0.0421 -0.8119 -1.5672
 7261SOL    HW233420   2.850   4.654   5.197 -0.6710 -0.1550 -0.3491
 7262SOL     OW33421   1.169   4.572  10.983  0.1292 -0.0986  0.4094
 7262SOL    HW133422   1.154   4.482  10.954  0.1289 -0.2981  1.0368
 7262SOL    HW233423   1.159   4.564  11.078  1.4410 -0.6333  0.4947
 7263SOL     OW33424   1.030   3.334   2.431  0.2766  0.2034  0.1470
 7263SOL    HW133425   0.964   3.398   2.406 -1.4269 -0.7655  2.1215
 7263SOL    HW233426   1.070   3.367   2.512  0.3792  0.7203 -0.1173
 7264SOL     OW33427   1.690   2.941  14.644 -0.4598  0.5135 -0.0359
 7264SOL    HW133428   1.718   3.030  14.664 -0.2081  0.8800 -2.0597
 7264SOL    HW233429   1.753   2.923  14.575  1.7645 -1.0314  2.4007
 7265SOL     OW33430   3.934   3.572   7.953 -0.4044  0.0400  0.5291
 7265SOL    HW133431   3.866   3.530   7.901 -1.6927  2.4167  0.3199
 7265SOL    HW233432   3.995   3.599   7.884 -3.2886  2.8888 -0.8870
 7266SOL     OW33433   1.586   2.634  10.442  1.0850  0.7335 -0.3617
 7266SOL    HW133434   1.574   2.700  10.509  1.9723 -0.6970  1.2121
 7266SOL    HW233435   1.682   2.628  10.440  0.9606 -0.9449 -2.7834
 7267SOL     OW33436   0.309   1.483   8.145 -0.0756 -0.1466 -0.3171
 7267SOL    HW133437   0.233   1.541   8.136 -1.7889 -2.3263  0.1795
 7267SOL    HW233438   0.384   1.528   8.184 -1.2045  0.4630  1.1602
 7268SOL     OW33439   2.934   0.615   9.977  1.0410  0.1359  0.3378
 7268SOL    HW133440   2.978   0.530   9.986  0.1245 -0.2239  1.5755
 7268SOL    HW233441   3.002   0.680   9.960 -0.6305  1.4398 -1.3779
 7269SOL     OW33442   3.811   3.782   2.359 -0.0407  0.2337 -0.2553
 7269SOL    HW133443   3.780   3.710   2.416 -3.7922  1.6431 -0.5029
 7269SOL    HW233444   3.769   3.854   2.406 -1.4098 -0.2909 -0.6664
 7270SOL     OW33445   1.242   2.710  15.045  0.0026  0.3189 -0.9514
 7270SOL    HW133446   1.160   2.751  15.016 -0.5610 -0.7333 -0.8476
 7270SOL    HW233447   1.217   2.619  15.028 -0.1681  0.3272 -0.7494
 7271SOL     OW33448   0.584   3.789   4.282 -0.7042 -0.4541 -0.0044
 7271SOL    HW133449   0.609   3.881   4.278  0.6226 -0.8054  0.2086
 7271SOL    HW233450   0.656   3.751   4.231 -0.6537  1.1066 -1.1145
 7272SOL     OW33451   0.692   2.070   3.279  0.3451  0.3906 -0.0044
 7272SOL    HW133452   0.666   2.092   3.368 -1.8365  1.0840 -0.8286
 7272SOL    HW233453   0.713   1.977   3.290  0.8126  0.6213  1.0783
 7273SOL     OW33454   3.501   1.946   8.322 -0.5108  0.0302  0.4882
 7273SOL    HW133455   3.519   2.032   8.286  2.3790 -1.4383 -1.5680
 7273SOL    HW233456   3.405   1.949   8.325 -0.6117 -0.4376 -2.2735
 7274SOL     OW33457   0.333   2.263   9.026  0.1566 -0.3129  0.0070
 7274SOL    HW133458   0.408   2.221   9.070  0.4333  0.2637  0.0856
 7274SOL    HW233459   0.290   2.299   9.104 -1.4033 -1.1176 -0.4998
 7275SOL     OW33460   1.513   0.676  10.204 -0.6228  0.1154 -0.0350
 7275SOL    HW133461   1.548   0.650  10.119  1.4584  0.5986  0.6839
 7275SOL    HW233462   1.508   0.594  10.252  3.0805  0.6539  1.2607
 7276SOL     OW33463   1.573   1.230   6.050  0.2419  0.3976  0.2669
 7276SOL    HW133464   1.582   1.166   5.979  0.3224 -0.4415  1.0237
 7276SOL    HW233465   1.651   1.203   6.098  0.7663  0.2894 -0.6498
 7277SOL     OW33466   2.981   0.985   7.075 -0.4710 -0.3360  0.1253
 7277SOL    HW133467   3.019   1.060   7.121  0.2441 -0.0896 -0.8692
 7277SOL    HW233468   3.043   0.920   7.108 -0.6276 -0.4198  0.2530
 7278SOL     OW33469   0.791   4.373   3.696  0.8596 -0.7629  0.1457
 7278SOL    HW133470   0.784   4.302   3.759 -1.4631 -0.7430 -0.0995
 7278SOL    HW233471   0.881   4.403   3.709  1.1795 -1.8520  0.4378
 7279SOL     OW33472   0.439   3.034   4.789  0.1156  0.8770 -0.5054
 7279SOL    HW133473   0.514   3.047   4.731  2.5474  1.5955  2.8019
 7279SOL    HW233474   0.486   3.027   4.873 -2.7768 -0.0260  1.0444
 7280SOL     OW33475   0.190   2.658   0.420  0.3281  0.0218 -0.6841
 7280SOL    HW133476   0.121   2.709   0.462  1.4883 -1.1801  2.6966
 7280SOL    HW233477   0.214   2.588   0.480 -1.2796  1.7025  1.9119
 7281SOL     OW33478   3.180   3.087   3.506 -0.1388  0.2064 -0.3411
 7281SOL    HW133479   3.265   3.059   3.472 -0.5434  1.0179 -2.0628
 7281SOL    HW233480   3.126   3.022   3.460  0.0624 -0.0801 -0.1652
 7282SOL     OW33481   2.891   1.295   8.351 -0.0874 -0.0953  0.3558
 7282SOL    HW133482   2.848   1.367   8.398 -0.7071  0.0478 -0.4354
 7282SOL    HW233483   2.823   1.280   8.285 -1.3938  0.3405  1.6071
 7283SOL     OW33484   4.288   2.583   3.928 -0.1486 -0.2206  0.4618
 7283SOL    HW133485   4.373   2.601   3.969 -0.4797  0.3009  0.9248
 7283SOL    HW233486   4.322   2.528   3.858  0.2545 -0.7507  1.0651
 7284SOL     OW33487   4.672   3.511  11.172  0.2029 -0.2370 -0.1699
 7284SOL    HW133488   4.591   3.561  11.172 -0.3553 -1.1359  0.2695
 7284SOL    HW233489   4.734   3.567  11.219 -0.6579  0.8688 -0.3711
 7285SOL     OW33490   1.799   4.694   4.810  0.4145 -0.1806 -0.6094
 7285SOL    HW133491   1.836   0.037   4.774 -0.9592  1.0229  0.7149
 7285SOL    HW233492   1.826   4.689   4.901 -1.6236 -1.5397 -0.0874
 7286SOL     OW33493   3.569   0.792  10.048  0.4499  0.4009  0.4823
 7286SOL    HW133494   3.654   0.754  10.071  0.0263 -1.4318 -0.9114
 7286SOL    HW233495   3.542   0.817  10.136  1.2693  0.0845  0.8190
 7287SOL     OW33496   3.679   3.506   7.550 -0.1651 -0.8622  0.4194
 7287SOL    HW133497   3.665   3.416   7.521  0.4103 -1.3459  1.6755
 7287SOL    HW233498   3.606   3.513   7.611 -0.8918 -0.5946 -0.4672
 7288SOL     OW33499   3.478   1.078  13.048  0.0629 -0.2401  0.5756
 7288SOL    HW133500   3.520   1.108  13.129  1.1019 -0.2153  0.0339
 7288SOL    HW233501   3.510   0.988  13.041 -0.6537 -0.4586  0.1543
 7289SOL     OW33502   0.190   4.632   1.837 -0.6436 -0.3555  0.2343
 7289SOL    HW133503   0.199   4.718   1.878  1.2565  0.2120 -1.3570
 7289SOL    HW233504   0.283   4.607   1.837 -0.8465 -1.1107  0.0926
 7290SOL     OW33505   3.307   0.940   9.280 -0.7986  0.3064  0.2988
 7290SOL    HW133506   3.320   1.031   9.253  1.8029 -0.5767 -1.3892
 7290SOL    HW233507   3.241   0.910   9.217 -0.3435 -1.2335  0.5600
 7291SOL     OW33508   3.850   0.033   2.056 -0.7829  0.1831 -0.6671
 7291SOL    HW133509   3.889   0.095   1.995 -0.3026  0.9416  0.3980
 7291SOL    HW233510   3.858   4.687   2.010  0.4706  0.7195 -1.4154
 7292SOL     OW33511   4.146   4.707  14.370  0.5621 -0.3943  0.0021
 7292SOL    HW133512   4.204   4.719  14.294  1.0186  1.4513  0.6607
 7292SOL    HW233513   4.203   4.722  14.445  0.3450 -1.7730  0.4473
 7293SOL     OW33514   0.293   0.435   2.418 -0.2331 -0.2183  0.2935
 7293SOL    HW133515   0.262   0.525   2.430  1.0192  0.3185 -0.4630
 7293SOL    HW233516   0.265   0.415   2.329 -0.9139 -1.9467  0.9037
 7294SOL     OW33517   3.978   0.563   6.993  0.2340  0.0516  0.5643
 7294SOL    HW133518   3.931   0.479   6.993 -0.8206  0.6629 -1.9899
 7294SOL    HW233519   3.911   0.630   6.982  0.7107  0.5933  0.9504
 7295SOL     OW33520   2.227   3.235   6.115 -0.3831 -0.3857 -0.0969
 7295SOL    HW133521   2.316   3.264   6.135 -0.8528  0.7705  0.2990
 7295SOL    HW233522   2.240   3.140   6.110  0.0707 -0.3046 -0.4719
 7296SOL     OW33523   0.569   1.536   7.911 -0.2100 -0.5153  0.2006
 7296SOL    HW133524   0.589   1.592   7.986 -0.8379  0.4664 -0.3657
 7296SOL    HW233525   0.622   1.585   7.848  1.7961 -1.3161  1.2781
 7297SOL     OW33526   1.719   2.605   3.102  0.0407  0.0166  0.0446
 7297SOL    HW133527   1.627   2.592   3.080  0.3633 -2.6382  0.2341
 7297SOL    HW233528   1.714   2.700   3.114 -0.9835  0.0946 -0.9904
 7298SOL     OW33529   0.271   4.198  12.253  0.0763 -0.3399 -0.4629
 7298SOL    HW133530   0.272   4.173  12.161  0.4181 -0.5508 -0.4014
 7298SOL    HW233531   0.214   4.275  12.251 -1.2725 -1.4184 -2.9705
 7299SOL     OW33532   3.044   0.338   8.624  0.4079 -0.1004  0.2052
 7299SOL    HW133533   3.054   0.282   8.547 -0.5822 -1.3707  0.9840
 7299SOL    HW233534   3.102   0.409   8.598  0.0277  0.6132  1.2850
 7300SOL     OW33535   1.862   0.857   2.537  0.0991 -0.1542  0.8871
 7300SOL    HW133536   1.913   0.937   2.521  0.8557 -1.0052 -0.9826
 7300SOL    HW233537   1.829   0.829   2.451 -0.6771  1.4201  0.6766
 7301SOL     OW33538   3.222   0.814   4.073  0.3183 -0.0308  0.5041
 7301SOL    HW133539   3.143   0.771   4.105  0.0208  1.2563  1.5162
 7301SOL    HW233540   3.201   0.908   4.065  1.4805  0.1557 -0.3712
 7302SOL     OW33541   0.538   1.826   6.696  0.2522  0.9404 -0.1241
 7302SOL    HW133542   0.510   1.801   6.784 -0.6759  0.6368 -0.5052
 7302SOL    HW233543   0.628   1.851   6.720  1.1873 -3.7596  1.2398
 7303SOL     OW33544   3.074   1.559   9.306  0.4828 -0.3081  0.1969
 7303SOL    HW133545   3.143   1.590   9.365 -1.2234  3.3577  0.2845
 7303SOL    HW233546   3.001   1.549   9.366 -0.1042 -1.0460 -0.6304
 7304SOL     OW33547   2.939   2.303   8.288  0.0034  0.0711  0.1384
 7304SOL    HW133548   2.845   2.293   8.271 -0.2613  2.0896  0.5292
 7304SOL    HW233549   2.941   2.307   8.383 -0.9233  0.0643  0.1608
 7305SOL     OW33550   1.297   3.889   8.614 -0.3923 -0.1476 -0.0048
 7305SOL    HW133551   1.274   3.979   8.636 -0.3296  0.1901 -1.2856
 7305SOL    HW233552   1.214   3.843   8.616  0.8084 -2.2738  1.3022
 7306SOL     OW33553   3.529   1.149   4.879 -0.2366 -0.5313  0.1749
 7306SOL    HW133554   3.469   1.143   4.954 -0.9437 -0.5492 -0.3991
 7306SOL    HW233555   3.610   1.133   4.927 -1.2242 -2.6608  1.1610
 7307SOL     OW33556   2.015   4.239   9.964 -0.8707 -0.2186  0.1112
 7307SOL    HW133557   2.034   4.332   9.980  2.2852 -0.1544 -4.1720
 7307SOL    HW233558   1.922   4.230   9.987 -0.9944 -1.4946 -0.9400
 7308SOL     OW33559   0.974   1.120   6.534  0.3833 -0.2468 -0.4490
 7308SOL    HW133560   1.058   1.164   6.533  0.0412  0.4214  0.2643
 7308SOL    HW233561   0.942   1.142   6.447 -0.2734 -1.5329 -0.5398
 7309SOL     OW33562   1.879   0.406   2.210 -0.3436 -0.4144 -0.1927
 7309SOL    HW133563   1.875   0.317   2.177  0.0350 -0.4682 -0.0909
 7309SOL    HW233564   1.894   0.400   2.304  1.1235  2.3765 -0.2491
 7310SOL     OW33565   1.746   3.267   2.027  0.0387  0.7516 -0.1270
 7310SOL    HW133566   1.769   3.200   1.962 -1.5761 -1.0842  1.2026
 7310SOL    HW233567   1.694   3.219   2.091 -2.0555  0.9359 -1.7028
 7311SOL     OW33568   3.525   0.152  17.633 -0.2627 -1.0691  0.7714
 7311SOL    HW133569   3.535   0.246  17.646 -1.3106 -0.8231 -0.2660
 7311SOL    HW233570   3.551   0.118  17.719  1.1860 -2.0729 -0.0512
 7312SOL     OW33571   3.701   2.853   8.332  0.2337  0.2703  0.1324
 7312SOL    HW133572   3.730   2.820   8.248 -2.2637 -1.0653 -0.1835
 7312SOL    HW233573   3.653   2.773   8.353  1.6640 -0.6587 -0.0978
 7313SOL     OW33574   4.626   2.638   2.813  0.0893  0.2839  0.2331
 7313SOL    HW133575   4.679   2.629   2.892  2.6666  2.4038 -1.2824
 7313SOL    HW233576   4.650   2.558   2.766  0.6658  1.3750 -1.3434
 7314SOL     OW33577   3.513   0.825   9.113  0.2461  0.3824  0.1251
 7314SOL    HW133578   3.515   0.877   9.033 -0.9064  0.0543 -0.1122
 7314SOL    HW233579   3.421   0.835   9.137 -0.6581 -0.4989 -2.9645
 7315SOL     OW33580   4.233   1.126   2.888  0.7208 -0.4630  0.1501
 7315SOL    HW133581   4.242   1.043   2.842  1.7222  0.8123 -1.9505
 7315SOL    HW233582   4.225   1.111   2.982  1.1476 -0.0115  0.2632
 7316SOL     OW33583   2.967   3.588   6.078 -0.1583  0.0525  0.1989
 7316SOL    HW133584   3.013   3.658   6.031  0.4002 -1.4687 -1.5348
 7316SOL    HW233585   2.914   3.553   6.006  2.9227 -0.4186 -1.8590
 7317SOL     OW33586   1.437   3.970   6.216  0.7391  0.6049  0.0616
 7317SOL    HW133587   1.481   3.914   6.280 -1.0626  1.2583  1.8845
 7317SOL    HW233588   1.379   3.906   6.174 -0.1993  1.6308 -0.1823
 7318SOL     OW33589   3.112   0.065   0.992  0.1907  0.2508  0.0594
 7318SOL    HW133590   3.142   0.156   0.994 -0.4726  0.4465  0.8528
 7318SOL    HW233591   3.143   0.040   1.079 -1.9896 -1.8633  0.2075
 7319SOL     OW33592   0.194   1.049   7.986 -0.2867 -0.3925 -0.0258
 7319SOL    HW133593   0.231   1.040   7.898 -2.7033 -1.7925 -0.8890
 7319SOL    HW233594   0.147   1.131   7.970  0.1434  0.1369  1.4700
 7320SOL     OW33595   0.789   2.170   9.518  0.1638  0.1011  0.1638
 7320SOL    HW133596   0.697   2.148   9.532 -0.1229  1.1819 -0.0273
 7320SOL    HW233597   0.793   2.257   9.557  0.5016 -0.8808  2.3737
 7321SOL     OW33598   1.311   1.188   6.213 -0.5651  0.6439 -1.0838
 7321SOL    HW133599   1.391   1.195   6.161 -0.0045  0.4209 -0.2523
 7321SOL    HW233600   1.288   1.103   6.176 -0.8111 -0.0866  0.7786
 7322SOL     OW33601   4.358   2.725   2.830  0.0084  0.0247 -0.1800
 7322SOL    HW133602   4.445   2.686   2.835 -0.7187 -1.5278  0.3051
 7322SOL    HW233603   4.336   2.696   2.742  0.2147  3.0105 -1.2079
 7323SOL     OW33604   0.505   0.636  16.054 -0.3569 -0.1568 -0.0490
 7323SOL    HW133605   0.523   0.664  16.144  2.8981  0.9747 -1.0742
 7323SOL    HW233606   0.461   0.717  16.029 -0.3057  0.1400  0.8062
 7324SOL     OW33607   1.681   2.055   6.301  0.2598  0.0006 -0.2768
 7324SOL    HW133608   1.721   2.142   6.294  2.5759 -1.1623 -1.5038
 7324SOL    HW233609   1.735   2.014   6.234 -1.0110 -0.5565 -0.9511
 7325SOL     OW33610   2.868   0.440   7.541  0.9127  0.4116 -0.3262
 7325SOL    HW133611   2.821   0.503   7.596 -0.5605 -2.5535  1.8371
 7325SOL    HW233612   2.861   0.359   7.592  0.6168  2.5925  3.0416
 7326SOL     OW33613   3.368   4.120   3.961  0.3695  0.0904  0.1903
 7326SOL    HW133614   3.293   4.061   3.955  2.1440 -2.1398  0.1368
 7326SOL    HW233615   3.437   4.063   3.993 -1.0466 -0.5973  2.0336
 7327SOL     OW33616   0.706   2.959  12.972  0.0206 -0.5284  0.0312
 7327SOL    HW133617   0.712   3.038  13.025 -0.2124 -0.5640  0.1107
 7327SOL    HW233618   0.797   2.944  12.945  0.9463  2.8387  1.2786
 7328SOL     OW33619   2.565   0.050  17.209  0.8599 -0.0436  0.6130
 7328SOL    HW133620   2.492   0.107  17.184  1.7619  1.5933  1.7292
 7328SOL    HW233621   2.509   4.713  17.233 -0.8707  1.2210  0.4852
 7329SOL     OW33622   1.087   3.312   3.865 -0.1040 -0.1899  0.0926
 7329SOL    HW133623   1.140   3.329   3.943 -0.8058  2.1465  0.0724
 7329SOL    HW233624   1.041   3.396   3.855 -1.1457 -0.5609  1.8508
 7330SOL     OW33625   2.876   3.347   3.607 -0.2675 -0.1210  0.0997
 7330SOL    HW133626   2.874   3.436   3.642  2.5782  0.5364 -1.3749
 7330SOL    HW233627   2.786   3.317   3.622  0.3171 -0.9829  1.8442
 7331SOL     OW33628   1.237   1.666   6.901  0.2867  0.5074 -0.0332
 7331SOL    HW133629   1.204   1.755   6.911  1.9963  1.2197 -0.7605
 7331SOL    HW233630   1.199   1.637   6.818 -1.8805 -0.1492  1.1864
 7332SOL     OW33631   2.869   4.603   6.762  0.1580 -0.1173  1.0300
 7332SOL    HW133632   2.861   4.558   6.846 -0.1321  0.6070  1.3897
 7332SOL    HW233633   2.781   4.595   6.725  1.0753 -0.9960 -0.9714
 7333SOL     OW33634   1.470   2.680  11.116  0.0690  0.4297  0.3949
 7333SOL    HW133635   1.507   2.614  11.175 -0.7163 -0.5237 -0.1823
 7333SOL    HW233636   1.450   2.763  11.160 -0.8439  0.4503 -0.0628
 7334SOL     OW33637   2.539   0.019   7.727  0.4397  0.2559 -0.5174
 7334SOL    HW133638   2.553   0.003   7.634  1.1937  0.6293 -0.4736
 7334SOL    HW233639   2.553   4.666   7.755 -0.4201 -0.1753 -1.4910
 7335SOL     OW33640   4.676   2.535  14.935 -0.1084  0.3962 -0.0427
 7335SOL    HW133641   4.665   2.455  14.986  0.0436  0.7191  0.4985
 7335SOL    HW233642   0.018   2.515  14.883 -0.8752 -1.3832 -0.5323
 7336SOL     OW33643   4.708   2.035   7.587 -0.3110 -0.1640 -0.2669
 7336SOL    HW133644   0.027   1.958   7.596 -1.5135 -1.3216 -2.8268
 7336SOL    HW233645   4.663   2.043   7.671  0.0320 -1.1061  0.0126
 7337SOL     OW33646   1.366   0.201  16.949 -0.6004 -0.5485 -0.3501
 7337SOL    HW133647   1.390   0.220  16.859 -0.7167  1.7138  0.0870
 7337SOL    HW233648   1.434   0.137  16.970 -1.1573  0.0202  3.2544
 7338SOL     OW33649   1.249   0.854   8.090 -0.0300 -0.3397 -0.6469
 7338SOL    HW133650   1.276   0.874   8.180 -0.5538 -0.9303 -0.3565
 7338SOL    HW233651   1.323   0.803   8.060  0.8420 -0.2628  1.3801
 7339SOL     OW33652   3.131   3.885  16.542 -0.5339  0.4686 -0.1762
 7339SOL    HW133653   3.082   3.935  16.476 -0.2089  0.7565 -0.1974
 7339SOL    HW233654   3.166   3.958  16.593 -0.6104 -0.0556  0.6238
 7340SOL     OW33655   0.530   3.584   3.162 -0.2894 -0.3105 -0.2971
 7340SOL    HW133656   0.511   3.533   3.083 -1.8093  3.4750 -2.3459
 7340SOL    HW233657   0.524   3.520   3.233 -0.7756  0.8400  0.6885
 7341SOL     OW33658   2.887   3.179   5.084 -0.7559 -0.2464  0.5216
 7341SOL    HW133659   2.801   3.218   5.093 -0.9165 -0.3396 -0.6462
 7341SOL    HW233660   2.932   3.233   5.019  0.0102 -0.3474  0.9665
 7342SOL     OW33661   4.062   3.908   2.471 -0.4839  0.3276 -0.4225
 7342SOL    HW133662   4.152   3.890   2.442 -0.5423 -1.1514  0.2915
 7342SOL    HW233663   4.007   3.878   2.399 -2.0575  0.7208  0.6282
 7343SOL     OW33664   0.415   3.011   5.753  0.0091  0.2292  0.2492
 7343SOL    HW133665   0.420   2.973   5.665 -0.7196  0.5118  0.0897
 7343SOL    HW233666   0.474   3.085   5.738  0.3268 -0.1498 -0.3786
 7344SOL     OW33667   1.794   2.620   4.655 -0.1165 -0.0182 -0.6073
 7344SOL    HW133668   1.775   2.645   4.565  0.2040 -1.9609 -1.2073
 7344SOL    HW233669   1.727   2.672   4.700  1.1560  0.4567  0.7372
 7345SOL     OW33670   4.247   1.671  14.463  0.1168 -0.1711  0.1365
 7345SOL    HW133671   4.266   1.599  14.522 -1.6014  0.4124  1.4039
 7345SOL    HW233672   4.321   1.730  14.478 -1.8378  1.9473  1.4032
 7346SOL     OW33673   3.188   1.454   4.575 -0.1025 -0.3701  0.3025
 7346SOL    HW133674   3.164   1.461   4.668  2.9538 -0.1456  1.0864
 7346SOL    HW233675   3.163   1.543   4.550 -0.2157 -0.5043 -0.0563
 7347SOL     OW33676   2.243   1.508   7.401 -0.5712 -0.3629  0.5981
 7347SOL    HW133677   2.233   1.412   7.405 -2.7005 -0.1996 -0.4672
 7347SOL    HW233678   2.181   1.516   7.328 -0.3949 -0.4873  0.4341
 7348SOL     OW33679   1.632   3.955   8.393 -0.3285  0.2479 -0.7759
 7348SOL    HW133680   1.697   4.021   8.367  0.6164 -0.1176  0.6563
 7348SOL    HW233681   1.552   3.998   8.363  0.0037  0.3826 -1.4705
 7349SOL     OW33682   1.036   2.334  17.200 -0.0160 -0.1847  0.2356
 7349SOL    HW133683   0.999   2.367  17.282 -0.4784 -0.3935  0.1052
 7349SOL    HW233684   1.094   2.263  17.228  0.9997  0.3172 -0.5937
 7350SOL     OW33685   3.803   2.506   1.808  0.4325  0.0692 -0.5417
 7350SOL    HW133686   3.880   2.561   1.796  0.0286  0.4168 -1.5406
 7350SOL    HW233687   3.763   2.575   1.861  0.6135 -0.9039  0.8674
 7351SOL     OW33688   0.526   4.442   6.106 -0.6800 -0.3510 -0.0145
 7351SOL    HW133689   0.486   4.449   6.193  1.2107  1.0198  0.7286
 7351SOL    HW233690   0.494   4.356   6.078 -2.7067  0.6700 -0.8650
 7352SOL     OW33691   2.444   3.372   2.924 -0.9174 -0.2802 -0.4356
 7352SOL    HW133692   2.479   3.374   2.835  1.4731  1.4503  0.5370
 7352SOL    HW233693   2.498   3.446   2.953 -3.1524 -0.1362  3.3795
 7353SOL     OW33694   0.531   1.667  14.049  0.7602 -0.2805  0.0690
 7353SOL    HW133695   0.483   1.671  14.132  1.1498  0.3167  0.2666
 7353SOL    HW233696   0.562   1.757  14.043  1.1176 -0.1320  3.9425
 7354SOL     OW33697   3.376   0.577   8.228 -0.2292 -0.5337  0.0975
 7354SOL    HW133698   3.328   0.590   8.146  0.9683  0.7200 -0.4193
 7354SOL    HW233699   3.467   0.591   8.200 -0.2672 -0.2335  0.1268
 7355SOL     OW33700   4.368   4.515   2.951 -0.0140 -0.4451 -0.2777
 7355SOL    HW133701   4.305   4.458   2.994 -0.1180  1.2044  1.7641
 7355SOL    HW233702   4.324   4.548   2.873  0.2829  0.4991 -0.0512
 7356SOL     OW33703   4.199   2.626  12.814 -0.9443 -0.0208 -0.0250
 7356SOL    HW133704   4.211   2.561  12.884 -0.8916  1.0332  0.9366
 7356SOL    HW233705   4.183   2.570  12.738 -1.2224  1.0735 -0.7738
 7357SOL     OW33706   4.579   0.594   2.655 -0.4104  0.3963  0.0674
 7357SOL    HW133707   4.563   0.654   2.728 -1.6125  0.9194 -0.6343
 7357SOL    HW233708   4.548   0.510   2.689  2.6281 -0.3805  0.9673
 7358SOL     OW33709   3.646   3.231   8.025 -0.5783  0.7541 -0.6347
 7358SOL    HW133710   3.727   3.195   8.061 -0.6500  1.3932  0.1795
 7358SOL    HW233711   3.603   3.249   8.109 -0.5560 -1.5526 -0.1244
 7359SOL     OW33712   4.039   0.258   9.492  0.0574  0.6213 -0.1636
 7359SOL    HW133713   3.982   0.251   9.415  0.6410 -0.3023 -0.5236
 7359SOL    HW233714   3.989   0.211   9.558 -0.6984  0.4251 -0.8725
 7360SOL     OW33715   3.711   4.351  11.616 -0.4254 -0.3114  1.1156
 7360SOL    HW133716   3.625   4.337  11.577 -0.0627  0.8913 -0.1133
 7360SOL    HW233717   3.772   4.301  11.562 -1.5744  0.9340 -1.3296
 7361SOL     OW33718   4.349   0.279  15.503  0.5434 -0.4333  0.2819
 7361SOL    HW133719   4.387   0.366  15.492 -1.7274  0.8251  2.4543
 7361SOL    HW233720   4.260   0.305  15.480  0.6538 -0.0268  0.3192
 7362SOL     OW33721   2.749   3.630  13.354 -0.3118  0.2390 -0.3103
 7362SOL    HW133722   2.719   3.680  13.430  1.4362  1.3292 -0.3362
 7362SOL    HW233723   2.841   3.615  13.374 -0.8818 -2.1220  0.5231
 7363SOL     OW33724   0.485   3.036   6.043 -0.2010  0.8873 -0.1791
 7363SOL    HW133725   0.437   3.113   6.074 -0.3392  1.0798 -0.8767
 7363SOL    HW233726   0.462   3.028   5.950 -0.7238 -2.8183  0.2655
 7364SOL     OW33727   1.018   4.138   3.683  0.1457  0.2241  0.5613
 7364SOL    HW133728   1.042   4.115   3.593 -2.7630  0.1234 -0.1915
 7364SOL    HW233729   0.988   4.058   3.726 -0.4121 -0.7292 -1.6049
 7365SOL     OW33730   3.420   1.983   6.936  0.1458  0.0746  0.1624
 7365SOL    HW133731   3.360   1.942   6.997  0.5127 -0.3863  0.2093
 7365SOL    HW233732   3.453   1.905   6.892  1.8833  2.9812 -3.7060
 7366SOL     OW33733   3.559   0.796  13.069  0.2566  0.3921  0.1555
 7366SOL    HW133734   3.521   0.738  13.003 -0.9425 -0.4619  1.6062
 7366SOL    HW233735   3.513   0.773  13.150  1.4568 -3.3338 -0.2203
 7367SOL     OW33736   3.625   2.381   7.717 -0.1201  0.0180 -0.3711
 7367SOL    HW133737   3.534   2.366   7.693 -0.6430  1.5922  0.6193
 7367SOL    HW233738   3.661   2.391   7.629  2.5375  2.6697  1.0158
 7368SOL     OW33739   3.845   4.414   0.647  0.4110  0.3418  0.1818
 7368SOL    HW133740   3.888   4.336   0.614 -1.9510 -0.6020 -0.6869
 7368SOL    HW233741   3.765   4.375   0.682 -0.0684  2.4366  1.4619
 7369SOL     OW33742   3.992   0.624  10.936  0.5005 -0.8872 -0.2581
 7369SOL    HW133743   4.050   0.658  11.003  0.5309  0.3400 -0.9104
 7369SOL    HW233744   3.901   0.650  10.952  0.5465 -0.1200 -1.2172
 7370SOL     OW33745   3.425   2.835   7.524  0.6629  0.0591 -0.3173
 7370SOL    HW133746   3.352   2.780   7.495  1.8446 -0.5356 -2.1645
 7370SOL    HW233747   3.440   2.888   7.446 -1.9380 -0.8160 -1.4192
 7371SOL     OW33748   3.768   2.374   0.747  0.0477  0.2471  0.1606
 7371SOL    HW133749   3.830   2.440   0.718  1.6292 -0.5431  1.7540
 7371SOL    HW233750   3.753   2.414   0.832  0.4864 -2.1448  1.3605
 7372SOL     OW33751   0.487   4.064   5.766 -0.2643  0.0546 -0.2101
 7372SOL    HW133752   0.554   4.002   5.793 -0.3246  0.1760  0.2301
 7372SOL    HW233753   0.422   4.003   5.730 -0.8592  0.8134 -0.4338
 7373SOL     OW33754   0.515   3.688  17.524 -0.0340  0.2037 -0.1845
 7373SOL    HW133755   0.522   3.608  17.473 -0.6689 -0.4255  0.7246
 7373SOL    HW233756   0.499   3.667  17.616 -1.9966 -1.4033 -0.8933
 7374SOL     OW33757   0.893   1.312   2.958 -0.4041  0.0854 -0.0048
 7374SOL    HW133758   0.965   1.309   2.895 -0.3779 -0.3101  0.0424
 7374SOL    HW233759   0.845   1.232   2.937  0.3411 -0.8656  1.8291
 7375SOL     OW33760   0.761   2.165   8.124  0.4372  0.3161 -0.2934
 7375SOL    HW133761   0.853   2.190   8.118  0.8707 -1.0627  0.7445
 7375SOL    HW233762   0.717   2.248   8.143 -0.5516 -0.5183  1.0724
 7376SOL     OW33763   1.555   4.140   1.957 -0.4732  0.2428  0.8010
 7376SOL    HW133764   1.479   4.106   1.909  0.4601 -1.4213  0.4708
 7376SOL    HW233765   1.622   4.089   1.910  0.5861  1.1659  1.3262
 7377SOL     OW33766   3.403   3.857   1.895 -0.3896 -0.4433  0.0338
 7377SOL    HW133767   3.314   3.887   1.914 -0.5972  0.1267 -1.8612
 7377SOL    HW233768   3.408   3.780   1.952  0.1111 -0.4894 -0.0786
 7378SOL     OW33769   0.591   0.223  13.630 -0.6912 -0.6988 -1.0278
 7378SOL    HW133770   0.502   0.193  13.648 -0.2932 -1.1289  0.2460
 7378SOL    HW233771   0.569   0.292  13.567 -0.1405  1.3541  1.0421
 7379SOL     OW33772   3.238   1.991   4.543  0.7650  1.0030 -0.4010
 7379SOL    HW133773   3.258   2.085   4.548 -0.0627  1.1914 -0.6570
 7379SOL    HW233774   3.166   1.997   4.480 -0.1995  1.6191  0.7811
 7380SOL     OW33775   4.644   0.520   4.917  0.0653  0.2089  0.1493
 7380SOL    HW133776   4.552   0.503   4.897 -0.0168 -1.8246  2.2345
 7380SOL    HW233777   4.671   0.434   4.950  1.3114  1.5584  2.6218
 7381SOL     OW33778   3.004   2.116   9.224 -0.4710  0.5235  0.2255
 7381SOL    HW133779   2.936   2.141   9.163  0.8712 -0.1901 -1.5524
 7381SOL    HW233780   2.953   2.092   9.302 -0.0428 -1.5166 -0.1154
 7382SOL     OW33781   3.878   3.158  11.319 -0.4137  0.1901 -0.2482
 7382SOL    HW133782   3.808   3.184  11.378  2.4843 -0.6567  3.5119
 7382SOL    HW233783   3.926   3.240  11.308  1.6018 -1.0661 -0.7844
 7383SOL     OW33784   1.151   3.953   2.520 -0.2061  0.2760 -0.4484
 7383SOL    HW133785   1.116   3.864   2.528  0.6398 -0.0356 -0.2630
 7383SOL    HW233786   1.112   3.987   2.601 -1.0270 -0.3891 -0.5629
 7384SOL     OW33787   0.808   0.438   2.736  0.0116 -0.3080 -0.1839
 7384SOL    HW133788   0.721   0.427   2.774 -0.6367  1.0998 -1.2460
 7384SOL    HW233789   0.798   0.370   2.670  0.2787  0.9842 -1.5548
 7385SOL     OW33790   2.225   2.992  15.634  0.2416  0.3023 -0.3502
 7385SOL    HW133791   2.167   3.026  15.566  1.7229  0.5167 -1.5085
 7385SOL    HW233792   2.305   3.031  15.598 -0.8472  0.7834 -2.2483
 7386SOL     OW33793   4.525   4.411  11.712 -0.4321  0.3731 -0.0713
 7386SOL    HW133794   4.603   4.394  11.764 -0.9421 -0.4810  0.3958
 7386SOL    HW233795   4.454   4.388  11.771  1.8621  0.7657  2.8469
 7387SOL     OW33796   2.203   0.542   1.917  0.1871  0.6868 -0.0932
 7387SOL    HW133797   2.151   0.573   1.991 -0.2359 -1.8854  0.6966
 7387SOL    HW233798   2.293   0.535   1.949  0.3937 -2.7523 -1.4311
 7388SOL     OW33799   1.269   1.059   3.928 -0.8723  0.5706 -0.1017
 7388SOL    HW133800   1.213   1.104   3.991  0.6214  2.4657 -0.1533
 7388SOL    HW233801   1.318   1.008   3.993 -0.9410 -2.4115 -2.3838
 7389SOL     OW33802   3.864   1.142   9.233 -0.1535  0.0748 -0.1531
 7389SOL    HW133803   3.921   1.066   9.250  0.2156  1.0082  2.8995
 7389SOL    HW233804   3.923   1.213   9.258 -1.1406  0.9352 -0.2939
 7390SOL     OW33805   3.709   4.712   2.925 -0.1096  0.1095 -0.0509
 7390SOL    HW133806   3.628   4.671   2.893 -0.9063  0.1709  1.8685
 7390SOL    HW233807   3.678   0.055   2.965 -0.4405  0.5906 -1.2878
 7391SOL     OW33808   4.281   2.294   7.715 -0.1048  0.2749  0.5532
 7391SOL    HW133809   4.199   2.343   7.716  1.6940  3.3455 -1.4945
 7391SOL    HW233810   4.330   2.339   7.647 -1.1819  1.6707  0.6921
 7392SOL     OW33811   4.382   2.419   1.088  0.1040  0.5843  0.1300
 7392SOL    HW133812   4.407   2.335   1.049 -2.3331 -1.1171  2.1714
 7392SOL    HW233813   4.391   2.405   1.182  0.8653  1.2939  0.1630
 7393SOL     OW33814   1.673   2.282   3.393  0.9010 -0.5648 -0.0629
 7393SOL    HW133815   1.687   2.274   3.298  0.4485 -0.9400 -0.0983
 7393SOL    HW233816   1.748   2.337   3.417  0.8981  0.2398 -1.8281
 7394SOL     OW33817   0.149   2.380   9.268  0.5534 -0.1070  0.3681
 7394SOL    HW133818   0.179   2.369   9.359 -1.7616 -0.7680  1.0344
 7394SOL    HW233819   0.117   2.470   9.268 -0.4483 -0.4744  1.3143
 7395SOL     OW33820   4.717   2.481  12.647  0.1899 -0.0657 -0.0278
 7395SOL    HW133821   4.692   2.394  12.615  0.0990 -0.3345  0.7794
 7395SOL    HW233822   0.042   2.461  12.716  0.2580  2.0767  0.5400
 7396SOL     OW33823   2.826   4.700  13.916 -0.0353  0.3233 -0.3331
 7396SOL    HW133824   2.815   0.057  13.904 -0.5874  0.3834  0.6275
 7396SOL    HW233825   2.860   4.702  14.005 -0.2475  0.9508 -0.2654
 7397SOL     OW33826   3.992   0.226   9.136  0.2262 -0.2420 -0.2409
 7397SOL    HW133827   4.015   0.307   9.182 -1.7510 -0.1645  0.6403
 7397SOL    HW233828   4.066   0.169   9.156  0.4022 -0.1451 -0.6092
 7398SOL     OW33829   4.545   4.095   2.698  1.0958  0.2820  0.5627
 7398SOL    HW133830   4.631   4.116   2.661  1.0876  0.1412  0.4654
 7398SOL    HW233831   4.489   4.139   2.635  2.0568  1.7522  0.7336
 7399SOL     OW33832   2.287   3.509   6.475  0.1785 -0.5578 -0.2762
 7399SOL    HW133833   2.348   3.450   6.430 -0.8299 -1.9638  0.2253
 7399SOL    HW233834   2.277   3.461   6.557 -2.2233  0.4158 -0.0180
 7400SOL     OW33835   4.485   4.674  17.340 -0.7570 -0.4051 -0.0910
 7400SOL    HW133836   4.401   4.689  17.383  0.4145  1.2910  1.6649
 7400SOL    HW233837   4.508   4.586  17.369  0.9871  0.7324  1.9865
 7401SOL     OW33838   0.333   3.443   1.755 -0.0794 -0.3714  0.5578
 7401SOL    HW133839   0.337   3.364   1.701 -0.0441 -0.1509  0.2378
 7401SOL    HW233840   0.361   3.411   1.841 -0.3940  2.9305  1.9134
 7402SOL     OW33841   0.916   2.538   3.536 -0.3226  0.0091 -0.0048
 7402SOL    HW133842   1.002   2.563   3.501 -0.3044  1.7579  1.2710
 7402SOL    HW233843   0.859   2.523   3.461 -0.5610  1.9852 -0.2122
 7403SOL     OW33844   2.279   3.980   4.841  0.5482  0.0612 -0.1375
 7403SOL    HW133845   2.200   4.028   4.815 -0.0115  0.9618  3.2056
 7403SOL    HW233846   2.261   3.900   4.793 -0.9435 -0.2053  0.8611
 7404SOL     OW33847   4.347   0.179   4.703 -0.4116 -0.2947 -0.3298
 7404SOL    HW133848   4.438   0.207   4.687 -0.7256  1.3500  0.7615
 7404SOL    HW233849   4.328   0.216   4.789  2.4355  0.8566 -0.1750
 7405SOL     OW33850   4.275   4.574   5.217  0.3533  0.2846 -0.2052
 7405SOL    HW133851   4.293   4.575   5.123  2.0833  0.3042  0.1221
 7405SOL    HW233852   4.239   4.660   5.234 -0.0738  0.0109  0.2901
 7406SOL     OW33853   2.182   1.771   6.897 -0.3876 -0.4322 -0.4228
 7406SOL    HW133854   2.183   1.816   6.981 -0.0461  0.2062 -0.7696
 7406SOL    HW233855   2.133   1.830   6.840 -0.0560 -0.0766 -0.3376
 7407SOL     OW33856   3.710   2.418  15.910 -0.2426 -0.1795 -0.3374
 7407SOL    HW133857   3.704   2.492  15.971 -0.8240 -2.4067  2.3532
 7407SOL    HW233858   3.761   2.468  15.847 -2.5127  1.8565 -0.5963
 7408SOL     OW33859   1.240   1.538   8.623 -0.2033  0.1306 -0.1282
 7408SOL    HW133860   1.236   1.481   8.546 -0.2460  0.4103 -0.3294
 7408SOL    HW233861   1.165   1.596   8.612 -1.8030 -2.0787 -0.9342
 7409SOL     OW33862   2.612   0.114   2.753 -0.3895  0.2413 -0.3652
 7409SOL    HW133863   2.594   0.080   2.665  1.7747 -0.1949 -0.6242
 7409SOL    HW233864   2.706   0.128   2.759 -0.4916  1.3852 -1.4060
 7410SOL     OW33865   3.640   0.175   8.769  0.7625  0.5948  0.2337
 7410SOL    HW133866   3.712   0.174   8.831 -0.0839 -0.8943  1.1882
 7410SOL    HW233867   3.570   0.215   8.820 -1.5938  0.0547 -2.5621
 7411SOL     OW33868   4.576   4.318   2.946  0.6786 -0.5334 -0.1733
 7411SOL    HW133869   4.625   4.349   3.022 -0.0596  0.0091  0.0861
 7411SOL    HW233870   4.514   4.391   2.947  1.0010 -0.2512 -0.8092
 7412SOL     OW33871   4.308   0.391  11.277  0.4141 -0.0151 -0.1865
 7412SOL    HW133872   4.360   0.466  11.251  0.2492  0.4003  0.6958
 7412SOL    HW233873   4.236   0.442  11.314  1.6025  1.7575 -0.3289
 7413SOL     OW33874   4.601   3.648   6.351  0.0985  0.2990 -1.3184
 7413SOL    HW133875   4.547   3.570   6.339 -0.4526  0.3894  0.6329
 7413SOL    HW233876   4.528   3.705   6.374 -0.0483  0.6586 -2.6399
 7414SOL     OW33877   2.239   3.082   7.300  0.4258  0.5055 -0.4463
 7414SOL    HW133878   2.270   2.992   7.309  1.5250  0.9702  0.4279
 7414SOL    HW233879   2.261   3.103   7.209  1.3876  0.0947 -0.3061
 7415SOL     OW33880   3.071   0.486   4.090 -0.3035  0.2052 -0.1337
 7415SOL    HW133881   3.134   0.474   4.019 -0.1285 -1.0767  0.2327
 7415SOL    HW233882   3.015   0.551   4.046 -0.7353  1.1460  1.7964
 7416SOL     OW33883   2.421   4.709   0.372  0.4094 -0.2606  0.0021
 7416SOL    HW133884   2.409   4.668   0.457 -0.9500 -0.1609 -0.1334
 7416SOL    HW233885   2.464   0.054   0.394 -1.5140  0.6748  0.3050
 7417SOL     OW33886   3.068   0.860  13.541 -0.3256 -0.0035  0.2144
 7417SOL    HW133887   2.975   0.849  13.525  0.1594 -2.2053 -1.1462
 7417SOL    HW233888   3.073   0.928  13.475 -0.7658  1.5596  1.7947
 7418SOL     OW33889   4.702   4.545   5.921  0.5782 -0.1515 -0.1566
 7418SOL    HW133890   4.612   4.576   5.915 -0.3339 -2.6939  0.4431
 7418SOL    HW233891   0.013   4.606   5.977 -1.9948  0.4959  1.3565
 7419SOL     OW33892   4.215   1.726  13.052  0.1849 -0.2044  0.6874
 7419SOL    HW133893   4.129   1.692  13.075 -0.4355  3.3064  3.5792
 7419SOL    HW233894   4.239   1.638  13.025  1.1759  0.6507 -1.2027
 7420SOL     OW33895   4.643   2.389   9.141 -0.0283 -0.2947  0.3493
 7420SOL    HW133896   4.729   2.371   9.181  0.0035 -0.0373  0.3963
 7420SOL    HW233897   4.687   2.424   9.064 -0.0517  0.6103  0.7521
 7421SOL     OW33898   1.994   2.618  12.239 -0.3585  0.0903  0.1171
 7421SOL    HW133899   1.912   2.597  12.285  1.1469 -0.2516  2.6231
 7421SOL    HW233900   1.959   2.665  12.164 -0.0962 -1.4653 -0.9709
 7422SOL     OW33901   3.359   3.165  11.329  0.0645  0.0429 -0.9873
 7422SOL    HW133902   3.351   3.088  11.273 -1.8261  0.4041 -1.2151
 7422SOL    HW233903   3.441   3.147  11.376  0.8271  0.6758 -2.0481
 7423SOL     OW33904   3.452   0.147   6.183  0.6879 -0.9186  0.9009
 7423SOL    HW133905   3.365   0.111   6.204  0.1676  0.6368  1.4283
 7423SOL    HW233906   3.511   0.072   6.180 -0.1115 -1.5772  1.7872
 7424SOL     OW33907   1.384   2.001   7.400  0.0759  0.0421 -0.0839
 7424SOL    HW133908   1.424   1.953   7.472 -2.7987  0.0572  1.5247
 7424SOL    HW233909   1.320   2.060   7.439  0.8391  0.4219  0.5901
 7425SOL     OW33910   2.798   1.320   3.898  0.0445  0.1172  0.2995
 7425SOL    HW133911   2.824   1.236   3.937 -0.1423 -0.3194 -0.5165
 7425SOL    HW233912   2.763   1.366   3.975 -0.6601 -0.0908  0.1076
 7426SOL     OW33913   0.919   2.602   7.837 -0.4092  0.0262 -0.2760
 7426SOL    HW133914   1.001   2.609   7.789  0.7694 -1.3891  1.5569
 7426SOL    HW233915   0.888   2.524   7.790  0.5686  0.2996 -1.3719
 7427SOL     OW33916   4.466   3.153  11.968 -0.4439  0.1966 -0.1399
 7427SOL    HW133917   4.561   3.149  11.953 -0.7399 -3.0556 -1.1489
 7427SOL    HW233918   4.441   3.060  11.965 -2.8658  0.7914  1.8771
 7428SOL     OW33919   0.030   0.728   3.849 -0.3423  0.2947 -0.1536
 7428SOL    HW133920   4.718   0.669   3.793 -1.2078 -0.1376  1.0479
 7428SOL    HW233921   4.720   0.809   3.827  1.1252  1.1090 -0.3311
 7429SOL     OW33922   3.443   0.871   6.872  0.3534 -0.0948  0.0526
 7429SOL    HW133923   3.493   0.883   6.953  1.2180  0.0698 -0.5061
 7429SOL    HW233924   3.446   0.960   6.839  0.3733  1.0273  3.0529
 7430SOL     OW33925   3.640   0.713   2.412 -0.2155  0.1681 -0.2115
 7430SOL    HW133926   3.648   0.631   2.459 -0.7975 -1.2789 -2.6156
 7430SOL    HW233927   3.690   0.765   2.474  0.8567 -2.1969  0.8833
 7431SOL     OW33928   1.245   0.817   2.115 -0.0052 -0.3296  0.6195
 7431SOL    HW133929   1.214   0.785   2.031 -1.2187  1.5397  0.3356
 7431SOL    HW233930   1.221   0.744   2.173 -0.1861 -0.2996  0.5822
 7432SOL     OW33931   0.901   3.485   5.383 -0.3522 -0.2247 -0.1780
 7432SOL    HW133932   0.818   3.482   5.334 -0.2312 -0.0168 -0.3953
 7432SOL    HW233933   0.943   3.428   5.319  0.7065  0.1531  0.1822
 7433SOL     OW33934   0.102   1.507   4.872  0.1466 -0.3987 -0.0724
 7433SOL    HW133935   0.083   1.415   4.890  0.1816 -0.2386  0.7999
 7433SOL    HW233936   0.095   1.542   4.961  1.5582 -0.1030 -0.0675
 7434SOL     OW33937   1.063   2.528   3.805 -0.3046  0.1771 -0.0167
 7434SOL    HW133938   1.158   2.532   3.795 -0.3942 -0.5372 -1.1100
 7434SOL    HW233939   1.030   2.520   3.716 -1.2344  0.5158  0.2875
 7435SOL     OW33940   0.970   1.767  15.937  0.4030  0.3697  0.3452
 7435SOL    HW133941   0.948   1.725  16.020  0.4591 -1.3468 -0.5094
 7435SOL    HW233942   1.050   1.820  15.949  0.5614 -0.0221  1.0362
 7436SOL     OW33943   0.181   0.504   8.533 -0.1247  0.5078  0.0309
 7436SOL    HW133944   0.187   0.413   8.565 -0.4169  0.8838  1.1769
 7436SOL    HW233945   0.158   0.497   8.441  1.4078  3.1826 -0.5163
 7437SOL     OW33946   4.574   4.221   3.958 -0.1527  0.5889 -0.1510
 7437SOL    HW133947   4.516   4.297   3.962 -0.6901  0.2468 -1.6349
 7437SOL    HW233948   4.537   4.184   4.038  2.7797 -0.1607  0.8599
 7438SOL     OW33949   0.095   4.103   1.723 -0.1606 -0.4968  0.1742
 7438SOL    HW133950   0.112   4.185   1.677 -2.3054 -0.5921 -0.7844
 7438SOL    HW233951   0.015   4.116   1.774  0.2267 -0.2298  0.7068
 7439SOL     OW33952   0.169   4.433  14.014  0.5113 -0.3600 -0.1697
 7439SOL    HW133953   0.211   4.403  14.095 -1.1381 -1.2421  0.3603
 7439SOL    HW233954   0.086   4.387  14.031 -0.4993  1.4967 -0.1642
 7440SOL     OW33955   4.397   2.510   6.363 -0.4648  0.4425 -0.1304
 7440SOL    HW133956   4.389   2.567   6.440 -0.8941 -1.4810  1.2644
 7440SOL    HW233957   4.492   2.509   6.354 -0.4800  2.3399 -0.4920
 7441SOL     OW33958   4.664   0.610   0.773  0.0348  0.4182  0.2367
 7441SOL    HW133959   4.708   0.678   0.824  0.6603  0.3796 -0.2653
 7441SOL    HW233960   4.570   0.624   0.788  0.1295  1.4324 -0.1360
 7442SOL     OW33961   1.652   4.052   3.028  0.4319  0.2257 -0.0007
 7442SOL    HW133962   1.634   3.959   3.045  0.3243  0.5713  1.8537
 7442SOL    HW233963   1.677   4.052   2.936  1.1490 -4.4382  0.2184
 7443SOL     OW33964   0.612   0.714   1.394  0.0145 -0.1703 -0.1820
 7443SOL    HW133965   0.706   0.727   1.378  0.1810 -1.5518 -0.3286
 7443SOL    HW233966   0.583   0.698   1.304  1.8815 -0.7381 -0.6961
 7444SOL     OW33967   3.771   3.298   9.984 -0.3976 -0.1879  0.2835
 7444SOL    HW133968   3.804   3.249  10.059 -0.1831  0.2909  0.5028
 7444SOL    HW233969   3.682   3.293  10.017  0.8702 -1.6696  3.4083
 7445SOL     OW33970   0.851   4.081  14.365  0.0593 -0.0563 -0.5501
 7445SOL    HW133971   0.866   4.037  14.282  0.1166 -0.6919 -0.1977
 7445SOL    HW233972   0.895   4.028  14.432  0.9272  0.9275 -0.3443
 7446SOL     OW33973   0.484   2.559   3.131 -0.3317 -0.3267  0.5757
 7446SOL    HW133974   0.477   2.617   3.207  0.5628  0.6290 -0.0725
 7446SOL    HW233975   0.392   2.535   3.124 -0.1387 -1.3117  1.4869
 7447SOL     OW33976   1.094   2.164  16.927  0.3437 -0.2038 -0.2145
 7447SOL    HW133977   1.166   2.188  16.869 -0.7430  1.6914 -0.7831
 7447SOL    HW233978   1.083   2.246  16.976  0.6471  0.9137 -1.9980
 7448SOL     OW33979   1.104   4.059   0.401  0.2169 -0.0069 -0.6036
 7448SOL    HW133980   1.035   4.081   0.463  0.1846 -4.0095  0.7459
 7448SOL    HW233981   1.062   4.070   0.315 -0.8943  0.1855 -0.0401
 7449SOL     OW33982   0.000   0.557  14.767  0.7284 -0.0972 -0.4781
 7449SOL    HW133983   4.695   0.493  14.710 -0.7042  0.3647  0.0859
 7449SOL    HW233984   4.679   0.631  14.754  0.8550  0.0405 -0.2528
 7450SOL     OW33985   0.370   4.117  15.409 -0.4060  0.1564  0.4055
 7450SOL    HW133986   0.303   4.065  15.364 -0.3553 -0.5143  1.1039
 7450SOL    HW233987   0.378   4.186  15.343 -1.5149  0.2514  0.3726
 7451SOL     OW33988   2.451   0.725  11.732  0.3511 -0.0683 -0.1845
 7451SOL    HW133989   2.539   0.757  11.754  1.0602 -2.0151 -0.1687
 7451SOL    HW233990   2.437   0.681  11.816 -0.0914  0.2637 -0.0848
 7452SOL     OW33991   2.222   0.296   8.726  0.6100 -0.3409 -0.4654
 7452SOL    HW133992   2.253   0.386   8.735  0.5502 -0.4370  0.7288
 7452SOL    HW233993   2.299   0.248   8.754 -0.8213 -1.9387  0.7590
 7453SOL     OW33994   0.550   3.835   4.964 -0.2761  0.3729 -0.3969
 7453SOL    HW133995   0.473   3.881   4.930  0.2809  3.7344  2.7434
 7453SOL    HW233996   0.589   3.789   4.890 -0.5599 -2.8198  1.4465
 7454SOL     OW33997   1.707   3.972   1.023 -0.0172  0.0059 -0.6001
 7454SOL    HW133998   1.796   4.008   1.022 -0.9040  2.1777 -0.8177
 7454SOL    HW233999   1.709   3.919   0.943 -1.3740 -0.3556 -0.3931
 7455SOL     OW34000   0.977   3.491   8.895 -0.0357  0.4089  0.3231
 7455SOL    HW134001   0.980   3.430   8.969  0.1486  0.6628  0.5284
 7455SOL    HW234002   1.062   3.534   8.900  0.1465  0.0670  0.1235
 7456SOL     OW34003   3.977   1.341   1.658  0.3494 -0.7440 -0.1758
 7456SOL    HW134004   4.065   1.315   1.684  0.6700 -0.2361 -0.7454
 7456SOL    HW234005   3.953   1.267   1.603 -0.5859  0.5330 -1.4679
 7457SOL     OW34006   4.688   4.648   6.422  0.3674  0.4502  0.2885
 7457SOL    HW134007   4.623   4.618   6.486 -0.9100 -1.6539 -1.9887
 7457SOL    HW234008   4.685   0.005   6.436  2.6462  0.3753  1.2722
 7458SOL     OW34009   1.390   0.201   7.714 -0.3780 -0.0365  0.3938
 7458SOL    HW134010   1.312   0.177   7.663 -0.6381  1.1596  0.2118
 7458SOL    HW234011   1.372   0.151   7.793 -3.7778 -0.6400 -0.7534
 7459SOL     OW34012   3.840   1.177  17.522 -0.7386  1.3691  0.1065
 7459SOL    HW134013   3.813   1.092  17.489  0.5815 -0.1529  2.9862
 7459SOL    HW234014   3.859   1.222  17.439 -0.8227 -0.2742 -0.7949
 7460SOL     OW34015   0.328   1.267   6.416  0.2666 -0.6720  0.0546
 7460SOL    HW134016   0.421   1.246   6.401  0.0756 -2.1060  0.9167
 7460SOL    HW234017   0.305   1.204   6.484 -0.9594  1.6106  1.7715
 7461SOL     OW34018   1.063   0.461   7.521 -0.1754 -0.5363  0.0665
 7461SOL    HW134019   1.114   0.533   7.558  0.8769 -0.5789 -1.3356
 7461SOL    HW234020   1.136   0.427   7.470 -0.9538  0.9034 -2.0131
 7462SOL     OW34021   1.638   0.016   7.045 -0.2081 -0.0431 -0.2566
 7462SOL    HW134022   1.582   4.724   6.973  0.7413 -0.3089 -0.8884
 7462SOL    HW234023   1.599   0.099   7.072 -0.4859 -1.5312  3.7532
 7463SOL     OW34024   3.687   4.645   6.636 -0.2831  0.7950 -0.1646
 7463SOL    HW134025   3.635   4.589   6.579 -1.3863  1.1027  0.5405
 7463SOL    HW234026   3.724   4.709   6.575  1.7131  1.6335  1.9515
 7464SOL     OW34027   1.205   4.009   9.881 -0.3066  0.0018 -0.5075
 7464SOL    HW134028   1.202   4.104   9.885 -2.3568 -0.0926  0.1798
 7464SOL    HW234029   1.298   3.993   9.900  0.2572  1.3366 -2.1604
 7465SOL     OW34030   4.733   1.273   7.264  0.1487  0.0212  0.1646
 7465SOL    HW134031   0.027   1.190   7.300 -1.4318 -1.2599 -1.4320
 7465SOL    HW234032   0.016   1.270   7.171  2.1362  0.9659  0.5823
 7466SOL     OW34033   0.899   4.679  12.410 -0.2995  0.4952 -0.2143
 7466SOL    HW134034   0.805   4.675  12.396  0.0345  0.7143 -2.5498
 7466SOL    HW234035   0.909   0.028  12.371 -0.6199  0.3731 -0.5630
 7467SOL     OW34036   2.982   4.410   2.943 -0.1009 -0.3202 -0.8278
 7467SOL    HW134037   3.032   4.485   2.974 -1.3889 -0.0399  0.6127
 7467SOL    HW234038   2.915   4.452   2.890 -0.2650 -0.2910 -0.6008
 7468SOL     OW34039   2.431   0.146   9.143  0.4578  0.2573  0.2778
 7468SOL    HW134040   2.345   0.142   9.184  0.9002  0.0726  1.1830
 7468SOL    HW234041   2.484   0.146   9.223 -0.2738 -0.5771  0.7619
 7469SOL     OW34042   2.909   0.999   4.950 -0.0195 -0.6389  0.2822
 7469SOL    HW134043   2.823   0.963   4.974  0.7601 -3.0641 -0.4948
 7469SOL    HW234044   2.881   1.080   4.909 -0.6011 -1.4379 -0.9129
 7470SOL     OW34045   2.903   0.353   3.237 -0.5083  0.7843 -0.2714
 7470SOL    HW134046   2.883   0.378   3.147  1.5308 -0.4461 -1.0588
 7470SOL    HW234047   2.891   0.444   3.266 -0.8046  0.5904  0.2067
 7471SOL     OW34048   1.452   0.666   8.023 -0.3790 -0.0570 -0.3885
 7471SOL    HW134049   1.466   0.582   7.978  1.1043  0.3365 -0.6854
 7471SOL    HW234050   1.420   0.631   8.107  1.6200  0.5616  0.6375
 7472SOL     OW34051   2.366   4.474   8.938  0.9454 -0.0988  0.1965
 7472SOL    HW134052   2.307   4.516   8.875  1.1820  0.5739  0.4264
 7472SOL    HW234053   2.324   4.481   9.023 -0.0698  0.3577 -0.3351
 7473SOL     OW34054   3.924   4.586  11.722 -0.0781  0.0509 -0.0533
 7473SOL    HW134055   3.977   4.559  11.647  0.7071 -1.0374  0.8975
 7473SOL    HW234056   3.926   4.512  11.784 -0.6648  0.8948  0.9713
 7474SOL     OW34057   2.498   1.293   7.594 -0.4983 -0.1600  0.1980
 7474SOL    HW134058   2.426   1.268   7.536 -0.6838 -0.6213  0.6207
 7474SOL    HW234059   2.454   1.297   7.680 -1.6502  3.6119 -0.5504
 7475SOL     OW34060   4.190   3.678  10.975  0.3899 -0.1178 -0.0382
 7475SOL    HW134061   4.205   3.753  10.917 -0.5912 -1.1298 -1.5945
 7475SOL    HW234062   4.250   3.616  10.934  0.0913 -0.2697 -0.2423
 7476SOL     OW34063   2.947   3.637   2.691  0.1410 -0.1570  0.4660
 7476SOL    HW134064   2.879   3.587   2.736 -0.4596  1.9087  1.8651
 7476SOL    HW234065   2.900   3.692   2.629  0.8479 -0.4191 -0.3036
 7477SOL     OW34066   4.575   1.524   8.156  0.0472  0.1361 -0.1767
 7477SOL    HW134067   4.535   1.554   8.238 -0.1802 -1.7652  0.3916
 7477SOL    HW234068   4.563   1.430   8.149 -1.4165  0.3174  0.0447
 7478SOL     OW34069   2.345   3.643  14.330 -0.1018 -0.0429  0.6327
 7478SOL    HW134070   2.364   3.606  14.416  1.4119 -1.5242 -0.3374
 7478SOL    HW234071   2.338   3.738  14.338 -1.1258 -0.1193  0.6049
 7479SOL     OW34072   4.452   1.608   4.289 -0.1238  0.3432 -0.0391
 7479SOL    HW134073   4.357   1.611   4.303 -0.7438  1.9855 -4.5628
 7479SOL    HW234074   4.476   1.611   4.381  1.2392  1.1749 -0.4329
 7480SOL     OW34075   0.480   2.701   8.898 -0.2029 -0.1882 -0.1834
 7480SOL    HW134076   0.523   2.617   8.881 -0.4597 -0.6771  1.6180
 7480SOL    HW234077   0.473   2.692   8.993  0.4211  0.6595 -0.0561
 7481SOL     OW34078   2.390   3.752   8.169 -0.4277 -0.3547 -0.3908
 7481SOL    HW134079   2.442   3.672   8.158 -0.2786 -0.0424 -1.9882
 7481SOL    HW234080   2.457   3.819   8.180 -2.6798  1.6632  0.9121
 7482SOL     OW34081   0.497   2.403   0.376  0.1545  0.0347  0.0269
 7482SOL    HW134082   0.422   2.353   0.345 -0.4378  2.1167 -1.8933
 7482SOL    HW234083   0.465   2.493   0.371 -0.6987 -0.1784  1.8144
 7483SOL     OW34084   2.898   3.483  12.692 -0.2347  0.5469 -0.5425
 7483SOL    HW134085   2.816   3.512  12.652 -0.6320  0.1977  0.0400
 7483SOL    HW234086   2.873   3.472  12.783 -1.1020  0.0796 -0.8381
 7484SOL     OW34087   1.757   1.041   4.757  0.4690  0.5413 -0.3544
 7484SOL    HW134088   1.715   1.127   4.765 -0.9482 -0.0802 -1.2452
 7484SOL    HW234089   1.843   1.067   4.791  0.6351 -0.2025 -0.2170
 7485SOL     OW34090   3.391   3.708   5.248 -0.1874 -0.1213 -0.4347
 7485SOL    HW134091   3.302   3.711   5.215  0.1525 -0.5203 -1.3958
 7485SOL    HW234092   3.402   3.803   5.239 -1.7502 -0.0450 -1.4428
 7486SOL     OW34093   0.351   3.933   8.155 -0.2318 -0.3504 -0.3422
 7486SOL    HW134094   0.318   4.016   8.189  0.0544 -0.2625 -0.2778
 7486SOL    HW234095   0.415   3.971   8.094 -0.8012 -0.3645 -0.9483
 7487SOL     OW34096   0.248   1.414   6.957  0.0844 -0.0805 -0.2675
 7487SOL    HW134097   0.250   1.493   7.011  0.0195 -0.7075  0.6607
 7487SOL    HW234098   0.282   1.454   6.877  0.0130  1.3807  0.4349
 7488SOL     OW34099   3.677   0.716  12.360 -0.2387  0.0280  0.4235
 7488SOL    HW134100   3.585   0.735  12.375 -0.2549 -0.0340  0.4049
 7488SOL    HW234101   3.688   0.623  12.382  0.2425 -0.0249 -0.0430
 7489SOL     OW34102   1.539   0.468   8.447  0.7992 -0.0260 -0.2215
 7489SOL    HW134103   1.500   0.404   8.507 -1.4734  0.7107 -0.9173
 7489SOL    HW234104   1.583   0.413   8.382  0.9241 -1.9607  1.5137
 7490SOL     OW34105   0.106   0.325  12.635  0.2415 -0.1584 -0.5575
 7490SOL    HW134106   0.141   0.366  12.555  1.8706 -0.8116 -0.1698
 7490SOL    HW234107   0.014   0.307  12.614 -0.1059 -0.5765  1.3462
 7491SOL     OW34108   2.614   2.183  10.638  0.3868 -0.2054  0.1138
 7491SOL    HW134109   2.539   2.175  10.697 -1.3919 -1.2938 -2.2572
 7491SOL    HW234110   2.672   2.124  10.686 -0.9470 -0.0011  1.9668
 7492SOL     OW34111   1.050   2.326   9.275  0.1898  1.0756  0.3300
 7492SOL    HW134112   1.066   2.297   9.365 -3.3901  1.6939  1.1634
 7492SOL    HW234113   0.967   2.281   9.261  0.9080  0.1772 -0.9704
 7493SOL     OW34114   1.015   1.003   7.524 -0.3357  0.2398  0.0557
 7493SOL    HW134115   0.959   0.940   7.570 -1.1717  1.4572  0.7091
 7493SOL    HW234116   0.997   1.085   7.571 -1.0021 -0.8372  1.6772
 7494SOL     OW34117   4.485   3.794  12.769 -0.1262 -0.8142  0.0648
 7494SOL    HW134118   4.481   3.705  12.734  0.3105 -0.3946 -1.0851
 7494SOL    HW234119   4.518   3.777  12.856  2.0853 -2.7491 -1.1607
 7495SOL     OW34120   3.221   4.459   1.018  0.1454  0.2947 -0.0913
 7495SOL    HW134121   3.238   4.447   1.112  2.1811 -0.2188 -0.5165
 7495SOL    HW234122   3.126   4.469   1.017  0.0663 -0.4232  0.0007
 7496SOL     OW34123   3.622   3.167   4.199  0.3839  0.1668  0.4625
 7496SOL    HW134124   3.670   3.234   4.248  0.3751 -0.3806  1.2216
 7496SOL    HW234125   3.648   3.191   4.110  1.1768  0.0491  0.6614
 7497SOL     OW34126   1.830   3.076   5.068 -0.1296 -0.0812 -0.4894
 7497SOL    HW134127   1.922   3.075   5.097  0.0488  2.6077 -0.9579
 7497SOL    HW234128   1.803   3.166   5.086  2.7922  1.2427 -2.8104
 7498SOL     OW34129   3.984   0.680   7.876 -0.2149 -0.4115  0.2013
 7498SOL    HW134130   4.055   0.731   7.837 -1.6055  0.2853 -1.4006
 7498SOL    HW234131   3.935   0.659   7.797  0.9926 -0.6943 -0.4732
 7499SOL     OW34132   3.730   2.700  11.865 -0.5970  0.6765 -0.5173
 7499SOL    HW134133   3.751   2.785  11.903  0.5335 -0.7000  1.9315
 7499SOL    HW234134   3.648   2.713  11.817 -1.1616 -2.1908 -0.3706
 7500SOL     OW34135   4.440   2.278  10.952  0.1082  0.4500  0.2790
 7500SOL    HW134136   4.432   2.184  10.969 -0.9286  0.4652 -0.0998
 7500SOL    HW234137   4.514   2.285  10.892  0.6593 -0.8903  0.8027
 7501SOL     OW34138   0.389   2.168   6.896  0.4713  0.0119 -0.1467
 7501SOL    HW134139   0.333   2.153   6.820 -0.6028 -0.2140  0.6956
 7501SOL    HW234140   0.472   2.148   6.852 -0.1003  2.1641 -2.2109
 7502SOL     OW34141   1.972   1.644   4.810  0.4664  0.1883  0.5785
 7502SOL    HW134142   1.937   1.720   4.765  0.0855  0.4351  1.2821
 7502SOL    HW234143   2.039   1.615   4.748  0.0579 -0.0208  0.2386
 7503SOL     OW34144   1.655   1.831   4.222  0.4673 -0.1946 -0.1187
 7503SOL    HW134145   1.730   1.798   4.272 -0.5688 -1.2966  0.7180
 7503SOL    HW234146   1.618   1.876   4.298  1.5127 -0.9480  0.8483
 7504SOL     OW34147   2.442   3.465   8.063  0.3111 -0.3755  0.1399
 7504SOL    HW134148   2.475   3.383   8.026 -0.5008 -0.3537 -0.6282
 7504SOL    HW234149   2.525   3.501   8.095 -1.3619  2.5898  1.1707
 7505SOL     OW34150   1.923   2.217   7.159  0.2082 -0.4330  0.0641
 7505SOL    HW134151   1.893   2.304   7.185  1.6509 -0.0152  0.3277
 7505SOL    HW234152   1.864   2.158   7.206 -2.6640  0.9647 -1.7738
 7506SOL     OW34153   3.108   2.360   2.615 -0.3887  0.0156 -0.1787
 7506SOL    HW134154   3.188   2.308   2.607  0.1736  0.8094  0.3366
 7506SOL    HW234155   3.107   2.403   2.530  0.9654  0.6773  0.1452
 7507SOL     OW34156   2.897   3.943   4.185  0.1366 -0.1892  0.3797
 7507SOL    HW134157   2.954   3.875   4.148  0.6687 -1.7025  4.0665
 7507SOL    HW234158   2.887   4.009   4.116  0.5198 -0.8093 -0.2808
 7508SOL     OW34159   3.117   4.705  13.882 -0.4584  0.5315  0.0155
 7508SOL    HW134160   3.032   4.662  13.881  0.8653 -2.0255 -0.8824
 7508SOL    HW234161   3.107   0.017  13.800 -0.5187 -1.2998 -1.0783
 7509SOL     OW34162   2.258   0.334   2.731 -0.0964 -0.0226  0.0469
 7509SOL    HW134163   2.266   0.254   2.679 -0.7574  0.6951 -1.1443
 7509SOL    HW234164   2.250   0.299   2.820 -1.3194 -1.4892 -0.6479
 7510SOL     OW34165   3.787   0.066  11.854 -0.4516 -0.0811 -0.8292
 7510SOL    HW134166   3.758   0.112  11.776 -0.3549 -2.5072 -2.2743
 7510SOL    HW234167   3.840   4.733  11.816  0.6326 -1.2358  2.7834
 7511SOL     OW34168   4.134   0.754  11.146  0.3346  0.0243  0.5428
 7511SOL    HW134169   4.108   0.828  11.091 -1.0488 -0.8488  0.0117
 7511SOL    HW234170   4.223   0.784  11.163 -0.0494  2.6947 -2.0890
 7512SOL     OW34171   2.678   2.912  11.334  0.2145  0.1695 -0.4635
 7512SOL    HW134172   2.671   2.929  11.240  1.9087  3.2434 -0.0461
 7512SOL    HW234173   2.698   2.819  11.329 -1.1870 -0.1582 -0.0150
 7513SOL     OW34174   1.884   2.150   7.560  0.0826 -0.3106  0.4306
 7513SOL    HW134175   1.877   2.095   7.482  1.8619 -0.2965  0.2710
 7513SOL    HW234176   1.947   2.101   7.613  1.2940  1.7780  0.9599
 7514SOL     OW34177   4.326   2.236   1.394 -0.2435  0.4485  0.0525
 7514SOL    HW134178   4.286   2.282   1.468 -2.6968 -1.3732 -0.1638
 7514SOL    HW234179   4.278   2.155   1.411  2.3897 -1.4087 -1.2618
 7515SOL     OW34180   2.608   1.198  13.339 -0.7763 -0.1363 -0.5653
 7515SOL    HW134181   2.674   1.236  13.397 -2.2650  2.1818 -0.3444
 7515SOL    HW234182   2.660   1.129  13.300 -0.1512  0.6530 -1.1340
 7516SOL     OW34183   2.079   0.926  13.588 -0.2730 -0.2383 -0.7261
 7516SOL    HW134184   2.026   0.976  13.527  1.1542  0.6993 -1.2072
 7516SOL    HW234185   2.022   0.852  13.610  0.7770 -0.8881 -0.1746
 7517SOL     OW34186   2.317   4.204   1.748  0.1822  0.4195  0.0359
 7517SOL    HW134187   2.289   4.116   1.723 -0.6893  0.0076  2.4916
 7517SOL    HW234188   2.403   4.184   1.787 -1.0719  2.0574  3.6011
 7518SOL     OW34189   1.785   0.917  15.367  0.9642  0.0961 -0.4917
 7518SOL    HW134190   1.836   0.863  15.306  0.4468 -1.4930  0.4773
 7518SOL    HW234191   1.818   1.002  15.338  0.5840  0.1358 -0.8088
 7519SOL     OW34192   0.091   4.036   0.193 -0.0601 -0.1098  0.1651
 7519SOL    HW134193   0.181   4.024   0.164  0.0206  0.7170  0.0607
 7519SOL    HW234194   0.102   4.075   0.280 -0.8501  1.5628 -0.4888
 7520SOL     OW34195   1.581   3.420  13.606 -0.2935 -0.1956 -0.5490
 7520SOL    HW134196   1.631   3.495  13.638 -0.2444 -0.2991 -0.3829
 7520SOL    HW234197   1.609   3.349  13.664 -2.7361 -1.3561 -0.7567
 7521SOL     OW34198   0.376   3.255   1.583  0.5561 -0.2042 -0.2123
 7521SOL    HW134199   0.348   3.260   1.491 -0.8650 -2.6109  0.0935
 7521SOL    HW234200   0.472   3.259   1.575  0.7169 -0.7991  1.3682
 7522SOL     OW34201   4.328   3.888   7.839  0.1243  0.3927 -0.5252
 7522SOL    HW134202   4.385   3.854   7.908 -0.2698  1.5870  0.3941
 7522SOL    HW234203   4.394   3.936   7.791 -0.7445  0.9131 -1.1992
 7523SOL     OW34204   4.110   4.316  14.908  0.2843 -0.7262 -0.1059
 7523SOL    HW134205   4.132   4.258  14.835 -1.3314 -0.8021 -0.5458
 7523SOL    HW234206   4.175   4.384  14.893 -0.3299 -0.7046 -2.6341
 7524SOL     OW34207   4.141   1.988  11.027  0.1269 -0.3410  0.1700
 7524SOL    HW134208   4.056   1.959  11.062 -0.0261 -0.1276 -0.0248
 7524SOL    HW234209   4.147   2.082  11.046  2.6709 -0.5380  0.3327
 7525SOL     OW34210   1.351   4.601   4.711  0.2478  0.5112 -0.3995
 7525SOL    HW134211   1.324   4.524   4.760 -1.8765  1.7280  0.3495
 7525SOL    HW234212   1.272   4.654   4.703 -1.1361 -1.4515  0.3910
 7526SOL     OW34213   4.733   3.897  13.663 -0.2781  0.1647 -0.3580
 7526SOL    HW134214   4.642   3.927  13.651 -0.7483 -1.5196 -1.0701
 7526SOL    HW234215   0.012   3.896  13.757  0.1784 -0.7661 -0.4442
 7527SOL     OW34216   0.597   2.396   6.377  0.1946 -0.2613 -0.2563
 7527SOL    HW134217   0.597   2.424   6.286 -0.3675 -0.6729 -0.3812
 7527SOL    HW234218   0.522   2.445   6.409  0.5801  0.4012 -0.3699
 7528SOL     OW34219   1.359   4.175   6.689  0.4252 -0.2738 -0.6688
 7528SOL    HW134220   1.376   4.141   6.601  0.2274 -0.1246 -0.7633
 7528SOL    HW234221   1.441   4.220   6.708  0.0648 -0.1177  0.5402
 7529SOL     OW34222   0.822   0.278   7.234  0.1196 -0.5357  0.1214
 7529SOL    HW134223   0.822   0.363   7.280  0.2679 -0.6140  0.2644
 7529SOL    HW234224   0.913   0.254   7.222  0.7956  1.7837  0.5639
 7530SOL     OW34225   3.445   3.857  12.378  0.9186  0.1649  0.3856
 7530SOL    HW134226   3.399   3.825  12.456  0.1639  1.2915  0.4041
 7530SOL    HW234227   3.488   3.778  12.344  0.7302 -0.8954  2.5609
 7531SOL     OW34228   1.267   4.722   4.379  0.2100  0.2008  0.0985
 7531SOL    HW134229   1.227   4.638   4.403  1.0837 -0.5510 -1.1049
 7531SOL    HW234230   1.208   0.054   4.410  2.4862  1.5544  1.3541
 7532SOL     OW34231   4.126   0.421   0.596 -0.0110  0.6644 -0.3366
 7532SOL    HW134232   4.195   0.414   0.530  0.0968 -0.8009 -0.0768
 7532SOL    HW234233   4.152   0.350   0.655  0.1994 -0.8579 -2.2350
 7533SOL     OW34234   0.407   1.816  17.402 -0.3756  0.1943 -0.0653
 7533SOL    HW134235   0.392   1.749  17.469  0.7178 -0.0461 -0.0632
 7533SOL    HW234236   0.460   1.758  17.348  0.5447  2.1741 -1.2558
 7534SOL     OW34237   4.641   1.717   3.622 -0.3569  0.6148 -0.2002
 7534SOL    HW134238   4.707   1.688   3.559  0.7472  0.3580  1.0896
 7534SOL    HW234239   4.683   1.733   3.706  1.8140 -0.8327 -1.0121
 7535SOL     OW34240   3.723   2.493   2.318  0.0089 -0.2122  0.1264
 7535SOL    HW134241   3.698   2.404   2.292 -3.0355  1.1625 -1.6414
 7535SOL    HW234242   3.692   2.552   2.249  0.5595  0.5422  0.5218
 7536SOL     OW34243   0.495   0.044   2.185  0.2235  0.1876 -0.6461
 7536SOL    HW134244   0.526   4.692   2.173  0.9229  0.3385  0.0396
 7536SOL    HW234245   0.520   0.085   2.101  0.6373 -0.8023 -1.0065
 7537SOL     OW34246   1.676   3.412   3.417  0.0416 -0.6244  0.5040
 7537SOL    HW134247   1.644   3.381   3.502  0.6920  1.5446  1.5244
 7537SOL    HW234248   1.615   3.370   3.356 -1.1743 -0.6749  1.7564
 7538SOL     OW34249   4.643   2.126  10.334  0.0586  0.1567 -0.2747
 7538SOL    HW134250   4.641   2.083  10.419 -1.9806  0.2742 -0.2564
 7538SOL    HW234251   4.655   2.217  10.362 -3.1796 -0.3215  2.6909
 7539SOL     OW34252   3.308   0.454  10.946  0.2357  0.0790 -0.2804
 7539SOL    HW134253   3.316   0.544  10.978 -0.8465  0.2320 -0.4579
 7539SOL    HW234254   3.236   0.420  10.999 -0.3454  1.2060 -0.3521
 7540SOL     OW34255   2.759   3.665   7.937 -0.1598 -0.3360  0.2844
 7540SOL    HW134256   2.845   3.699   7.912  1.2880 -0.9690  4.5023
 7540SOL    HW234257   2.758   3.576   7.901  1.8118  0.3047 -1.3689
 7541SOL     OW34258   3.618   0.202   2.733 -0.6469 -0.3867  0.3852
 7541SOL    HW134259   3.632   0.113   2.763  0.9256 -0.1979  0.1694
 7541SOL    HW234260   3.691   0.218   2.673 -0.0558  0.6950  1.3811
 7542SOL     OW34261   2.778   4.726   5.774  0.0420  0.6716 -0.8437
 7542SOL    HW134262   2.813   4.639   5.793 -0.1335  1.0673  1.3238
 7542SOL    HW234263   2.842   0.041   5.727  0.7927  0.5621  0.0496
 7543SOL     OW34264   2.668   4.016  16.728  0.0703  0.7794 -0.2156
 7543SOL    HW134265   2.698   4.078  16.795 -0.6107  0.5217  0.3295
 7543SOL    HW234266   2.749   3.980  16.692  0.2176  1.9824 -1.0639
 7544SOL     OW34267   0.994   3.550   6.751  0.1843 -0.0851 -0.1935
 7544SOL    HW134268   1.059   3.480   6.753 -0.0543 -0.2614  1.2780
 7544SOL    HW234269   0.989   3.561   6.656 -0.0359  0.5057 -0.1146
 7545SOL     OW34270   4.265   1.638   8.280 -0.0854  0.1535 -0.0527
 7545SOL    HW134271   4.252   1.651   8.186  0.2990 -1.6668 -0.3498
 7545SOL    HW234272   4.176   1.654   8.313  0.0889 -2.0870  1.4289
 7546SOL     OW34273   4.033   0.745   1.141  0.0106 -0.1592 -0.1985
 7546SOL    HW134274   4.101   0.684   1.114  0.8360  2.2694 -3.6878
 7546SOL    HW234275   3.996   0.699   1.216  0.9685  0.7775  0.8470
 7547SOL     OW34276   3.416   4.260   2.174  0.3891 -0.0345 -0.1524
 7547SOL    HW134277   3.320   4.255   2.175  0.2775  1.4385 -2.2904
 7547SOL    HW234278   3.430   4.329   2.108  0.8388 -0.1549 -0.1820
 7548SOL     OW34279   4.082   1.656   8.742  0.0233 -0.4616  0.2324
 7548SOL    HW134280   4.162   1.705   8.721 -1.8007  1.7000 -1.6653
 7548SOL    HW234281   4.018   1.725   8.760  0.1721 -0.4337  0.6620
 7549SOL     OW34282   4.441   3.082  16.352 -0.1643 -0.6025  0.1417
 7549SOL    HW134283   4.468   3.173  16.343 -0.9833 -0.4409 -0.7164
 7549SOL    HW234284   4.457   3.076  16.446  0.6581  0.0633  0.0469
 7550SOL     OW34285   1.583   2.798   9.234 -0.0671  0.4693 -0.0410
 7550SOL    HW134286   1.651   2.778   9.299 -0.5015 -3.3793 -0.7540
 7550SOL    HW234287   1.510   2.771   9.290  0.9397 -1.6015  0.2733
 7551SOL     OW34288   4.638   4.256   5.891  0.3924  0.4325  0.1244
 7551SOL    HW134289   4.654   4.348   5.913  0.8576  0.1315  1.0606
 7551SOL    HW234290   4.544   4.261   5.877  0.2890  1.0479  1.0061
 7552SOL     OW34291   0.076   2.259   4.535 -0.4543  0.2279 -0.3013
 7552SOL    HW134292   0.137   2.206   4.483 -0.6532  0.0839 -0.3879
 7552SOL    HW234293   0.003   2.275   4.476 -0.1828  0.4199 -0.5839
 7553SOL     OW34294   4.138   0.426   3.291 -0.2932  0.3824 -0.1651
 7553SOL    HW134295   4.113   0.473   3.370 -3.4082 -1.6138  0.0259
 7553SOL    HW234296   4.233   0.433   3.300 -0.3186 -1.7063  1.7191
 7554SOL     OW34297   4.689   2.490   8.192 -0.2415 -0.3526  0.0851
 7554SOL    HW134298   0.002   2.517   8.269  0.2033 -1.0785  0.0470
 7554SOL    HW234299   0.018   2.490   8.124 -1.5490 -1.8030 -1.1864
 7555SOL     OW34300   1.025   0.973  12.659 -0.2552  0.0226  0.1346
 7555SOL    HW134301   1.060   1.062  12.666 -1.5715  0.4842  0.9452
 7555SOL    HW234302   1.004   0.961  12.567  0.4528  4.4355 -0.5953
 7556SOL     OW34303   2.274   0.395   9.246  0.7022  0.3129  0.7840
 7556SOL    HW134304   2.201   0.364   9.299  0.0483  2.5166  1.1667
 7556SOL    HW234305   2.322   0.442   9.314 -0.8981  1.3426  1.2168
 7557SOL     OW34306   2.495   3.299   6.414  0.0044 -0.2183  0.0935
 7557SOL    HW134307   2.538   3.311   6.499  0.3101  2.6857 -0.4605
 7557SOL    HW234308   2.497   3.206   6.394  2.0104 -0.0017 -0.7262
 7558SOL     OW34309   4.016   2.262   1.230 -0.3097 -1.2565 -0.0968
 7558SOL    HW134310   3.982   2.224   1.311 -1.4927 -2.2649 -1.0689
 7558SOL    HW234311   4.047   2.181   1.188  0.6377 -0.3253 -1.1901
 7559SOL     OW34312   4.389   3.683   7.381 -0.4979 -0.8380  0.3601
 7559SOL    HW134313   4.360   3.759   7.432  1.7847 -1.0575  1.9890
 7559SOL    HW234314   4.472   3.713   7.342 -1.2287 -0.0103 -0.5530
 7560SOL     OW34315   2.985   0.829   2.362 -0.2961 -0.1862  0.4966
 7560SOL    HW134316   3.023   0.868   2.441  0.7436 -1.2075  0.4938
 7560SOL    HW234317   2.896   0.864   2.360  0.0218  0.5347 -1.2501
 7561SOL     OW34318   2.387   3.966   3.487 -0.0974  0.7062 -0.0136
 7561SOL    HW134319   2.444   3.911   3.539 -0.2549  0.4381 -0.1267
 7561SOL    HW234320   2.305   3.917   3.481 -0.6821  1.5275  1.1034
 7562SOL     OW34321   1.945   0.691  16.250  0.6950 -0.0807  0.0383
 7562SOL    HW134322   1.979   0.746  16.179 -0.6819 -1.0617 -1.3798
 7562SOL    HW234323   1.861   0.668  16.210 -0.3861  0.9197  1.7458
 7563SOL     OW34324   0.525   2.578   4.874 -0.2246  0.2055  0.2161
 7563SOL    HW134325   0.500   2.663   4.839  0.2980  0.3882  0.2968
 7563SOL    HW234326   0.466   2.522   4.823  2.8726 -2.1168 -0.8423
 7564SOL     OW34327   2.409   1.296   7.034  0.4450 -0.2109 -0.6713
 7564SOL    HW134328   2.456   1.328   7.111 -2.6024  1.0829  0.6447
 7564SOL    HW234329   2.387   1.382   6.997  3.4889  0.9754  0.2436
 7565SOL     OW34330   4.191   1.292   2.688  0.6900  0.3144 -0.1556
 7565SOL    HW134331   4.263   1.354   2.697  0.5863  0.1585  1.8562
 7565SOL    HW234332   4.194   1.241   2.769  0.5377 -0.8410 -0.8784
 7566SOL     OW34333   3.956   3.786   8.299  0.0162 -0.0014  0.5288
 7566SOL    HW134334   3.963   3.855   8.365 -0.6533  0.7198 -0.1453
 7566SOL    HW234335   3.866   3.800   8.268 -0.1860  2.2845  2.2019
 7567SOL     OW34336   4.324   0.018   8.074  0.0251  0.2499 -0.5613
 7567SOL    HW134337   4.237   0.037   8.039 -0.4934  0.7141  0.9845
 7567SOL    HW234338   4.336   0.076   8.149 -1.9465 -0.4392  0.2805
 7568SOL     OW34339   3.187   2.524   2.086  0.5477  0.3966 -0.6787
 7568SOL    HW134340   3.177   2.619   2.076 -0.5381  0.3461 -0.1170
 7568SOL    HW234341   3.203   2.513   1.992 -0.9943 -0.9062 -0.7925
 7569SOL     OW34342   0.463   1.880  10.524  0.5428 -0.6342 -0.7385
 7569SOL    HW134343   0.524   1.812  10.551 -0.5060 -1.4191 -0.3590
 7569SOL    HW234344   0.498   1.957  10.568 -0.3351  0.3518 -1.7409
 7570SOL     OW34345   2.747   1.064   5.397 -0.0693  0.4142 -0.1763
 7570SOL    HW134346   2.760   1.075   5.491 -1.5453  2.4478 -0.2216
 7570SOL    HW234347   2.756   0.969   5.401  2.8293  0.5787 -2.4209
 7571SOL     OW34348   1.188   4.121   7.121 -0.2581  0.7255 -0.1319
 7571SOL    HW134349   1.146   4.118   7.207  0.9658 -1.6578  0.3846
 7571SOL    HW234350   1.115   4.077   7.078 -1.0610  1.2073  0.7332
 7572SOL     OW34351   2.204   4.696   3.225 -0.2875 -0.0816  0.5046
 7572SOL    HW134352   2.112   4.701   3.201 -0.0044 -0.2860 -0.6263
 7572SOL    HW234353   2.200   4.642   3.303 -3.1375 -0.1104  0.3405
 7573SOL     OW34354   2.928   2.468   6.117 -0.3944  0.1247  0.3882
 7573SOL    HW134355   3.020   2.442   6.119 -0.0040  1.5649  0.8596
 7573SOL    HW234356   2.942   2.557   6.147 -0.9680  0.7906 -1.3187
 7574SOL     OW34357   0.104   4.180   2.823  0.8044 -0.2775  0.4377
 7574SOL    HW134358   0.030   4.230   2.859  0.4796  1.3364 -2.4980
 7574SOL    HW234359   0.131   4.134   2.902  0.8198 -1.5719 -0.3156
 7575SOL     OW34360   2.611   1.194   4.219 -0.3482  0.3464 -0.1837
 7575SOL    HW134361   2.651   1.107   4.210 -3.2473 -1.0881  0.6931
 7575SOL    HW234362   2.655   1.217   4.301 -0.9129  0.4865  0.0816
 7576SOL     OW34363   1.531   3.378   6.967 -0.9287  0.1869 -0.1475
 7576SOL    HW134364   1.537   3.318   7.042 -0.7696  0.9259  0.4251
 7576SOL    HW234365   1.438   3.399   6.976 -0.8092  0.6401 -0.0113
 7577SOL     OW34366   2.096   2.464   6.949 -0.5897 -0.2027  0.6143
 7577SOL    HW134367   2.176   2.432   6.909 -1.5943 -1.3661 -0.4511
 7577SOL    HW234368   2.034   2.410   6.900 -2.2328  0.7709  1.6387
 7578SOL     OW34369   2.559   3.817   7.795  0.1088 -0.5072  0.1989
 7578SOL    HW134370   2.574   3.900   7.840  0.0600 -0.3707 -0.0365
 7578SOL    HW234371   2.632   3.768   7.834 -0.6475 -1.2307  0.7172
 7579SOL     OW34372   1.960   2.399   4.163  0.3563  0.1478 -0.1865
 7579SOL    HW134373   1.983   2.460   4.233  0.2116 -0.6522  0.5581
 7579SOL    HW234374   2.034   2.338   4.162  0.7535  0.6515 -1.4234
 7580SOL     OW34375   0.098   0.981   7.322  0.4834  0.5681  0.0707
 7580SOL    HW134376   0.159   0.933   7.266 -0.5354 -0.5808 -0.0567
 7580SOL    HW234377   0.022   0.984   7.264  1.5910  0.9624 -1.3780
 7581SOL     OW34378   2.955   3.161   9.111 -0.7544 -0.0830 -0.5372
 7581SOL    HW134379   2.977   3.253   9.097 -1.2957  0.0359 -0.6049
 7581SOL    HW234380   2.988   3.139   9.198  0.0349  0.1361 -0.7784
 7582SOL     OW34381   1.574   4.624   9.593 -0.1786 -0.5447 -0.0033
 7582SOL    HW134382   1.563   4.590   9.504  1.7774 -3.0205  0.7010
 7582SOL    HW234383   1.620   4.559   9.646  0.5627 -1.0939 -1.3234
 7583SOL     OW34384   1.718   4.398  16.042 -0.7227  0.4338 -0.0911
 7583SOL    HW134385   1.720   4.470  15.978 -2.4743  1.4410  1.0114
 7583SOL    HW234386   1.758   4.330  15.987 -1.0827 -1.7369  2.3749
 7584SOL     OW34387   2.607   4.413  12.567 -0.0413  0.3776  0.0699
 7584SOL    HW134388   2.519   4.393  12.535 -0.3797 -0.7473  1.7086
 7584SOL    HW234389   2.603   4.363  12.649  2.3012  0.8598  0.4584
 7585SOL     OW34390   2.941   1.693   9.786 -0.5679 -0.4764 -0.3307
 7585SOL    HW134391   2.864   1.746   9.767  0.9706  1.9870  0.2906
 7585SOL    HW234392   3.011   1.750   9.755 -1.3764  0.0060 -1.2482
 7586SOL     OW34393   2.612   1.919   4.486 -0.4892  0.1913  0.6737
 7586SOL    HW134394   2.597   1.833   4.447  0.6990  0.0026  0.6388
 7586SOL    HW234395   2.692   1.905   4.537  0.3524 -0.2087 -0.7678
 7587SOL     OW34396   1.625   0.160  14.634 -0.1415  0.0840 -0.8248
 7587SOL    HW134397   1.663   0.199  14.713  0.4584  4.4571 -3.2706
 7587SOL    HW234398   1.702   0.117  14.597 -0.7688 -1.9833  0.2780
 7588SOL     OW34399   0.071   3.525   2.937 -0.6346 -0.1244  0.5795
 7588SOL    HW134400   0.143   3.565   2.986  0.2230 -1.0417  0.0738
 7588SOL    HW234401   4.737   3.587   2.952  0.9769  1.9438 -0.2035
 7589SOL     OW34402   4.486   2.121   6.584  0.3164 -0.2386  0.6170
 7589SOL    HW134403   4.455   2.169   6.508  0.6354  2.7769  2.4040
 7589SOL    HW234404   4.509   2.039   6.540 -2.5492 -1.2453  1.0136
 7590SOL     OW34405   2.240   0.656  16.636 -0.3581 -0.7078 -0.2121
 7590SOL    HW134406   2.306   0.638  16.569 -0.0898  1.5065 -0.5534
 7590SOL    HW234407   2.168   0.596  16.615 -3.4925  2.5250  1.2786
 7591SOL     OW34408   1.991   2.177   5.486 -0.7748 -0.5740  0.0521
 7591SOL    HW134409   2.058   2.126   5.532  1.1122  1.2760 -0.6307
 7591SOL    HW234410   1.962   2.232   5.559 -0.5756 -0.6692  0.2016
 7592SOL     OW34411   1.866   3.631   6.555 -0.4375  0.7832  0.2597
 7592SOL    HW134412   1.819   3.590   6.627  0.7892 -0.5177  0.3214
 7592SOL    HW234413   1.852   3.721   6.583  0.5797  0.8386  0.6140
 7593SOL     OW34414   1.483   4.301   8.076 -0.5475  0.0582  0.1049
 7593SOL    HW134415   1.576   4.305   8.056 -0.1976 -1.7927  1.3499
 7593SOL    HW234416   1.446   4.344   7.999  1.5755 -1.1575 -1.6126
 7594SOL     OW34417   2.811   1.177   6.378 -0.1757  0.0308  0.6151
 7594SOL    HW134418   2.848   1.100   6.421 -0.5850  0.1939  1.2601
 7594SOL    HW234419   2.792   1.234   6.452 -0.1413 -0.8827  1.3248
 7595SOL     OW34420   3.438   2.219   7.050  0.5211  0.2119  0.0476
 7595SOL    HW134421   3.443   2.129   7.018  0.1498  0.7105 -1.3975
 7595SOL    HW234422   3.531   2.239   7.060  0.5630  0.0958 -0.1124
 7596SOL     OW34423   0.035   3.223   5.021  0.1243  0.3081  0.1200
 7596SOL    HW134424   4.720   3.212   5.101 -1.2752 -1.4705 -1.0559
 7596SOL    HW234425   0.122   3.235   5.059  0.6753  1.3997 -1.4574
 7597SOL     OW34426   2.920   1.087   3.994  0.0660  0.2751 -0.0517
 7597SOL    HW134427   2.879   1.058   4.076 -0.5857 -1.8695 -1.1452
 7597SOL    HW234428   3.010   1.087   4.025  0.3073  2.1955 -0.7624
 7598SOL     OW34429   0.036   0.004  12.462 -0.3870  0.0576  0.0836
 7598SOL    HW134430   0.005   0.060  12.391  1.5206  0.0231 -0.7656
 7598SOL    HW234431   0.129   0.021  12.448 -0.7281  0.8362 -1.2648
 7599SOL     OW34432   1.752   2.601   5.857  0.7285 -0.2057 -0.1550
 7599SOL    HW134433   1.837   2.643   5.848  0.1002  1.3184  0.9759
 7599SOL    HW234434   1.707   2.639   5.782  0.0490  0.7066  0.7125
 7600SOL     OW34435   1.236   1.679   8.255  0.0262 -0.3025 -0.5713
 7600SOL    HW134436   1.224   1.592   8.294 -0.0382  0.2109  0.5373
 7600SOL    HW234437   1.284   1.717   8.328 -2.4004 -1.1605  1.4616
 7601SOL     OW34438   3.988   2.960  11.188  0.4438  0.2213  0.3820
 7601SOL    HW134439   4.036   3.015  11.126 -2.1047  1.4693 -0.5016
 7601SOL    HW234440   3.941   3.019  11.247 -1.9219 -1.9509  0.6575
 7602SOL     OW34441   0.049   2.128   4.161 -0.4133  0.1357 -0.2994
 7602SOL    HW134442   0.125   2.186   4.162  0.5696 -1.1380 -2.4308
 7602SOL    HW234443   0.086   2.040   4.170 -0.8446 -0.0555 -0.4125
 7603SOL     OW34444   1.234   4.688  15.344 -0.2765 -0.8887  0.6284
 7603SOL    HW134445   1.235   4.600  15.380 -0.9137 -0.0817  2.6319
 7603SOL    HW234446   1.323   4.722  15.349 -1.2106  1.6204  0.4816
 7604SOL     OW34447   0.968   2.751  14.785  0.2017 -0.2226  0.3707
 7604SOL    HW134448   1.022   2.824  14.756  0.9705 -1.1514 -0.5387
 7604SOL    HW234449   0.959   2.715  14.697 -0.6153  1.4535 -0.2324
 7605SOL     OW34450   4.619   4.016  10.617 -0.1916 -0.0246 -0.4140
 7605SOL    HW134451   4.625   3.947  10.682  0.1397  3.8655  3.6813
 7605SOL    HW234452   4.648   3.962  10.544 -2.1511 -0.3983 -0.9342
 7606SOL     OW34453   0.624   0.258   6.924  0.7664  0.1315 -0.3099
 7606SOL    HW134454   0.678   0.277   6.848  0.6560 -0.6387 -0.5805
 7606SOL    HW234455   0.629   0.339   6.974 -3.5270 -0.8531  1.7095
 7607SOL     OW34456   3.907   0.597   3.233 -0.0137  0.0516  0.5689
 7607SOL    HW134457   3.993   0.563   3.208 -0.5877 -0.8538 -0.1855
 7607SOL    HW234458   3.916   0.597   3.328 -1.5590 -0.3086  0.7146
 7608SOL     OW34459   0.722   3.472   5.935  0.5075 -0.2979  0.0655
 7608SOL    HW134460   0.793   3.535   5.947  0.7213 -0.9252  1.9783
 7608SOL    HW234461   0.653   3.527   5.972 -0.1255 -1.0329 -0.0146
 7609SOL     OW34462   2.540   0.489   3.591  0.3986  0.3055  0.0533
 7609SOL    HW134463   2.586   0.440   3.523 -1.0470  0.0051 -0.7274
 7609SOL    HW234464   2.583   0.462   3.672 -1.5937 -1.5992  0.4866
 7610SOL     OW34465   4.596   2.006   5.250  0.4074  0.2162 -0.1223
 7610SOL    HW134466   4.535   2.045   5.187 -0.5160  2.1692  1.9827
 7610SOL    HW234467   4.670   2.063   5.226  1.5199 -1.5823 -0.9703
 7611SOL     OW34468   4.209   3.163   8.355  0.0318  0.5856  0.5085
 7611SOL    HW134469   4.301   3.173   8.381 -0.4994  2.4779  1.6234
 7611SOL    HW234470   4.161   3.191   8.433 -1.2102 -1.4850  0.4970
 7612SOL     OW34471   4.242   4.476  17.177  0.4941 -0.1968 -0.5420
 7612SOL    HW134472   4.322   4.522  17.204  1.9720 -2.2874 -1.3630
 7612SOL    HW234473   4.201   4.560  17.155 -0.9494 -0.5506  0.7902
 7613SOL     OW34474   4.607   0.806   5.890 -0.1127 -0.3284  0.4788
 7613SOL    HW134475   4.642   0.823   5.977 -2.3608  0.3983  1.2427
 7613SOL    HW234476   4.579   0.715   5.903 -0.0081 -0.5061 -0.5452
 7614SOL     OW34477   2.561   2.944  14.594  0.1692  0.4061  0.2140
 7614SOL    HW134478   2.501   2.992  14.650 -0.0354  0.0226  0.3270
 7614SOL    HW234479   2.599   3.014  14.541 -0.8109 -0.0138 -1.0479
 7615SOL     OW34480   4.721   3.133  11.912  0.3978  0.5624  0.0713
 7615SOL    HW134481   0.039   3.114  11.988  0.4023 -0.9020 -0.3090
 7615SOL    HW234482   0.041   3.201  11.878 -1.5242  2.0160 -0.2940
 7616SOL     OW34483   4.481   1.499   6.400 -0.0966 -0.2314  0.2806
 7616SOL    HW134484   4.562   1.532   6.439 -0.2991  1.1631 -0.4825
 7616SOL    HW234485   4.499   1.489   6.307  0.3903 -1.0471  0.4689
 7617SOL     OW34486   4.256   3.361   1.888  0.5388 -0.3596  0.5371
 7617SOL    HW134487   4.305   3.429   1.935  0.1459  1.1757 -1.2564
 7617SOL    HW234488   4.251   3.401   1.801 -0.3428  1.2667  1.3271
 7618SOL     OW34489   4.056   1.512  12.505  0.3111  0.1872 -0.1966
 7618SOL    HW134490   4.013   1.562  12.575  0.3844  1.5787 -1.1509
 7618SOL    HW234491   4.075   1.591  12.455 -2.5494 -0.2443 -1.9585
 7619SOL     OW34492   4.465   0.226   9.030  0.0964  0.0194  0.0818
 7619SOL    HW134493   4.447   0.310   9.071 -0.5174  1.0427 -2.2560
 7619SOL    HW234494   4.385   0.180   9.057  1.0311 -1.0702  0.9990
 7620SOL     OW34495   0.045   2.558   2.443  0.3327 -0.2239  0.1760
 7620SOL    HW134496   0.113   2.501   2.407  1.0886  1.8142 -1.6171
 7620SOL    HW234497   0.031   2.511   2.526  0.6140  0.8193  0.8179
 7621SOL     OW34498   0.328   1.397  16.006 -0.1154  0.4307  0.2569
 7621SOL    HW134499   0.371   1.479  15.983  0.2950  0.6274  1.7380
 7621SOL    HW234500   0.396   1.360  16.062 -1.0670 -2.1204 -0.2777
 7622SOL     OW34501   3.645   0.817   3.394 -0.1378  0.2746  0.3854
 7622SOL    HW134502   3.553   0.840   3.410 -0.3256 -0.3837  0.2346
 7622SOL    HW234503   3.668   0.868   3.317 -0.5660  0.3383  0.2974
 7623SOL     OW34504   3.931   4.541   8.729  0.6155  0.4400 -0.2230
 7623SOL    HW134505   3.997   4.507   8.668 -1.0228 -3.6180  0.2928
 7623SOL    HW234506   3.866   4.572   8.666 -0.1442  0.5674  0.6200
 7624SOL     OW34507   0.127   3.362   2.305 -0.1040 -0.4401 -0.1770
 7624SOL    HW134508   0.070   3.386   2.378  0.2617  2.8458 -1.0036
 7624SOL    HW234509   0.206   3.416   2.305  1.3396 -2.5605  0.1701
 7625SOL     OW34510   3.367   2.315   3.285  0.3814 -0.6103 -0.1710
 7625SOL    HW134511   3.380   2.337   3.193 -0.7238 -1.0822 -0.4329
 7625SOL    HW234512   3.402   2.387   3.337 -2.1754 -0.2221  1.0039
 7626SOL     OW34513   2.801   1.914   6.308 -0.1493  0.1408  0.0147
 7626SOL    HW134514   2.820   2.001   6.341 -0.7269 -0.6288  2.4045
 7626SOL    HW234515   2.727   1.928   6.248  0.1560 -0.2650 -0.4514
 7627SOL     OW34516   0.859   4.016   8.172 -0.7070 -0.7891 -0.0848
 7627SOL    HW134517   0.818   4.103   8.172  2.7308  0.8169 -1.4085
 7627SOL    HW234518   0.947   4.031   8.139 -0.7505  0.3432  0.3110
 7628SOL     OW34519   2.900   2.613   9.795  0.2986  0.1624 -0.8037
 7628SOL    HW134520   2.852   2.567   9.727 -0.2406  0.1649 -0.4266
 7628SOL    HW234521   2.827   2.651   9.843  0.8670 -0.0827  0.2586
 7629SOL     OW34522   4.403   2.791   8.279  0.5231  0.3474  0.1289
 7629SOL    HW134523   4.471   2.810   8.343  0.3339 -0.2663  0.5144
 7629SOL    HW234524   4.440   2.840   8.206 -0.2935  0.4709 -0.1988
 7630SOL     OW34525   3.327   0.669   0.685  0.1535 -0.3511 -0.3580
 7630SOL    HW134526   3.273   0.630   0.754 -0.4674 -0.7862 -1.0891
 7630SOL    HW234527   3.382   0.593   0.668  0.1358 -0.3266 -0.5284
 7631SOL     OW34528   3.024   0.972   6.789  0.3896 -0.1256 -0.3855
 7631SOL    HW134529   3.068   0.891   6.817  0.4016 -0.2638 -0.8051
 7631SOL    HW234530   3.017   1.010   6.876  1.7113  0.0558 -0.3494
 7632SOL     OW34531   2.976   0.744   1.071 -0.1829 -0.2331 -0.2107
 7632SOL    HW134532   2.999   0.835   1.092 -1.1824  0.1561 -0.7828
 7632SOL    HW234533   2.906   0.720   1.131 -0.0307 -0.5296 -0.1522
 7633SOL     OW34534   4.427   0.788   7.072  0.2367 -0.4578  0.2588
 7633SOL    HW134535   4.354   0.738   7.108  0.0017 -0.3770 -0.1024
 7633SOL    HW234536   4.494   0.748   7.127  1.5645  2.5294  0.8078
 7634SOL     OW34537   2.240   2.768   8.163 -0.2818  0.2155 -0.1031
 7634SOL    HW134538   2.320   2.788   8.115  0.2406  1.8081  1.4051
 7634SOL    HW234539   2.280   2.779   8.249  0.1949  0.7638 -0.3876
 7635SOL     OW34540   1.858   0.957   3.536  0.2704  0.5483 -0.0250
 7635SOL    HW134541   1.915   1.008   3.593  0.6891  1.3892 -1.1877
 7635SOL    HW234542   1.891   0.869   3.552 -0.3350  0.5054  0.9681
 7636SOL     OW34543   1.728   1.812   8.205  0.2270  0.2346  0.5700
 7636SOL    HW134544   1.690   1.724   8.212  0.2807  0.2788  1.4038
 7636SOL    HW234545   1.761   1.803   8.116  3.1930  1.5021  1.5403
 7637SOL     OW34546   1.816   3.330   5.120  0.0325  0.9104 -0.4541
 7637SOL    HW134547   1.790   3.422   5.121  0.0041  0.8852  0.8288
 7637SOL    HW234548   1.889   3.333   5.182 -0.7565 -1.8110  0.6488
 7638SOL     OW34549   2.796   3.448  11.629  0.1396  0.3477 -0.5654
 7638SOL    HW134550   2.797   3.433  11.724  0.6255  0.9863 -0.4722
 7638SOL    HW234551   2.814   3.540  11.611  0.3014  0.6871  1.3073
 7639SOL     OW34552   3.507   0.508   3.667 -0.4267 -0.9223  0.1917
 7639SOL    HW134553   3.444   0.509   3.595 -0.4084  1.2339  0.1826
 7639SOL    HW234554   3.568   0.579   3.646  0.1968 -1.9448 -1.4348
 7640SOL     OW34555   1.703   0.953   7.562  0.4135  0.6882 -0.2113
 7640SOL    HW134556   1.788   0.976   7.524  0.2497 -2.2665 -2.3294
 7640SOL    HW234557   1.641   0.999   7.506  0.2747  2.1529  1.1525
 7641SOL     OW34558   3.326   3.900   5.557 -0.4658 -0.3703 -0.1567
 7641SOL    HW134559   3.267   3.972   5.536 -0.6805 -0.3556  0.4627
 7641SOL    HW234560   3.410   3.921   5.517 -0.9150  1.0721 -0.3309
 7642SOL     OW34561   2.035   3.425  14.044  0.4421  0.4113 -0.0705
 7642SOL    HW134562   2.039   3.329  14.042  1.9235  0.4682  0.4608
 7642SOL    HW234563   1.945   3.436  14.013 -0.3789  0.0237  2.2204
 7643SOL     OW34564   3.847   4.419  11.186 -0.2136 -0.2354  0.3807
 7643SOL    HW134565   3.909   4.405  11.258 -2.3915  1.0597  2.4980
 7643SOL    HW234566   3.772   4.375  11.225 -0.6389  0.1685  0.0026
 7644SOL     OW34567   2.490   1.515  13.246 -0.4250 -0.4847  0.4893
 7644SOL    HW134568   2.550   1.557  13.307  1.8090 -1.6150 -0.9602
 7644SOL    HW234569   2.441   1.455  13.302  1.8210 -0.2654  2.6871
 7645SOL     OW34570   0.357   0.188   3.350 -0.3266  0.5370  0.2415
 7645SOL    HW134571   0.441   0.195   3.395  0.3897 -0.2183 -0.9673
 7645SOL    HW234572   0.353   0.092   3.353  1.6701  0.5302  2.1975
 7646SOL     OW34573   4.015   2.117  11.313 -0.1805 -0.4199 -0.8653
 7646SOL    HW134574   4.106   2.137  11.290 -0.2709 -0.8790 -1.6247
 7646SOL    HW234575   4.020   2.022  11.305 -0.5719 -0.3768 -1.7148
 7647SOL     OW34576   2.115   0.135   9.178  0.2766 -0.6438 -0.2419
 7647SOL    HW134577   2.048   0.066   9.178  0.6742 -1.0222 -1.5905
 7647SOL    HW234578   2.083   0.191   9.108  2.8321  0.2706 -0.6734
 7648SOL     OW34579   1.223   2.437   5.398 -0.2727  0.0078  0.2502
 7648SOL    HW134580   1.179   2.489   5.331  0.0173  1.9637  1.5802
 7648SOL    HW234581   1.203   2.348   5.369 -0.5617  0.8403 -2.1141
 7649SOL     OW34582   2.053   2.997  13.934 -0.0761 -0.1990  0.3944
 7649SOL    HW134583   2.015   2.915  13.967 -3.4487  0.1255 -2.7059
 7649SOL    HW234584   2.047   3.048  14.015 -0.4373  1.9487 -1.0123
 7650SOL     OW34585   0.839   4.557  16.898  0.6603  0.3156  0.2086
 7650SOL    HW134586   0.933   4.562  16.917  0.4423 -0.1734  1.4182
 7650SOL    HW234587   0.849   4.466  16.872 -0.1946  0.6067 -1.1113
 7651SOL     OW34588   1.191   3.554  17.362 -0.1522 -0.1896  0.4959
 7651SOL    HW134589   1.112   3.581  17.315  0.8579 -0.3116 -1.2593
 7651SOL    HW234590   1.248   3.524  17.292  0.7526  1.2223  0.6255
 7652SOL     OW34591   3.327   1.455   2.835  0.2593 -0.2907 -0.3867
 7652SOL    HW134592   3.326   1.547   2.858  1.9653 -0.6577  1.1283
 7652SOL    HW234593   3.391   1.423   2.899 -1.1027 -0.0457  1.0792
 7653SOL     OW34594   1.020   3.731   8.361  0.4933 -0.2116  0.6132
 7653SOL    HW134595   0.983   3.643   8.372 -0.6418  0.2058  0.0636
 7653SOL    HW234596   0.944   3.788   8.371 -0.4699 -1.1572 -1.3953
 7654SOL     OW34597   0.829   2.169   7.442 -0.5042 -0.1832 -0.1198
 7654SOL    HW134598   0.798   2.171   7.352 -2.1586 -1.8170  0.4131
 7654SOL    HW234599   0.769   2.236   7.475  1.2463  0.7727  1.1499
 7655SOL     OW34600   2.459   1.743   3.954  0.0197 -0.5008  0.0534
 7655SOL    HW134601   2.530   1.791   3.996 -0.7258  0.6629 -0.0048
 7655SOL    HW234602   2.445   1.784   3.868 -2.0075 -1.9344 -0.2755
 7656SOL     OW34603   1.407   4.401  13.843  0.4146 -0.1483 -0.3632
 7656SOL    HW134604   1.454   4.435  13.767 -1.6610 -0.4528 -1.7726
 7656SOL    HW234605   1.325   4.370  13.805 -0.0833  0.0486  0.5337
 7657SOL     OW34606   1.578   0.172   8.088  0.5798 -0.4134  0.2888
 7657SOL    HW134607   1.624   0.235   8.143 -1.0664  1.5728 -0.6127
 7657SOL    HW234608   1.644   0.156   8.021 -0.4013 -1.0221 -0.5264
 7658SOL     OW34609   2.653   4.697   5.232 -0.2134  0.0313  0.1677
 7658SOL    HW134610   2.631   0.042   5.189 -1.2212 -0.9840 -1.2710
 7658SOL    HW234611   2.581   4.685   5.295 -0.7871  0.7635 -0.3549
 7659SOL     OW34612   2.241   2.206  13.007 -0.3198 -0.4150 -0.0336
 7659SOL    HW134613   2.171   2.268  13.030  0.2090 -0.1606  0.8698
 7659SOL    HW234614   2.265   2.169  13.092 -1.3344 -2.2118 -0.5412
 7660SOL     OW34615   4.519   2.514   8.779  0.0523 -0.3003  0.7439
 7660SOL    HW134616   4.476   2.535   8.696  0.8503 -0.0719  0.3847
 7660SOL    HW234617   4.578   2.589   8.794  1.2820 -0.9931 -0.6175
 7661SOL     OW34618   0.248   2.142   5.758 -0.0440 -0.2452  0.1059
 7661SOL    HW134619   0.344   2.147   5.751  0.0642 -0.0947  1.6108
 7661SOL    HW234620   0.232   2.165   5.850  1.4463 -1.9316  0.8019
 7662SOL     OW34621   1.991   2.572   4.376  0.2865 -0.2177  0.3309
 7662SOL    HW134622   2.022   2.506   4.438  1.0095 -0.6384 -0.4860
 7662SOL    HW234623   2.016   2.653   4.421  1.5823 -0.6486  0.4053
 7663SOL     OW34624   3.745   2.335   3.094  0.6165  0.5164  0.4092
 7663SOL    HW134625   3.746   2.240   3.080  0.9511  0.0502  3.5917
 7663SOL    HW234626   3.777   2.359   3.007  0.1430  2.6917  0.8234
 7664SOL     OW34627   0.815   2.893  11.744 -0.2745 -0.0553  0.2318
 7664SOL    HW134628   0.825   2.813  11.691 -1.2566  0.2122 -0.3478
 7664SOL    HW234629   0.899   2.937  11.727 -0.5719 -0.5550 -2.6520
 7665SOL     OW34630   0.706   1.097   2.870 -0.4240  0.0300 -0.6435
 7665SOL    HW134631   0.619   1.063   2.892 -0.2995  0.3656  0.3851
 7665SOL    HW234632   0.752   1.031   2.921 -1.1522 -1.3189 -1.7553
 7666SOL     OW34633   0.943   1.756   2.675  0.1240  0.5963  0.1211
 7666SOL    HW134634   0.954   1.771   2.769  2.2344 -0.5219  0.0482
 7666SOL    HW234635   1.011   1.697   2.643 -1.3335 -0.3667 -1.2081
 7667SOL     OW34636   0.174   1.440   6.280 -0.4788  0.2338 -0.2227
 7667SOL    HW134637   0.098   1.383   6.272  0.6087 -1.0661 -1.2716
 7667SOL    HW234638   0.233   1.372   6.311  1.2317  0.8068 -2.2076
 7668SOL     OW34639   3.351   0.454   7.280 -0.0565  0.4057  0.1051
 7668SOL    HW134640   3.305   0.528   7.319 -0.0802  0.4013  0.0853
 7668SOL    HW234641   3.360   0.399   7.358  0.1288 -1.0194 -0.9358
 7669SOL     OW34642   2.382   3.939  15.521  0.1437  0.7688 -0.3459
 7669SOL    HW134643   2.399   3.998  15.595  1.7615 -1.7171  1.2428
 7669SOL    HW234644   2.404   3.857  15.563  0.7515  0.9638 -0.2812
 7670SOL     OW34645   0.372   1.353  17.132 -0.1871 -0.1059  0.4454
 7670SOL    HW134646   0.337   1.441  17.121 -2.2145 -1.0859 -1.0066
 7670SOL    HW234647   0.395   1.321  17.045  0.5621 -0.5074  0.7887
 7671SOL     OW34648   3.495   4.629   8.883  0.3344  0.6701 -0.0178
 7671SOL    HW134649   3.536   4.668   8.806  1.1419 -1.0406 -0.4454
 7671SOL    HW234650   3.519   4.536   8.876 -2.6808 -0.0955 -0.1294
 7672SOL     OW34651   3.588   2.527  15.591 -0.0578  0.1430  0.2108
 7672SOL    HW134652   3.570   2.592  15.659  2.0779 -0.7530  1.6296
 7672SOL    HW234653   3.663   2.564  15.545 -0.8804  1.8216  0.2302
 7673SOL     OW34654   0.994   0.247   1.397 -0.5800 -0.5449 -0.2377
 7673SOL    HW134655   0.974   0.299   1.475  0.9209 -0.8851  0.3543
 7673SOL    HW234656   1.018   0.162   1.433 -1.4262 -0.1587  1.2286
 7674SOL     OW34657   3.190   4.437   4.512  0.9457 -0.7564 -0.1545
 7674SOL    HW134658   3.104   4.425   4.472  1.0448  1.8140 -1.0843
 7674SOL    HW234659   3.250   4.407   4.444 -0.4980  1.1592 -2.2366
 7675SOL     OW34660   1.979   1.668   8.661 -0.1347  0.1093 -0.4815
 7675SOL    HW134661   1.928   1.667   8.742  1.0401 -1.2531  0.2274
 7675SOL    HW234662   1.962   1.577   8.636  0.4802  0.1477 -1.0154
 7676SOL     OW34663   3.592   1.849   2.138  0.5738  0.3874 -0.4724
 7676SOL    HW134664   3.567   1.784   2.203  1.2998  0.6315  0.0447
 7676SOL    HW234665   3.521   1.913   2.147  1.4286  1.3004 -0.2140
 7677SOL     OW34666   1.111   4.525  15.115  0.2674  0.5074  0.5146
 7677SOL    HW134667   1.191   4.509  15.065 -0.6516  0.9571 -1.0933
 7677SOL    HW234668   1.145   4.601  15.162  0.0866  0.1146  1.2844
 7678SOL     OW34669   3.694   0.323   2.157 -0.0625  0.1485 -0.0318
 7678SOL    HW134670   3.691   0.234   2.122  0.7904 -0.6300  1.8682
 7678SOL    HW234671   3.722   0.370   2.079  0.6007  1.1917  0.8336
 7679SOL     OW34672   1.131   4.487   7.134 -0.3501  0.3898  0.3060
 7679SOL    HW134673   1.055   4.430   7.142  0.1246 -0.4330 -1.0290
 7679SOL    HW234674   1.137   4.512   7.042  0.8244  0.3766  0.3792
 7680SOL     OW34675   3.599   1.861   7.701 -0.3175 -0.1009 -0.6751
 7680SOL    HW134676   3.591   1.806   7.779 -0.7941 -0.7197 -1.1553
 7680SOL    HW234677   3.619   1.948   7.734  0.0230 -1.1530  1.9051
 7681SOL     OW34678   0.648   4.605   4.136  0.5154  0.5651 -0.1656
 7681SOL    HW134679   0.716   4.672   4.132  0.2430  0.7730 -1.0711
 7681SOL    HW234680   0.702   4.526   4.148  0.3300  0.6259  1.0699
 7682SOL     OW34681   3.258   2.024   8.423  0.3715  0.3870 -0.0981
 7682SOL    HW134682   3.179   1.986   8.462  0.4316 -1.4443 -1.7969
 7682SOL    HW234683   3.225   2.111   8.399  2.0398  1.1410  0.3186
 7683SOL     OW34684   0.896   1.561   7.462  0.5300 -0.3331 -0.1764
 7683SOL    HW134685   0.893   1.561   7.366 -1.0231 -0.9668 -0.1287
 7683SOL    HW234686   0.977   1.612   7.466  0.8530 -1.1231  2.8018
 7684SOL     OW34687   4.527   3.425   0.356  0.3213  0.1953 -0.0858
 7684SOL    HW134688   4.615   3.433   0.319  0.5009 -1.8449 -0.1088
 7684SOL    HW234689   4.542   3.457   0.444  0.4393 -0.3921  0.1090
 7685SOL     OW34690   2.597   3.318   3.608 -0.6980  0.2305  0.1775
 7685SOL    HW134691   2.512   3.336   3.568 -0.3228 -0.5944 -0.9933
 7685SOL    HW234692   2.584   3.230   3.644  0.0683  0.1581  0.2766
 7686SOL     OW34693   4.272   2.147   5.521  0.7102  0.2442 -0.1493
 7686SOL    HW134694   4.308   2.085   5.585  0.6852  0.4442  0.0558
 7686SOL    HW234695   4.207   2.185   5.579 -0.2644 -1.3097 -0.2128
 7687SOL     OW34696   2.531   2.174   7.240  0.0322 -0.2580 -0.0267
 7687SOL    HW134697   2.550   2.118   7.165 -0.9235 -1.3271  0.5233
 7687SOL    HW234698   2.608   2.230   7.231 -0.3297  0.5498  1.8354
 7688SOL     OW34699   1.879   0.298  16.457  0.0684 -0.1010  0.1190
 7688SOL    HW134700   1.881   0.300  16.361  0.8958  1.2819  0.1588
 7688SOL    HW234701   1.912   0.211  16.479  1.5889  0.6479  0.8075
 7689SOL     OW34702   0.417   4.328  15.239 -0.3330  0.0353  0.3077
 7689SOL    HW134703   0.408   4.329  15.143  0.8376  0.1508  0.2071
 7689SOL    HW234704   0.497   4.379  15.248  1.1619 -1.9089 -1.8607
 7690SOL     OW34705   1.619   3.963   9.014 -0.1332 -0.1901 -0.2977
 7690SOL    HW134706   1.637   4.007   9.097  1.2952 -0.4935 -0.4396
 7690SOL    HW234707   1.571   3.888   9.050 -1.8117  1.7974  1.5949
 7691SOL     OW34708   4.406   2.290   8.934 -0.1776  0.2272 -0.2298
 7691SOL    HW134709   4.424   2.346   8.859  2.1041 -0.2216 -0.0216
 7691SOL    HW234710   4.473   2.319   8.996  1.8121 -0.4086 -2.0805
 7692SOL     OW34711   3.775   2.422  15.092 -0.1154 -0.1736  0.0902
 7692SOL    HW134712   3.721   2.347  15.071 -0.8349  0.2142  0.5534
 7692SOL    HW234713   3.726   2.495  15.055 -0.0783 -0.8193 -1.2113
 7693SOL     OW34714   0.114   3.373   3.385 -0.2580 -0.1547 -1.1440
 7693SOL    HW134715   0.019   3.378   3.396 -0.4257 -0.7397 -2.2992
 7693SOL    HW234716   0.133   3.292   3.433  1.3632  2.0275  1.8462
 7694SOL     OW34717   1.285   1.446   3.597  0.7647 -0.1343  0.2537
 7694SOL    HW134718   1.288   1.361   3.642 -0.3280  0.3223  1.1660
 7694SOL    HW234719   1.232   1.426   3.520  3.4695  0.4427 -1.7531
 7695SOL     OW34720   0.980   3.160   1.148 -0.1529  0.0036 -0.3440
 7695SOL    HW134721   0.956   3.075   1.110 -1.1940  0.5018 -0.7875
 7695SOL    HW234722   1.076   3.159   1.152 -0.1222 -0.2815 -1.1637
 7696SOL     OW34723   2.002   3.489   1.047  0.0653 -0.2151 -0.2408
 7696SOL    HW134724   1.934   3.482   0.980 -0.6430  1.0592  0.3587
 7696SOL    HW234725   2.013   3.583   1.059 -1.4217 -0.1685  0.7227
 7697SOL     OW34726   3.071   1.979   6.114  0.4738 -0.1858  0.1323
 7697SOL    HW134727   3.031   1.904   6.158  0.4606 -0.3806 -0.2080
 7697SOL    HW234728   3.081   2.029   6.195 -1.0462 -0.3260  0.3975
 7698SOL     OW34729   1.715   0.252   4.627 -0.2996  0.1546 -0.2319
 7698SOL    HW134730   1.666   0.172   4.646 -0.6650  0.5335  0.3981
 7698SOL    HW234731   1.749   0.238   4.539 -0.1168 -0.5160 -0.0580
 7699SOL     OW34732   1.941   2.229  13.547  0.2896  0.0919 -0.4889
 7699SOL    HW134733   1.853   2.256  13.522 -0.1613 -1.6831 -0.8353
 7699SOL    HW234734   1.999   2.303  13.531 -0.0249  0.6616  1.0325
 7700SOL     OW34735   1.634   0.838   4.582  0.0534  0.1716  0.3418
 7700SOL    HW134736   1.580   0.867   4.508 -3.3523 -0.4171  2.5827
 7700SOL    HW234737   1.676   0.918   4.616  0.3824  0.2443 -0.2499
 7701SOL     OW34738   1.354   1.100   5.681  0.1818  0.2414 -0.4035
 7701SOL    HW134739   1.318   1.135   5.762  1.4873 -0.7450  0.6139
 7701SOL    HW234740   1.437   1.066   5.715  1.0990  1.5075 -1.4218
 7702SOL     OW34741   3.134   3.314   3.344 -0.2029  0.0408 -0.8309
 7702SOL    HW134742   3.141   3.233   3.395 -3.1435  2.1025  2.9067
 7702SOL    HW234743   3.178   3.288   3.263 -0.1990 -0.4686 -0.6680
 7703SOL     OW34744   4.090   2.512   5.856 -0.9778  0.3110  0.0025
 7703SOL    HW134745   4.093   2.453   5.931  0.2235 -1.4989 -1.4693
 7703SOL    HW234746   4.101   2.599   5.894 -1.0660  0.1834  0.3121
 7704SOL     OW34747   0.342   3.104   2.059  0.4409 -0.5328  0.0430
 7704SOL    HW134748   0.381   3.184   2.024  0.7286 -1.5435 -1.9533
 7704SOL    HW234749   0.281   3.092   1.986  0.4393 -0.4700  0.0340
 7705SOL     OW34750   0.492   1.216  10.070  0.3448  0.0960  0.1592
 7705SOL    HW134751   0.408   1.175  10.050  0.2731 -0.4552  1.6040
 7705SOL    HW234752   0.539   1.197   9.989  1.8604 -0.5819  1.1831
 7706SOL     OW34753   1.933   3.052   3.555 -0.6757  0.5077  0.1759
 7706SOL    HW134754   1.852   3.016   3.593  0.5202  0.6512  2.8269
 7706SOL    HW234755   1.940   3.131   3.609 -0.8293 -1.1218  2.5823
 7707SOL     OW34756   1.253   3.142  14.316 -0.0723  0.5081 -0.1999
 7707SOL    HW134757   1.319   3.193  14.364 -0.2366 -0.7842  1.3773
 7707SOL    HW234758   1.187   3.126  14.383  0.0914 -3.5325 -1.0016
 7708SOL     OW34759   0.406   0.665  16.693 -0.8965  0.1854 -0.3461
 7708SOL    HW134760   0.461   0.737  16.663 -0.3152 -1.3084 -2.7926
 7708SOL    HW234761   0.466   0.591  16.698 -0.1769  0.7137 -1.2735
 7709SOL     OW34762   3.146   1.122   0.336  0.0889 -0.1466 -0.9109
 7709SOL    HW134763   3.152   1.090   0.426  3.0526 -1.6235 -1.6092
 7709SOL    HW234764   3.181   1.044   0.292  0.2708 -1.2961  1.3035
 7710SOL     OW34765   3.749   2.402   0.117  0.3606 -0.0288  0.7099
 7710SOL    HW134766   3.658   2.388   0.145  0.8213  0.5447  2.5416
 7710SOL    HW234767   3.796   2.356   0.187 -1.1575  0.2526  1.9247
 7711SOL     OW34768   0.161   2.406   6.253 -0.3031  0.4671  0.6443
 7711SOL    HW134769   0.233   2.344   6.256 -0.2013  0.5751  0.4498
 7711SOL    HW234770   0.099   2.342   6.287  0.3682 -0.7997 -0.5110
 7712SOL     OW34771   4.157   1.833  11.677 -0.1427  0.4793  0.0835
 7712SOL    HW134772   4.070   1.826  11.717  0.0729 -0.2368  0.4142
 7712SOL    HW234773   4.144   1.908  11.618  0.6020  0.2966 -0.3125
 7713SOL     OW34774   1.965   1.513   3.690 -0.4903 -0.1799  0.3538
 7713SOL    HW134775   1.994   1.453   3.621 -1.6992 -0.1785 -0.1438
 7713SOL    HW234776   1.920   1.578   3.636 -1.0649 -1.1636 -0.3316
 7714SOL     OW34777   4.024   1.741   8.357 -0.6670 -0.0467  0.0811
 7714SOL    HW134778   3.984   1.797   8.423 -0.5867 -0.1077  0.1826
 7714SOL    HW234779   3.984   1.658   8.381  1.6567 -1.4044 -0.6562
 7715SOL     OW34780   2.057   3.223   9.309  0.0302  0.0797  0.0490
 7715SOL    HW134781   2.067   3.305   9.357 -0.8719  0.3011 -0.1426
 7715SOL    HW234782   1.961   3.226   9.306  0.1183 -0.6980 -4.3640
 7716SOL     OW34783   4.435   3.173  17.681 -0.7314 -0.4321 -0.0264
 7716SOL    HW134784   4.482   3.188   0.015  0.4555 -1.6133 -0.4948
 7716SOL    HW234785   4.346   3.207  17.692 -0.0757  0.9933  0.7907
 7717SOL     OW34786   3.597   3.592   8.305 -0.3758  0.6427 -0.0969
 7717SOL    HW134787   3.652   3.632   8.238  0.7523  0.3413  0.6568
 7717SOL    HW234788   3.546   3.529   8.253 -0.1534  0.7332 -0.4277
 7718SOL     OW34789   4.636   3.692   4.368 -0.1404  0.4845  0.2704
 7718SOL    HW134790   4.614   3.747   4.293 -2.8032 -0.9405 -0.0024
 7718SOL    HW234791   4.597   3.613   4.331 -1.5307  1.1424  0.3375
 7719SOL     OW34792   4.154   1.812   6.719  0.7089  0.9490  1.0276
 7719SOL    HW134793   4.159   1.879   6.650  1.3811  0.5324  0.6740
 7719SOL    HW234794   4.201   1.742   6.674 -0.7696 -0.5811  1.8640
 7720SOL     OW34795   3.354   1.299   6.775 -0.6250  0.0497 -0.1054
 7720SOL    HW134796   3.356   1.339   6.862  0.3979  0.2021 -0.2064
 7720SOL    HW234797   3.260   1.282   6.768 -0.3213 -2.2087  1.1636
 7721SOL     OW34798   2.569   0.505   1.874  0.0401  0.3579  0.1403
 7721SOL    HW134799   2.517   0.431   1.906  0.5943 -0.6607 -1.3212
 7721SOL    HW234800   2.528   0.581   1.914 -1.5927  0.0366 -0.9122
 7722SOL     OW34801   1.912   2.735   5.167 -0.0610  0.2340  0.1518
 7722SOL    HW134802   1.977   2.667   5.147 -0.6062  0.1050 -1.1559
 7722SOL    HW234803   1.903   2.724   5.262 -1.6947  0.0860 -0.0164
 7723SOL     OW34804   0.285   0.996   0.876  0.0243  0.2645 -0.1724
 7723SOL    HW134805   0.233   1.070   0.844 -0.3498  0.2987  0.5105
 7723SOL    HW234806   0.225   0.958   0.941  0.6763  1.3318  1.0475
 7724SOL     OW34807   2.525   2.008  14.127 -0.5531  0.0333  0.1529
 7724SOL    HW134808   2.520   1.912  14.120 -1.5708  0.0175  1.1631
 7724SOL    HW234809   2.605   2.033  14.082 -1.4910  1.0087 -0.9531
 7725SOL     OW34810   4.263   0.023  10.315 -0.1649  0.0451  0.2780
 7725SOL    HW134811   4.262   0.108  10.359 -2.9198  1.1642 -1.9459
 7725SOL    HW234812   4.355   4.734  10.319 -0.2333 -0.0254  1.3500
 7726SOL     OW34813   3.771   2.222   4.278 -0.6076  0.1472  0.3733
 7726SOL    HW134814   3.764   2.306   4.233 -2.0549  0.1894  0.6569
 7726SOL    HW234815   3.680   2.190   4.280 -0.6446  0.1025 -2.3828
 7727SOL     OW34816   2.153   1.077   8.284  0.0823 -0.7393  0.0476
 7727SOL    HW134817   2.204   1.096   8.363  1.4911 -2.4974 -0.4225
 7727SOL    HW234818   2.164   0.982   8.282 -0.1108 -0.7574 -0.1768
 7728SOL     OW34819   4.499   2.171   4.504  0.4068 -0.3237 -0.1129
 7728SOL    HW134820   4.472   2.245   4.558  1.4682 -0.0367  0.0207
 7728SOL    HW234821   4.439   2.106   4.541 -0.6735  0.5931 -0.2611
 7729SOL     OW34822   1.350   4.392   4.527  0.1285 -0.3660  0.4194
 7729SOL    HW134823   1.265   4.429   4.503 -0.1131 -0.4506  1.1254
 7729SOL    HW234824   1.370   4.465   4.586  1.0092 -0.9285  0.8294
 7730SOL     OW34825   2.448   2.918   7.125  0.0148  0.0581 -0.1471
 7730SOL    HW134826   2.495   2.931   7.207  1.1016  0.7996 -0.8745
 7730SOL    HW234827   2.427   3.005   7.092  1.6814  0.1617 -0.9729
 7731SOL     OW34828   4.146   2.043  12.403 -0.2067 -0.2945  0.1965
 7731SOL    HW134829   4.153   2.076  12.314 -0.5018  0.8990  0.6053
 7731SOL    HW234830   4.219   2.091  12.443 -0.3575  0.4660 -0.4571
 7732SOL     OW34831   1.453   1.018   1.425  0.0102  0.0809  0.0730
 7732SOL    HW134832   1.515   1.044   1.493 -0.9179 -1.5309  1.5309
 7732SOL    HW234833   1.430   1.101   1.383  2.5281 -0.3068 -2.0719
 7733SOL     OW34834   3.912   1.915  14.265  0.3246 -0.0586 -0.3671
 7733SOL    HW134835   3.935   1.835  14.311 -0.3277 -0.7279 -1.1912
 7733SOL    HW234836   3.827   1.885  14.232  1.3452 -0.1609 -2.9509
 7734SOL     OW34837   4.100   3.307   9.125  0.2611 -0.1711 -0.4502
 7734SOL    HW134838   4.019   3.359   9.129 -0.0488 -0.6842 -0.0119
 7734SOL    HW234839   4.121   3.328   9.034  2.4053 -0.4013 -0.0127
 7735SOL     OW34840   0.877   3.069   1.593  0.1931 -0.6228  0.1841
 7735SOL    HW134841   0.892   2.996   1.653 -0.6349 -0.8461  0.1265
 7735SOL    HW234842   0.966   3.079   1.561 -0.6139 -1.8207 -2.4927
 7736SOL     OW34843   1.042   0.954   8.225  0.4979 -0.0850 -0.1950
 7736SOL    HW134844   1.022   1.047   8.216  2.3739  0.3857  0.5620
 7736SOL    HW234845   1.107   0.940   8.157  0.3444 -1.0124 -0.1489
 7737SOL     OW34846   2.600   4.545   3.280  0.4486  0.0578  0.1678
 7737SOL    HW134847   2.644   4.573   3.199  0.0190 -1.4553 -0.5874
 7737SOL    HW234848   2.553   4.623   3.308 -1.7937 -1.5527  0.8664
 7738SOL     OW34849   1.881   3.463   5.635 -0.4135  0.0223 -0.5006
 7738SOL    HW134850   1.871   3.556   5.612 -0.4466 -1.2232 -5.5371
 7738SOL    HW234851   1.944   3.471   5.707 -1.9840  1.0690  0.7403
 7739SOL     OW34852   2.265   0.841   8.311  0.2160 -0.0914 -0.3743
 7739SOL    HW134853   2.351   0.879   8.329 -0.4580  0.9229  0.7032
 7739SOL    HW234854   2.250   0.802   8.396  0.4535 -1.1913 -0.8392
 7740SOL     OW34855   3.513   4.040   3.481 -0.0074 -0.8895  0.7037
 7740SOL    HW134856   3.479   3.967   3.533  1.2594 -2.8018 -1.1450
 7740SOL    HW234857   3.438   4.092   3.450  0.1811  0.1097  1.9463
 7741SOL     OW34858   3.530   3.270   1.672 -0.2296  0.1117  0.2261
 7741SOL    HW134859   3.615   3.227   1.665 -1.3041 -2.1404  1.2718
 7741SOL    HW234860   3.498   3.246   1.759  2.2292  0.2999  1.1858
 7742SOL     OW34861   3.987   4.728   8.217  0.0682 -0.1757 -0.1837
 7742SOL    HW134862   3.939   4.715   8.136 -0.5065  1.0312 -0.0463
 7742SOL    HW234863   4.016   0.080   8.197  1.9063 -0.9042 -0.7553
 7743SOL     OW34864   3.503   0.518   2.922 -0.2537  0.1905 -0.7408
 7743SOL    HW134865   3.505   0.600   2.872  0.2972 -0.1428 -1.2540
 7743SOL    HW234866   3.572   0.547   2.982 -0.5547 -0.4684 -0.0794
 7744SOL     OW34867   1.976   1.109  16.430  0.0301  0.4103 -0.3459
 7744SOL    HW134868   2.009   1.106  16.520 -1.5383  0.3947  0.2203
 7744SOL    HW234869   1.887   1.133  16.453 -0.2545 -1.4167  0.4374
 7745SOL     OW34870   1.832   2.457   9.374 -0.1972 -0.0898  0.3650
 7745SOL    HW134871   1.923   2.442   9.398  0.1720 -0.0333 -1.0095
 7745SOL    HW234872   1.835   2.432   9.282  1.0570 -1.3688  0.7468
 7746SOL     OW34873   3.030   0.632   8.891 -0.2981 -0.1070  0.3023
 7746SOL    HW134874   3.009   0.565   8.956 -3.3933 -1.4762 -2.1011
 7746SOL    HW234875   3.087   0.590   8.827  1.1356  0.2211  1.3870
 7747SOL     OW34876   1.879   1.204   6.600  0.8602  0.1812  0.5619
 7747SOL    HW134877   1.940   1.165   6.663 -2.6458 -0.8961  3.2763
 7747SOL    HW234878   1.937   1.193   6.525  1.0263 -1.0990  0.8743
 7748SOL     OW34879   0.940   0.941  13.193  0.4231  0.4668  0.0499
 7748SOL    HW134880   1.010   1.006  13.196  1.4967 -0.5984 -1.6605
 7748SOL    HW234881   0.874   0.994  13.149  0.6950 -1.5359 -2.8201
 7749SOL     OW34882   3.773   2.122   4.946 -0.3708 -0.1225 -0.1359
 7749SOL    HW134883   3.697   2.065   4.957  0.0454 -0.3707  1.4552
 7749SOL    HW234884   3.840   2.058   4.969  1.3556  1.3091 -1.1151
 7750SOL     OW34885   4.691   1.589   1.384 -0.5176  0.3296  1.2528
 7750SOL    HW134886   4.642   1.623   1.459 -0.9014  0.1604  1.0798
 7750SOL    HW234887   4.614   1.559   1.336  0.2336  0.4418 -0.0395
 7751SOL     OW34888   4.086   2.332   1.940  0.2144 -0.0762  0.1012
 7751SOL    HW134889   4.004   2.324   1.891  0.9217  0.0327 -1.0892
 7751SOL    HW234890   4.048   2.355   2.025 -2.3355 -0.0760 -1.0263
 7752SOL     OW34891   1.892   0.127  10.781 -0.7146  0.2330  0.1311
 7752SOL    HW134892   1.907   0.048  10.833 -0.2046  1.1180  1.3394
 7752SOL    HW234893   1.874   0.186  10.854  0.1643 -1.2948  1.5800
 7753SOL     OW34894   2.121   2.763  14.159 -0.8097 -0.4750 -0.8064
 7753SOL    HW134895   2.039   2.801  14.129 -0.2629  2.1038  0.9532
 7753SOL    HW234896   2.104   2.670  14.176 -1.2123 -0.1135  0.7517
 7754SOL     OW34897   1.684   4.643  15.073  0.0433  0.5617  0.4207
 7754SOL    HW134898   1.718   4.564  15.031 -0.8320 -0.0881  0.9184
 7754SOL    HW234899   1.708   4.717  15.018  0.5381  0.3358  0.3320
 7755SOL     OW34900   0.443   0.555   1.518 -0.0803  0.1538  0.0965
 7755SOL    HW134901   0.500   0.617   1.472  1.0770 -0.8144  0.2163
 7755SOL    HW234902   0.485   0.470   1.502  0.9416  0.9746 -1.5506
 7756SOL     OW34903   1.375   3.173   8.773 -0.2736  0.3197  0.2622
 7756SOL    HW134904   1.377   3.119   8.694 -1.9119  0.5149  0.1039
 7756SOL    HW234905   1.376   3.099   8.834  0.0401 -0.7488 -1.0431
 7757SOL     OW34906   2.136   2.772   5.874  0.1031  0.4175  0.3802
 7757SOL    HW134907   2.113   2.769   5.967  3.2842 -0.0699  1.1435
 7757SOL    HW234908   2.229   2.795   5.874 -0.5650  3.1537  1.8620
 7758SOL     OW34909   3.398   2.601   8.749 -0.2105 -0.0764  0.6838
 7758SOL    HW134910   3.406   2.687   8.708  2.1915  0.1325  1.5610
 7758SOL    HW234911   3.424   2.625   8.838 -0.3046  0.8507  0.4713
 7759SOL     OW34912   2.698   0.937   3.795 -0.4033  0.1155  0.1848
 7759SOL    HW134913   2.673   0.851   3.829 -1.9614  0.2068 -0.7353
 7759SOL    HW234914   2.737   0.970   3.876  2.2755 -0.5796 -0.8443
 7760SOL     OW34915   4.535   2.621   3.235 -0.0670 -0.0456 -0.1735
 7760SOL    HW134916   4.615   2.600   3.187  0.2504  0.2220  0.2497
 7760SOL    HW234917   4.493   2.693   3.186  1.4675 -0.3243 -1.9006
 7761SOL     OW34918   4.024   2.167  15.568  0.7798 -0.1580 -0.0826
 7761SOL    HW134919   4.051   2.219  15.644 -4.0725  0.7753  0.9829
 7761SOL    HW234920   4.105   2.116  15.563  0.1730 -1.1072  0.0333
 7762SOL     OW34921   4.449   4.646   6.573 -0.1737  0.1416  0.2454
 7762SOL    HW134922   4.392   4.703   6.521  0.4029 -1.0180 -1.6410
 7762SOL    HW234923   4.405   4.563   6.558  1.2544 -0.5173 -0.3425
 7763SOL     OW34924   0.696   3.962   5.175  0.4546  0.4914 -0.0597
 7763SOL    HW134925   0.656   3.915   5.101 -1.8301  3.1784 -0.5278
 7763SOL    HW234926   0.700   3.894   5.242  0.9162  1.0267  0.4507
 7764SOL     OW34927   4.684   2.643   5.299  0.4009  0.5825 -0.2393
 7764SOL    HW134928   4.667   2.719   5.354 -0.4070  0.1476  0.1099
 7764SOL    HW234929   4.686   2.690   5.216 -1.9715 -0.3093 -0.7999
 7765SOL     OW34930   2.615   2.873   4.951 -0.0839 -0.0473 -0.0090
 7765SOL    HW134931   2.641   2.807   4.887  0.8648 -1.2860  1.6537
 7765SOL    HW234932   2.699   2.898   4.987  0.7539 -2.5104 -0.2394
 7766SOL     OW34933   2.030   0.841   9.482  0.4413 -0.3081  0.1128
 7766SOL    HW134934   2.025   0.892   9.562  0.4456 -2.8081  1.6909
 7766SOL    HW234935   2.074   0.907   9.427 -1.2090  0.1480 -0.6659
 7767SOL     OW34936   2.574   3.767   1.681 -0.3528 -0.0781 -0.0923
 7767SOL    HW134937   2.643   3.819   1.723  0.3912 -0.1374 -1.2546
 7767SOL    HW234938   2.616   3.727   1.605  1.2547  0.3665  0.5710
 7768SOL     OW34939   4.317   1.916   4.553 -0.3051  0.2062  0.0216
 7768SOL    HW134940   4.349   1.844   4.607  1.9213  1.2008  0.0463
 7768SOL    HW234941   4.314   1.873   4.468  0.6256 -2.5423  1.3775
 7769SOL     OW34942   1.518   2.710   5.239 -0.0033  0.0166 -0.3909
 7769SOL    HW134943   1.555   2.623   5.227 -2.7891 -1.1093 -0.8418
 7769SOL    HW234944   1.576   2.750   5.174  1.1295  0.0397  0.6355
 7770SOL     OW34945   1.844   3.918   4.828  0.2913  0.1389 -0.2074
 7770SOL    HW134946   1.751   3.926   4.807  0.2400 -1.7013 -0.7154
 7770SOL    HW234947   1.858   3.824   4.816  0.9347  0.1952  0.0956
 7771SOL     OW34948   0.523   1.049   7.991 -0.0463 -0.0456  0.8496
 7771SOL    HW134949   0.428   1.050   7.989 -0.0297  0.7432  0.3968
 7771SOL    HW234950   0.538   1.142   7.976  0.4957 -0.3065 -0.2430
 7772SOL     OW34951   4.527   1.469   2.363 -0.3125 -0.0084 -0.4294
 7772SOL    HW134952   4.448   1.421   2.339 -0.4480 -0.6653  1.3753
 7772SOL    HW234953   4.537   1.521   2.283  0.9773  0.5532  0.0910
 7773SOL     OW34954   3.234   3.319  11.178 -0.4841 -0.6327  0.8088
 7773SOL    HW134955   3.264   3.403  11.214 -1.2832 -0.6437  1.5145
 7773SOL    HW234956   3.267   3.262  11.248 -0.1715  0.8577  1.8778
 7774SOL     OW34957   0.164   3.815   5.930  0.4636 -0.1165  0.4932
 7774SOL    HW134958   0.097   3.789   5.993 -1.1731 -0.7711 -1.5308
 7774SOL    HW234959   0.247   3.786   5.969  0.2453  0.5164  1.4429
 7775SOL     OW34960   3.672   3.063   6.865 -0.2326  0.0228 -0.0964
 7775SOL    HW134961   3.593   3.117   6.870 -0.8889 -0.9216 -0.2758
 7775SOL    HW234962   3.640   2.991   6.811  1.2428  0.2741 -1.2793
 7776SOL     OW34963   3.761   3.123  17.061  0.1666 -0.0032 -0.4023
 7776SOL    HW134964   3.772   3.211  17.095  1.8967  0.7397 -2.8561
 7776SOL    HW234965   3.682   3.087  17.102  1.4124 -1.5630  0.6515
 7777SOL     OW34966   1.313   2.568  10.443 -0.2591 -0.5341  0.0607
 7777SOL    HW134967   1.408   2.575  10.455  0.0857 -2.2793 -1.5301
 7777SOL    HW234968   1.302   2.479  10.478  4.5688 -1.6534 -1.2163
 7778SOL     OW34969   2.618   3.880   0.396  0.3548 -0.2756 -0.2274
 7778SOL    HW134970   2.693   3.833   0.360  0.3647  0.0988 -0.6989
 7778SOL    HW234971   2.661   3.945   0.451  0.5924 -1.1315  0.5827
 7779SOL     OW34972   0.501   3.092   1.810  0.2959 -0.2046  0.5655
 7779SOL    HW134973   0.407   3.103   1.791  0.5977  2.4632  0.6953
 7779SOL    HW234974   0.545   3.138   1.739  0.3241 -0.9253  0.1117
 7780SOL     OW34975   2.751   3.589   7.139  0.0307 -0.2155  0.1522
 7780SOL    HW134976   2.737   3.495   7.132 -1.5621  0.0370  0.0561
 7780SOL    HW234977   2.671   3.620   7.181  0.2507  0.2463  0.2348
 7781SOL     OW34978   2.660   2.043   3.556  0.0918 -0.1376 -0.4922
 7781SOL    HW134979   2.651   1.961   3.508 -0.3326 -1.1027  1.2409
 7781SOL    HW234980   2.750   2.065   3.532 -0.2161  0.5334 -1.0395
 7782SOL     OW34981   0.349   1.322   4.127  0.0957  0.6003  0.0786
 7782SOL    HW134982   0.323   1.238   4.165 -1.5043  0.5761 -1.0970
 7782SOL    HW234983   0.270   1.375   4.120 -0.2548 -0.3130 -2.6638
 7783SOL     OW34984   0.972   1.349   7.649 -0.6801  0.4112  0.3569
 7783SOL    HW134985   0.950   1.408   7.577  0.4745  0.6340  0.1868
 7783SOL    HW234986   0.885   1.333   7.686 -0.3120 -1.6129  0.3846
 7784SOL     OW34987   2.033   4.447   7.062 -0.1740  0.3284  0.7032
 7784SOL    HW134988   2.025   4.402   7.147 -1.9052  1.3002  1.0621
 7784SOL    HW234989   1.948   4.492   7.066  0.3833  1.5549 -1.6985
 7785SOL     OW34990   0.399   1.874  14.798  0.5775 -0.1436 -0.1666
 7785SOL    HW134991   0.388   1.870  14.703 -1.4435 -0.1448  0.0520
 7785SOL    HW234992   0.313   1.842  14.827  0.1565 -0.5846 -1.8667
 7786SOL     OW34993   3.271   3.377   5.440  0.2750 -0.1929 -0.0667
 7786SOL    HW134994   3.177   3.390   5.446  0.3081 -0.0622  0.1822
 7786SOL    HW234995   3.258   3.336   5.355 -0.4407 -1.1491  0.4958
 7787SOL     OW34996   1.687   2.214   4.813  0.4327 -0.0980  0.0660
 7787SOL    HW134997   1.734   2.296   4.828  1.0511 -0.2774 -0.9087
 7787SOL    HW234998   1.601   2.257   4.807  1.3490  1.7401  0.0114
 7788SOL     OW34999   2.526   1.557   5.377 -0.3610  0.1580  0.1375
 7788SOL    HW135000   2.461   1.500   5.417 -0.1788  0.8984  1.5191
 7788SOL    HW235001   2.606   1.504   5.378 -0.2756  0.2613 -1.1528
 7789SOL     OW35002   4.285   2.585   5.028 -0.2783 -0.3377 -0.1773
 7789SOL    HW135003   4.219   2.552   4.967 -0.8820  0.7787 -0.1261
 7789SOL    HW235004   4.227   2.620   5.095  2.9530  1.5215  1.6796
 7790SOL     OW35005   2.400   0.422   2.076 -0.2614 -0.5653 -0.0640
 7790SOL    HW135006   2.431   0.471   2.152 -1.9400  2.1154 -1.0947
 7790SOL    HW235007   2.406   0.330   2.103  2.7297 -0.5611 -0.7081
 7791SOL     OW35008   2.928   1.331  17.689 -0.2813  0.4160  0.7217
 7791SOL    HW135009   2.865   1.319   0.012 -1.0282  1.4604  0.2345
 7791SOL    HW235010   2.882   1.405  17.648 -0.5340 -0.6834 -0.9936
 7792SOL     OW35011   0.250   0.744  16.229  0.2478 -0.0799 -0.5779
 7792SOL    HW135012   0.214   0.669  16.181 -0.6057 -0.4529  0.6201
 7792SOL    HW235013   0.335   0.714  16.262 -0.3480 -2.0160 -0.7855
 7793SOL     OW35014   1.306   4.068  11.107  0.1007 -0.4635  0.3577
 7793SOL    HW135015   1.256   3.987  11.089 -3.8096  1.3635  2.8769
 7793SOL    HW235016   1.360   4.071  11.029 -0.3102  2.0141  0.1953
 7794SOL     OW35017   3.444   3.465   7.714  0.3583  0.0431 -0.9832
 7794SOL    HW135018   3.396   3.544   7.738  0.5038  0.0387 -0.6714
 7794SOL    HW235019   3.391   3.396   7.755  3.0095 -2.2171 -1.3640
 7795SOL     OW35020   4.167   1.010   4.401  0.1602 -0.2267  0.2346
 7795SOL    HW135021   4.194   1.064   4.475  0.6306  0.1384 -0.2074
 7795SOL    HW235022   4.145   0.936   4.458 -0.7681  0.3202  0.5889
 7796SOL     OW35023   1.684   4.040   8.786  0.2175  0.2998  0.1420
 7796SOL    HW135024   1.639   3.970   8.738 -0.7858  0.9124  0.1894
 7796SOL    HW235025   1.669   4.014   8.877  0.7442 -0.5440 -0.0160
 7797SOL     OW35026   3.223   3.272  16.178  0.0506 -0.4707 -0.5034
 7797SOL    HW135027   3.221   3.246  16.270  2.1537 -0.5128 -0.4524
 7797SOL    HW235028   3.192   3.362  16.178 -1.7643 -1.1067  0.6234
 7798SOL     OW35029   4.605   3.719   2.989 -0.1452  0.3008  0.1139
 7798SOL    HW135030   4.565   3.659   2.926  2.1262 -0.3689 -0.7126
 7798SOL    HW235031   4.565   3.805   2.977 -0.9697 -0.2583 -1.0312
 7799SOL     OW35032   4.571   4.731   4.437 -0.1305  0.2926 -0.1312
 7799SOL    HW135033   4.506   4.686   4.383  0.4059 -0.8575  0.1692
 7799SOL    HW235034   4.580   0.079   4.395 -1.6966  0.7837  0.5210
 7800SOL     OW35035   0.559   0.603   1.976  0.6218  0.0193 -0.4859
 7800SOL    HW135036   0.648   0.627   1.950  0.8754  0.9688  1.2619
 7800SOL    HW235037   0.531   0.681   2.024  0.2596 -1.5714  1.8753
 7801SOL     OW35038   3.877   4.437   3.394  0.0787 -0.0320 -0.1683
 7801SOL    HW135039   3.919   4.521   3.413 -1.4865  0.5704  0.5943
 7801SOL    HW235040   3.789   4.459   3.424  0.5833 -1.0397  2.0607
 7802SOL     OW35041   3.239   0.776   1.889  0.3815 -0.3556 -0.4676
 7802SOL    HW135042   3.206   0.816   1.969  1.7949  1.2950 -0.7118
 7802SOL    HW235043   3.155   0.761   1.846  0.2842 -0.4975 -0.2293
 7803SOL     OW35044   3.709   0.982  15.665 -0.1785  0.5328  0.1333
 7803SOL    HW135045   3.779   0.925  15.633 -1.3017  0.2231 -1.7908
 7803SOL    HW235046   3.746   1.068  15.645  1.0899 -0.4847 -1.9174
 7804SOL     OW35047   3.948   2.806  14.233 -0.0420 -0.4231  0.2840
 7804SOL    HW135048   3.976   2.839  14.148 -0.5278  3.3758  1.5872
 7804SOL    HW235049   3.908   2.883  14.274 -0.8374 -0.0355 -1.2559
 7805SOL     OW35050   3.116   2.082  12.867  0.0405  0.2148  0.1758
 7805SOL    HW135051   3.045   2.087  12.803  0.1701  1.2737  0.1172
 7805SOL    HW235052   3.140   1.990  12.857 -0.4890  0.0896  0.0347
 7806SOL     OW35053   0.617   2.946   1.404 -0.0708 -0.3467  0.2222
 7806SOL    HW135054   0.691   2.936   1.463 -0.4703  0.5191  0.8737
 7806SOL    HW235055   0.649   3.030   1.371 -0.1935 -0.0520  0.8510
 7807SOL     OW35056   4.399   3.256   4.416  0.2950  0.4760 -0.3868
 7807SOL    HW135057   4.418   3.163   4.402  1.6576  0.6425  0.3777
 7807SOL    HW235058   4.476   3.284   4.464 -0.1072  1.0457 -0.0730
 7808SOL     OW35059   3.417   3.482   8.138  0.7351 -0.0268  0.1837
 7808SOL    HW135060   3.426   3.577   8.126  0.6319 -0.0604 -0.1517
 7808SOL    HW235061   3.329   3.476   8.101  1.2749 -0.3068 -1.0482
 7809SOL     OW35062   2.942   1.910   8.028 -0.1977  0.0895 -0.2663
 7809SOL    HW135063   2.893   1.829   8.013  1.3566 -0.8641 -0.2062
 7809SOL    HW235064   2.919   1.924   8.120  0.0058  2.5861 -0.5835
 7810SOL     OW35065   1.116   0.564   2.450 -0.1551  0.6769 -0.3862
 7810SOL    HW135066   1.145   0.484   2.405 -1.7020  0.5073 -1.0626
 7810SOL    HW235067   1.191   0.619   2.426  0.0967  0.9478  1.0420
 7811SOL     OW35068   4.532   0.858   2.536 -0.2275 -0.0212 -0.3241
 7811SOL    HW135069   4.550   0.767   2.561 -3.6414 -0.3055  1.0501
 7811SOL    HW235070   4.540   0.846   2.441 -1.1836  1.7189 -0.6201
 7812SOL     OW35071   0.649   4.583  10.006  0.3151  0.0662 -0.0096
 7812SOL    HW135072   0.688   4.545  10.085 -2.3523 -0.9553  0.7926
 7812SOL    HW235073   0.714   4.652   9.994 -1.2714  1.2370 -1.7837
 7813SOL     OW35074   2.620   0.244   5.317 -0.0617  0.3407 -0.3917
 7813SOL    HW135075   2.530   0.254   5.347  0.7360  0.7233  1.8946
 7813SOL    HW235076   2.649   0.325   5.358 -1.3041  0.5959 -0.0214
 7814SOL     OW35077   0.769   3.190   5.329 -0.7810 -0.5578 -0.3435
 7814SOL    HW135078   0.784   3.113   5.274 -0.9163 -1.9212  1.5211
 7814SOL    HW235079   0.767   3.263   5.268  2.3080  0.7576  1.0869
 7815SOL     OW35080   2.704   2.586   5.174  0.5733  0.0608 -0.5018
 7815SOL    HW135081   2.758   2.517   5.136  0.5947  0.6183 -1.4992
 7815SOL    HW235082   2.765   2.623   5.238  0.3306 -1.0400  0.3544
 7816SOL     OW35083   1.167   2.167   5.333 -0.5923  0.1103  0.1814
 7816SOL    HW135084   1.112   2.145   5.258  0.5041 -0.5700 -0.4134
 7816SOL    HW235085   1.220   2.091   5.357 -0.5354 -0.2362 -1.0601
 7817SOL     OW35086   2.167   3.792   3.428  0.1937  0.0917  0.5292
 7817SOL    HW135087   2.174   3.700   3.404 -4.6619 -0.1310 -0.0230
 7817SOL    HW235088   2.105   3.819   3.361 -0.3075  2.0009  1.7493
 7818SOL     OW35089   2.696   4.298   7.543 -0.8126 -0.2970  0.3301
 7818SOL    HW135090   2.788   4.305   7.566 -0.5449  0.6439 -1.0325
 7818SOL    HW235091   2.696   4.218   7.491 -2.6146 -0.6570  0.8833
 7819SOL     OW35092   3.286   1.475   8.130 -0.2092  0.3888  0.2704
 7819SOL    HW135093   3.347   1.409   8.096 -1.8274 -2.3502  2.6088
 7819SOL    HW235094   3.351   1.540   8.159  1.0452 -0.2056 -1.1939
 7820SOL     OW35095   2.751   0.712   4.599  0.1350 -0.0479 -0.3395
 7820SOL    HW135096   2.829   0.744   4.644  0.6677 -1.1274 -0.5104
 7820SOL    HW235097   2.772   0.624   4.571 -0.4184 -0.2297 -0.1814
 7821SOL     OW35098   4.273   3.403  11.743  0.3610  0.6029 -0.0685
 7821SOL    HW135099   4.211   3.408  11.670 -0.6091 -1.3203  0.6477
 7821SOL    HW235100   4.350   3.381  11.691 -0.0958 -0.7760 -0.1517
 7822SOL     OW35101   2.887   4.138   2.931  0.2472 -0.3540 -0.1002
 7822SOL    HW135102   2.875   4.105   3.021  0.3522 -0.1065  0.0031
 7822SOL    HW235103   2.884   4.232   2.948  0.0353 -0.4115  0.2056
 7823SOL     OW35104   0.976   1.079  10.280  0.0755 -0.3978  0.1687
 7823SOL    HW135105   0.900   1.126  10.243 -1.1608 -1.9701  0.7142
 7823SOL    HW235106   0.943   1.056  10.367 -1.2453 -0.1689 -0.2575
 7824SOL     OW35107   2.358   1.635   2.577 -0.1817  0.0932 -0.1583
 7824SOL    HW135108   2.389   1.719   2.544  1.2386 -1.0696 -1.7496
 7824SOL    HW235109   2.283   1.628   2.517  1.9835 -0.1177 -2.8386
 7825SOL     OW35110   2.044   2.389   4.566 -0.2857 -0.4313  0.6274
 7825SOL    HW135111   2.037   2.315   4.505 -1.0798  1.6493 -1.7989
 7825SOL    HW235112   2.048   2.337   4.646  0.5769 -1.6802 -0.2151
 7826SOL     OW35113   0.872   1.026  10.526  0.3667  0.5751  0.3485
 7826SOL    HW135114   0.888   0.996  10.615  1.2223  1.2922  0.4416
 7826SOL    HW235115   0.792   1.078  10.523  0.6947  1.2491  4.0291
 7827SOL     OW35116   4.613   4.609  15.522  0.1005  0.0805  0.4568
 7827SOL    HW135117   4.553   4.654  15.582 -0.0545 -0.0089  0.3691
 7827SOL    HW235118   4.556   4.539  15.491  0.0568  1.3143 -2.2291
 7828SOL     OW35119   0.977   2.846   4.830 -0.4108 -0.4268  0.4879
 7828SOL    HW135120   0.901   2.820   4.882 -1.1911  1.4312  0.2579
 7828SOL    HW235121   1.002   2.919   4.886  1.1388  0.3706 -1.2626
 7829SOL     OW35122   4.052   1.354   6.022  0.1125 -0.4963  0.4914
 7829SOL    HW135123   4.107   1.411   5.968 -1.9263  0.1391 -0.8825
 7829SOL    HW235124   4.120   1.293   6.051  0.0381  0.4778  2.7787
 7830SOL     OW35125   4.550   4.360   7.129  0.4664  0.1095 -0.2334
 7830SOL    HW135126   4.454   4.349   7.129  0.5717 -0.8174  0.7920
 7830SOL    HW235127   4.578   4.353   7.220 -2.1709 -1.7348  0.4557
 7831SOL     OW35128   1.575   3.153   2.241  0.5247  0.0704  0.1546
 7831SOL    HW135129   1.644   3.093   2.266  0.9097  0.1055 -0.8127
 7831SOL    HW235130   1.502   3.097   2.215  0.2411  0.5700 -0.1402
 7832SOL     OW35131   2.986   2.059   2.619  0.0683  0.4952  0.3029
 7832SOL    HW135132   2.954   2.119   2.552  0.0206 -1.4011 -1.3304
 7832SOL    HW235133   2.905   2.030   2.660 -0.1345  1.2075  0.4174
 7833SOL     OW35134   2.057   2.383   7.584 -0.2601  0.0468  0.2794
 7833SOL    HW135135   1.985   2.321   7.568  0.3962  0.0511 -2.6268
 7833SOL    HW235136   2.126   2.318   7.567 -0.5987 -0.3174  0.2913
 7834SOL     OW35137   3.646   0.592  16.140 -0.0798 -0.1841  0.1829
 7834SOL    HW135138   3.583   0.541  16.191 -1.6678  0.3207 -1.2713
 7834SOL    HW235139   3.594   0.621  16.065 -0.9253 -0.2781  0.7363
 7835SOL     OW35140   1.254   4.474   3.894  0.4676  0.5625  0.2084
 7835SOL    HW135141   1.339   4.514   3.910  0.9931 -0.8291  0.9306
 7835SOL    HW235142   1.197   4.513   3.960  0.2947  0.1312  0.3141
 7836SOL     OW35143   1.758   3.749  17.682  0.2453  0.1324  0.1718
 7836SOL    HW135144   1.665   3.734  17.696 -0.1868  1.5045 -1.2660
 7836SOL    HW235145   1.785   3.660  17.657 -0.9487 -0.1875  0.0506
 7837SOL     OW35146   0.438   0.977  10.658 -0.0427  0.2788  0.1791
 7837SOL    HW135147   0.408   0.986  10.568 -0.5766  0.1481  0.3433
 7837SOL    HW235148   0.356   0.976  10.708  0.5675 -1.7087  1.1226
 7838SOL     OW35149   3.368   1.052   2.572 -0.0918  0.1790 -0.2887
 7838SOL    HW135150   3.273   1.058   2.586  0.1736  0.2298  1.4314
 7838SOL    HW235151   3.374   0.979   2.511 -2.4905  2.0647 -2.8275
 7839SOL     OW35152   3.723   1.037  15.350 -0.2921  0.6657  0.1508
 7839SOL    HW135153   3.712   1.063  15.258  0.0525 -2.2039 -0.6776
 7839SOL    HW235154   3.634   1.046  15.384  0.5116  0.3065  2.3440
 7840SOL     OW35155   1.247   0.903   7.324  0.1528 -0.0166  0.1459
 7840SOL    HW135156   1.222   0.942   7.240 -0.4224  0.0686  0.3557
 7840SOL    HW235157   1.166   0.912   7.374  0.0262 -1.0019  0.1174
 7841SOL     OW35158   0.436   1.601  13.257 -0.0880 -0.1493 -0.5384
 7841SOL    HW135159   0.342   1.616  13.263 -0.1738 -0.9929  0.3183
 7841SOL    HW235160   0.459   1.692  13.242 -0.2050 -0.0735 -0.2525
 7842SOL     OW35161   0.117   0.063   1.514 -0.3417 -0.8188 -0.4209
 7842SOL    HW135162   0.151   0.009   1.586 -0.5648  0.8726  0.9639
 7842SOL    HW235163   0.081   4.728   1.462  0.9401  0.1176 -2.5966
 7843SOL     OW35164   1.372   2.513   7.264  0.0778  0.1065 -0.3161
 7843SOL    HW135165   1.321   2.441   7.227  0.0750  0.7981 -1.6642
 7843SOL    HW235166   1.386   2.480   7.352 -1.3836  1.8807  0.5850
 7844SOL     OW35167   1.930   1.243  16.166 -0.1656 -0.7686 -0.2307
 7844SOL    HW135168   1.926   1.200  16.252  0.0567  0.9605  0.6287
 7844SOL    HW235169   1.859   1.307  16.176 -0.2211 -0.8186 -0.3016
 7845SOL     OW35170   3.091   0.859   9.090 -0.5831  0.4652 -0.5567
 7845SOL    HW135171   3.037   0.788   9.126 -0.1977  1.1877  1.4515
 7845SOL    HW235172   3.059   0.868   9.001 -0.6418 -0.8525 -0.6705
 7846SOL     OW35173   4.015   4.599   9.900 -0.6299 -0.4445  0.3073
 7846SOL    HW135174   4.068   4.625   9.975  2.2059 -1.4894 -1.2945
 7846SOL    HW235175   3.930   4.639   9.913 -0.3156 -0.2657  1.8389
 7847SOL     OW35176   2.633   4.536  16.880 -0.7827  0.3222  0.0094
 7847SOL    HW135177   2.678   4.617  16.907 -1.8858  0.9485 -0.0368
 7847SOL    HW235178   2.634   4.498  16.968 -1.7920 -2.6358 -1.2678
 7848SOL     OW35179   1.091   1.305   7.887 -0.5407 -0.0104  0.3663
 7848SOL    HW135180   1.111   1.212   7.900 -3.0720 -0.7636 -1.0445
 7848SOL    HW235181   1.051   1.309   7.800  1.7419 -1.5623 -0.7607
 7849SOL     OW35182   0.002   1.779   3.171  0.1376  0.5175 -0.0000
 7849SOL    HW135183   4.695   1.695   3.163  1.8837 -0.5719  1.7978
 7849SOL    HW235184   4.665   1.826   3.210 -0.7195  0.0331 -1.0495
 7850SOL     OW35185   1.432   1.869   7.619  0.2994  0.3387 -0.1984
 7850SOL    HW135186   1.352   1.891   7.667  0.4314 -0.1619  0.2561
 7850SOL    HW235187   1.493   1.874   7.693  0.9095 -1.6538 -0.5480
 7851SOL     OW35188   1.634   3.153   7.544  0.2848 -0.0631  0.0510
 7851SOL    HW135189   1.613   3.182   7.455  2.4696 -0.4866 -0.6137
 7851SOL    HW235190   1.710   3.097   7.528 -0.7264 -1.5028  0.2904
 7852SOL     OW35191   3.555   3.288   0.130 -0.2123 -0.2614  0.4896
 7852SOL    HW135192   3.583   3.235   0.204  2.3987 -0.8322 -0.8947
 7852SOL    HW235193   3.631   3.282   0.071 -1.3739 -1.4207 -0.8702
 7853SOL     OW35194   1.080   3.885  10.123 -0.1461 -0.5911  0.2995
 7853SOL    HW135195   1.110   3.925  10.041  0.9483  0.9862  1.4711
 7853SOL    HW235196   0.991   3.922  10.121  0.1163  0.2080  3.4816
 7854SOL     OW35197   2.194   2.074   8.955  0.4045 -0.4885  0.2966
 7854SOL    HW135198   2.250   2.116   8.889  0.3300 -0.4095  0.2837
 7854SOL    HW235199   2.253   2.046   9.025  1.8900  0.5216 -0.5341
 7855SOL     OW35200   0.125   2.458  10.529  0.0852  0.5474 -0.1676
 7855SOL    HW135201   0.117   2.436  10.621 -2.4483 -1.0136 -0.7753
 7855SOL    HW235202   0.051   2.516  10.511  1.0358  1.7614 -0.1586
 7856SOL     OW35203   3.704   0.630   3.072 -0.0335 -0.1016  0.3221
 7856SOL    HW135204   3.652   0.702   3.110  1.2742  0.4728  1.0201
 7856SOL    HW235205   3.787   0.648   3.116  0.3922 -0.4132 -0.3733
 7857SOL     OW35206   1.449   2.412   4.562 -0.4676  0.3510  0.0102
 7857SOL    HW135207   1.462   2.338   4.502 -2.5439 -1.5869  1.9787
 7857SOL    HW235208   1.466   2.482   4.499  0.7915 -0.6705 -0.7826
 7858SOL     OW35209   4.277   2.991   2.703  0.4792 -0.3718  0.0296
 7858SOL    HW135210   4.366   3.003   2.669 -0.9751  1.0144 -3.3006
 7858SOL    HW235211   4.277   2.896   2.707 -2.1621 -0.3542  0.0565
 7859SOL     OW35212   3.385   1.109   3.296  0.5584  0.1103 -0.1325
 7859SOL    HW135213   3.362   1.018   3.314  1.2203  0.3052  1.6860
 7859SOL    HW235214   3.333   1.138   3.371  0.3968  1.0870 -0.6103
 7860SOL     OW35215   4.294   4.022   7.208  0.0132  0.4822  0.5807
 7860SOL    HW135216   4.214   4.074   7.210 -0.2333  0.1333 -0.2907
 7860SOL    HW235217   4.311   4.002   7.300  0.3106  0.0177  0.4259
 7861SOL     OW35218   3.115   2.465   3.088  0.4898  0.5903  0.3014
 7861SOL    HW135219   3.152   2.500   3.007 -0.4121 -1.6031 -1.0478
 7861SOL    HW235220   3.147   2.375   3.083 -2.2610 -0.2040 -2.9749
 7862SOL     OW35221   2.909   0.236   1.591 -0.4811  0.3897 -0.3058
 7862SOL    HW135222   2.919   0.193   1.677  1.4835 -1.2587 -1.3303
 7862SOL    HW235223   2.818   0.265   1.589  0.6888  4.0373  0.2020
 7863SOL     OW35224   3.313   1.058   1.281 -0.0398 -0.5742  0.6740
 7863SOL    HW135225   3.300   0.970   1.317  1.0188 -0.6690  0.8208
 7863SOL    HW235226   3.361   1.113   1.343 -0.8708  0.3940  0.4556
 7864SOL     OW35227   0.600   1.348   7.312  0.4121  0.4197 -0.4477
 7864SOL    HW135228   0.582   1.410   7.242  2.8205  1.6387  0.0005
 7864SOL    HW235229   0.602   1.401   7.391  2.8141 -0.1727 -0.1104
 7865SOL     OW35230   4.645   2.755   3.520  0.2450 -0.0391 -0.5677
 7865SOL    HW135231   4.649   2.665   3.551 -2.9721  0.1922  0.5108
 7865SOL    HW235232   4.557   2.783   3.545  0.1704 -0.4598 -0.3745
 7866SOL     OW35233   2.479   1.031   2.463  0.3612 -0.0464  0.0606
 7866SOL    HW135234   2.400   1.036   2.517 -0.9640  2.1103 -2.0840
 7866SOL    HW235235   2.492   1.125   2.451  2.2704 -0.5788 -1.9199
 7867SOL     OW35236   4.671   0.267   4.319  0.1861 -0.2828  0.1371
 7867SOL    HW135237   4.685   0.361   4.331 -2.0054 -0.0698  0.8949
 7867SOL    HW235238   4.701   0.256   4.229  0.4116  0.9843  0.0627
 7868SOL     OW35239   1.136   1.844  10.845  0.0066  0.5807  0.7919
 7868SOL    HW135240   1.213   1.900  10.852 -0.1216  0.8074  0.3599
 7868SOL    HW235241   1.171   1.756  10.862 -1.4129 -0.3311 -0.8948
 7869SOL     OW35242   2.664   3.175   0.896  0.3188 -0.8389 -0.2913
 7869SOL    HW135243   2.634   3.098   0.848  3.4553 -1.6261 -1.0149
 7869SOL    HW235244   2.581   3.223   0.898  1.7482  1.6619 -1.6476
 7870SOL     OW35245   1.283   1.940   4.969 -0.0722  0.1831  0.0311
 7870SOL    HW135246   1.252   2.029   4.986  0.8140  0.6165 -0.6269
 7870SOL    HW235247   1.232   1.898   5.038 -1.7701  1.6068 -0.3587
 7871SOL     OW35248   2.041   3.862  12.405  0.2017 -0.0541 -0.1987
 7871SOL    HW135249   1.964   3.876  12.349  0.6826  1.2876 -0.5220
 7871SOL    HW235250   2.081   3.948  12.391  0.6405 -0.2110  0.0967
 7872SOL     OW35251   3.627   3.767   3.011  0.0159 -0.0779  0.0543
 7872SOL    HW135252   3.617   3.773   2.916 -0.1301 -3.1341 -0.1210
 7872SOL    HW235253   3.688   3.837   3.035 -0.1546  0.2266 -0.3949
 7873SOL     OW35254   2.842   0.049   6.492  0.2536 -0.2730  0.0985
 7873SOL    HW135255   2.842   0.145   6.495  0.8415 -0.2366 -1.3452
 7873SOL    HW235256   2.919   0.020   6.541  0.3145  0.2666  0.3235
 7874SOL     OW35257   3.191   2.618   5.641  0.0071  0.2635 -0.2454
 7874SOL    HW135258   3.114   2.570   5.673  0.3974  0.6027  1.1625
 7874SOL    HW235259   3.224   2.637   5.728 -1.6349  2.0385 -0.0314
 7875SOL     OW35260   4.190   2.694   6.303  0.2260 -0.4716  0.0482
 7875SOL    HW135261   4.244   2.633   6.353 -0.7689 -1.8481 -0.5857
 7875SOL    HW235262   4.143   2.729   6.379  2.2133  0.6257  0.7781
 7876SOL     OW35263   3.874   0.943  13.386  0.4113 -0.4654  0.1092
 7876SOL    HW135264   3.795   0.996  13.396  0.5392  0.2726 -2.8588
 7876SOL    HW235265   3.876   0.936  13.290  0.6378 -0.2144  0.0952
 7877SOL     OW35266   2.270   1.955   2.706  0.0239  0.1134  0.3125
 7877SOL    HW135267   2.231   2.041   2.721 -0.2618 -0.0460  0.4870
 7877SOL    HW235268   2.193   1.898   2.707 -1.2347  1.8537  2.6816
 7878SOL     OW35269   0.890   0.929   1.683  0.1178 -0.3743 -0.3990
 7878SOL    HW135270   0.969   0.876   1.681 -0.4934 -1.2513 -1.1816
 7878SOL    HW235271   0.935   1.011   1.704 -1.4481  0.0646  1.2240
 7879SOL     OW35272   2.276   3.592   7.412 -0.5802 -0.5315 -0.1823
 7879SOL    HW135273   2.282   3.644   7.492 -1.0460 -0.7220 -0.0198
 7879SOL    HW235274   2.183   3.571   7.423  0.2244 -3.4167  0.9657
 7880SOL     OW35275   1.708   1.423   1.992  0.8076 -0.4217  0.0087
 7880SOL    HW135276   1.638   1.416   2.056  1.7293  1.6426  1.2592
 7880SOL    HW235277   1.689   1.335   1.961 -2.0576 -0.1676  1.0896
 7881SOL     OW35278   0.288   1.483  10.957  0.4226  0.0700 -0.4410
 7881SOL    HW135279   0.245   1.568  10.964 -1.3197 -0.7911 -0.5733
 7881SOL    HW235280   0.344   1.468  11.034 -2.8264 -2.0976  1.5327
 7882SOL     OW35281   4.722   0.364  12.314  0.0130 -0.2056 -0.0567
 7882SOL    HW135282   4.711   0.336  12.223 -0.8232  0.7407 -0.2434
 7882SOL    HW235283   0.080   0.367  12.319  0.2057 -0.9265 -3.3891
 7883SOL     OW35284   0.586   2.676  13.509 -0.3027 -0.3340 -0.3535
 7883SOL    HW135285   0.600   2.759  13.464  0.9015  0.9157  2.3092
 7883SOL    HW235286   0.607   2.615  13.439 -0.3557 -0.9942  0.2087
 7884SOL     OW35287   1.684   4.719   5.343 -0.8280 -0.0505 -0.1606
 7884SOL    HW135288   1.742   0.044   5.389 -0.2939 -1.7865  1.5134
 7884SOL    HW235289   1.637   4.678   5.415 -0.8661  1.5475  0.7443
 7885SOL     OW35290   1.177   4.193  15.354 -0.8984 -0.2365  0.1239
 7885SOL    HW135291   1.253   4.139  15.375 -0.6363  0.2962  0.5563
 7885SOL    HW235292   1.108   4.166  15.415 -1.5238  0.9536 -0.0474
 7886SOL     OW35293   4.573   3.101   7.403 -0.4074 -0.3685 -0.0845
 7886SOL    HW135294   4.554   3.151   7.324 -0.2274  0.2213  0.2452
 7886SOL    HW235295   4.667   3.089   7.390 -0.2871  0.3466  0.1139
 7887SOL     OW35296   2.006   1.492   4.414 -0.2561 -0.3974 -0.4758
 7887SOL    HW135297   1.936   1.439   4.453  1.8915 -1.8023  1.4994
 7887SOL    HW235298   2.079   1.447   4.456 -0.0627  1.5771  1.3225
 7888SOL     OW35299   4.519   4.629   8.842 -0.2225 -0.7833  0.4385
 7888SOL    HW135300   4.513   4.635   8.938  2.5559 -0.1815  0.5712
 7888SOL    HW235301   4.472   4.545   8.838  2.8703 -2.4443 -0.4283
 7889SOL     OW35302   0.532   2.250   6.067  0.0677  0.3380  0.1327
 7889SOL    HW135303   0.580   2.168   6.080  2.9920  2.3935  2.3489
 7889SOL    HW235304   0.593   2.322   6.052  1.6198 -0.8879  0.5250
 7890SOL     OW35305   0.840   2.225   6.380 -0.1944 -0.0750 -0.0625
 7890SOL    HW135306   0.772   2.292   6.390  1.1784  1.1239  1.2934
 7890SOL    HW235307   0.824   2.202   6.288  0.9505  0.8464 -0.5071
 7891SOL     OW35308   3.888   1.160  14.870 -0.2651  0.4442  0.2718
 7891SOL    HW135309   3.920   1.217  14.799 -1.6962  0.6438 -0.2166
 7891SOL    HW235310   3.880   1.077  14.824  0.4567  0.8409 -0.5908
 7892SOL     OW35311   1.211   2.817   5.022  0.1279 -0.2881 -0.2423
 7892SOL    HW135312   1.290   2.855   4.983 -0.7856  1.7727 -0.0526
 7892SOL    HW235313   1.164   2.899   5.034  1.0884  0.3378 -0.7887
 7893SOL     OW35314   4.325   2.416   3.653 -0.2208  0.2233 -0.0923
 7893SOL    HW135315   4.334   2.386   3.563  0.0113  2.8486 -0.9518
 7893SOL    HW235316   4.251   2.475   3.642 -1.6846 -1.5488  0.3258
 7894SOL     OW35317   4.301   2.677   4.651  0.5918 -0.2796 -1.0462
 7894SOL    HW135318   4.334   2.746   4.593 -0.0872 -1.0903 -2.3921
 7894SOL    HW235319   4.250   2.730   4.712  1.3598  0.5932 -1.1701
 7895SOL     OW35320   2.267   2.722  13.394 -0.2474  0.0524 -0.2131
 7895SOL    HW135321   2.231   2.650  13.342 -0.1568  0.6100 -1.0599
 7895SOL    HW235322   2.344   2.683  13.435 -1.3553  0.5480  2.3479
 7896SOL     OW35323   3.121   0.494   5.667 -0.2253 -0.1534  0.4271
 7896SOL    HW135324   3.185   0.544   5.615 -0.6516 -0.0363  0.0107
 7896SOL    HW235325   3.067   0.466   5.593  2.2266 -1.8656 -0.7225
 7897SOL     OW35326   2.508   0.108   4.541  0.4319 -0.1386 -0.3287
 7897SOL    HW135327   2.578   0.161   4.504 -0.4013  0.6013 -0.8511
 7897SOL    HW235328   2.551   0.049   4.603 -0.4025  0.0975  0.4711
 7898SOL     OW35329   3.660   3.523   6.231 -0.0825 -0.0336  0.1899
 7898SOL    HW135330   3.749   3.491   6.248 -1.5358 -2.9736  2.3492
 7898SOL    HW235331   3.606   3.449   6.257 -1.3076  0.8432  0.1285
 7899SOL     OW35332   4.607   4.162   1.865  0.3517  0.0731  0.4141
 7899SOL    HW135333   4.531   4.116   1.901  0.8976 -0.2291  1.1919
 7899SOL    HW235334   4.582   4.249   1.834  0.9029 -0.1200 -0.5479
 7900SOL     OW35335   1.729   0.254  10.598  0.1172  0.0755  0.5408
 7900SOL    HW135336   1.767   0.183  10.649  0.7397 -0.5824 -0.8251
 7900SOL    HW235337   1.671   0.297  10.661 -0.5933 -2.0313  1.3589
 7901SOL     OW35338   3.097   1.812   5.601  0.1663  0.2528  0.1237
 7901SOL    HW135339   3.177   1.865   5.595 -0.9255  2.2604  3.4259
 7901SOL    HW235340   3.045   1.863   5.663  1.5232  0.8444  0.7668
 7902SOL     OW35341   2.011   2.945   6.436  0.2919  0.3037  0.5060
 7902SOL    HW135342   1.977   2.872   6.487 -0.9338  1.1210  0.8658
 7902SOL    HW235343   1.990   2.923   6.345 -0.2690 -2.3270  1.2792
 7903SOL     OW35344   4.399   1.480   3.197  0.8038  0.2277  0.2489
 7903SOL    HW135345   4.439   1.513   3.277 -2.0743 -0.8627  2.1315
 7903SOL    HW235346   4.449   1.510   3.121 -0.9614 -0.1881 -1.0778
 7904SOL     OW35347   3.137   2.168   5.475 -0.1273 -0.6648 -0.6881
 7904SOL    HW135348   3.183   2.095   5.517  1.2457  0.2798 -0.5578
 7904SOL    HW235349   3.174   2.245   5.518 -1.6605 -0.8784  1.0232
 7905SOL     OW35350   2.307   1.504   5.806  0.1377 -0.4285 -0.5027
 7905SOL    HW135351   2.239   1.440   5.824  2.3743 -2.4720  0.7270
 7905SOL    HW235352   2.267   1.587   5.831 -0.6561 -0.8012 -0.5566
 7906SOL     OW35353   0.472   1.181   1.609  0.4715  0.0543 -0.4350
 7906SOL    HW135354   0.557   1.168   1.652  0.4356  3.0509  0.5198
 7906SOL    HW235355   0.429   1.095   1.615 -0.5730  0.4841 -1.8374
 7907SOL     OW35356   3.587   1.779   7.957  0.3834  0.6936 -0.0966
 7907SOL    HW135357   3.553   1.867   7.973 -1.6799 -0.3147  1.0860
 7907SOL    HW235358   3.508   1.725   7.953 -0.3087  1.6093  1.3658
 7908SOL     OW35359   1.102   2.146   5.048 -0.7410 -0.7763 -0.0662
 7908SOL    HW135360   1.027   2.140   4.989 -0.1846  2.5669 -1.0585
 7908SOL    HW235361   1.143   2.232   5.040  0.4452 -1.5162 -1.9607
 7909SOL     OW35362   2.752   4.131   5.913 -0.3155  0.2696 -0.3725
 7909SOL    HW135363   2.833   4.082   5.909 -1.2141 -1.2130 -0.2564
 7909SOL    HW235364   2.692   4.061   5.938  0.7752 -1.1942 -1.9307
 7910SOL     OW35365   2.467   2.268   5.161  0.4211  0.1691  0.1877
 7910SOL    HW135366   2.531   2.238   5.226  0.2146  0.3073  0.4576
 7910SOL    HW235367   2.439   2.357   5.185  0.7369  1.1008 -2.8685
 7911SOL     OW35368   1.570   2.980   1.332  0.1526 -0.4220  0.0179
 7911SOL    HW135369   1.484   2.941   1.346  0.1658 -0.1498  0.9264
 7911SOL    HW235370   1.564   3.002   1.239  0.8599 -0.3443 -0.0117
 7912SOL     OW35371   2.008   1.919   8.592  0.0679 -0.3769 -0.6114
 7912SOL    HW135372   2.026   1.831   8.627 -0.0190 -1.2518 -2.7652
 7912SOL    HW235373   1.913   1.910   8.598  0.2631 -2.9556 -1.1175
 7913SOL     OW35374   2.054   2.340   2.266 -0.3862 -0.6771  0.3806
 7913SOL    HW135375   1.958   2.346   2.258 -0.4540 -1.0525  0.9276
 7913SOL    HW235376   2.064   2.311   2.357 -0.7049 -0.3337  0.5269
 7914SOL     OW35377   0.912   4.272   1.855 -0.0511  0.2761 -0.0535
 7914SOL    HW135378   0.970   4.321   1.797  1.3258  0.2973  1.3284
 7914SOL    HW235379   0.935   4.327   1.930 -1.1760 -1.4381  1.5404
 7915SOL     OW35380   4.166   2.530  15.724 -0.6165  0.3061  0.4902
 7915SOL    HW135381   4.214   2.487  15.794  0.0095 -1.9585 -1.3300
 7915SOL    HW235382   4.220   2.520  15.646 -1.1734 -0.4455  0.1978
 7916SOL     OW35383   2.147   2.803   1.340 -0.3573  0.4212 -0.1981
 7916SOL    HW135384   2.066   2.854   1.328 -1.5471 -1.6038 -0.8081
 7916SOL    HW235385   2.112   2.744   1.407 -2.4981  1.7947 -0.1144
 7917SOL     OW35386   4.494   0.052   6.082  0.0154  0.6142 -0.2493
 7917SOL    HW135387   4.527   0.025   5.996 -1.6800 -0.4306 -0.5712
 7917SOL    HW235388   4.566   0.076   6.139 -1.0519  0.2258  1.2623
 7918SOL     OW35389   2.125   3.033   5.109 -0.5606 -0.1789  0.3364
 7918SOL    HW135390   2.128   2.986   5.192 -5.6074 -0.0345  0.6165
 7918SOL    HW235391   2.157   2.976   5.038 -0.1057 -0.6762  0.9389
 7919SOL     OW35392   1.090   3.147   4.172  0.1167 -0.0699 -0.0592
 7919SOL    HW135393   1.067   3.090   4.099  1.6719 -1.3554  0.4374
 7919SOL    HW235394   1.171   3.105   4.203 -0.2761 -0.1875  0.8043
 7920SOL     OW35395   4.318   2.298   2.825 -0.0781 -0.1913 -0.2638
 7920SOL    HW135396   4.258   2.225   2.837 -0.8144  0.9645  3.1202
 7920SOL    HW235397   4.356   2.286   2.912 -1.1093  1.5093  0.4135
 7921SOL     OW35398   0.160   0.656   6.056 -0.2693  0.5408  0.3841
 7921SOL    HW135399   0.160   0.687   5.966 -0.9033 -2.5840 -0.7066
 7921SOL    HW235400   0.069   0.630   6.069  0.6353 -2.1682  1.4255
 7922SOL     OW35401   4.462   4.550   9.121  0.0224  0.5058 -0.1114
 7922SOL    HW135402   4.371   4.522   9.125  0.1255 -0.0550 -1.7486
 7922SOL    HW235403   4.474   4.609   9.195 -0.6190 -0.5133  0.8044
 7923SOL     OW35404   4.550   3.439   5.713 -0.1271  0.5248  0.2690
 7923SOL    HW135405   4.562   3.345   5.703 -3.0853  0.1689  0.0891
 7923SOL    HW235406   4.540   3.468   5.622  1.2382  2.8167  0.8343
 7924SOL     OW35407   4.454   4.256   5.539  0.6669  0.0185 -0.1254
 7924SOL    HW135408   4.528   4.196   5.535  0.9659  0.3200  0.8538
 7924SOL    HW235409   4.445   4.263   5.634  1.0676  0.9966 -0.1628
 7925SOL     OW35410   4.228   3.737  11.846 -0.0361 -0.4167 -0.3272
 7925SOL    HW135411   4.139   3.752  11.878  1.2010  1.5413  2.1778
 7925SOL    HW235412   4.218   3.734  11.751  0.8001 -0.4177 -0.4095
 7926SOL     OW35413   1.041   2.318   2.316  0.2845 -0.1408 -0.1618
 7926SOL    HW135414   1.131   2.295   2.293  0.2688 -1.5260  1.1323
 7926SOL    HW235415   1.040   2.412   2.302  0.5129  0.1920  2.0444
 7927SOL     OW35416   4.160   4.486  11.572  0.5361  0.3253  0.1348
 7927SOL    HW135417   4.235   4.483  11.511  0.0840 -1.2188 -0.3453
 7927SOL    HW235418   4.198   4.459  11.655 -1.0114 -1.1442  0.3467
 7928SOL     OW35419   0.410   4.556   2.557  0.2922 -0.0299  0.0216
 7928SOL    HW135420   0.422   4.461   2.552 -0.7990 -0.2180  0.9079
 7928SOL    HW235421   0.375   4.582   2.472  1.7006  0.4045 -0.4274
 7929SOL     OW35422   3.857   4.593   8.021 -0.1631  0.2683  0.4027
 7929SOL    HW135423   3.831   4.546   8.100  0.1720  2.0557  1.5689
 7929SOL    HW235424   3.835   4.522   7.961  0.3853 -1.1715  1.9116
 7930SOL     OW35425   0.444   4.429   7.503  0.1782 -0.9078 -0.0457
 7930SOL    HW135426   0.486   4.425   7.589  0.6857 -1.0935 -0.3058
 7930SOL    HW235427   0.436   4.524   7.488  1.9600 -0.5870  0.9772
 7931SOL     OW35428   2.060   0.508  16.508  0.0620 -0.3949  0.0383
 7931SOL    HW135429   2.015   0.435  16.551  3.1638 -1.6313  1.2222
 7931SOL    HW235430   2.024   0.509  16.420  0.5790  3.2688 -0.1377
 7932SOL     OW35431   1.874   3.863   6.378 -0.0436 -0.2786 -0.0690
 7932SOL    HW135432   1.946   3.844   6.317  1.0414 -0.4924  1.2713
 7932SOL    HW235433   1.931   3.877   6.454  0.4487 -0.3596 -0.4157
 7933SOL     OW35434   0.317   2.829   7.333  0.1477 -0.1013 -0.6742
 7933SOL    HW135435   0.354   2.845   7.420  2.0336 -0.6323 -1.3834
 7933SOL    HW235436   0.396   2.797   7.288  1.2552  2.9347 -0.9073
 7934SOL     OW35437   0.754   1.764   5.863 -0.3647 -0.4069  0.0774
 7934SOL    HW135438   0.749   1.729   5.952 -0.3912  3.1670  1.4687
 7934SOL    HW235439   0.778   1.688   5.810 -1.1618  0.1060 -1.0039
 7935SOL     OW35440   1.818   2.366   8.229  0.2895 -0.3929 -0.1697
 7935SOL    HW135441   1.766   2.310   8.287 -0.4519  0.8011  0.3206
 7935SOL    HW235442   1.896   2.375   8.283  0.6306 -0.3084 -0.6733
 7936SOL     OW35443   0.723   3.411   7.260 -0.1652 -0.7800  0.4725
 7936SOL    HW135444   0.717   3.390   7.354 -0.4222  1.4896  0.9584
 7936SOL    HW235445   0.816   3.433   7.258 -0.2923 -0.4803 -1.5552
 7937SOL     OW35446   1.497   0.353  16.361 -0.4492  0.2850  0.5229
 7937SOL    HW135447   1.531   0.434  16.397 -0.8670  0.4831  0.4660
 7937SOL    HW235448   1.516   0.277  16.415 -3.6317 -0.2432  0.9224
 7938SOL     OW35449   1.270   2.515   2.150  0.3737 -0.3708 -1.1384
 7938SOL    HW135450   1.193   2.527   2.206  1.8048  0.8900  0.5797
 7938SOL    HW235451   1.308   2.442   2.200 -0.3098  0.6818  0.8908
 7939SOL     OW35452   3.183   1.293   3.816 -0.4774 -0.0987  0.1656
 7939SOL    HW135453   3.102   1.251   3.785 -1.1311 -1.5327  3.7708
 7939SOL    HW235454   3.214   1.235   3.885 -1.1635 -2.1324 -1.2527
 7940SOL     OW35455   2.566   3.709   4.986 -0.4338  0.0194  0.2238
 7940SOL    HW135456   2.523   3.674   4.908 -5.0399 -1.2471  3.3781
 7940SOL    HW235457   2.577   3.800   4.960  0.3454 -0.0258  0.3794
 7941SOL     OW35458   3.874   3.355   1.845  0.1926  0.0672 -0.1275
 7941SOL    HW135459   3.929   3.345   1.767 -0.0094 -0.0269 -0.2578
 7941SOL    HW235460   3.825   3.434   1.824  0.1633  0.1131  0.1135
 7942SOL     OW35461   0.996   3.808   6.325  0.1161  0.2581  0.0297
 7942SOL    HW135462   1.084   3.809   6.288  0.1024 -0.2753 -0.0145
 7942SOL    HW235463   0.987   3.721   6.365  1.2897 -0.7684 -1.9789
 7943SOL     OW35464   4.048   4.482   4.764 -0.5182 -0.3210 -0.1008
 7943SOL    HW135465   4.068   4.573   4.784  0.1718 -0.3779 -0.5154
 7943SOL    HW235466   4.129   4.450   4.723  1.3685  0.3528  3.1221
 7944SOL     OW35467   1.833   0.142   2.274 -0.0156 -0.2922 -0.3535
 7944SOL    HW135468   1.859   0.176   2.359 -0.0044 -1.3065  0.0452
 7944SOL    HW235469   1.855   0.052   2.298 -1.8372 -0.3532  1.1173
 7945SOL     OW35470   3.776   1.094   0.816  0.2201  0.2031  0.0711
 7945SOL    HW135471   3.800   1.070   0.727  0.7777 -4.1764  1.4232
 7945SOL    HW235472   3.852   1.057   0.862  1.3066  0.5988 -1.4096
 7946SOL     OW35473   2.515   2.023  17.265 -0.8481 -0.3441 -0.3899
 7946SOL    HW135474   2.447   2.001  17.201 -1.9701  1.5258  0.1574
 7946SOL    HW235475   2.517   1.945  17.319 -0.3321 -0.1834 -0.1801
 7947SOL     OW35476   3.779   2.507   0.976 -0.1029 -0.2174  0.0307
 7947SOL    HW135477   3.830   2.587   0.969 -0.2522 -0.1439 -0.2153
 7947SOL    HW235478   3.818   2.452   1.044 -1.5668 -3.9321 -2.1100
 7948SOL     OW35479   0.214   3.079   1.809  0.0395 -0.6813 -0.4485
 7948SOL    HW135480   0.228   2.991   1.775  3.0608 -1.1241  1.9904
 7948SOL    HW235481   0.185   3.129   1.733 -0.4426  0.7691  0.6794
 7949SOL     OW35482   4.155   1.408  12.830  0.2928  0.6673 -0.3316
 7949SOL    HW135483   4.197   1.389  12.746  0.1294 -0.3197 -0.1860
 7949SOL    HW235484   4.192   1.341  12.888 -2.9798 -1.8734 -1.1990
 7950SOL     OW35485   3.943   3.072   5.423 -0.9322  0.6484 -1.1056
 7950SOL    HW135486   3.889   3.125   5.481 -3.7677 -0.8454 -2.3807
 7950SOL    HW235487   4.030   3.088   5.459 -0.2983 -1.3610 -1.7272
 7951SOL     OW35488   3.513   4.421   3.349  0.0309  0.2086 -0.0533
 7951SOL    HW135489   3.464   4.345   3.382 -1.0349  1.4006  1.1175
 7951SOL    HW235490   3.548   4.459   3.430 -0.2841  0.6495 -0.1269
 7952SOL     OW35491   1.229   0.589   3.066  0.7172 -0.0279 -1.0710
 7952SOL    HW135492   1.134   0.578   3.072  0.6073  0.9156 -1.0691
 7952SOL    HW235493   1.264   0.500   3.071 -0.4557 -0.5162 -1.3987
 7953SOL     OW35494   2.244   1.017  14.302 -0.4825 -0.2581 -0.3375
 7953SOL    HW135495   2.249   1.002  14.208  1.9342 -1.5470  0.0117
 7953SOL    HW235496   2.277   0.934  14.338  2.7459  1.0509 -0.2989
 7954SOL     OW35497   3.979   2.407   7.072  0.0869 -0.3846 -0.2010
 7954SOL    HW135498   4.066   2.433   7.042  0.8773 -1.6486  1.0052
 7954SOL    HW235499   3.947   2.485   7.117 -1.6622 -1.4367  0.3895
 7955SOL     OW35500   3.495   2.348   9.115 -0.1143 -0.5206  0.2922
 7955SOL    HW135501   3.521   2.422   9.060  1.0228  0.7695  2.5153
 7955SOL    HW235502   3.434   2.299   9.060 -1.3990  1.1208  0.2594
 7956SOL     OW35503   0.329   4.442   6.318 -0.0401  0.2079  0.2529
 7956SOL    HW135504   0.337   4.502   6.392 -0.0911 -0.0051  0.4300
 7956SOL    HW235505   0.247   4.475   6.281 -0.1103  0.4432  0.6233
 7957SOL     OW35506   0.382   2.568   6.530  0.1232 -0.1449 -0.6211
 7957SOL    HW135507   0.325   2.538   6.600  0.8163  1.2113  0.5298
 7957SOL    HW235508   0.319   2.626   6.486  1.1552  1.6812  0.2981
 7958SOL     OW35509   2.803   0.851   1.298 -0.1846  0.3699 -0.8355
 7958SOL    HW135510   2.790   0.792   1.372 -0.0071 -0.8274 -1.7556
 7958SOL    HW235511   2.847   0.922   1.344 -1.2359  0.1400  0.5442
 7959SOL     OW35512   3.938   3.614   4.829  0.6535  0.1387  0.0150
 7959SOL    HW135513   3.849   3.642   4.806  0.3974 -2.7704 -2.4479
 7959SOL    HW235514   3.946   3.527   4.791 -2.3938 -1.3595  2.7897
 7960SOL     OW35515   2.144   1.639   2.373  0.3711  0.6478 -0.3843
 7960SOL    HW135516   2.152   1.591   2.291  2.2242  1.5290 -0.7339
 7960SOL    HW235517   2.124   1.725   2.336  1.6618  1.1711  0.1162
 7961SOL     OW35518   4.184   3.919  10.791 -0.4171  0.3844 -0.4296
 7961SOL    HW135519   4.217   3.901  10.702 -0.9773 -0.3407 -0.4840
 7961SOL    HW235520   4.105   3.963  10.761 -1.0475  1.0821  2.3121
 7962SOL     OW35521   0.948   1.648   8.821  0.3176 -0.2647 -0.2023
 7962SOL    HW135522   0.868   1.647   8.874 -0.5608  0.6918 -1.5058
 7962SOL    HW235523   0.941   1.560   8.784  0.6567  0.4869 -2.0199
 7963SOL     OW35524   4.042   2.130   3.294  0.1571 -0.3852 -0.6585
 7963SOL    HW135525   4.049   2.226   3.288  1.1715 -0.4900 -1.2647
 7963SOL    HW235526   4.111   2.107   3.356 -0.3246  0.6732  0.2657
 7964SOL     OW35527   1.047   3.763   7.187 -0.5268 -0.0245  0.4297
 7964SOL    HW135528   1.022   3.851   7.216 -0.8690  0.0020  0.0661
 7964SOL    HW235529   1.038   3.774   7.092 -1.9800 -0.2780  0.5366
 7965SOL     OW35530   1.267   3.055  13.211  0.4905  0.6696  0.4933
 7965SOL    HW135531   1.314   2.982  13.172 -0.2835 -0.6633  2.0161
 7965SOL    HW235532   1.335   3.086  13.271  0.5251  0.6347  0.4720
 7966SOL     OW35533   2.013   1.923  17.019  0.3397  0.5049  0.0100
 7966SOL    HW135534   2.049   1.894  17.103 -0.7024 -1.9623 -0.4217
 7966SOL    HW235535   2.088   1.902  16.964 -0.2277 -0.5409 -0.3633
 7967SOL     OW35536   3.439   4.333  11.504 -0.5154 -0.6478 -0.4143
 7967SOL    HW135537   3.356   4.367  11.471  0.2057  1.9543  0.4540
 7967SOL    HW235538   3.426   4.298  11.592  1.0125  0.5425  0.2957
 7968SOL     OW35539   2.500   0.401   4.913  1.2605  0.2104 -0.0743
 7968SOL    HW135540   2.435   0.409   4.843  1.1524  1.6058  0.1816
 7968SOL    HW235541   2.546   0.320   4.889  3.1750  1.3947 -0.4159
 7969SOL     OW35542   1.748   4.466   5.236 -0.0508 -0.0715  0.7159
 7969SOL    HW135543   1.831   4.473   5.188 -0.3670 -0.1901  0.1499
 7969SOL    HW235544   1.753   4.547   5.287 -0.6444 -0.9755  2.2045
 7970SOL     OW35545   0.652   0.693   3.978 -0.1549 -0.3484  0.5049
 7970SOL    HW135546   0.622   0.632   3.910  0.3601 -1.0077  0.8689
 7970SOL    HW235547   0.730   0.644   4.004  0.1337 -0.6848 -0.9632
 7971SOL     OW35548   0.509   2.347   5.455 -0.1558 -0.1549  0.7855
 7971SOL    HW135549   0.604   2.350   5.443 -0.2342  0.9479  0.4269
 7971SOL    HW235550   0.517   2.387   5.541  1.6333 -0.7645  0.9073
 7972SOL     OW35551   2.772   0.320   6.019 -0.1618 -0.0588 -0.0992
 7972SOL    HW135552   2.828   0.377   6.071  0.5314 -0.0488 -0.8471
 7972SOL    HW235553   2.730   0.268   6.088  0.2382 -0.3875 -0.1002
 7973SOL     OW35554   4.194   1.204   2.386  0.2696 -0.0696  0.0197
 7973SOL    HW135555   4.117   1.194   2.442 -0.5322  1.2097 -0.8526
 7973SOL    HW235556   4.159   1.268   2.324 -2.0027 -1.9117 -0.6130
 7974SOL     OW35557   4.662   1.302   4.713  0.3929  0.0482 -0.1550
 7974SOL    HW135558   4.611   1.342   4.784  0.7704  0.3473 -0.0548
 7974SOL    HW235559   4.618   1.318   4.630  1.2209 -1.0076 -0.7941
 7975SOL     OW35560   3.797   3.432  13.823  0.6797 -0.4743  0.2815
 7975SOL    HW135561   3.730   3.384  13.774 -0.4145 -0.4475  1.7532
 7975SOL    HW235562   3.766   3.519  13.848 -2.2082 -1.2291 -0.6441
 7976SOL     OW35563   4.425   0.222  10.114 -0.0943  0.7361 -0.4302
 7976SOL    HW135564   4.464   0.274  10.184  6.3389 -0.9391 -2.7880
 7976SOL    HW235565   4.332   0.242  10.124 -0.1481  0.1233  0.3045
 7977SOL     OW35566   4.164   2.835  10.933  0.4452  0.0722  0.0541
 7977SOL    HW135567   4.152   2.849  10.839 -1.0102  0.0509  0.2386
 7977SOL    HW235568   4.249   2.877  10.945 -0.2593  1.6233 -0.4154
 7978SOL     OW35569   2.080   1.652   6.567 -0.3655  0.0491 -0.0869
 7978SOL    HW135570   1.999   1.610   6.596 -0.5422  1.6318  1.7250
 7978SOL    HW235571   2.148   1.591   6.597 -0.4596  0.0338  0.0995
 7979SOL     OW35572   2.215   4.583   4.287 -0.6356 -0.1095  0.1859
 7979SOL    HW135573   2.131   4.542   4.272 -1.6747  2.0463  0.1423
 7979SOL    HW235574   2.220   4.580   4.383  3.1071 -1.7911 -0.0170
 7980SOL     OW35575   3.606   3.473   6.712 -0.0972 -0.2015  0.0356
 7980SOL    HW135576   3.627   3.558   6.673 -2.4443  0.6259  0.6256
 7980SOL    HW235577   3.694   3.447   6.741  0.2965  1.1166  0.0402
 7981SOL     OW35578   1.088   3.408   4.210  0.1534 -0.3680 -0.0554
 7981SOL    HW135579   1.116   3.418   4.301 -2.1192 -1.0258  0.7143
 7981SOL    HW235580   1.091   3.312   4.206  0.3578 -0.3685  0.1229
 7982SOL     OW35581   1.576   0.764   8.431 -0.1620 -0.3756  0.2241
 7982SOL    HW135582   1.564   0.670   8.415 -0.0615 -0.3685  0.1047
 7982SOL    HW235583   1.623   0.797   8.354  0.7073  0.3798  1.0726
 7983SOL     OW35584   0.884   1.803   6.673 -0.2013 -0.8851  0.7286
 7983SOL    HW135585   0.845   1.843   6.595  0.6002 -0.9396  0.3017
 7983SOL    HW235586   0.958   1.861   6.690  0.0312 -0.6526 -1.0215
 7984SOL     OW35587   3.617   4.057   2.166  0.3478  0.1698 -0.6458
 7984SOL    HW135588   3.537   4.109   2.167 -0.8501 -1.6994  0.3404
 7984SOL    HW235589   3.632   4.032   2.257 -1.3053 -0.7847 -0.6492
 7985SOL     OW35590   4.078   3.676   2.962  0.1115 -0.3523 -0.0456
 7985SOL    HW135591   4.085   3.706   2.871  1.9634 -1.6857 -0.3606
 7985SOL    HW235592   4.151   3.723   3.000  0.5848  0.7919 -2.3655
 7986SOL     OW35593   1.947   4.143  15.055 -0.2939  0.5899  0.0480
 7986SOL    HW135594   1.933   4.144  15.150 -0.5479  3.2117 -0.0405
 7986SOL    HW235595   1.871   4.087  15.033  0.6245 -0.0757 -1.4483
 7987SOL     OW35596   1.215   3.549  12.725  0.0631 -0.5495  0.2481
 7987SOL    HW135597   1.193   3.586  12.639 -3.5918  1.8360  2.1860
 7987SOL    HW235598   1.145   3.594  12.773  0.8883 -0.6097  1.4935
 7988SOL     OW35599   3.632   3.970  16.128 -0.0574 -0.2197  0.2584
 7988SOL    HW135600   3.667   3.881  16.131 -0.5431 -0.3734  1.1838
 7988SOL    HW235601   3.694   3.996  16.196  0.4627 -1.0824  0.1123
 7989SOL     OW35602   3.664   4.092   7.868  0.9372 -0.1817 -0.2749
 7989SOL    HW135603   3.579   4.109   7.828  0.6215  0.7140  0.7768
 7989SOL    HW235604   3.642   4.022   7.930 -1.1680  0.8327  0.1550
 7990SOL     OW35605   2.942   2.003   7.263 -0.1509  0.2751  0.0942
 7990SOL    HW135606   2.903   2.061   7.197 -1.7069 -0.5365  0.3032
 7990SOL    HW235607   2.934   2.049   7.346  1.1258  0.7577 -0.0521
 7991SOL     OW35608   0.237   1.789   3.299 -0.5916  0.3180 -0.5803
 7991SOL    HW135609   0.243   1.878   3.333 -0.0318 -0.5002  1.4660
 7991SOL    HW235610   0.147   1.797   3.268 -0.9344 -1.3974 -0.0230
 7992SOL     OW35611   2.323   2.838   5.276 -0.1464  0.4747 -0.2267
 7992SOL    HW135612   2.345   2.931   5.270  1.2770  0.0164 -2.1253
 7992SOL    HW235613   2.413   2.807   5.284  0.0607  1.3397  0.7810
 7993SOL     OW35614   2.848   0.777   6.065  0.6322 -0.2631  0.4501
 7993SOL    HW135615   2.786   0.839   6.103 -0.6581 -1.4792  0.3168
 7993SOL    HW235616   2.927   0.830   6.055  0.4901 -0.2892 -0.8610
 7994SOL     OW35617   0.253   3.860   6.819 -0.6619  0.4228 -0.5792
 7994SOL    HW135618   0.165   3.827   6.836 -1.6368  3.5094  0.3058
 7994SOL    HW235619   0.241   3.932   6.881  0.1046 -0.8079  1.0263
 7995SOL     OW35620   1.553   0.432   3.744 -0.3337 -0.0144  0.0441
 7995SOL    HW135621   1.648   0.422   3.751  0.0616  4.0385  0.5812
 7995SOL    HW235622   1.525   0.345   3.770 -3.2623  1.1658  0.7724
 7996SOL     OW35623   1.685   0.173   5.703  0.2038  0.2603  0.1599
 7996SOL    HW135624   1.705   0.189   5.796 -2.8003  0.6877  0.7291
 7996SOL    HW235625   1.590   0.162   5.699  0.3824 -1.0328 -0.5122
 7997SOL     OW35626   0.783   2.424   9.638 -0.2531 -0.2022  0.2757
 7997SOL    HW135627   0.785   2.490   9.569  0.9246 -1.8501 -1.2652
 7997SOL    HW235628   0.809   2.477   9.713  3.8451 -1.2468 -0.3653
 7998SOL     OW35629   0.573   4.488   5.175 -0.2414 -0.0985 -0.3899
 7998SOL    HW135630   0.651   4.531   5.140 -1.6278  3.7030  1.1167
 7998SOL    HW235631   0.499   4.545   5.153  1.2638  1.4943 -1.2961
 7999SOL     OW35632   2.482   1.824   5.012  0.5280  0.4291  0.2082
 7999SOL    HW135633   2.393   1.823   5.047  0.1882 -1.9805 -0.6653
 7999SOL    HW235634   2.485   1.917   4.990  2.6348 -0.3212 -2.7507
 8000SOL     OW35635   3.430   2.499   3.833 -0.0851 -0.2406  0.8694
 8000SOL    HW135636   3.407   2.588   3.860  0.8208  0.6268 -1.2811
 8000SOL    HW235637   3.344   2.455   3.829  0.1502 -0.7115  0.9291
 8001SOL     OW35638   4.141   3.833  15.719  0.2934  0.2882 -0.1743
 8001SOL    HW135639   4.058   3.880  15.730  0.4285  0.3832  0.4399
 8001SOL    HW235640   4.130   3.752  15.769 -1.3548 -0.7875 -2.2831
 8002SOL     OW35641   1.529   3.845   4.040 -0.3758 -0.9848  0.3454
 8002SOL    HW135642   1.443   3.887   4.047 -1.0486 -2.0877 -1.1497
 8002SOL    HW235643   1.508   3.768   3.987  3.9154 -2.3166  0.5965
 8003SOL     OW35644   1.146   0.740   3.293 -0.0480  0.0807  0.4425
 8003SOL    HW135645   1.137   0.835   3.292 -1.0910 -0.0021  2.3936
 8003SOL    HW235646   1.195   0.712   3.216  3.3224  1.2497  2.1383
 8004SOL     OW35647   3.514   0.415   5.598 -0.8517  0.1899  0.1049
 8004SOL    HW135648   3.459   0.371   5.533  1.6957 -2.2138 -0.4207
 8004SOL    HW235649   3.508   0.352   5.669  0.4370 -0.7482 -0.6068
 8005SOL     OW35650   2.051   0.008   8.560  0.1914  0.1996 -0.0160
 8005SOL    HW135651   2.052   0.031   8.653 -3.9720  0.5648 -0.0435
 8005SOL    HW235652   2.145   4.734   8.546  0.3514  1.7912 -0.3113
 8006SOL     OW35653   1.550   2.399   0.879 -0.0608  0.2390  0.3325
 8006SOL    HW135654   1.623   2.456   0.903 -0.3268  1.7070 -2.3542
 8006SOL    HW235655   1.481   2.461   0.904 -1.0185 -1.1983  1.2694
 8007SOL     OW35656   3.718   1.449   8.625  0.7038 -0.1005 -0.3836
 8007SOL    HW135657   3.732   1.498   8.706  1.5942 -2.1009  0.6529
 8007SOL    HW235658   3.748   1.361   8.648  1.4744  1.0586  3.0624
 8008SOL     OW35659   1.224   0.653   5.945 -0.7616 -0.0997  0.0728
 8008SOL    HW135660   1.293   0.608   5.896  0.5882  1.6631  0.3417
 8008SOL    HW235661   1.205   0.733   5.895 -1.3368 -0.2003  0.1343
 8009SOL     OW35662   1.148   4.173   7.792 -0.9016  0.1887 -0.3641
 8009SOL    HW135663   1.210   4.221   7.738  0.9620 -1.2354  0.5166
 8009SOL    HW235664   1.080   4.162   7.725 -0.7172  0.0518 -0.5270
 8010SOL     OW35665   4.081   3.123  10.381  0.0116 -0.3484 -0.1321
 8010SOL    HW135666   3.995   3.086  10.360  0.5953 -0.6006 -2.1069
 8010SOL    HW235667   4.141   3.049  10.372  0.2805 -0.2179  0.5899
 8011SOL     OW35668   1.003   3.018   5.732 -0.3266 -0.3492  0.3470
 8011SOL    HW135669   1.078   3.022   5.672 -0.3856  0.2310  0.3168
 8011SOL    HW235670   0.980   3.110   5.723 -0.3083 -0.4386 -0.6029
 8012SOL     OW35671   4.649   1.003   7.104 -0.0896 -0.1730 -0.4117
 8012SOL    HW135672   4.653   0.924   7.050 -0.8656  0.4717 -1.4010
 8012SOL    HW235673   4.661   1.065   7.033 -0.4808 -0.8497 -1.0683
 8013SOL     OW35674   2.938   0.421   4.309  0.5081  0.0475  0.2185
 8013SOL    HW135675   3.019   0.420   4.359 -0.0967  0.0791  1.2072
 8013SOL    HW235676   2.977   0.450   4.227  1.0684 -1.0977  0.0778
 8014SOL     OW35677   3.762   0.599   2.779 -0.5970  0.5149  0.0684
 8014SOL    HW135678   3.734   0.648   2.856  1.7242  1.4595  0.3419
 8014SOL    HW235679   3.858   0.602   2.789 -0.6685 -1.2215  1.2453
 8015SOL     OW35680   2.501   1.844   5.477 -0.1642  0.1225 -0.0486
 8015SOL    HW135681   2.497   1.752   5.451 -0.4942 -0.2485  1.3335
 8015SOL    HW235682   2.573   1.874   5.421 -0.5906  1.5066  0.1410
 8016SOL     OW35683   0.271   4.693   3.748 -0.1773  0.0267 -0.1492
 8016SOL    HW135684   0.224   0.037   3.729 -0.3986  0.1381  0.9052
 8016SOL    HW235685   0.264   4.637   3.670  2.0047  1.0455 -1.0801
 8017SOL     OW35686   3.016   1.829   7.760  0.1286  0.0780  0.1553
 8017SOL    HW135687   2.929   1.790   7.759 -0.1486  0.7065  0.3947
 8017SOL    HW235688   3.016   1.874   7.845  1.8458 -0.1761  0.3062
 8018SOL     OW35689   4.549   0.307   2.698  0.3175 -0.0595  0.1722
 8018SOL    HW135690   4.588   0.300   2.611  0.0176 -0.4666  0.0701
 8018SOL    HW235691   4.457   0.310   2.671  0.5761 -1.6407 -0.8742
 8019SOL     OW35692   1.991   4.532   1.515 -0.2820  0.1796  0.9813
 8019SOL    HW135693   1.899   4.544   1.537 -0.3876 -0.7716  1.0766
 8019SOL    HW235694   2.023   4.467   1.577 -2.2718 -2.5507 -0.8536
 8020SOL     OW35695   2.098   1.343  10.064  0.0353  0.0483 -0.2201
 8020SOL    HW135696   2.007   1.329  10.092  0.1154  2.0831  1.0167
 8020SOL    HW235697   2.130   1.357  10.153  0.1130  1.5128 -0.4708
 8021SOL     OW35698   0.530   0.519   3.505  0.4647 -0.0138 -1.1345
 8021SOL    HW135699   0.470   0.522   3.430  0.7989 -1.1881 -1.4519
 8021SOL    HW235700   0.527   0.426   3.525 -2.0617  0.1045 -0.9032
 8022SOL     OW35701   3.574   3.679   5.025  0.5587  0.2674  1.0159
 8022SOL    HW135702   3.595   3.772   5.017  0.3172  0.2681  0.4135
 8022SOL    HW235703   3.561   3.662   5.118 -0.6757  0.6607  0.9121
 8023SOL     OW35704   1.276   0.716   4.387  0.5273 -0.5380 -0.2726
 8023SOL    HW135705   1.334   0.790   4.370 -1.1986  0.7949 -0.2484
 8023SOL    HW235706   1.321   0.641   4.347 -0.0305 -1.6746  1.2176
 8024SOL     OW35707   4.223   3.979  12.956  0.3690 -0.0413  0.6647
 8024SOL    HW135708   4.306   3.950  12.917  0.9529  2.7120 -0.1236
 8024SOL    HW235709   4.180   3.893  12.952  1.7231 -0.6855 -0.0346
 8025SOL     OW35710   1.654   1.316   3.503  0.3051 -0.9907 -0.3562
 8025SOL    HW135711   1.596   1.259   3.454 -1.1139 -1.7292  2.1580
 8025SOL    HW235712   1.741   1.305   3.464 -0.5536 -3.3151 -1.5695
 8026SOL     OW35713   0.634   4.305   4.877  0.0364 -0.4038 -0.7940
 8026SOL    HW135714   0.610   4.236   4.814  0.3457 -1.0698 -0.1829
 8026SOL    HW235715   0.627   4.371   4.808  1.3173  1.2465  0.6653
 8027SOL     OW35716   0.165   0.136   2.483 -0.2729 -0.3504 -0.1530
 8027SOL    HW135717   0.206   0.221   2.465  1.1629 -0.8043  0.9364
 8027SOL    HW235718   0.073   0.157   2.495 -0.1870  1.3088 -2.4711
 8028SOL     OW35719   1.318   0.088   1.551 -0.2765 -0.0762  0.4770
 8028SOL    HW135720   1.254   0.117   1.616  2.6573  3.1809  1.9518
 8028SOL    HW235721   1.317   0.172   1.505  0.1537 -0.5685 -0.4215
 8029SOL     OW35722   2.645   0.167   4.859 -0.1976  0.1022 -0.0068
 8029SOL    HW135723   2.579   0.106   4.891 -0.9771  2.0723  2.0903
 8029SOL    HW235724   2.712   0.113   4.817 -0.1261 -0.4322  0.7935
 8030SOL     OW35725   3.056   0.200   5.990 -0.6437 -0.2905 -0.1611
 8030SOL    HW135726   3.002   0.144   6.046  0.0456 -2.7878 -1.9987
 8030SOL    HW235727   3.012   0.283   6.003 -1.5038 -1.1106  2.1424
 8031SOL     OW35728   0.364   2.719  12.103  0.2854  0.3695 -0.0670
 8031SOL    HW135729   0.279   2.759  12.081  1.7252  4.1777  1.2816
 8031SOL    HW235730   0.368   2.711  12.198 -1.8196  4.2825  0.3608
 8032SOL     OW35731   2.501   0.846  14.274  0.6871 -0.3841  0.0564
 8032SOL    HW135732   2.434   0.793  14.317 -0.5642  0.5926 -0.6749
 8032SOL    HW235733   2.579   0.799  14.302 -0.7411 -3.7146 -1.5558
 8033SOL     OW35734   2.993   0.778   5.633  0.6823  0.0961 -0.1305
 8033SOL    HW135735   3.036   0.706   5.679 -0.4168 -0.4016  0.1198
 8033SOL    HW235736   3.068   0.837   5.640  0.8131  0.0322 -1.0267
 8034SOL     OW35737   1.786   3.124   3.128 -0.1879  0.2783 -0.3907
 8034SOL    HW135738   1.847   3.107   3.056  1.8637  1.8758  0.9702
 8034SOL    HW235739   1.842   3.171   3.189  0.4130  3.2881 -3.2417
 8035SOL     OW35740   0.705   3.609   3.837  0.2263  0.3052 -0.5071
 8035SOL    HW135741   0.766   3.661   3.891 -0.3430  1.9367 -1.4529
 8035SOL    HW235742   0.691   3.667   3.762 -2.2200 -0.0934 -0.3467
 8036SOL     OW35743   2.533   1.593   2.324 -0.3893  0.0186  0.1171
 8036SOL    HW135744   2.493   1.670   2.283 -0.2262 -0.4997 -1.0188
 8036SOL    HW235745   2.612   1.582   2.271 -0.6499  0.6785 -0.4142
 8037SOL     OW35746   2.748   1.985   2.724 -0.0341 -0.0723 -0.2739
 8037SOL    HW135747   2.751   2.052   2.792  0.3779 -1.4428  1.0631
 8037SOL    HW235748   2.751   1.907   2.780 -0.8038 -0.0475 -0.1963
 8038SOL     OW35749   3.666   2.722   7.600 -0.2738 -0.2713  0.2888
 8038SOL    HW135750   3.632   2.680   7.679 -3.2838 -0.5565 -1.1644
 8038SOL    HW235751   3.587   2.768   7.573 -0.0093  1.0484  1.7758
 8039SOL     OW35752   1.722   3.974   5.398  0.1564 -0.2038  0.3727
 8039SOL    HW135753   1.678   4.042   5.348  0.5834 -0.0355  0.2216
 8039SOL    HW235754   1.809   4.011   5.411  1.0634 -2.0746 -0.2995
 8040SOL     OW35755   3.457   3.636  16.542  0.1595 -0.2110 -0.0890
 8040SOL    HW135756   3.507   3.619  16.462  1.9030  1.6476  0.5967
 8040SOL    HW235757   3.477   3.549  16.574  0.3457 -0.3050 -0.4594
 8041SOL     OW35758   3.404   2.609   4.247  0.4460 -0.9227  0.1213
 8041SOL    HW135759   3.475   2.661   4.284 -0.0677 -0.1849  0.0859
 8041SOL    HW235760   3.330   2.628   4.305 -0.6100 -1.6068 -0.9960
 8042SOL     OW35761   3.932   4.035   7.789 -0.0178  0.0536  0.3247
 8042SOL    HW135762   3.947   3.986   7.870 -1.0589 -2.4364 -0.9881
 8042SOL    HW235763   3.837   4.026   7.778 -0.0613 -1.1987  1.6840
 8043SOL     OW35764   0.172   2.947  11.497  0.0543  0.2704  0.0080
 8043SOL    HW135765   0.255   2.910  11.468  0.0476  0.4989 -0.3037
 8043SOL    HW235766   0.132   2.951  11.410 -0.8058  0.5347  0.4057
 8044SOL     OW35767   3.632   4.673   3.720 -0.2582 -0.3423  0.1369
 8044SOL    HW135768   3.665   4.686   3.809  0.0632  2.4052 -0.4071
 8044SOL    HW235769   3.621   0.025   3.689  3.3913 -0.2863 -0.9289
 8045SOL     OW35770   1.104   3.658   2.797 -0.3333  0.2395  0.0844
 8045SOL    HW135771   1.135   3.688   2.883 -2.3006  2.3354  0.0620
 8045SOL    HW235772   1.038   3.723   2.772  0.2869  1.5721  1.9101
 8046SOL     OW35773   0.745   0.576  15.772  0.3115  0.7285  0.0892
 8046SOL    HW135774   0.700   0.500  15.808  0.4073  0.7765  0.3144
 8046SOL    HW235775   0.778   0.540  15.690  1.1054 -0.7563  1.0638
 8047SOL     OW35776   0.214   0.342   7.946  0.2025  0.3246  0.1419
 8047SOL    HW135777   0.219   0.437   7.956 -0.5986  0.3215  0.6430
 8047SOL    HW235778   0.253   0.311   8.027 -0.6949 -0.0542  0.4343
 8048SOL     OW35779   0.812   1.551   6.680  0.0263  0.1035 -0.0002
 8048SOL    HW135780   0.903   1.537   6.704  1.2740  1.9349 -3.7944
 8048SOL    HW235781   0.817   1.646   6.673  1.8362  0.1460  2.0450
 8049SOL     OW35782   0.147   0.626  11.358 -0.5139 -0.7872 -0.2830
 8049SOL    HW135783   0.071   0.574  11.385 -0.4188 -1.6438 -1.6892
 8049SOL    HW235784   0.110   0.655  11.275  1.7011  1.3531 -0.5052
 8050SOL     OW35785   0.557   2.015  15.715 -0.3044  0.4842 -0.2420
 8050SOL    HW135786   0.632   1.988  15.767 -2.2995 -1.0105  1.8496
 8050SOL    HW235787   0.561   1.947  15.648  2.6348 -0.3916  0.8221
 8051SOL     OW35788   3.632   2.621   8.537  0.0770 -0.6549  0.4617
 8051SOL    HW135789   3.723   2.603   8.562 -0.4244 -2.2532  1.1273
 8051SOL    HW235790   3.598   2.534   8.559  0.8946 -0.5421  2.1818
 8052SOL     OW35791   1.032   1.116  11.325  0.1715 -0.4176  0.2340
 8052SOL    HW135792   1.093   1.091  11.394 -1.4093  0.4918  1.9527
 8052SOL    HW235793   1.005   1.206  11.344  1.6906 -0.1406  1.0370
 8053SOL     OW35794   3.295   4.015  14.681 -0.1083 -0.2811 -0.0248
 8053SOL    HW135795   3.283   4.071  14.757  2.4226 -0.7044  0.6863
 8053SOL    HW235796   3.230   3.948  14.702  0.1657 -0.0918  1.4015
 8054SOL     OW35797   0.823   0.495   7.362  0.0547  0.7759  0.2535
 8054SOL    HW135798   0.898   0.451   7.402 -0.2097 -1.0222 -1.2192
 8054SOL    HW235799   0.869   0.570   7.324 -3.2476  2.0531 -1.2469
 8055SOL     OW35800   4.358   1.076   5.637 -0.4832 -0.2657  0.1768
 8055SOL    HW135801   4.417   1.062   5.711 -0.2759 -0.0537  0.0494
 8055SOL    HW235802   4.339   1.169   5.627  1.0742  0.0488  0.1899
 8056SOL     OW35803   4.514   3.660   3.740  0.2303 -0.2652 -0.2209
 8056SOL    HW135804   4.453   3.620   3.801  0.0142  0.4519  0.0248
 8056SOL    HW235805   4.540   3.580   3.694 -2.0574 -1.1115 -0.0110
 8057SOL     OW35806   4.090   3.226   8.818 -0.5885 -0.2498  0.7463
 8057SOL    HW135807   4.020   3.168   8.849  0.8944 -1.3384  2.0581
 8057SOL    HW235808   4.051   3.255   8.736 -0.0504  0.4806  0.7502
 8058SOL     OW35809   4.470   4.294   6.822  0.0660  0.8377 -0.2946
 8058SOL    HW135810   4.381   4.311   6.853  0.4444  2.5269 -0.0906
 8058SOL    HW235811   4.465   4.217   6.767  0.9374  0.3427  0.3103
 8059SOL     OW35812   1.416   2.430   9.702 -0.3527 -0.1877 -0.0331
 8059SOL    HW135813   1.470   2.456   9.776  0.5634  0.7459 -1.0355
 8059SOL    HW235814   1.477   2.444   9.629  1.8442 -1.6984  1.5113
 8060SOL     OW35815   2.181   2.467   3.555  0.7227 -0.1846 -0.0359
 8060SOL    HW135816   2.202   2.502   3.642 -2.5717 -2.4223  1.6436
 8060SOL    HW235817   2.255   2.495   3.501  0.7503  2.9573  1.6131
 8061SOL     OW35818   2.753   3.436   0.935 -0.7755 -0.3970 -0.3525
 8061SOL    HW135819   2.796   3.350   0.933 -1.0974 -0.6813  3.9770
 8061SOL    HW235820   2.676   3.410   0.985 -1.6726  0.8595 -1.0757
 8062SOL     OW35821   0.498   1.318   8.028 -0.4875 -0.6063  0.1081
 8062SOL    HW135822   0.520   1.402   7.987 -0.0683  0.1569  1.8697
 8062SOL    HW235823   0.424   1.343   8.084 -0.9726  3.6387 -2.4196
 8063SOL     OW35824   1.013   0.500   4.664  0.3500  0.0085 -0.7334
 8063SOL    HW135825   1.054   0.542   4.588  0.6953 -0.3219 -0.7359
 8063SOL    HW235826   1.073   0.521   4.735 -1.6498  0.4995  0.8011
 8064SOL     OW35827   0.734   4.238   0.156 -0.1082  0.1049  0.0972
 8064SOL    HW135828   0.652   4.187   0.156 -0.6031  0.9029 -0.2027
 8064SOL    HW235829   0.723   4.294   0.079  1.7848  0.9442  0.4485
 8065SOL     OW35830   3.512   4.714   3.267 -0.2760 -0.6416  0.2675
 8065SOL    HW135831   3.588   4.724   3.210 -0.8523 -0.3707 -0.4518
 8065SOL    HW235832   3.497   4.620   3.272 -1.3108 -0.4512  0.5785
 8066SOL     OW35833   4.668   0.597   7.851  0.8172 -0.1562 -0.2040
 8066SOL    HW135834   4.578   0.589   7.820  1.6478  0.8538 -2.8045
 8066SOL    HW235835   4.691   0.690   7.849 -0.7932  0.2873  1.5733
 8067SOL     OW35836   3.273   2.296   6.754  0.0922 -0.2494 -0.4145
 8067SOL    HW135837   3.264   2.361   6.825 -1.6735 -1.3519  0.3778
 8067SOL    HW235838   3.353   2.248   6.773 -0.0079  0.6173  2.3418
 8068SOL     OW35839   0.283   1.819  15.778 -0.2876  0.0384 -0.1719
 8068SOL    HW135840   0.350   1.777  15.833 -1.4861 -1.8456 -0.1269
 8068SOL    HW235841   0.302   1.910  15.802 -0.6996  0.0374  0.1441
 8069SOL     OW35842   1.550   2.665   0.698  0.3136 -0.3503 -0.1050
 8069SOL    HW135843   1.471   2.616   0.721 -0.8995  1.5396 -0.2323
 8069SOL    HW235844   1.524   2.752   0.667 -4.1059 -1.6725 -0.1225
 8070SOL     OW35845   4.170   2.786   3.785 -0.2062 -0.2821 -0.4612
 8070SOL    HW135846   4.196   2.725   3.854  0.9456 -2.1363 -2.5441
 8070SOL    HW235847   4.145   2.727   3.714 -0.8985 -1.7935  1.0594
 8071SOL     OW35848   3.073   3.086   8.030 -0.5291 -0.3884 -0.2394
 8071SOL    HW135849   3.021   3.057   7.955  0.1571 -0.4620 -0.6848
 8071SOL    HW235850   3.161   3.059   8.007 -0.4211 -0.3100  0.0789
 8072SOL     OW35851   0.022   4.348   8.211 -0.3988 -0.2106 -0.2836
 8072SOL    HW135852   0.042   4.255   8.202  1.6879  0.3662 -1.6374
 8072SOL    HW235853   4.684   4.354   8.153 -0.7201  0.8083  0.2369
 8073SOL     OW35854   3.671   3.282   5.849  0.5683 -0.6597 -0.0439
 8073SOL    HW135855   3.637   3.359   5.895  0.4401  1.0207 -2.8996
 8073SOL    HW235856   3.765   3.299   5.851  0.5890 -0.5539 -1.5358
 8074SOL     OW35857   0.716   3.239   8.267 -0.5664 -0.0266 -0.0946
 8074SOL    HW135858   0.633   3.223   8.221  0.4903 -2.0048 -1.2986
 8074SOL    HW235859   0.693   3.216   8.357 -3.1867 -1.2734 -1.0684
 8075SOL     OW35860   2.051   4.201   5.051 -0.0198 -0.3692 -0.7034
 8075SOL    HW135861   1.957   4.208   5.035  0.3828  1.3778 -2.2618
 8075SOL    HW235862   2.080   4.291   5.035 -1.0689 -0.1805 -1.5438
 8076SOL     OW35863   4.050   1.191   4.860  0.1397  0.1234  0.2792
 8076SOL    HW135864   4.017   1.117   4.910  1.5698  0.8839  2.3529
 8076SOL    HW235865   4.055   1.257   4.929 -1.4904  0.3790  0.1524
 8077SOL     OW35866   0.774   1.690   8.077 -0.2811 -0.4467  0.0826
 8077SOL    HW135867   0.816   1.776   8.077 -2.1488  0.4708  1.7123
 8077SOL    HW235868   0.838   1.631   8.037 -0.1289  2.7097 -4.3778
 8078SOL     OW35869   1.700   4.129  10.779 -0.0542  0.1385  0.0333
 8078SOL    HW135870   1.793   4.106  10.788 -0.1883 -1.1887 -1.9931
 8078SOL    HW235871   1.677   4.188  10.851  1.1353  2.1036 -1.1938
 8079SOL     OW35872   2.646   1.196   9.265 -0.4354  0.3312 -0.1698
 8079SOL    HW135873   2.663   1.144   9.186 -0.5138 -0.5535  0.4059
 8079SOL    HW235874   2.727   1.218   9.311 -2.0155  1.2808  2.1353
 8080SOL     OW35875   3.863   4.036   0.492  0.3253  0.0573  0.2415
 8080SOL    HW135876   3.922   4.098   0.449  0.3282  0.2058  0.4584
 8080SOL    HW235877   3.778   4.078   0.492 -0.6250 -1.8849 -1.5935
 8081SOL     OW35878   1.431   0.689  15.671 -0.4722 -0.1330 -0.1760
 8081SOL    HW135879   1.507   0.644  15.708 -0.0761 -0.0917 -0.9322
 8081SOL    HW235880   1.474   0.740  15.602  1.7055 -1.0316  0.5097
 8082SOL     OW35881   4.558   2.237  11.226 -0.4424 -0.6612  0.0408
 8082SOL    HW135882   4.603   2.162  11.189  2.1458  1.4245 -1.0196
 8082SOL    HW235883   4.625   2.303  11.209  0.8487 -2.1328 -0.5042
 8083SOL     OW35884   2.283   4.378  13.184 -0.2611 -0.2270 -0.1452
 8083SOL    HW135885   2.252   4.468  13.179  0.2470 -0.0731 -0.5113
 8083SOL    HW235886   2.274   4.338  13.097 -0.4101  3.7725 -1.9558
 8084SOL     OW35887   2.550   2.055  16.544  0.9871 -0.2301 -0.3376
 8084SOL    HW135888   2.521   1.964  16.551 -1.9443  0.6238 -1.5416
 8084SOL    HW235889   2.582   2.046  16.455 -0.1350 -0.1947 -0.7330
 8085SOL     OW35890   1.568   1.889   7.856 -0.6269  0.1884  0.4172
 8085SOL    HW135891   1.515   1.916   7.931 -0.2908 -2.3934  1.5679
 8085SOL    HW235892   1.640   1.948   7.876  1.1810 -1.9961  0.3111
 8086SOL     OW35893   2.990   4.631  16.956  0.8142 -0.3737  0.0704
 8086SOL    HW135894   3.019   4.577  17.030  1.0289 -0.7746 -0.3027
 8086SOL    HW235895   2.900   4.654  16.979  1.0003 -0.3796  0.8091
 8087SOL     OW35896   0.395   3.474   8.568  0.7837  0.2116 -0.1750
 8087SOL    HW135897   0.360   3.407   8.509  1.7206  0.6432 -1.2146
 8087SOL    HW235898   0.408   3.413   8.641 -1.6925 -1.6250 -1.2517
 8088SOL     OW35899   1.868   3.613   7.172 -0.3112 -0.0827 -0.5200
 8088SOL    HW135900   1.925   3.541   7.195  0.1843  0.5518  0.2370
 8088SOL    HW235901   1.919   3.660   7.106  1.6768 -1.3273  0.1559
 8089SOL     OW35902   0.185   0.328  10.882  0.0584 -0.2354 -0.1988
 8089SOL    HW135903   0.264   0.293  10.925  1.0264  2.0142 -0.1177
 8089SOL    HW235904   0.224   0.343  10.796  0.0113  1.9875  0.1556
 8090SOL     OW35905   2.550   3.351   7.110  0.4973 -0.3497 -0.0259
 8090SOL    HW135906   2.595   3.272   7.141  2.2017 -0.2821 -2.3227
 8090SOL    HW235907   2.503   3.378   7.189 -1.4478  0.9164 -1.6199
 8091SOL     OW35908   3.355   2.734   3.999  0.4905 -0.0246  0.4681
 8091SOL    HW135909   3.386   2.678   4.071  1.3054 -0.8469 -0.5355
 8091SOL    HW235910   3.262   2.730   4.020  0.2200 -0.9939 -0.9539
 8092SOL     OW35911   1.083   2.222   8.401 -0.1119 -0.1455 -0.0365
 8092SOL    HW135912   1.109   2.132   8.380  2.1550  0.3278  0.6943
 8092SOL    HW235913   1.094   2.242   8.494  0.9460 -2.3895  0.3181
 8093SOL     OW35914   3.174   3.937   3.293 -0.3888 -0.8551 -0.0285
 8093SOL    HW135915   3.106   3.881   3.256  0.0070 -0.6171 -1.1224
 8093SOL    HW235916   3.144   3.959   3.381  2.6687  0.6424  0.6635
 8094SOL     OW35917   3.001   3.440   2.156 -0.2254 -0.0811 -0.4252
 8094SOL    HW135918   2.932   3.402   2.101 -0.3511  1.7897 -1.5738
 8094SOL    HW235919   2.971   3.531   2.158  0.5520  0.1006  2.0387
 8095SOL     OW35920   4.206   1.686   0.109  0.2654  0.1401 -0.1778
 8095SOL    HW135921   4.115   1.693   0.079 -0.2593 -0.6693  1.2407
 8095SOL    HW235922   4.258   1.692   0.028 -1.4813 -3.3107 -1.5405
 8096SOL     OW35923   2.708   0.820   7.926  0.5678 -0.0787  0.0449
 8096SOL    HW135924   2.630   0.870   7.953 -0.8752 -1.2087 -2.0420
 8096SOL    HW235925   2.752   0.893   7.883  0.5305 -0.6231 -0.9135
 8097SOL     OW35926   2.662   1.128  17.672  0.7061 -0.3332 -0.1800
 8097SOL    HW135927   2.709   1.106   0.004 -0.7432 -1.7007  0.2966
 8097SOL    HW235928   2.638   1.220  17.679 -0.8915 -0.8169  0.5773
 8098SOL     OW35929   4.718   3.451   1.380 -0.2239 -0.4148  0.3247
 8098SOL    HW135930   4.637   3.411   1.349  0.8240 -2.4551  0.2142
 8098SOL    HW235931   4.697   3.506   1.456 -1.3656  0.2632 -0.4922
 8099SOL     OW35932   3.348   1.887   5.184  0.0947 -0.4522  0.2626
 8099SOL    HW135933   3.373   1.885   5.277  0.3048 -1.5250  0.1849
 8099SOL    HW235934   3.257   1.909   5.202  0.4240  1.1150 -0.0571
 8100SOL     OW35935   2.583   3.707  15.154 -0.2820  0.1079  0.7545
 8100SOL    HW135936   2.577   3.788  15.204  0.9471  1.1145 -0.7201
 8100SOL    HW235937   2.506   3.723  15.098  0.9598  0.9842 -0.6919
 8101SOL     OW35938   0.310   0.950   1.570 -0.0927 -0.6201 -0.2993
 8101SOL    HW135939   0.314   0.870   1.623  1.5537 -0.0628  0.4257
 8101SOL    HW235940   0.295   0.914   1.482 -0.0915 -0.9796 -0.1521
 8102SOL     OW35941   3.997   2.196  12.762  0.3644  0.2132  0.3086
 8102SOL    HW135942   3.914   2.149  12.772  1.8659 -3.1747 -3.4342
 8102SOL    HW235943   4.051   2.117  12.765  1.6276  1.0438 -0.7605
 8103SOL     OW35944   0.937   1.957   2.496  0.7885 -0.3696  0.2509
 8103SOL    HW135945   0.906   1.920   2.413  0.2073 -0.1308  0.3563
 8103SOL    HW235946   0.955   1.877   2.545  3.6054 -0.0780 -0.3379
 8104SOL     OW35947   3.117   1.180   6.607  0.0911 -0.0030 -0.0107
 8104SOL    HW135948   3.099   1.119   6.678  2.1650  1.5275  1.8502
 8104SOL    HW235949   3.110   1.122   6.532 -3.1177  0.7326 -0.2562
 8105SOL     OW35950   2.768   3.962  12.789 -0.4182  0.3882 -0.1333
 8105SOL    HW135951   2.675   3.987  12.789 -0.6134 -0.3451 -0.4520
 8105SOL    HW235952   2.775   3.888  12.729  2.7696  0.6823 -0.1013
 8106SOL     OW35953   4.535   3.991  14.505  0.1055 -0.4516 -0.3595
 8106SOL    HW135954   4.519   4.085  14.509 -0.8248 -0.5785 -0.9127
 8106SOL    HW235955   4.578   3.983  14.590  0.3098 -4.4721 -0.8489
 8107SOL     OW35956   4.183   4.225   6.533 -0.3881  0.4904 -0.0548
 8107SOL    HW135957   4.087   4.230   6.539 -0.4760 -2.7235  1.5298
 8107SOL    HW235958   4.211   4.165   6.602  1.4554  0.9559 -0.4075
 8108SOL     OW35959   1.154   0.633   9.155 -0.5084 -0.0746  0.5823
 8108SOL    HW135960   1.230   0.579   9.136 -0.4758  0.7550 -1.5758
 8108SOL    HW235961   1.088   0.574   9.118 -0.7558  0.5572  0.0067
 8109SOL     OW35962   4.169   1.049   8.955  0.6021 -0.3138  0.1433
 8109SOL    HW135963   4.107   0.981   8.930  2.4624 -1.0273 -2.6410
 8109SOL    HW235964   4.224   1.009   9.022 -0.4582  1.2480  1.9156
 8110SOL     OW35965   4.005   3.864   8.003  0.4150 -0.1339  0.7839
 8110SOL    HW135966   3.985   3.796   8.067  0.7511 -0.7700  0.2117
 8110SOL    HW235967   4.076   3.826   7.951  2.2092 -0.6177  3.5549
 8111SOL     OW35968   0.678   1.728   1.609  0.5173 -0.5426  0.0414
 8111SOL    HW135969   0.639   1.660   1.553 -0.8353 -0.7287  1.2072
 8111SOL    HW235970   0.595   1.773   1.624  0.4622  0.0504 -2.1045
 8112SOL     OW35971   3.103   1.410   7.283 -0.0181 -0.0934 -0.4960
 8112SOL    HW135972   3.083   1.489   7.333  0.7852 -1.2303  1.6315
 8112SOL    HW235973   3.042   1.422   7.210  1.1352  0.7389 -1.3063
 8113SOL     OW35974   4.039   4.707   5.646 -0.8269 -0.1674  0.1919
 8113SOL    HW135975   4.075   4.658   5.720 -1.6110  1.0718  1.3966
 8113SOL    HW235976   4.030   4.649   5.570  0.9092  2.6941 -2.1719
 8114SOL     OW35977   4.729   3.533   2.545  0.3609 -0.2350  0.1601
 8114SOL    HW135978   4.698   3.623   2.551 -0.2226 -0.6175  3.1410
 8114SOL    HW235979   4.660   3.481   2.586 -0.7704  0.4794 -0.8676
 8115SOL     OW35980   4.405   1.134  14.544  0.1142 -0.0707 -0.0594
 8115SOL    HW135981   4.424   1.212  14.597 -1.2823  0.5558 -0.4868
 8115SOL    HW235982   4.362   1.076  14.608  1.0256  0.4095  0.9992
 8116SOL     OW35983   0.438   1.766  12.237  0.2106 -0.3197 -0.3701
 8116SOL    HW135984   0.391   1.694  12.196 -0.1641 -0.7383  0.8126
 8116SOL    HW235985   0.429   1.834  12.170  1.6464  1.6503  1.4430
 8117SOL     OW35986   2.623   3.176  10.207  0.5125 -0.1503  0.6670
 8117SOL    HW135987   2.590   3.245  10.150  1.2703 -1.1650 -0.9993
 8117SOL    HW235988   2.548   3.160  10.264  2.0129  0.3608  2.7742
 8118SOL     OW35989   0.475   2.904   8.489  0.2493 -0.5374 -0.2543
 8118SOL    HW135990   0.396   2.939   8.529  0.5264  2.0634 -1.9793
 8118SOL    HW235991   0.467   2.939   8.401 -2.4074  0.4887  0.4002
 8119SOL     OW35992   1.228   4.575   8.190  0.2457  0.0556  0.0546
 8119SOL    HW135993   1.144   4.558   8.233  0.2775 -2.2948 -0.8162
 8119SOL    HW235994   1.205   4.649   8.134  1.3471  0.1117 -0.3241
 8120SOL     OW35995   4.619   2.459   0.820 -0.5913  0.0513  0.0654
 8120SOL    HW135996   4.567   2.379   0.819  0.2768 -0.5126  0.0244
 8120SOL    HW235997   4.555   2.523   0.789  1.2112  1.0170 -1.6228
 8121SOL     OW35998   0.991   3.842   3.279 -0.0534  0.7868  0.0055
 8121SOL    HW135999   0.957   3.930   3.296  2.4595  1.2518  2.5024
 8121SOL    HW236000   0.910   3.791   3.288  1.9102 -2.3891 -0.5695
 8122SOL     OW36001   0.564   1.438   9.089  0.5413 -0.1638  0.1181
 8122SOL    HW136002   0.491   1.480   9.135 -1.3295 -1.6487 -1.5165
 8122SOL    HW236003   0.552   1.346   9.114  0.4754  0.0717  0.9744
 8123SOL     OW36004   4.541   3.023   4.344  0.3270  0.3531  0.3483
 8123SOL    HW136005   4.595   3.041   4.421 -0.1009  2.2860  0.1838
 8123SOL    HW236006   4.608   3.038   4.277 -0.0689 -0.4770 -0.2329
 8124SOL     OW36007   1.107   0.562  10.129  0.2033 -0.2106 -0.4723
 8124SOL    HW136008   1.182   0.571  10.069 -0.0655  1.0491 -0.5989
 8124SOL    HW236009   1.148   0.505  10.194  0.8067  2.4078  1.4094
 8125SOL     OW36010   4.651   0.472   5.867  0.3551  0.3266 -0.2501
 8125SOL    HW136011   4.670   0.486   5.774  0.8155  0.5415 -0.1265
 8125SOL    HW236012   4.676   0.381   5.879 -3.5010 -1.0693 -3.0018
 8126SOL     OW36013   2.873   0.140   1.854  0.0792  0.1236  0.2863
 8126SOL    HW136014   2.779   0.153   1.838 -0.4746 -0.4745  3.0177
 8126SOL    HW236015   2.878   0.159   1.948  0.9539 -0.2067  0.3027
 8127SOL     OW36016   1.479   0.027   8.413  0.8385 -0.2401  0.0551
 8127SOL    HW136017   1.550   0.039   8.476 -0.5550  0.2061  1.5139
 8127SOL    HW236018   1.512   4.689   8.364  0.6242 -0.3331  0.0540
 8128SOL     OW36019   1.519   3.682  17.739 -0.4382 -0.8953 -0.4086
 8128SOL    HW136020   1.442   3.696   0.047  0.0013  1.3080 -0.3460
 8128SOL    HW236021   1.476   3.630  17.671 -1.5736 -1.1866  0.5251
 8129SOL     OW36022   1.329   2.786   6.862  0.0872  0.2602  0.8455
 8129SOL    HW136023   1.280   2.704   6.871 -1.0372  0.9101  0.6584
 8129SOL    HW236024   1.386   2.778   6.938 -1.8082  0.5630  2.2976
 8130SOL     OW36025   0.018   3.736   6.171  0.2711  0.3483 -0.0054
 8130SOL    HW136026   4.676   3.725   6.224  0.1186 -1.6139 -0.6238
 8130SOL    HW236027   0.081   3.755   6.240  1.0437  0.2263 -0.6814
 8131SOL     OW36028   3.309   3.942   7.879 -0.1112  0.0975  0.5559
 8131SOL    HW136029   3.283   3.987   7.799 -0.7939  1.5298  1.5861
 8131SOL    HW236030   3.280   4.005   7.944 -0.6578  0.1218  0.2869
 8132SOL     OW36031   0.185   2.162  13.886  0.4184  0.5251 -0.1538
 8132SOL    HW136032   0.153   2.182  13.974 -0.1107 -2.1055  0.2728
 8132SOL    HW236033   0.270   2.131  13.918  0.3116 -0.6702 -1.0207
 8133SOL     OW36034   1.282   3.825  14.247  0.7497 -0.0258 -0.3836
 8133SOL    HW136035   1.257   3.896  14.188 -0.3257  2.6654  3.2266
 8133SOL    HW236036   1.343   3.782  14.187 -0.5325 -0.9150 -1.0369
 8134SOL     OW36037   1.031   0.386  17.192  0.3145  0.3164 -0.0434
 8134SOL    HW136038   0.963   0.452  17.207  1.2963  1.5453 -0.9905
 8134SOL    HW236039   0.998   0.345  17.113  1.6397  1.0417 -0.9734
 8135SOL     OW36040   1.802   0.220  14.819  0.3281 -0.4174  0.6208
 8135SOL    HW136041   1.777   0.290  14.880 -0.3188 -0.4102  0.3416
 8135SOL    HW236042   1.897   0.214  14.831  0.5275  0.1712 -0.7914
 8136SOL     OW36043   4.404   2.902  14.146 -0.2082 -0.0380 -0.0519
 8136SOL    HW136044   4.454   2.964  14.092 -1.9704  1.0432 -0.4558
 8136SOL    HW236045   4.343   2.955  14.197  0.4293  0.5421  0.1175
 8137SOL     OW36046   2.209   0.243   7.978  0.1232  0.7789 -0.4733
 8137SOL    HW136047   2.243   0.249   7.889 -2.3948  0.2352 -1.4861
 8137SOL    HW236048   2.279   0.197   8.024 -0.4438  2.3989  1.9590
 8138SOL     OW36049   4.619   2.583   4.418 -0.2546 -0.2003 -0.0523
 8138SOL    HW136050   4.659   2.503   4.385  0.1347  0.2755 -0.7346
 8138SOL    HW236051   4.578   2.545   4.496  0.4033  0.9674  0.8563
 8139SOL     OW36052   1.048   2.615   1.457 -0.4569  0.3056  0.3187
 8139SOL    HW136053   1.080   2.664   1.381 -0.5788  1.0335  0.7441
 8139SOL    HW236054   0.953   2.609   1.445 -0.4247  0.0848  0.1837
 8140SOL     OW36055   3.844   2.879   7.002 -0.2248  0.2039  0.0645
 8140SOL    HW136056   3.841   2.900   7.095 -0.1396 -1.0815  0.3535
 8140SOL    HW236057   3.799   2.952   6.958  0.5983 -0.4904 -1.9059
 8141SOL     OW36058   3.722   3.200   8.421  0.3869  0.1011  0.1033
 8141SOL    HW136059   3.646   3.222   8.368  0.7027  0.6967 -0.0969
 8141SOL    HW236060   3.709   3.278   8.474  1.1981 -0.2596  0.8283
 8142SOL     OW36061   2.691   0.340   9.211 -0.1591  0.4657 -0.3825
 8142SOL    HW136062   2.646   0.312   9.290 -1.9466 -0.6542 -1.7975
 8142SOL    HW236063   2.675   0.264   9.155 -0.1468 -0.9181  1.5153
 8143SOL     OW36064   4.292   3.218   4.120  0.4383  0.6810  0.0647
 8143SOL    HW136065   4.372   3.249   4.077 -0.2445  0.7753 -1.1490
 8143SOL    HW236066   4.288   3.295   4.176 -1.0178  1.7588 -1.5279
 8144SOL     OW36067   4.709   3.543   7.510 -0.5061 -0.5246 -0.2905
 8144SOL    HW136068   4.723   3.476   7.443  0.2298  1.4343 -2.0969
 8144SOL    HW236069   4.617   3.535   7.536 -0.4512 -2.0063 -0.5422
 8145SOL     OW36070   1.609   0.295  10.254 -0.2690 -0.3923 -0.2634
 8145SOL    HW136071   1.592   0.333  10.340  0.2979  0.4000 -0.5090
 8145SOL    HW236072   1.614   0.201  10.274 -0.0402 -0.3116  0.0558
 8146SOL     OW36073   2.132   3.905   2.709 -0.0898 -0.2372 -0.2455
 8146SOL    HW136074   2.129   3.931   2.801  2.7057  1.6419 -0.6669
 8146SOL    HW236075   2.074   3.829   2.709  1.1727 -1.1813  2.1064
 8147SOL     OW36076   2.540   2.512   1.810 -0.4498 -0.1969  0.7590
 8147SOL    HW136077   2.477   2.475   1.748 -1.3642 -2.5435  3.1090
 8147SOL    HW236078   2.542   2.451   1.883  0.1256 -3.1581 -1.7262
 8148SOL     OW36079   0.837   3.556   7.475 -0.3229  0.0172 -0.0023
 8148SOL    HW136080   0.798   3.633   7.434  1.3086  0.1546 -1.2708
 8148SOL    HW236081   0.928   3.549   7.449 -0.0972 -1.6320  1.2024
 8149SOL     OW36082   3.534   4.320   7.691 -0.1365 -0.0181  0.2724
 8149SOL    HW136083   3.498   4.235   7.667  0.5213  0.3505 -1.9765
 8149SOL    HW236084   3.482   4.390   7.651  0.2632  0.1194 -0.0096
 8150SOL     OW36085   0.565   2.196   2.549 -0.0699 -0.2022  0.0654
 8150SOL    HW136086   0.493   2.231   2.601 -1.3901 -2.0155 -0.5475
 8150SOL    HW236087   0.633   2.263   2.538  0.1241 -0.2933  0.7117
 8151SOL     OW36088   2.459   3.220   3.317  0.1072  0.2523  0.1170
 8151SOL    HW136089   2.434   3.273   3.393  1.3177 -0.2448  0.8716
 8151SOL    HW236090   2.372   3.210   3.278  0.5509 -0.6433 -0.6309
 8152SOL     OW36091   1.127   2.975   7.315 -0.0781 -0.0418  0.5694
 8152SOL    HW136092   1.193   2.910   7.291  0.1485 -0.1540  1.4750
 8152SOL    HW236093   1.183   3.031   7.368  1.8092 -0.7587 -0.6602
 8153SOL     OW36094   2.937   1.664  15.752  0.2468 -0.1669  0.2030
 8153SOL    HW136095   2.928   1.652  15.658 -0.4750 -2.7927  0.6061
 8153SOL    HW236096   3.031   1.667  15.770  0.5140 -0.5794 -1.1639
 8154SOL     OW36097   3.377   0.288   2.821  0.2480  0.4091 -0.3591
 8154SOL    HW136098   3.449   0.268   2.762  0.3132  4.5516 -1.6888
 8154SOL    HW236099   3.420   0.363   2.863 -0.7997  0.4693  0.5981
 8155SOL     OW36100   2.086   2.582   5.641  0.0459  0.1585  0.3893
 8155SOL    HW136101   2.100   2.649   5.708  0.0137  0.3679  0.1869
 8155SOL    HW236102   2.083   2.495   5.681  2.3956 -0.3517 -0.5829
 8156SOL     OW36103   2.571   0.860   9.181  0.1938  0.1548 -0.2258
 8156SOL    HW136104   2.648   0.808   9.159 -0.8466 -1.2349 -0.5435
 8156SOL    HW236105   2.585   0.931   9.117  1.5617 -1.2154 -1.4370
 8157SOL     OW36106   3.505   2.823  16.532  0.1809  0.1203  0.3494
 8157SOL    HW136107   3.552   2.875  16.597  1.8156  0.2371 -0.9213
 8157SOL    HW236108   3.483   2.745  16.582 -1.8532  0.9574  0.7504
 8158SOL     OW36109   0.722   2.722   9.106  0.7213 -0.3183  0.1209
 8158SOL    HW136110   0.685   2.653   9.050 -3.4686  3.0825 -1.3079
 8158SOL    HW236111   0.804   2.737   9.059 -0.1484  1.4099 -0.8506
 8159SOL     OW36112   3.525   2.601   7.344 -0.4050  0.6287  0.3161
 8159SOL    HW136113   3.522   2.697   7.344  0.8843  0.6549 -2.2825
 8159SOL    HW236114   3.492   2.584   7.256 -0.5835  0.1390  0.4761
 8160SOL     OW36115   0.684   1.004   7.617  0.3168  0.2521  0.4024
 8160SOL    HW136116   0.616   0.938   7.629 -0.7506  1.4347  1.0160
 8160SOL    HW236117   0.759   0.974   7.669  0.6277 -1.0905 -0.8380
 8161SOL     OW36118   3.620   1.074   5.851  0.6461  0.4033 -0.0410
 8161SOL    HW136119   3.539   1.057   5.898  1.0115  0.3482  0.5680
 8161SOL    HW236120   3.674   1.101   5.926 -2.1927  2.1018  1.3657
 8162SOL     OW36121   0.688   0.842   5.007  0.2846  0.2060 -0.5057
 8162SOL    HW136122   0.723   0.779   4.944 -0.4344 -0.5143 -0.1894
 8162SOL    HW236123   0.713   0.790   5.083  1.9314 -0.3062 -1.4136
 8163SOL     OW36124   0.419   1.657  14.326  0.0179  0.7183 -0.2925
 8163SOL    HW136125   0.487   1.600  14.362 -1.7635 -0.2639  1.5228
 8163SOL    HW236126   0.416   1.733  14.386  0.0074  4.4493 -5.0468
 8164SOL     OW36127   1.981   0.698  13.649  0.1300 -0.0350  0.4478
 8164SOL    HW136128   1.960   0.625  13.707 -0.7932  0.1446  0.3318
 8164SOL    HW236129   1.916   0.703  13.579  2.5004  0.4913 -1.7225
 8165SOL     OW36130   2.942   2.120   4.227  0.1508 -0.2798 -0.1719
 8165SOL    HW136131   2.864   2.122   4.283  0.3291  0.8534  0.0329
 8165SOL    HW236132   2.939   2.026   4.208  0.6200 -0.4882  0.7646
 8166SOL     OW36133   0.050   4.181  15.256  0.0240 -0.3923 -0.4043
 8166SOL    HW136134   4.692   4.175  15.252  0.1368 -2.6569  0.5201
 8166SOL    HW236135   0.077   4.093  15.231 -0.3163 -0.2768 -1.1891
 8167SOL     OW36136   3.471   4.094  12.513 -0.0260  0.2202  0.3654
 8167SOL    HW136137   3.458   4.048  12.430  0.5520 -0.7712  0.8260
 8167SOL    HW236138   3.462   4.022  12.575 -0.2808  0.1621  0.2618
 8168SOL     OW36139   0.577   4.642   3.873  0.4620  0.9194  1.0559
 8168SOL    HW136140   0.536   4.664   3.957 -0.8048  1.7876  0.2099
 8168SOL    HW236141   0.583   4.548   3.886  0.3503  1.0409  1.9844
 8169SOL     OW36142   0.973   2.465   6.852  0.1848 -0.9485  0.5843
 8169SOL    HW136143   1.049   2.503   6.896  2.2045 -1.8952 -2.1260
 8169SOL    HW236144   0.927   2.546   6.833  0.7703 -0.5106  1.0249
 8170SOL     OW36145   2.378   4.262   7.258  0.4285 -0.3495  0.0172
 8170SOL    HW136146   2.404   4.175   7.288 -1.1306 -0.4553  1.0824
 8170SOL    HW236147   2.372   4.256   7.163  0.0494  0.1354  0.0117
 8171SOL     OW36148   3.475   0.251   3.403  0.0601  0.3862  0.3215
 8171SOL    HW136149   3.505   0.201   3.479  1.9365 -1.8609 -1.8869
 8171SOL    HW236150   3.477   0.187   3.332  0.3848 -2.1999  2.6885
 8172SOL     OW36151   3.715   4.129   9.220  0.1771 -0.1866 -0.1627
 8172SOL    HW136152   3.639   4.167   9.177  0.4742  1.0834  0.4555
 8172SOL    HW236153   3.687   4.040   9.243 -0.4995 -0.3475 -1.5959
 8173SOL     OW36154   3.922   4.703   2.324  0.0574  0.2981 -0.3354
 8173SOL    HW136155   3.910   0.003   2.237 -2.1957  0.0807 -0.1047
 8173SOL    HW236156   3.876   4.620   2.331  1.1635 -0.2316  0.8225
 8174SOL     OW36157   3.897   2.172   5.435  0.3570  0.6538 -0.0360
 8174SOL    HW136158   3.805   2.195   5.447  0.9744  0.8984  3.9662
 8174SOL    HW236159   3.930   2.222   5.510 -1.6735 -0.2217  1.4266
 8175SOL     OW36160   0.102   4.597   4.352  0.0448 -0.2270  0.3263
 8175SOL    HW136161   0.012   4.574   4.328  0.9131 -2.6264 -0.6121
 8175SOL    HW236162   0.102   4.687   4.383  0.0530 -0.3255  0.6066
 8176SOL     OW36163   1.507   0.359   2.303  0.1494  0.3710 -0.2701
 8176SOL    HW136164   1.546   0.421   2.365 -0.6310  0.1052  0.4822
 8176SOL    HW236165   1.564   0.384   2.230  0.7304 -0.0066  0.0571
 8177SOL     OW36166   1.631   3.224   7.992 -0.2436 -0.1982 -0.4302
 8177SOL    HW136167   1.623   3.277   7.913 -1.3133 -1.7093 -1.3372
 8177SOL    HW236168   1.670   3.287   8.053  2.1675 -0.5578 -1.5799
 8178SOL     OW36169   3.217   1.514  15.658 -0.0474 -0.0481 -0.6653
 8178SOL    HW136170   3.162   1.519  15.736  0.4788 -2.3947 -0.1321
 8178SOL    HW236171   3.288   1.575  15.680 -0.6747  0.6750 -0.6762
 8179SOL     OW36172   3.692   2.448   4.175  0.0176 -0.0294 -0.0551
 8179SOL    HW136173   3.649   2.507   4.237 -1.7731  0.8546 -2.1352
 8179SOL    HW236174   3.772   2.496   4.154 -0.8496  1.9473  1.1591
 8180SOL     OW36175   2.316   2.345  12.809 -0.5442  0.3251  0.8617
 8180SOL    HW136176   2.350   2.416  12.863 -1.5732  1.9964 -0.6866
 8180SOL    HW236177   2.301   2.278  12.875  0.2379 -1.3705 -0.6744
 8181SOL     OW36178   1.902   0.245   2.743  0.0920  0.1106  0.3597
 8181SOL    HW136179   1.969   0.287   2.797 -0.8947  0.2086  1.5152
 8181SOL    HW236180   1.828   0.242   2.803 -0.8314 -1.7222 -0.8697
 8182SOL     OW36181   2.397   1.735   0.214 -0.1330 -1.0094  0.0477
 8182SOL    HW136182   2.408   1.728   0.120 -1.6280 -1.6234 -0.0819
 8182SOL    HW236183   2.484   1.715   0.247 -1.2527 -3.9115  1.2867
 8183SOL     OW36184   1.571   3.914   6.767 -0.0703  0.1971  0.0796
 8183SOL    HW136185   1.482   3.878   6.772  0.4349 -0.8072  1.6664
 8183SOL    HW236186   1.558   3.972   6.691  0.5606  1.2900  0.7998
 8184SOL     OW36187   4.139   1.761  12.378  0.0993  0.1137 -0.4672
 8184SOL    HW136188   4.113   1.853  12.376 -2.0541 -0.5174 -0.8136
 8184SOL    HW236189   4.215   1.768  12.320  0.4258 -1.3147 -0.2036
 8185SOL     OW36190   1.799   3.875   4.163 -0.0683 -0.2867  0.0231
 8185SOL    HW136191   1.848   3.956   4.151  0.8705 -0.9567 -0.6081
 8185SOL    HW236192   1.723   3.877   4.104  0.9709 -1.0439 -1.3370
 8186SOL     OW36193   0.968   2.146   3.865 -0.0057 -0.5388 -0.0065
 8186SOL    HW136194   0.947   2.234   3.896 -0.8934 -0.7834  0.0973
 8186SOL    HW236195   1.063   2.145   3.854  0.0626 -1.4643  0.6150
 8187SOL     OW36196   4.449   3.556   2.836 -0.3018  0.3264  0.4292
 8187SOL    HW136197   4.418   3.519   2.918  1.6132  0.2989  1.1394
 8187SOL    HW236198   4.415   3.487   2.779  1.3553 -0.1570  0.0235
 8188SOL     OW36199   0.574   4.423   4.628 -0.3139 -0.6686  0.1076
 8188SOL    HW136200   0.484   4.396   4.648 -1.0448  0.6793 -1.4176
 8188SOL    HW236201   0.575   4.392   4.538  0.0947  0.2090 -0.1839
 8189SOL     OW36202   2.468   3.361   6.127 -0.2667 -0.3980 -0.1807
 8189SOL    HW136203   2.498   3.335   6.214  0.0565 -0.4384 -0.3024
 8189SOL    HW236204   2.511   3.445   6.109  0.3416 -0.9981 -1.5212
 8190SOL     OW36205   0.004   4.513   5.029 -0.4181  0.2187 -0.2594
 8190SOL    HW136206   0.043   4.432   5.061 -2.5802 -0.3215  0.9630
 8190SOL    HW236207   4.653   4.477   5.018 -1.1435  1.9806 -0.1650
 8191SOL     OW36208   2.200   0.408  10.777  0.0373  0.1880 -0.9706
 8191SOL    HW136209   2.113   0.421  10.741 -0.5941  1.3819  0.9839
 8191SOL    HW236210   2.231   0.498  10.782 -1.3262  0.6596 -0.9927
 8192SOL     OW36211   0.111   0.119   4.429 -0.3107  0.1104  1.0210
 8192SOL    HW136212   0.043   0.177   4.394 -0.8481  0.2706  2.3161
 8192SOL    HW236213   0.136   0.167   4.509  0.0139  0.4537  0.7153
 8193SOL     OW36214   0.703   3.306   2.217  0.5014  0.2636 -0.6734
 8193SOL    HW136215   0.631   3.257   2.177  1.1479 -2.4057  1.4840
 8193SOL    HW236216   0.681   3.311   2.310  1.4087 -1.1580 -0.3959
 8194SOL     OW36217   3.405   1.589   7.057  0.3924  0.2680 -0.0481
 8194SOL    HW136218   3.336   1.655   7.060  0.0989  0.0500 -1.7321
 8194SOL    HW236219   3.444   1.623   6.976 -1.1421  0.2184 -0.8052
 8195SOL     OW36220   3.419   2.296   6.135  0.2572 -0.2775  0.4347
 8195SOL    HW136221   3.424   2.204   6.111 -3.2071 -0.9214  2.1755
 8195SOL    HW236222   3.490   2.329   6.080  0.9741  0.1439  1.6080
 8196SOL     OW36223   1.221   1.401  11.562 -0.5977 -0.1703  0.0506
 8196SOL    HW136224   1.154   1.353  11.609 -0.3360  0.9441  1.5551
 8196SOL    HW236225   1.187   1.391  11.473  1.9789  0.5922 -1.0374
 8197SOL     OW36226   0.606   1.973   2.372  1.2104  0.8164  0.6784
 8197SOL    HW136227   0.649   1.986   2.287  0.9689 -0.4688  0.3611
 8197SOL    HW236228   0.614   2.053   2.424 -1.2998  0.4385  1.6283
 8198SOL     OW36229   3.871   1.003   7.421  0.4310  0.3516  0.3670
 8198SOL    HW136230   3.888   1.066   7.351  1.9671  0.2917  0.6829
 8198SOL    HW236231   3.888   0.922   7.372  1.1330 -0.3244  1.7316
 8199SOL     OW36232   4.236   0.532   7.110 -0.4016 -0.0967  0.1181
 8199SOL    HW136233   4.146   0.560   7.122 -0.3827 -0.9446  2.1810
 8199SOL    HW236234   4.277   0.547   7.195 -1.6419 -0.0594  0.7104
 8200SOL     OW36235   2.304   1.986   2.419  0.4226  0.4216 -0.2587
 8200SOL    HW136236   2.291   1.959   2.509  2.2521 -1.1252 -0.4508
 8200SOL    HW236237   2.390   1.946   2.402 -0.2121 -1.3701  0.8158
 8201SOL     OW36238   1.528   3.654   8.880 -0.7285  0.2141 -0.0421
 8201SOL    HW136239   1.493   3.741   8.862 -0.0957  0.4961  0.0672
 8201SOL    HW236240   1.470   3.595   8.832 -0.3015 -1.2304  1.1980
 8202SOL     OW36241   4.170   2.330   4.081  0.0202 -0.0985  0.3434
 8202SOL    HW136242   4.138   2.364   3.997  0.9874 -0.7180 -0.2736
 8202SOL    HW236243   4.196   2.406   4.135 -0.4673 -0.0146  0.4572
 8203SOL     OW36244   1.457   4.413  16.158 -0.0887  0.0020 -0.7462
 8203SOL    HW136245   1.548   4.434  16.138  0.5036 -1.2265  0.6553
 8203SOL    HW236246   1.447   4.346  16.090  2.4469 -0.8195 -0.3415
 8204SOL     OW36247   3.408   0.583   6.242 -0.4593  0.4913  0.6036
 8204SOL    HW136248   3.463   0.504   6.250  0.3366  1.0233  0.3935
 8204SOL    HW236249   3.434   0.636   6.317  0.3306  1.9586 -0.7000
 8205SOL     OW36250   1.879   1.639   6.881 -0.8808  0.3652 -0.2530
 8205SOL    HW136251   1.864   1.731   6.858 -2.6151  0.0324 -0.4694
 8205SOL    HW236252   1.836   1.576   6.823 -1.3181 -0.3382  0.8195
 8206SOL     OW36253   2.662   3.425  15.722 -0.1301  0.3542  0.1736
 8206SOL    HW136254   2.725   3.360  15.754 -0.3317 -0.9166 -2.0667
 8206SOL    HW236255   2.602   3.431  15.796 -0.7339 -0.1811 -0.2770
 8207SOL     OW36256   4.440   2.088  11.484  0.1242 -0.0648 -0.2335
 8207SOL    HW136257   4.395   2.050  11.408 -1.9780 -0.0886  1.0140
 8207SOL    HW236258   4.504   2.148  11.447 -2.2712  1.2252 -2.2533
 8208SOL     OW36259   4.300   4.436   7.198 -0.5657 -0.2018 -0.2192
 8208SOL    HW136260   4.267   4.525   7.209 -0.2431 -0.0604 -0.3978
 8208SOL    HW236261   4.257   4.386   7.268  1.6541 -0.4398  0.9950
 8209SOL     OW36262   2.308   4.270   3.128  0.0391  0.1223 -0.3280
 8209SOL    HW136263   2.251   4.304   3.059 -1.7882 -2.5745 -0.1506
 8209SOL    HW236264   2.359   4.213   3.071 -0.0679 -0.6405  0.3335
 8210SOL     OW36265   3.194   1.253   4.322  0.6109 -0.5476  0.0086
 8210SOL    HW136266   3.271   1.294   4.361 -0.8937 -0.0582  2.5224
 8210SOL    HW236267   3.146   1.335   4.305 -0.3150 -1.6187 -2.4598
 8211SOL     OW36268   2.004   0.685   2.106 -0.7932 -0.1634  0.0869
 8211SOL    HW136269   2.073   0.722   2.161  0.2042 -1.5314 -0.2343
 8211SOL    HW236270   1.972   0.614   2.162 -0.2772  0.2826  0.9554
 8212SOL     OW36271   4.221   0.209   1.739 -0.2083 -0.1729 -0.2807
 8212SOL    HW136272   4.280   0.263   1.791 -1.0578  0.3526  0.1329
 8212SOL    HW236273   4.232   0.258   1.657 -0.6843 -1.2972 -1.0202
 8213SOL     OW36274   3.768   1.510   4.692  0.3569  0.1249 -0.1768
 8213SOL    HW136275   3.724   1.472   4.768  1.8023 -1.7352 -0.3050
 8213SOL    HW236276   3.706   1.484   4.624  0.0625 -0.3913  0.2902
 8214SOL     OW36277   0.065   2.310  11.018  0.2886  0.2135 -0.2460
 8214SOL    HW136278   0.160   2.307  11.025  0.0141  2.5043  4.0866
 8214SOL    HW236279   0.038   2.398  11.045  0.8259  0.6275 -1.0239
 8215SOL     OW36280   4.116   2.514   7.363  0.4135  0.2213  0.3776
 8215SOL    HW136281   4.048   2.579   7.344 -1.3061 -1.3294  1.2955
 8215SOL    HW236282   4.076   2.490   7.446 -1.0506  0.0560 -0.3797
 8216SOL     OW36283   1.199   3.255  10.730 -0.1596  0.3311  0.6761
 8216SOL    HW136284   1.230   3.320  10.667  0.3494  0.1705  0.7620
 8216SOL    HW236285   1.276   3.231  10.782  0.4424  0.5815 -0.0942
 8217SOL     OW36286   3.679   1.184   2.909 -0.4742 -0.5378  0.0623
 8217SOL    HW136287   3.606   1.202   2.968 -0.7261  1.0809 -0.7310
 8217SOL    HW236288   3.740   1.257   2.918 -0.0933 -0.6459 -1.7437
 8218SOL     OW36289   4.264   2.053   9.015 -0.7575  0.2114  0.6874
 8218SOL    HW136290   4.303   2.140   9.017  1.5443 -0.7191 -2.8013
 8218SOL    HW236291   4.323   2.001   8.960 -0.9728  0.0190  0.6408
 8219SOL     OW36292   3.755   0.944  17.714 -0.3455  0.1446 -0.4771
 8219SOL    HW136293   3.849   0.935  17.696  0.1865  0.1142  2.3447
 8219SOL    HW236294   3.743   0.911   0.056  0.3753  1.7100  0.1989
 8220SOL     OW36295   3.441   0.750   4.260 -0.1773  0.1001  0.4972
 8220SOL    HW136296   3.432   0.825   4.318 -1.3244 -0.1164  0.5990
 8220SOL    HW236297   3.411   0.781   4.175  2.5462  1.2053 -0.0481
 8221SOL     OW36298   2.212   4.172   4.299 -0.1008  0.0044  0.2519
 8221SOL    HW136299   2.119   4.167   4.278 -0.0372  1.8283 -0.5225
 8221SOL    HW236300   2.217   4.203   4.389  0.1304  0.9135 -0.0733
 8222SOL     OW36301   2.117   0.660   3.038  0.8032 -0.0121 -0.5998
 8222SOL    HW136302   2.114   0.729   3.104 -0.9471  1.5631 -2.3163
 8222SOL    HW236303   2.100   0.708   2.956 -0.0446 -2.2841 -1.7489
 8223SOL     OW36304   3.216   0.021   8.842 -0.1226 -0.5988 -0.2218
 8223SOL    HW136305   3.141   4.706   8.815  0.5261 -0.2603 -2.6829
 8223SOL    HW236306   3.260   4.704   8.907  1.8804  2.0135  0.6037
 8224SOL     OW36307   3.640   2.328   9.357  0.2952 -0.2558  0.5222
 8224SOL    HW136308   3.601   2.345   9.272  2.2290  0.2922 -0.2375
 8224SOL    HW236309   3.717   2.276   9.335 -1.0374 -1.3447 -1.5161
 8225SOL     OW36310   0.364   0.020   4.495 -0.0270 -0.0385  0.2928
 8225SOL    HW136311   0.382   0.022   4.401  1.7591 -0.4247  0.6173
 8225SOL    HW236312   0.270   0.035   4.497 -0.2216 -1.1765 -0.5479
 8226SOL     OW36313   4.165   1.815  14.894  0.4018 -0.1761 -0.0763
 8226SOL    HW136314   4.171   1.739  14.836 -0.2095 -0.6913  0.5292
 8226SOL    HW236315   4.176   1.778  14.982  0.6967 -0.6949 -0.3296
 8227SOL     OW36316   1.851   2.425   4.842 -0.4833 -0.0944  0.4059
 8227SOL    HW136317   1.944   2.438   4.862 -0.5085  1.5546 -0.5972
 8227SOL    HW236318   1.824   2.495   4.782 -0.2652 -0.1420  0.2528
 8228SOL     OW36319   3.082   3.736   9.427 -0.2611 -0.4245 -0.2077
 8228SOL    HW136320   3.169   3.722   9.465 -0.4637  1.9323  1.1322
 8228SOL    HW236321   3.032   3.778   9.497  1.4379  1.8961 -0.3391
 8229SOL     OW36322   2.776   4.069   3.164 -0.0377 -0.0283  0.5294
 8229SOL    HW136323   2.822   4.085   3.246 -1.2958  1.8155  0.8908
 8229SOL    HW236324   2.701   4.128   3.169 -0.9249 -1.3564  2.9244
 8230SOL     OW36325   2.997   1.078   8.168  0.3642  0.0853  0.0263
 8230SOL    HW136326   3.044   1.157   8.197 -0.3082 -0.2062  1.8783
 8230SOL    HW236327   3.043   1.012   8.219  0.8219 -1.1757 -2.0032
 8231SOL     OW36328   1.294   1.386   0.486 -0.0593 -0.5797 -1.0872
 8231SOL    HW136329   1.293   1.480   0.500 -1.6204 -0.8969  0.9817
 8231SOL    HW236330   1.211   1.368   0.441 -0.0442 -2.2088 -0.4592
 8232SOL     OW36331   2.263   1.487  14.545  0.3633 -0.0929  0.5310
 8232SOL    HW136332   2.197   1.556  14.536 -0.0265 -0.5321  0.0311
 8232SOL    HW236333   2.224   1.415  14.496  0.3674  0.3958 -0.2016
 8233SOL     OW36334   3.047   0.136   9.168 -0.3433 -0.6496  0.2367
 8233SOL    HW136335   2.956   0.117   9.144  0.1476  0.2373 -2.2782
 8233SOL    HW236336   3.041   0.136   9.264 -0.3902 -0.8069  0.2323
 8234SOL     OW36337   3.518   1.099   8.622 -0.6989 -0.3369  0.2353
 8234SOL    HW136338   3.450   1.134   8.566 -0.7473  0.2962  0.6883
 8234SOL    HW236339   3.537   1.014   8.581 -0.8916 -0.8205  1.1429
 8235SOL     OW36340   3.858   0.614   3.831  0.0979  0.1719 -0.0275
 8235SOL    HW136341   3.887   0.668   3.905  0.5949 -0.1343  0.0008
 8235SOL    HW236342   3.807   0.670   3.773 -1.9789 -0.3046  1.3503
 8236SOL     OW36343   4.103   2.456   4.864  0.0507 -0.0994 -0.0302
 8236SOL    HW136344   4.134   2.379   4.816  1.0305  0.2922 -0.0292
 8236SOL    HW236345   4.059   2.413   4.937 -1.8654  2.0661  0.1161
 8237SOL     OW36346   3.184   2.076   8.068 -0.5649 -0.1096 -0.1058
 8237SOL    HW136347   3.230   2.076   7.985  1.8058  4.0366  1.2074
 8237SOL    HW236348   3.108   2.019   8.054 -0.8274 -0.7510  3.9443
 8238SOL     OW36349   4.045   1.239  12.429 -0.1289 -0.2122 -0.0746
 8238SOL    HW136350   4.047   1.334  12.443 -1.8737 -0.0568 -0.8610
 8238SOL    HW236351   3.978   1.214  12.492 -0.6143  0.4237 -0.3391
 8239SOL     OW36352   3.255   0.811   7.979 -0.4789 -0.0240 -0.6924
 8239SOL    HW136353   3.229   0.843   7.892 -2.9745 -0.8518 -0.2293
 8239SOL    HW236354   3.240   0.717   7.974  2.8129 -0.5488 -1.0786
 8240SOL     OW36355   0.928   3.749   6.915 -0.2145 -0.0475  0.0955
 8240SOL    HW136356   0.944   3.676   6.855  2.3357  0.0933  0.5973
 8240SOL    HW236357   0.832   3.747   6.922 -0.2037 -1.3866 -0.2258
 8241SOL     OW36358   3.439   0.973  10.267 -0.1538 -0.0963 -0.4431
 8241SOL    HW136359   3.344   0.986  10.257  0.2003  0.5643 -2.9016
 8241SOL    HW236360   3.458   1.045  10.207  2.0616 -0.7316 -0.4978
 8242SOL     OW36361   2.805   1.767   9.037  0.7071  0.2220  0.0407
 8242SOL    HW136362   2.880   1.711   9.056  2.5308  2.1458 -1.5184
 8242SOL    HW236363   2.847   1.852   9.043  1.1013  0.0261  0.0525
 8243SOL     OW36364   3.124   1.727   4.615  0.4246  0.3545  0.1438
 8243SOL    HW136365   3.181   1.763   4.683 -0.9719 -0.7479  1.8883
 8243SOL    HW236366   3.172   1.764   4.540  0.3704 -1.7130 -0.9099
 8244SOL     OW36367   0.732   3.410   5.170  0.2213  0.0731 -0.8417
 8244SOL    HW136368   0.664   3.388   5.106 -0.6420 -1.2750  0.5412
 8244SOL    HW236369   0.770   3.487   5.129 -0.6251  1.1277  0.3655
 8245SOL     OW36370   1.138   4.085   3.426  0.1614 -0.4786 -0.3996
 8245SOL    HW136371   1.056   4.071   3.379 -0.9015  2.3239  0.6121
 8245SOL    HW236372   1.165   4.172   3.398 -1.3687  0.2034  0.2277
 8246SOL     OW36373   2.501   3.435   4.812 -0.1216  0.1531 -0.3890
 8246SOL    HW136374   2.484   3.447   4.719  1.6773 -1.0753 -0.8820
 8246SOL    HW236375   2.577   3.377   4.819 -1.4853 -1.6804 -0.8474
 8247SOL     OW36376   3.951   3.124   4.703 -0.1880  0.2941 -0.6699
 8247SOL    HW136377   3.893   3.143   4.778 -0.6503 -1.7900 -0.5107
 8247SOL    HW236378   3.898   3.083   4.635 -1.4633  0.9115 -0.0664
 8248SOL     OW36379   2.128   4.054   3.931  0.0449  0.5335  0.3019
 8248SOL    HW136380   2.143   3.975   3.982 -1.1327 -0.7243 -1.3267
 8248SOL    HW236381   2.144   4.018   3.844  0.1548 -0.5865  0.7860
 8249SOL     OW36382   2.612   1.609  13.481  0.4308 -0.5232  0.3133
 8249SOL    HW136383   2.698   1.645  13.500 -0.3893  2.1720 -1.1875
 8249SOL    HW236384   2.569   1.593  13.566  0.4034 -0.8146  0.2449
 8250SOL     OW36385   0.217   1.230   5.376 -0.0183 -0.2462  0.0660
 8250SOL    HW136386   0.165   1.164   5.331 -0.3898 -0.1602  0.3727
 8250SOL    HW236387   0.161   1.308   5.371 -0.2846 -0.3686  1.2374
 8251SOL     OW36388   4.024   1.008   8.635  0.3645 -0.6053  0.3478
 8251SOL    HW136389   3.956   0.965   8.688 -0.7223 -0.7459 -1.1385
 8251SOL    HW236390   3.977   1.087   8.608  2.2762  0.2425 -0.4968
 8252SOL     OW36391   2.575   2.663   4.060  0.7348  0.0888  0.0665
 8252SOL    HW136392   2.656   2.617   4.080  0.3197 -1.4668 -1.8869
 8252SOL    HW236393   2.522   2.653   4.140 -0.7432  0.3848 -0.8705
 8253SOL     OW36394   0.011   4.412   5.405  0.8695 -0.9120 -1.1455
 8253SOL    HW136395   4.654   4.411   5.389  0.5027 -0.5997  0.9960
 8253SOL    HW236396   0.010   4.327   5.448  1.1312 -0.5285 -0.3809
 8254SOL     OW36397   1.218   2.788  17.175  0.2593 -0.5391  0.6193
 8254SOL    HW136398   1.201   2.863  17.119 -0.7985 -1.5701 -0.4468
 8254SOL    HW236399   1.200   2.710  17.123 -0.0541  0.4590 -0.7504
 8255SOL     OW36400   3.321   1.442   6.009  0.4389 -0.1419 -0.0592
 8255SOL    HW136401   3.268   1.517   6.038  0.0906 -0.5285  0.2932
 8255SOL    HW236402   3.290   1.376   6.071  0.6380  1.8790  2.1975
 8256SOL     OW36403   2.192   3.691   7.922 -0.5619 -0.5301 -0.4704
 8256SOL    HW136404   2.218   3.641   7.998  0.1963  0.2929 -0.1845
 8256SOL    HW236405   2.206   3.781   7.953 -2.0375 -0.8321  1.0402
 8257SOL     OW36406   0.479   2.134  14.357  0.8557  0.4758  0.3142
 8257SOL    HW136407   0.438   2.219  14.343  2.0314  0.9494 -0.2520
 8257SOL    HW236408   0.548   2.143  14.291  1.3276  1.3164  0.9179
 8258SOL     OW36409   1.110   4.478   7.581  0.4206  0.7938  0.8287
 8258SOL    HW136410   1.045   4.548   7.571 -1.0814 -0.6375  0.4078
 8258SOL    HW236411   1.151   4.507   7.662  2.2562  0.5108 -0.0138
 8259SOL     OW36412   0.226   0.256   0.040  0.1179  0.1810 -0.4953
 8259SOL    HW136413   0.132   0.269   0.026 -0.0377 -0.9281 -0.4837
 8259SOL    HW236414   0.261   0.250  17.698 -1.1193  0.1362 -0.9826
 8260SOL     OW36415   2.342   1.889   4.561  0.0508  0.0353 -0.2757
 8260SOL    HW136416   2.436   1.906   4.563 -0.4398  2.2598  2.4924
 8260SOL    HW236417   2.322   1.921   4.473  1.5022  2.2777  0.2150
 8261SOL     OW36418   0.814   2.644   2.034  0.2838 -0.4321  0.0882
 8261SOL    HW136419   0.793   2.673   2.123 -1.0793 -0.1124 -0.3469
 8261SOL    HW236420   0.851   2.558   2.051  2.9417  0.3427 -1.7379
 8262SOL     OW36421   2.451   3.498   4.532  0.5986  0.0033 -0.2560
 8262SOL    HW136422   2.428   3.510   4.440 -0.6305 -0.1923  0.0209
 8262SOL    HW236423   2.525   3.558   4.540 -0.6372  1.7929 -2.4016
 8263SOL     OW36424   2.836   4.172   5.598  0.1282 -0.1066 -0.2684
 8263SOL    HW136425   2.757   4.201   5.644 -0.6365  0.8236 -2.1771
 8263SOL    HW236426   2.830   4.085   5.636 -2.1022  1.2344  2.5015
 8264SOL     OW36427   0.037   4.271   2.560  0.3686 -0.3723  0.4874
 8264SOL    HW136428   0.071   4.251   2.647 -0.7523 -0.9687  0.7938
 8264SOL    HW236429   0.056   4.364   2.558  0.4119 -0.4641 -3.1367
 8265SOL     OW36430   2.904   0.385   2.758  0.2531 -0.2848 -0.3006
 8265SOL    HW136431   2.942   0.468   2.787  3.3862 -2.2749  1.2488
 8265SOL    HW236432   2.814   0.399   2.727 -0.4338  1.2606  2.3147
 8266SOL     OW36433   2.264   2.833   4.698  0.2637 -0.5606 -0.0353
 8266SOL    HW136434   2.198   2.763   4.701 -0.3191  0.0658  1.6029
 8266SOL    HW236435   2.284   2.852   4.790 -0.2598 -1.8447  0.3470
 8267SOL     OW36436   3.380   4.098   4.323  0.6976 -0.0079  0.6555
 8267SOL    HW136437   3.286   4.095   4.303  0.9177  1.8594 -0.6943
 8267SOL    HW236438   3.397   4.013   4.283  0.2075  0.5315 -0.7361
 8268SOL     OW36439   2.537   2.769   3.244 -0.6359  0.2193 -0.0595
 8268SOL    HW136440   2.538   2.781   3.338 -0.7156 -1.3034  0.1399
 8268SOL    HW236441   2.471   2.700   3.243 -0.5811  0.1663  0.0256
 8269SOL     OW36442   1.351   3.869   1.507 -0.6614 -0.2898 -0.3541
 8269SOL    HW136443   1.291   3.930   1.464 -1.3672  0.2638  1.4107
 8269SOL    HW236444   1.435   3.887   1.466 -1.3375 -2.4079 -2.6805
 8270SOL     OW36445   3.759   3.112   1.677  0.1739  0.4051  0.2855
 8270SOL    HW136446   3.829   3.178   1.681  0.0651  0.4730  1.0236
 8270SOL    HW236447   3.780   3.082   1.589  0.7602  0.9747  0.2265
 8271SOL     OW36448   2.711   4.003   6.643  0.0554 -0.6765  0.2210
 8271SOL    HW136449   2.628   4.024   6.686  0.7622  2.3725  0.0545
 8271SOL    HW236450   2.694   3.921   6.597 -0.5777  0.1449 -1.0111
 8272SOL     OW36451   1.367   3.341   7.635  0.0585 -0.2634 -0.2394
 8272SOL    HW136452   1.411   3.421   7.605  0.9726 -0.8198 -0.3713
 8272SOL    HW236453   1.380   3.292   7.554 -1.7928  0.3610 -0.9192
 8273SOL     OW36454   1.199   0.487  14.916 -1.1527 -0.6166 -0.0621
 8273SOL    HW136455   1.215   0.392  14.922  1.4629 -0.2978 -2.0036
 8273SOL    HW236456   1.109   0.497  14.948 -1.0280 -1.6359  0.6172
 8274SOL     OW36457   3.672   3.510   7.023 -0.1570  0.4521  0.1249
 8274SOL    HW136458   3.692   3.424   7.059 -2.5617 -0.1733 -0.0628
 8274SOL    HW236459   3.695   3.490   6.933  1.7002 -0.8697  0.8770
 8275SOL     OW36460   3.687   0.356   4.295  0.5582 -0.0858  0.1578
 8275SOL    HW136461   3.592   0.349   4.288  0.3943 -0.2197  2.5526
 8275SOL    HW236462   3.700   0.315   4.381 -3.1478  0.6491  1.0642
 8276SOL     OW36463   2.039   4.663   5.700 -0.3478 -0.2008 -0.4587
 8276SOL    HW136464   1.957   4.614   5.710  0.1920 -1.0162 -0.0659
 8276SOL    HW236465   2.081   4.663   5.786 -1.9240  0.7167  0.3104
 8277SOL     OW36466   0.815   1.960   8.695  0.4850 -0.1977  0.5382
 8277SOL    HW136467   0.769   2.022   8.638 -0.3335  0.0081  1.4156
 8277SOL    HW236468   0.755   1.964   8.770 -2.8353  0.8119 -2.1765
 8278SOL     OW36469   2.650   4.476  17.134  0.1743  0.4029 -0.6010
 8278SOL    HW136470   2.692   4.416  17.195  0.3855  0.0085 -1.1379
 8278SOL    HW236471   2.580   4.509  17.190  1.0223  2.7131 -0.9096
 8279SOL     OW36472   4.465   1.121   1.712 -0.5356  0.2175 -0.3064
 8279SOL    HW136473   4.525   1.137   1.639  0.4569 -1.6057  0.1259
 8279SOL    HW236474   4.531   1.110   1.780 -1.6788  0.3634  0.8147
 8280SOL     OW36475   3.122   0.426   9.388 -0.4050  0.4628 -0.1380
 8280SOL    HW136476   3.155   0.336   9.398  0.6256  0.9122  0.5486
 8280SOL    HW236477   3.115   0.451   9.480  0.3672  3.1360 -0.7972
 8281SOL     OW36478   3.084   1.539   1.888 -0.1315  0.7025  0.9605
 8281SOL    HW136479   3.112   1.613   1.835 -1.1925 -0.5535 -1.3131
 8281SOL    HW236480   3.081   1.472   1.820  2.0141  3.1280 -1.5313
 8282SOL     OW36481   2.102   3.916  10.950 -0.0639  0.0927  0.2433
 8282SOL    HW136482   2.141   3.840  10.907 -0.8151  0.4878 -1.1465
 8282SOL    HW236483   2.171   3.976  10.981  0.5953  0.3863 -1.7604
 8283SOL     OW36484   0.526   4.253   4.394  0.2836 -0.3943  0.3270
 8283SOL    HW136485   0.498   4.192   4.325  0.0018 -0.3592  0.4117
 8283SOL    HW236486   0.478   4.334   4.381 -0.3890 -0.9056 -0.4035
 8284SOL     OW36487   1.477   1.363  12.180  0.7089  0.1237  0.7340
 8284SOL    HW136488   1.525   1.288  12.145 -0.8647 -0.9243  0.8143
 8284SOL    HW236489   1.413   1.314  12.232 -0.2559 -1.2809 -1.7868
 8285SOL     OW36490   4.633   4.731   1.256 -0.0416 -0.2852  0.3904
 8285SOL    HW136491   4.576   0.069   1.270  3.0073  2.0912 -0.1267
 8285SOL    HW236492   4.719   0.032   1.239 -1.5783  2.0833 -1.9495
 8286SOL     OW36493   0.588   0.512   3.784  0.0075 -0.0856 -0.0669
 8286SOL    HW136494   0.510   0.500   3.837  0.3012 -1.5578  0.0260
 8286SOL    HW236495   0.556   0.557   3.706  0.1348 -0.0384 -0.0928
 8287SOL     OW36496   2.353   3.159   7.044 -0.2396 -0.2516  0.2483
 8287SOL    HW136497   2.355   3.140   6.950  0.8901  0.3774  0.1453
 8287SOL    HW236498   2.399   3.243   7.038 -1.2107  0.1555 -1.8518
 8288SOL     OW36499   4.396   2.501  15.193 -0.3913 -0.4254  0.0593
 8288SOL    HW136500   4.399   2.525  15.100 -0.8562 -0.2429  0.0912
 8288SOL    HW236501   4.471   2.442  15.201  0.1999  0.2327 -0.6034
 8289SOL     OW36502   0.375   0.524   3.960 -0.0266  0.1225 -0.1253
 8289SOL    HW136503   0.411   0.576   4.032 -0.0953 -0.4608  0.3342
 8289SOL    HW236504   0.286   0.535   3.992  0.3868  0.6017  0.8669
 8290SOL     OW36505   3.496   2.641   1.213 -0.5925 -0.3286  0.6944
 8290SOL    HW136506   3.560   2.711   1.199  2.2618 -2.5903  2.3477
 8290SOL    HW236507   3.418   2.680   1.253  1.1675  2.3541  1.4869
 8291SOL     OW36508   3.553   3.098   3.437  0.1214  0.1195  0.4499
 8291SOL    HW136509   3.618   3.162   3.466  2.1468 -0.8618 -1.9321
 8291SOL    HW236510   3.578   3.112   3.346 -0.5933 -1.0126  0.0834
 8292SOL     OW36511   3.652   0.331   7.140 -0.3857 -0.3474 -0.0589
 8292SOL    HW136512   3.713   0.294   7.076  0.3630  0.2963  0.2840
 8292SOL    HW236513   3.645   0.259   7.201  0.3955  0.8948  1.4998
 8293SOL     OW36514   3.834   1.856   0.887 -0.3741 -0.1913 -0.2483
 8293SOL    HW136515   3.928   1.856   0.867 -0.5194  2.3698 -0.9353
 8293SOL    HW236516   3.808   1.947   0.869  3.8704  1.5741  2.4171
 8294SOL     OW36517   0.342   2.122  10.734  0.2680  0.2548 -0.4527
 8294SOL    HW136518   0.323   2.190  10.799 -0.5117  1.9265 -2.4239
 8294SOL    HW236519   0.266   2.125  10.676 -0.9389 -1.9378  0.9963
 8295SOL     OW36520   0.127   0.558   4.108  0.3272  0.1719  0.2421
 8295SOL    HW136521   0.093   0.531   4.194 -2.8953  0.4317 -0.9344
 8295SOL    HW236522   0.101   0.650   4.105  2.0247  0.6764  1.3395
 8296SOL     OW36523   1.784   2.351   9.117 -0.3357 -0.3480  0.4941
 8296SOL    HW136524   1.871   2.328   9.083 -0.1807 -0.2328  0.8169
 8296SOL    HW236525   1.747   2.387   9.036  3.0958 -0.4495 -1.1398
 8297SOL     OW36526   1.584   1.852   3.956  0.3455  0.4737  0.1778
 8297SOL    HW136527   1.624   1.790   3.895  1.3545 -1.6302  2.9620
 8297SOL    HW236528   1.621   1.823   4.040  0.9467 -3.0361 -1.3167
 8298SOL     OW36529   3.026   0.813   0.061  0.1403  0.2386 -0.2430
 8298SOL    HW136530   3.011   0.756   0.136 -2.1360  0.8916 -0.2107
 8298SOL    HW236531   2.950   0.871   0.055 -0.0739 -0.0694 -0.5189
 8299SOL     OW36532   4.161   1.663   1.345 -0.0839  0.6500  0.0290
 8299SOL    HW136533   4.204   1.682   1.428  0.9309 -0.8888 -0.1413
 8299SOL    HW236534   4.069   1.642   1.362  0.5919 -2.5246 -0.2916
 8300SOL     OW36535   3.734   3.737  11.851 -0.8629 -0.4867 -0.6158
 8300SOL    HW136536   3.679   3.785  11.788 -0.3133 -1.0157 -1.5011
 8300SOL    HW236537   3.763   3.665  11.796 -1.2610 -0.8088 -0.4012
 8301SOL     OW36538   4.094   3.590   6.171  0.0688  0.0148  0.0977
 8301SOL    HW136539   4.112   3.576   6.078 -0.8606  2.2675 -0.4324
 8301SOL    HW236540   4.156   3.530   6.212  0.5857  1.3805  1.3197
 8302SOL     OW36541   3.992   0.897   4.846  0.6321  0.5877 -0.0022
 8302SOL    HW136542   4.087   0.901   4.849  0.7401  0.5319 -3.4670
 8302SOL    HW236543   3.973   0.893   4.940  1.5637 -2.5763  0.0491
 8303SOL     OW36544   2.871   1.642   5.651 -0.0393  0.1427  0.3207
 8303SOL    HW136545   2.938   1.709   5.632  2.1129 -1.3420  2.6671
 8303SOL    HW236546   2.910   1.603   5.729  3.3466 -0.3679 -1.6258
 8304SOL     OW36547   2.018   2.191  14.334 -0.6604 -0.5392 -0.2184
 8304SOL    HW136548   2.071   2.267  14.358  0.3328 -1.2591 -0.1340
 8304SOL    HW236549   1.977   2.231  14.257 -1.1858 -1.8644 -0.6351
 8305SOL     OW36550   1.020   0.781   4.418  0.1802  0.2432 -0.0390
 8305SOL    HW136551   1.114   0.768   4.427  0.0205 -1.4315 -0.6790
 8305SOL    HW236552   1.007   0.756   4.327  2.3908  0.8517 -0.5244
 8306SOL     OW36553   2.385   1.608  14.309 -0.3613  0.1445 -0.0856
 8306SOL    HW136554   2.366   1.557  14.387 -1.4534  0.9781  0.2044
 8306SOL    HW236555   2.307   1.657  14.284  0.0131  0.5204 -0.5222
 8307SOL     OW36556   0.079   0.550   9.689 -0.0993  1.1554 -0.0606
 8307SOL    HW136557   0.133   0.625   9.716 -0.1729  0.6306  1.5328
 8307SOL    HW236558   4.731   0.593   9.694 -0.0084  1.3167  0.0875
 8308SOL     OW36559   1.504   0.917   2.101  0.5896 -0.8347  0.1216
 8308SOL    HW136560   1.522   0.949   2.013  0.9460  0.8432  0.8033
 8308SOL    HW236561   1.410   0.906   2.112  0.6515 -0.3702  1.1561
 8309SOL     OW36562   1.318   0.196   7.263  0.1144  0.3541 -0.2587
 8309SOL    HW136563   1.319   0.278   7.214 -0.1372  0.6843  0.3036
 8309SOL    HW236564   1.407   0.164   7.246 -0.3677 -1.0469 -0.2025
 8310SOL     OW36565   1.667   1.966   4.702 -0.3446  0.3554 -0.3093
 8310SOL    HW136566   1.667   2.056   4.736 -1.3960 -0.2134  1.1686
 8310SOL    HW236567   1.603   1.926   4.761  1.5211  1.0633  2.1851
 8311SOL     OW36568   0.972   1.791   5.560 -0.5352 -0.7179  0.2893
 8311SOL    HW136569   0.985   1.875   5.517 -0.0671 -0.1984  1.4572
 8311SOL    HW236570   0.901   1.755   5.507 -2.0968  1.2767  1.0482
 8312SOL     OW36571   1.197   1.940   6.916  0.0349 -0.4568  0.1426
 8312SOL    HW136572   1.152   2.023   6.897  0.9868  0.4709  1.9349
 8312SOL    HW236573   1.220   1.973   7.003  1.9127 -1.1933 -0.0763
 8313SOL     OW36574   1.677   4.366   8.986  0.2352 -0.2107  0.4822
 8313SOL    HW136575   1.748   4.366   9.050  0.7216 -0.4698 -0.0643
 8313SOL    HW236576   1.731   4.355   8.908  0.4441 -0.2290  0.6276
 8314SOL     OW36577   3.292   1.473   2.074 -0.1015  0.6908  0.6317
 8314SOL    HW136578   3.385   1.493   2.058 -0.2342  0.9154  0.1537
 8314SOL    HW236579   3.259   1.485   1.985  2.2247 -0.5591 -0.4063
 8315SOL     OW36580   4.100   3.499   4.191  0.4544 -0.0926  0.0462
 8315SOL    HW136581   4.117   3.446   4.268 -1.5951 -2.3917 -1.0964
 8315SOL    HW236582   4.097   3.427   4.128 -2.3326  3.0309 -3.3610
 8316SOL     OW36583   0.064   2.771   6.705 -0.2192  0.2143 -0.0236
 8316SOL    HW136584   0.005   2.833   6.748 -1.6878 -0.9371 -0.4188
 8316SOL    HW236585   0.009   2.695   6.690  1.9290 -1.0825 -1.3575
 8317SOL     OW36586   4.326   1.831   3.059  0.0701  0.2271  0.2252
 8317SOL    HW136587   4.326   1.783   2.976 -2.7706  0.1797  0.2486
 8317SOL    HW236588   4.238   1.807   3.088  0.2342  0.6218  1.0569
 8318SOL     OW36589   4.691   2.322   7.159  0.0341 -0.3112  0.2148
 8318SOL    HW136590   0.017   2.340   7.228  1.3398 -0.4941 -0.9221
 8318SOL    HW236591   4.614   2.304   7.213 -0.7431  1.4107 -0.3029
 8319SOL     OW36592   4.428   0.342   1.857 -0.0818 -0.0887 -0.2070
 8319SOL    HW136593   4.364   0.411   1.841 -0.5908 -0.8439 -1.3743
 8319SOL    HW236594   4.508   0.396   1.862  0.2343 -0.5940  0.1858
 8320SOL     OW36595   3.859   0.334   9.953  0.0415  0.4609 -0.2437
 8320SOL    HW136596   3.786   0.336  10.015  1.0483  0.2685  0.9653
 8320SOL    HW236597   3.904   0.418   9.963  1.4390 -0.1162 -1.6483
 8321SOL     OW36598   2.749   1.037   6.163  0.2670 -0.0564  0.0087
 8321SOL    HW136599   2.684   0.978   6.202 -1.5645  0.4921 -2.2419
 8321SOL    HW236600   2.767   1.093   6.239  1.2958 -1.0236  0.4709
 8322SOL     OW36601   1.717   1.666   3.520  0.6577  0.4192  0.0364
 8322SOL    HW136602   1.714   1.666   3.424  0.2236  2.2544  0.0532
 8322SOL    HW236603   1.623   1.661   3.537  0.3283  0.2358 -1.7826
 8323SOL     OW36604   2.764   2.374  11.401  0.0849  0.4040 -0.3235
 8323SOL    HW136605   2.708   2.422  11.462 -0.8908 -0.5095 -0.4968
 8323SOL    HW236606   2.791   2.304  11.461 -2.5741 -0.8525 -0.6189
 8324SOL     OW36607   4.494   3.577  14.729  0.0250  0.0432 -0.0278
 8324SOL    HW136608   4.512   3.539  14.814 -0.0413  0.6234  0.2434
 8324SOL    HW236609   4.548   3.524  14.670  0.8468  0.1729  0.6184
 8325SOL     OW36610   3.297   0.587   8.732  0.0604  0.2595  0.1822
 8325SOL    HW136611   3.345   0.514   8.772  2.5141  1.8035  0.0293
 8325SOL    HW236612   3.322   0.594   8.640 -1.7299  1.6942 -0.1952
 8326SOL     OW36613   4.349   4.103   2.274 -0.4657 -0.5381  0.0721
 8326SOL    HW136614   4.426   4.138   2.320 -0.3609 -1.7790  0.8360
 8326SOL    HW236615   4.330   4.020   2.316  1.3384 -0.3123  1.3411
 8327SOL     OW36616   3.159   3.931   2.030 -0.1516  0.5278 -0.2200
 8327SOL    HW136617   3.229   3.890   2.080  0.3293  1.3833 -0.2047
 8327SOL    HW236618   3.123   3.847   1.999 -1.0474  1.1046 -0.7455
 8328SOL     OW36619   1.002   3.511   7.172  0.0834  0.5794  0.0869
 8328SOL    HW136620   1.040   3.511   7.085  0.2669 -0.8963  0.1703
 8328SOL    HW236621   1.012   3.604   7.190 -1.8879  1.0182 -1.0860
 8329SOL     OW36622   0.939   4.200   6.339  0.1576 -0.1320  0.0000
 8329SOL    HW136623   0.924   4.117   6.294 -1.2577  0.6326 -0.9659
 8329SOL    HW236624   0.855   4.213   6.384  0.8447  4.7662 -0.0723
 8330SOL     OW36625   2.326   3.515   3.983  0.1101  0.2820  0.0345
 8330SOL    HW136626   2.277   3.455   3.927 -0.4982  1.3382 -0.5553
 8330SOL    HW236627   2.415   3.504   3.950  0.0234 -0.8892  0.1832
 8331SOL     OW36628   4.464   4.385   4.587  0.3517  0.2639  0.8310
 8331SOL    HW136629   4.525   4.323   4.549  0.2976 -0.7554  2.4204
 8331SOL    HW236630   4.519   4.444   4.638  1.1404 -1.2656  1.7343
 8332SOL     OW36631   0.167   1.334   7.554 -0.1069  0.5197  0.2703
 8332SOL    HW136632   0.105   1.376   7.614 -0.7427 -1.0763  0.7214
 8332SOL    HW236633   0.126   1.249   7.538  0.4582 -0.0703  2.0354
 8333SOL     OW36634   0.241   1.244   0.468 -0.0045  0.2509  0.1688
 8333SOL    HW136635   0.301   1.231   0.541  0.4887 -0.0327 -0.2848
 8333SOL    HW236636   0.280   1.176   0.413 -2.1193 -0.2076 -0.7585
 8334SOL     OW36637   3.637   4.618   1.690  0.1910 -0.1819  0.4483
 8334SOL    HW136638   3.559   4.589   1.642 -0.6616  1.7821  0.6452
 8334SOL    HW236639   3.607   4.706   1.710  2.3188  0.6514 -0.0573
 8335SOL     OW36640   2.765   0.302   2.323 -0.3740  0.0909  0.1984
 8335SOL    HW136641   2.800   0.375   2.374  0.7753 -0.3953  0.0941
 8335SOL    HW236642   2.778   0.332   2.233 -1.4850 -1.0793 -0.3622
 8336SOL     OW36643   0.203   2.629  15.460  0.5665 -0.0572  0.7019
 8336SOL    HW136644   0.141   2.602  15.528 -0.7419  0.9209 -0.0871
 8336SOL    HW236645   0.153   2.600  15.383  0.3637  0.1288  0.7643
 8337SOL     OW36646   1.868   2.400   6.805  0.3716 -0.0999  0.2071
 8337SOL    HW136647   1.892   2.404   6.712 -0.0419 -1.8608  0.0304
 8337SOL    HW236648   1.808   2.326   6.799 -0.4936  0.8262 -2.5805
 8338SOL     OW36649   3.736   2.034  11.625  0.1227  0.2202 -0.3501
 8338SOL    HW136650   3.810   1.982  11.595 -1.3457 -1.2349 -1.4565
 8338SOL    HW236651   3.736   2.108  11.564 -0.8423 -0.1121 -0.7442
 8339SOL     OW36652   1.995   3.661   7.750 -0.3866  0.1492 -0.0586
 8339SOL    HW136653   2.062   3.666   7.819 -1.1034  0.4031  0.6272
 8339SOL    HW236654   1.921   3.633   7.804 -0.9477  1.1600 -0.3063
 8340SOL     OW36655   4.018   0.953   9.388  0.4339 -0.4537 -0.2343
 8340SOL    HW136656   4.102   0.951   9.433  0.3490 -0.3875 -0.0710
 8340SOL    HW236657   4.030   0.880   9.328  0.7450 -0.8469  0.3072
 8341SOL     OW36658   3.641   3.975   3.247 -0.2290 -0.1089 -0.2028
 8341SOL    HW136659   3.608   3.991   3.336  2.8456 -0.6720  1.0158
 8341SOL    HW236660   3.726   3.932   3.257 -0.5837 -0.0502  2.8966
 8342SOL     OW36661   2.895   1.300  16.577 -0.3044  0.6611 -0.0198
 8342SOL    HW136662   2.865   1.384  16.543 -0.2142  0.8438  0.3598
 8342SOL    HW236663   2.889   1.310  16.672 -2.7519 -1.5671  0.0759
 8343SOL     OW36664   2.514   2.957   1.693 -0.4337 -0.4166  0.1231
 8343SOL    HW136665   2.448   2.896   1.725  0.1476  0.2334  2.5329
 8343SOL    HW236666   2.577   2.893   1.659 -0.5219 -0.4733  0.0682
 8344SOL     OW36667   3.974   3.603   5.650 -0.0626 -0.0049  0.3313
 8344SOL    HW136668   3.879   3.597   5.649 -0.1015  1.0466 -1.3665
 8344SOL    HW236669   4.000   3.662   5.580  0.4742 -1.8383 -1.0157
 8345SOL     OW36670   4.164   2.067   1.920 -0.0402  0.6975  0.5795
 8345SOL    HW136671   4.137   2.156   1.941 -0.6822  1.2040 -2.3639
 8345SOL    HW236672   4.243   2.085   1.869  0.8223 -0.9396  1.3259
 8346SOL     OW36673   3.034   3.271   1.151  0.0119  0.0494  0.0914
 8346SOL    HW136674   3.043   3.201   1.087  0.9526  0.7679 -0.5450
 8346SOL    HW236675   3.119   3.254   1.192  1.4596  0.6439 -2.7355
 8347SOL     OW36676   4.635   3.994   0.014 -0.0103  0.2862  0.0037
 8347SOL    HW136677   4.703   4.000   0.082  0.8019  0.0960 -0.7908
 8347SOL    HW236678   4.565   3.959   0.068  0.1131  1.1886  0.7529
 8348SOL     OW36679   4.085   4.452  16.113 -0.3086 -0.6292 -0.1158
 8348SOL    HW136680   4.163   4.406  16.082 -0.0744  0.4482 -1.1016
 8348SOL    HW236681   4.122   4.517  16.173  2.7666 -1.6847 -0.8624
 8349SOL     OW36682   0.860   3.238   5.929  0.3741  0.0782  0.2231
 8349SOL    HW136683   0.804   3.314   5.917  1.4037  0.6009 -1.3579
 8349SOL    HW236684   0.816   3.201   6.005 -0.1618 -0.7562 -0.4888
 8350SOL     OW36685   4.565   2.182   1.556 -0.0328  0.4957  0.2782
 8350SOL    HW136686   4.518   2.244   1.500 -1.7848 -1.4553 -0.4336
 8350SOL    HW236687   4.645   2.202   1.508  0.1081 -1.6240 -0.3731
 8351SOL     OW36688   2.727   3.555  15.339  0.1692  0.0252 -0.0720
 8351SOL    HW136689   2.728   3.644  15.375  0.4300 -0.5595  1.3844
 8351SOL    HW236690   2.686   3.581  15.257 -1.1392 -0.3915  0.4565
 8352SOL     OW36691   3.722   4.339  12.505  0.2824 -0.2998 -0.4608
 8352SOL    HW136692   3.693   4.326  12.595 -1.0502 -0.5686 -0.9261
 8352SOL    HW236693   3.792   4.398  12.534  0.1534  0.0450 -0.8469
 8353SOL     OW36694   2.914   0.880  13.220  0.0294  0.5605 -0.7229
 8353SOL    HW136695   2.846   0.937  13.184 -1.3218 -0.9218 -0.4898
 8353SOL    HW236696   2.889   0.876  13.312 -1.7162  1.7970 -1.1518
 8354SOL     OW36697   2.216   0.255   4.157 -0.3114 -0.0014  0.0813
 8354SOL    HW136698   2.308   0.238   4.137  0.2544 -0.2698  2.9107
 8354SOL    HW236699   2.231   0.339   4.200  2.8231 -1.4937  1.9502
 8355SOL     OW36700   3.832   2.207  13.022 -0.1066  0.5428  0.5832
 8355SOL    HW136701   3.866   2.293  13.001  0.7422  0.1059  0.1912
 8355SOL    HW236702   3.756   2.205  12.963  2.1676  0.2995 -2.3537
 8356SOL     OW36703   2.531   1.851   2.511 -0.6133  0.2599 -0.4328
 8356SOL    HW136704   2.570   1.898   2.584 -0.2671  0.4563 -0.7422
 8356SOL    HW236705   2.598   1.849   2.443  0.7979 -4.1098  1.1081
 8357SOL     OW36706   4.015   2.233  13.761  0.6139  0.7543  0.3635
 8357SOL    HW136707   4.053   2.152  13.727 -1.3684  0.2002 -0.5099
 8357SOL    HW236708   4.029   2.288  13.684 -0.2830  0.9023  0.3037
 8358SOL     OW36709   0.077   1.577   3.413 -0.0134 -0.0246  0.2200
 8358SOL    HW136710   0.145   1.639   3.386 -0.5320  0.2275 -0.4816
 8358SOL    HW236711   0.099   1.486   3.389 -0.9954 -0.3289  0.4692
 8359SOL     OW36712   2.156   0.121  16.249  0.0648  0.2032 -0.5979
 8359SOL    HW136713   2.145   0.205  16.204 -0.3681  0.8376  0.7072
 8359SOL    HW236714   2.068   0.084  16.252  0.5260 -0.6266  2.7932
 8360SOL     OW36715   3.737   2.877  12.612 -0.8268 -0.0106  0.2403
 8360SOL    HW136716   3.822   2.839  12.631  0.1731  0.3771 -3.4549
 8360SOL    HW236717   3.730   2.923  12.696  0.8151  0.4209  0.1420
 8361SOL     OW36718   3.804   1.150   8.535 -0.3053  0.3760 -0.1913
 8361SOL    HW136719   3.816   1.060   8.508  1.8914  1.2724 -2.1631
 8361SOL    HW236720   3.710   1.163   8.521 -0.7698 -0.8158  1.8624
 8362SOL     OW36721   1.833   1.144  11.965  0.0139  0.1725 -0.1212
 8362SOL    HW136722   1.794   1.155  11.878  2.3171  0.4218 -1.1187
 8362SOL    HW236723   1.923   1.123  11.941  0.1890 -0.8664  1.4641
 8363SOL     OW36724   0.428   2.597   9.159 -0.1340  0.1271 -0.0917
 8363SOL    HW136725   0.338   2.577   9.186 -1.2036  0.6397 -3.1895
 8363SOL    HW236726   0.479   2.525   9.196  1.2540  1.5819  0.7967
 8364SOL     OW36727   2.537   4.449  14.824 -0.2544  0.2378  0.2412
 8364SOL    HW136728   2.506   4.363  14.851 -0.6456  1.1798  2.8669
 8364SOL    HW236729   2.621   4.424  14.787 -0.6995 -1.4044  0.3382
 8365SOL     OW36730   2.901   2.586   4.303 -0.3016 -0.1801  0.6030
 8365SOL    HW136731   2.862   2.542   4.228 -0.6576  2.1890 -0.5858
 8365SOL    HW236732   2.884   2.680   4.294 -0.1836 -0.2378 -0.2232
 8366SOL     OW36733   1.333   1.152   4.928 -0.1932 -0.2419  0.3676
 8366SOL    HW136734   1.350   1.066   4.887 -1.8785 -0.8960  1.0636
 8366SOL    HW236735   1.351   1.132   5.020  1.7153  0.2947  0.1068
 8367SOL     OW36736   3.854   0.492   5.234 -0.0776  0.4790  0.7716
 8367SOL    HW136737   3.839   0.510   5.326  0.2052 -2.6518  1.4311
 8367SOL    HW236738   3.941   0.454   5.242 -0.4712 -0.0400  2.4470
 8368SOL     OW36739   0.203   3.971   1.484 -0.1848  0.0190 -0.2174
 8368SOL    HW136740   0.158   4.038   1.433  0.1027 -0.6530 -1.3585
 8368SOL    HW236741   0.154   3.984   1.565 -2.5851  1.0490 -1.8514
 8369SOL     OW36742   1.717   0.390  15.002  0.5608 -0.2570  0.1690
 8369SOL    HW136743   1.727   0.350  15.088  0.4477 -1.0126 -0.1680
 8369SOL    HW236744   1.766   0.473  15.003  1.4572 -0.7460 -2.7042
 8370SOL     OW36745   4.075   0.090   8.625  0.0150 -0.4135 -0.1442
 8370SOL    HW136746   4.150   0.033   8.608 -0.0746 -0.1440 -1.4624
 8370SOL    HW236747   4.057   0.080   8.719 -2.1184  1.6667 -0.3375
 8371SOL     OW36748   1.411   2.556   9.034 -0.0488  0.0939 -0.0086
 8371SOL    HW136749   1.327   2.517   9.011  0.1401  0.1117 -0.7252
 8371SOL    HW236750   1.449   2.496   9.098 -2.1862  0.1051  1.2717
 8372SOL     OW36751   4.711   2.778  11.538  0.0832  0.2257 -0.2672
 8372SOL    HW136752   4.651   2.840  11.581 -1.6724 -1.1149 -0.7955
 8372SOL    HW236753   0.052   2.827  11.562 -0.5528  0.9233  0.3669
 8373SOL     OW36754   1.365   4.535   5.198 -0.9054 -0.6688 -0.3725
 8373SOL    HW136755   1.408   4.461   5.156 -1.4994 -1.6667  0.7783
 8373SOL    HW236756   1.388   4.547   5.290  1.2367  1.7133 -1.2211
 8374SOL     OW36757   0.498   1.604   6.268 -0.3261  0.0660  0.3240
 8374SOL    HW136758   0.470   1.586   6.358  1.0902  2.8578  1.3245
 8374SOL    HW236759   0.419   1.586   6.218  0.6683  0.1889 -1.3038
 8375SOL     OW36760   1.417   3.222   8.385  0.0796 -0.4623 -0.4874
 8375SOL    HW136761   1.398   3.146   8.439 -2.1149 -0.3977 -1.1702
 8375SOL    HW236762   1.464   3.189   8.309  1.2171 -1.0951  0.4832
 8376SOL     OW36763   4.737   2.105  12.845  0.2569 -0.1132  0.3256
 8376SOL    HW136764   4.710   2.147  12.763 -1.7472 -0.7713  0.6502
 8376SOL    HW236765   0.053   2.038  12.802  0.7846  0.3000  0.3272
 8377SOL     OW36766   0.913   0.662   4.057  0.7800  0.2723 -0.4421
 8377SOL    HW136767   0.957   0.675   3.973  1.4166  0.6684 -0.0477
 8377SOL    HW236768   0.990   0.628   4.104  1.9061  2.2128 -0.9036
 8378SOL     OW36769   2.469   4.417   5.858  0.7320  0.1194 -0.0039
 8378SOL    HW136770   2.479   4.450   5.947 -0.3651  1.5518 -0.4218
 8378SOL    HW236771   2.373   4.422   5.853  0.6517 -2.3372 -0.8802
 8379SOL     OW36772   3.313   1.811   2.708 -0.3980  0.2294  0.5525
 8379SOL    HW136773   3.347   1.900   2.714  1.3796 -0.4883  1.0513
 8379SOL    HW236774   3.332   1.782   2.797  1.7382 -4.7456 -1.5054
 8380SOL     OW36775   3.937   4.080   1.135 -0.3040  0.0065  0.3680
 8380SOL    HW136776   3.943   4.050   1.044  1.1358 -0.9321  0.7604
 8380SOL    HW236777   3.888   4.007   1.173  0.5257 -2.1146 -2.6131
 8381SOL     OW36778   1.913   0.829   1.909  0.0165 -0.0136 -0.1792
 8381SOL    HW136779   1.941   0.774   1.982 -1.2623 -0.5738 -0.1124
 8381SOL    HW236780   1.899   0.908   1.961  0.3200  0.4044 -0.7321
 8382SOL     OW36781   3.828   1.771   3.971 -0.0235  0.1924  0.0276
 8382SOL    HW136782   3.859   1.694   4.017  0.5752 -0.1739 -0.9831
 8382SOL    HW236783   3.837   1.735   3.882 -1.3645 -1.2187  0.4613
 8383SOL     OW36784   2.214   2.597   5.365 -0.0916 -0.2856  0.4973
 8383SOL    HW136785   2.185   2.599   5.456 -0.6006 -0.4056  0.3382
 8383SOL    HW236786   2.261   2.680   5.357 -0.0877 -0.2823  0.5547
 8384SOL     OW36787   2.754   0.410   7.314 -0.0770 -0.0428 -0.3534
 8384SOL    HW136788   2.700   0.489   7.303  0.4641  0.5690  1.4908
 8384SOL    HW236789   2.785   0.407   7.404 -0.6189  0.7832 -0.1399
 8385SOL     OW36790   1.526   2.963   6.506 -0.0277  1.0191  0.3472
 8385SOL    HW136791   1.604   3.005   6.542  0.6139  2.7522 -3.0227
 8385SOL    HW236792   1.571   2.894   6.457 -1.4247  1.4560 -1.5377
 8386SOL     OW36793   2.673   2.940   3.498  0.4147 -0.0121 -0.0319
 8386SOL    HW136794   2.680   3.002   3.571 -1.1526  1.1350 -0.8528
 8386SOL    HW236795   2.638   2.861   3.539 -1.4246  1.5960  1.5128
 8387SOL     OW36796   1.186   0.827  13.366 -0.0041 -0.0724 -0.3964
 8387SOL    HW136797   1.279   0.851  13.360  0.7956 -2.9745  0.6698
 8387SOL    HW236798   1.139   0.904  13.332  0.3596  0.8932  1.3161
 8388SOL     OW36799   0.213   2.031   4.951 -0.1145  0.4080 -0.0148
 8388SOL    HW136800   0.163   1.962   4.907 -0.1749  0.9718 -0.8439
 8388SOL    HW236801   0.145   2.099   4.953 -2.3210 -1.7874 -0.2383
 8389SOL     OW36802   4.044   3.220   7.201 -0.0010 -0.7871 -0.0202
 8389SOL    HW136803   3.968   3.262   7.163  1.3548  1.2755 -0.4251
 8389SOL    HW236804   4.105   3.262   7.140 -0.4191 -1.1227 -0.6724
 8390SOL     OW36805   0.162   0.074   1.184 -0.4581 -0.2947  0.5454
 8390SOL    HW136806   0.214   0.130   1.243  0.9480 -1.8750  0.8199
 8390SOL    HW236807   0.204   4.726   1.195 -0.9787 -0.8753 -2.0241
 8391SOL     OW36808   4.728   0.322   9.809 -0.3979  0.5531  0.6562
 8391SOL    HW136809   4.661   0.361   9.864 -1.5391 -0.2700 -0.1469
 8391SOL    HW236810   0.031   0.386   9.750  0.5748 -1.5862 -0.9995
 8392SOL     OW36811   3.215   3.740   7.308  0.3315 -0.0605 -0.3256
 8392SOL    HW136812   3.276   3.694   7.251  0.8841  0.2528  0.0201
 8392SOL    HW236813   3.141   3.762   7.250 -1.2882  0.1378  1.8083
 8393SOL     OW36814   1.821   2.223  14.107  0.0557  0.0954 -0.4547
 8393SOL    HW136815   1.784   2.276  14.037 -0.6909  2.6992  1.9124
 8393SOL    HW236816   1.826   2.131  14.081 -1.6642 -1.0366  3.3207
 8394SOL     OW36817   4.134   0.722  16.908 -0.1525 -0.2907 -0.5483
 8394SOL    HW136818   4.200   0.712  16.839 -0.9941 -0.2440 -1.3558
 8394SOL    HW236819   4.137   0.817  16.897  1.1995 -0.4599 -1.7123
 8395SOL     OW36820   4.580   3.109  16.916  0.1790  0.2854  0.4659
 8395SOL    HW136821   4.639   3.041  16.883 -0.7736 -0.9044  1.2191
 8395SOL    HW236822   4.548   3.064  16.994 -0.6041  0.3575  0.1828
 8396SOL     OW36823   0.508   3.924   7.582 -0.6136  0.1283  0.2757
 8396SOL    HW136824   0.454   3.869   7.525  1.2100 -2.1634  0.7495
 8396SOL    HW236825   0.496   3.896   7.673 -1.9983 -1.5825 -0.4459
 8397SOL     OW36826   2.140   1.287   1.655 -0.4825  0.1197  0.0298
 8397SOL    HW136827   2.198   1.343   1.603 -2.5707  1.9135 -0.3596
 8397SOL    HW236828   2.203   1.226   1.696  0.9357  1.6160  0.0765
 8398SOL     OW36829   1.974   2.644  14.934 -0.5348 -0.1280  0.3389
 8398SOL    HW136830   1.935   2.599  14.859  2.4528  1.7335 -2.3277
 8398SOL    HW236831   1.952   2.585  15.006 -1.7725 -1.2146 -0.9501
 8399SOL     OW36832   3.429   3.391   5.178 -0.3756 -0.1046 -0.0949
 8399SOL    HW136833   3.430   3.464   5.239 -0.7271 -0.0896 -0.1056
 8399SOL    HW236834   3.489   3.327   5.216 -0.3399 -0.4651 -0.7590
 8400SOL     OW36835   1.934   0.805  17.619 -0.0785 -0.6265  0.1517
 8400SOL    HW136836   2.013   0.849  17.587 -0.1222 -1.0647 -0.5618
 8400SOL    HW236837   1.884   0.880  17.649  0.9063  0.7443 -1.6828
 8401SOL     OW36838   3.367   3.123   4.154  0.0931  0.1097  0.4906
 8401SOL    HW136839   3.462   3.113   4.152 -0.1095 -1.4228 -1.7663
 8401SOL    HW236840   3.341   3.030   4.159 -1.0272  0.3422 -1.0646
 8402SOL     OW36841   2.273   3.134   6.741 -0.4238 -0.1394  0.0499
 8402SOL    HW136842   2.223   3.135   6.659  0.3829  1.0007 -0.4216
 8402SOL    HW236843   2.332   3.063   6.715 -1.3519 -0.6251 -0.7466
 8403SOL     OW36844   0.222   4.088   6.946 -0.4253  0.6292  0.1535
 8403SOL    HW136845   0.239   4.140   6.867 -0.2279 -1.3173 -1.0670
 8403SOL    HW236846   0.202   4.152   7.014  1.3714  1.3842 -0.0256
 8404SOL     OW36847   0.126   2.630   7.362 -0.2476  0.0157 -0.3848
 8404SOL    HW136848   0.061   2.658   7.298 -1.7339  0.1735  1.2191
 8404SOL    HW236849   0.198   2.694   7.358  1.2914 -1.7413 -1.0566
 8405SOL     OW36850   4.365   3.713   5.774 -0.6273 -0.0394 -0.3813
 8405SOL    HW136851   4.447   3.740   5.816 -0.3715 -1.2354 -0.0874
 8405SOL    HW236852   4.378   3.761   5.693 -0.5821 -0.9790 -0.9317
 8406SOL     OW36853   2.247   4.524   1.077  0.1765 -0.1835 -0.0516
 8406SOL    HW136854   2.293   4.539   1.160 -4.4618  1.6939  2.1619
 8406SOL    HW236855   2.156   4.538   1.102  0.1825  0.8501 -0.6412
 8407SOL     OW36856   2.188   3.236   3.220  0.1552  0.1761  0.3039
 8407SOL    HW136857   2.104   3.280   3.232 -0.0734 -0.1036 -0.3007
 8407SOL    HW236858   2.177   3.175   3.148 -0.3746  1.9159 -1.0752
 8408SOL     OW36859   4.414   4.346  13.414 -0.1752  0.0725  0.3687
 8408SOL    HW136860   4.364   4.283  13.467  0.4722 -1.2239 -0.5436
 8408SOL    HW236861   4.500   4.358  13.455 -1.0696  0.8618  1.9839
 8409SOL     OW36862   3.070   0.788   8.222 -0.2064 -0.2624  0.2892
 8409SOL    HW136863   3.110   0.829   8.145  1.4365 -1.6528  0.4105
 8409SOL    HW236864   3.008   0.731   8.178  0.7795 -1.6457  0.7039
 8410SOL     OW36865   3.423   3.922   6.439  0.4077 -0.2778 -0.1403
 8410SOL    HW136866   3.389   3.897   6.354 -0.8451  0.9795 -0.0116
 8410SOL    HW236867   3.367   3.999   6.449  0.3663 -0.4064  0.6061
 8411SOL     OW36868   1.209   1.915   4.005  0.2714 -0.3357 -0.8072
 8411SOL    HW136869   1.289   1.898   3.954  0.8764  1.0526 -0.3104
 8411SOL    HW236870   1.218   2.008   4.027 -0.4034 -1.0657  2.4857
 8412SOL     OW36871   1.072   4.252   5.003 -0.9341  0.1518  0.1248
 8412SOL    HW136872   1.032   4.316   5.063  2.1116  0.7249  1.5456
 8412SOL    HW236873   0.994   4.204   4.976 -1.5952  1.9273 -1.1459
 8413SOL     OW36874   4.630   3.235   5.956 -0.0026  0.3140 -0.7699
 8413SOL    HW136875   4.637   3.205   5.866 -2.4597  0.7582 -1.1190
 8413SOL    HW236876   4.661   3.156   6.001 -1.2917  0.4586  0.3700
 8414SOL     OW36877   2.321   2.561   1.280 -0.3407 -0.0826  0.0216
 8414SOL    HW136878   2.270   2.638   1.309 -0.3077 -0.7274  1.8323
 8414SOL    HW236879   2.409   2.586   1.305  0.5498 -2.3419 -0.8996
 8415SOL     OW36880   0.116   3.774   8.096 -0.6234  0.0774 -0.1223
 8415SOL    HW136881   0.202   3.810   8.118 -1.3014 -0.5839  3.5674
 8415SOL    HW236882   0.134   3.736   8.011 -2.7777  0.1228 -0.6002
 8416SOL     OW36883   2.162   1.731  13.239 -0.3201  0.4567  0.0871
 8416SOL    HW136884   2.110   1.653  13.221 -0.3882  0.3276  0.8409
 8416SOL    HW236885   2.099   1.794  13.203  0.1389 -0.8023 -2.9295
 8417SOL     OW36886   3.219   0.310   4.936 -0.5055 -0.0696 -0.5855
 8417SOL    HW136887   3.127   0.284   4.928 -1.4946  3.0248  0.6404
 8417SOL    HW236888   3.261   0.256   4.869 -1.6887 -0.2752 -1.1651
 8418SOL     OW36889   3.013   4.608   5.573  0.1175  0.4387  0.6473
 8418SOL    HW136890   2.942   4.563   5.527 -0.2198  0.0196  1.5867
 8418SOL    HW236891   2.989   4.701   5.565 -0.3252  0.2251 -0.5417
 8419SOL     OW36892   3.966   4.428  16.360 -0.3418 -0.7481  0.0979
 8419SOL    HW136893   4.017   4.508  16.374 -1.4995  0.2378 -1.3512
 8419SOL    HW236894   4.001   4.411  16.273 -1.2460 -1.9626 -0.0252
 8420SOL     OW36895   0.615   1.956   5.727 -0.2369 -0.2056 -0.0164
 8420SOL    HW136896   0.653   1.898   5.792 -1.2804 -2.6273 -1.5878
 8420SOL    HW236897   0.538   1.905   5.704 -0.4803 -0.2036  0.8000
 8421SOL     OW36898   1.976   2.086   9.511  0.6133 -0.1994  0.3651
 8421SOL    HW136899   2.001   2.035   9.588  0.3961 -1.5250 -0.4353
 8421SOL    HW236900   1.889   2.109   9.543  0.8012 -0.6554  1.1961
 8422SOL     OW36901   1.883   4.134   6.308  0.0224 -0.2307  0.4828
 8422SOL    HW136902   1.797   4.149   6.269  0.7073  1.0617 -0.5363
 8422SOL    HW236903   1.880   4.038   6.311  1.3347 -0.3269 -1.0030
 8423SOL     OW36904   4.630   0.365   3.838 -0.2431 -0.2967 -0.1980
 8423SOL    HW136905   4.673   0.415   3.768  5.7149 -0.6499  3.1297
 8423SOL    HW236906   4.541   0.376   3.806  0.4199 -2.7522 -2.8250
 8424SOL     OW36907   0.746   0.001   5.455  0.0227 -0.4262 -0.5865
 8424SOL    HW136908   0.798   0.010   5.375  1.3223 -3.7863 -0.0975
 8424SOL    HW236909   0.653   4.731   5.430 -0.4384  0.7891  0.7563
 8425SOL     OW36910   1.004   1.079   3.111 -0.8902 -0.1767 -0.1515
 8425SOL    HW136911   0.959   1.163   3.107  2.0261  1.4684  1.0443
 8425SOL    HW236912   0.938   1.025   3.068 -0.6732  0.5806 -1.4153
 8426SOL     OW36913   0.348   0.905  12.490 -0.0500  0.0798 -0.1553
 8426SOL    HW136914   0.388   0.957  12.421  0.8391 -0.6478 -0.1808
 8426SOL    HW236915   0.296   0.850  12.431  0.4448  2.8938 -3.1913
 8427SOL     OW36916   1.084   3.056   9.787 -0.2194  0.5283 -0.3007
 8427SOL    HW136917   1.173   3.071   9.755  0.2934 -0.4797  0.6798
 8427SOL    HW236918   1.092   3.092   9.875  0.5974 -0.1050 -0.1154
 8428SOL     OW36919   3.895   1.276  12.045 -0.2256  0.7761 -0.0153
 8428SOL    HW136920   3.885   1.196  12.097  2.4824 -1.0685 -2.3469
 8428SOL    HW236921   3.980   1.306  12.080 -0.2291  0.6262  0.1226
 8429SOL     OW36922   1.303   0.869   4.899 -0.1745  0.5812 -0.0314
 8429SOL    HW136923   1.385   0.851   4.946  0.8145 -0.9096 -2.3179
 8429SOL    HW236924   1.328   0.828   4.816  0.5997 -1.9446  1.4641
 8430SOL     OW36925   4.284   4.600   3.310 -0.6621  0.1576 -0.3494
 8430SOL    HW136926   4.340   4.525   3.288  1.0651  1.8152 -1.5565
 8430SOL    HW236927   4.259   4.578   3.399  1.2615  1.1927  0.4443
 8431SOL     OW36928   0.947   4.581   2.512  0.0996 -0.4182 -0.5407
 8431SOL    HW136929   0.879   4.557   2.449  0.3403  2.6663 -1.9648
 8431SOL    HW236930   0.896   4.626   2.580  1.2793 -0.9371  0.6743
 8432SOL     OW36931   2.329   4.286  15.114 -0.3091  0.0615 -0.2233
 8432SOL    HW136932   2.413   4.249  15.086  0.1120  0.2303  0.8599
 8432SOL    HW236933   2.279   4.226  15.057 -0.5467 -0.3434  0.4192
 8433SOL     OW36934   4.572   2.082  10.081 -0.2186  0.0374 -0.3285
 8433SOL    HW136935   4.583   2.111  10.172  0.2432 -1.4223  0.0768
 8433SOL    HW236936   4.492   2.031  10.083  0.6416 -1.2566  0.8655
 8434SOL     OW36937   0.967   3.374  10.833 -0.1536  0.0082  0.4414
 8434SOL    HW136938   0.921   3.302  10.790  2.1617 -0.4763 -1.2428
 8434SOL    HW236939   1.054   3.355  10.797 -0.9115 -0.4158 -1.1781
 8435SOL     OW36940   1.438   4.449  10.150 -0.4409  0.2277 -0.5997
 8435SOL    HW136941   1.350   4.486  10.140 -1.0147 -0.9747 -0.0699
 8435SOL    HW236942   1.463   4.441  10.242 -1.2122  1.1871 -0.3146
 8436SOL     OW36943   4.546   1.902   8.262  0.1421  0.4376 -0.0028
 8436SOL    HW136944   4.466   1.900   8.315  0.5685 -0.3813  0.6218
 8436SOL    HW236945   4.541   1.985   8.215  1.1789 -0.2026 -1.2438
 8437SOL     OW36946   4.279   4.699  17.510  0.4472 -0.3867  0.4229
 8437SOL    HW136947   4.295   0.040  17.562 -2.9898  0.2461  0.5196
 8437SOL    HW236948   4.192   4.672  17.540 -0.2000 -0.4509 -1.5186
 8438SOL     OW36949   2.434   4.303   4.172  0.1371 -0.1249  0.0404
 8438SOL    HW136950   2.346   4.275   4.197  0.1002  1.1573  1.3591
 8438SOL    HW236951   2.462   4.358   4.246  0.5478  0.4339 -0.5374
 8439SOL     OW36952   3.164   1.382   6.373  0.2536  0.0180 -0.2755
 8439SOL    HW136953   3.239   1.410   6.425  2.1295  1.7718 -3.9394
 8439SOL    HW236954   3.171   1.290   6.400 -0.7085 -0.6905 -2.4502
 8440SOL     OW36955   2.976   2.983   8.688  0.0091  0.6530  0.1579
 8440SOL    HW136956   3.052   2.977   8.747 -0.9298 -2.3518  1.0643
 8440SOL    HW236957   2.906   2.982   8.754 -0.1605 -1.8362 -0.0699
 8441SOL     OW36958   3.265   2.270   8.691 -0.5676 -0.5280 -0.0308
 8441SOL    HW136959   3.348   2.297   8.731 -0.0319 -1.0092 -0.7965
 8441SOL    HW236960   3.220   2.352   8.709  1.6522  0.8363 -0.6966
 8442SOL     OW36961   2.756   2.319   7.223 -0.4234 -0.7551 -0.3817
 8442SOL    HW136962   2.788   2.396   7.269 -2.5935 -0.1684  0.1496
 8442SOL    HW236963   2.759   2.348   7.132  1.9311 -0.2339 -0.1226
 8443SOL     OW36964   3.486   1.732   3.430  0.1001  0.2423  0.3434
 8443SOL    HW136965   3.397   1.704   3.450 -0.1332  0.6627 -0.1127
 8443SOL    HW236966   3.530   1.694   3.506  0.5281  0.6072  0.2791
 8444SOL     OW36967   2.317   1.516   1.196  0.2150  0.6792 -0.4336
 8444SOL    HW136968   2.377   1.556   1.132  0.2141  0.3402 -0.6435
 8444SOL    HW236969   2.269   1.453   1.143  0.2586 -0.9015  1.4217
 8445SOL     OW36970   3.106   0.826  17.265 -0.3665  0.0286  0.3700
 8445SOL    HW136971   3.135   0.800  17.178  1.1665  2.5581  0.1054
 8445SOL    HW236972   3.099   0.744  17.313 -0.5851 -1.5160 -2.3648
 8446SOL     OW36973   2.007   2.047  11.753  0.1039  0.2606 -0.0019
 8446SOL    HW136974   1.926   2.083  11.788 -0.1118 -0.4623  0.2488
 8446SOL    HW236975   1.984   2.007  11.670  0.5688 -1.6131  0.7641
 8447SOL     OW36976   0.110   1.435  15.106  0.1565 -0.1491 -0.3404
 8447SOL    HW136977   0.124   1.526  15.079  0.7466 -0.1575 -0.0497
 8447SOL    HW236978   0.121   1.402  15.016  0.8316  0.5569 -0.5186
 8448SOL     OW36979   4.223   4.170   5.427 -0.9971  0.0847  0.3602
 8448SOL    HW136980   4.187   4.229   5.361 -0.9685 -1.0838 -0.7081
 8448SOL    HW236981   4.295   4.210   5.476  0.3900 -0.8254 -0.9516
 8449SOL     OW36982   4.057   3.496  13.636  0.6483  0.2200  0.2470
 8449SOL    HW136983   4.026   3.523  13.549 -0.0198 -0.7914  0.1828
 8449SOL    HW236984   4.088   3.408  13.615  0.7683  0.0010  1.3500
 8450SOL     OW36985   2.858   4.488   3.936  0.0241 -0.4353 -0.0984
 8450SOL    HW136986   2.765   4.469   3.922 -0.6277  1.8380  1.2406
 8450SOL    HW236987   2.859   4.569   3.987  0.2272 -0.1423 -0.5693
 8451SOL     OW36988   0.331   0.305   7.713  0.0793 -0.2096 -0.1519
 8451SOL    HW136989   0.410   0.351   7.741 -0.1285  0.7845 -1.1792
 8451SOL    HW236990   0.287   0.307   7.798 -0.4991  0.5026 -0.4631
 8452SOL     OW36991   2.029   0.300  14.986  1.0481  0.9108  0.4463
 8452SOL    HW136992   2.036   0.395  14.983  0.7368  0.9610  1.3585
 8452SOL    HW236993   2.096   0.285  15.052 -0.1109  1.0972  1.6505
 8453SOL     OW36994   1.950   0.410  15.496 -0.0903 -0.2846 -0.5020
 8453SOL    HW136995   1.877   0.466  15.471 -0.6128 -0.9530 -0.4588
 8453SOL    HW236996   1.912   0.361  15.568 -2.5161  1.3172 -0.6947
 8454SOL     OW36997   3.033   3.634   7.803  0.0200 -0.2107  0.4324
 8454SOL    HW136998   3.025   3.729   7.802 -0.2279 -0.2395 -0.9695
 8454SOL    HW236999   2.959   3.614   7.745 -0.4396  0.6916  0.7069
 8455SOL     OW37000   1.678   2.891   8.274 -0.1494  0.0412  0.3919
 8455SOL    HW137001   1.608   2.942   8.234  0.1975 -0.4859 -0.8787
 8455SOL    HW237002   1.717   2.952   8.338  0.8825  1.2874 -1.4102
 8456SOL     OW37003   1.552   4.401   5.047  0.0764 -0.2672 -0.1528
 8456SOL    HW137004   1.646   4.399   5.065  0.4842  0.0654 -2.1654
 8456SOL    HW237005   1.549   4.310   5.019 -1.1062 -0.3373  0.2033
 8457SOL     OW37006   1.987   2.119   1.100 -0.1750 -0.4355 -0.4158
 8457SOL    HW137007   1.925   2.052   1.072  0.9329 -1.2291 -1.0032
 8457SOL    HW237008   1.970   2.197   1.047 -1.9176 -0.2455  0.4285
 8458SOL     OW37009   0.937   1.116   5.131 -0.0241 -0.2136  0.4427
 8458SOL    HW137010   0.856   1.078   5.164 -0.6277  0.6849 -0.0021
 8458SOL    HW237011   0.968   1.046   5.074 -1.0013  1.3107 -1.9390
 8459SOL     OW37012   4.518   2.201   2.114  0.0987  0.5797 -0.3661
 8459SOL    HW137013   4.477   2.235   2.034 -1.1975  1.6810  0.7819
 8459SOL    HW237014   4.518   2.279   2.170 -1.1704 -0.1814  0.6767
 8460SOL     OW37015   4.397   3.712   4.839  0.3051  0.5989 -0.0693
 8460SOL    HW137016   4.318   3.718   4.786 -0.0861 -0.9540  0.3322
 8460SOL    HW237017   4.391   3.787   4.899 -0.9582  0.1234  0.3839
 8461SOL     OW37018   3.127   2.803   3.038  0.0471  0.1992  0.7187
 8461SOL    HW137019   3.200   2.744   3.057 -0.1511 -1.2489 -2.9077
 8461SOL    HW237020   3.147   2.877   3.095  3.5453 -0.0319 -0.1509
 8462SOL     OW37021   1.966   3.749   6.929 -0.6789 -0.4473  0.9147
 8462SOL    HW137022   1.894   3.754   6.867 -0.2732  0.6697  0.5369
 8462SOL    HW237023   2.030   3.695   6.882  1.1270 -0.2193  3.0679
 8463SOL     OW37024   3.765   1.917  13.373  0.1728 -0.1767  0.2015
 8463SOL    HW137025   3.823   1.952  13.441 -0.9482  1.7339  0.1681
 8463SOL    HW237026   3.739   1.835  13.416  1.4338 -0.7122 -0.0604
 8464SOL     OW37027   3.031   1.759  16.921 -0.2814  0.4346  0.1483
 8464SOL    HW137028   3.117   1.719  16.935 -1.5761 -3.2349 -2.2437
 8464SOL    HW237029   2.999   1.705  16.848 -1.1394 -1.1563  1.7087
 8465SOL     OW37030   4.408   3.874  14.319 -0.5011 -0.2622 -0.2536
 8465SOL    HW137031   4.457   3.911  14.393 -1.4230  1.2486 -0.3934
 8465SOL    HW237032   4.324   3.860  14.364 -0.9838 -0.0098 -1.0818
 8466SOL     OW37033   3.001   1.633   7.377  0.4396 -0.2350 -0.0231
 8466SOL    HW137034   2.966   1.599   7.460  1.5121 -1.5301 -0.0848
 8466SOL    HW237035   3.046   1.710   7.412 -0.1305 -0.5322  1.3584
 8467SOL     OW37036   4.554   1.935   8.627  0.6825  0.5380  0.2799
 8467SOL    HW137037   4.504   1.939   8.545 -0.1778 -0.1846  0.7647
 8467SOL    HW237038   4.506   2.003   8.673 -0.6613 -1.4342  1.8165
 8468SOL     OW37039   3.856   2.530  17.632  0.1546 -0.2241 -0.0192
 8468SOL    HW137040   3.786   2.514  17.696 -1.1291 -1.7969 -1.8277
 8468SOL    HW237041   3.922   2.571  17.688 -0.1862 -0.8751  0.8554
 8469SOL     OW37042   3.560   3.124   7.766  0.0125  0.1323  0.0397
 8469SOL    HW137043   3.571   3.189   7.835  0.9628 -0.9806  0.9299
 8469SOL    HW237044   3.641   3.073   7.768  1.2085  1.9825 -0.8384
 8470SOL     OW37045   0.787   3.851   8.571 -0.1126  0.4290 -0.4092
 8470SOL    HW137046   0.790   3.780   8.507  1.8150 -0.9845  1.2568
 8470SOL    HW237047   0.692   3.863   8.562  0.1778  2.0132 -1.3038
 8471SOL     OW37048   4.637   2.255   3.560 -0.4902 -0.3236 -0.0036
 8471SOL    HW137049   4.723   2.218   3.580  0.0627  0.9334 -0.0180
 8471SOL    HW237050   4.582   2.177   3.567 -0.1110 -0.7515 -1.6988
 8472SOL     OW37051   2.585   2.722   6.629  0.0740  0.0394 -0.1962
 8472SOL    HW137052   2.582   2.807   6.585  0.5654 -0.9851 -2.1850
 8472SOL    HW237053   2.596   2.661   6.556 -1.2152 -0.7016  0.2235
 8473SOL     OW37054   3.225   4.187   2.451 -0.1171 -0.1242  0.3596
 8473SOL    HW137055   3.170   4.239   2.509 -0.5868 -0.1640 -0.0457
 8473SOL    HW237056   3.252   4.249   2.382 -0.2438 -1.3847 -0.8161
 8474SOL     OW37057   1.880   0.809   7.788  0.1168  0.4184 -0.2191
 8474SOL    HW137058   1.854   0.831   7.699 -0.0221  2.8898  0.4273
 8474SOL    HW237059   1.950   0.873   7.803 -0.1624  0.5787  0.3862
 8475SOL     OW37060   4.069   3.794   5.449  0.1272 -0.2132 -0.1553
 8475SOL    HW137061   4.126   3.760   5.380  1.1161  1.5033 -0.1728
 8475SOL    HW237062   4.119   3.863   5.492 -1.0921 -0.2393  1.3406
 8476SOL     OW37063   1.979   2.102   6.250 -0.3448 -0.5535  0.8034
 8476SOL    HW137064   2.022   2.181   6.283  2.7409 -1.4313 -1.0793
 8476SOL    HW237065   1.918   2.099   6.323 -0.6426 -0.8598  0.5435
 8477SOL     OW37066   3.040   1.569   3.163  0.3471  0.4247  0.5394
 8477SOL    HW137067   3.083   1.504   3.107  1.4641  0.6061  1.1950
 8477SOL    HW237068   3.020   1.514   3.238 -0.3047  1.0035  0.7954
 8478SOL     OW37069   2.023   2.261   9.049 -0.4902 -0.7371 -0.5065
 8478SOL    HW137070   2.041   2.275   9.142 -0.5556 -0.0977 -0.5886
 8478SOL    HW237071   2.083   2.193   9.017  1.2769  0.5967 -0.0283
 8479SOL     OW37072   3.531   3.391   3.150 -0.2215 -0.4145 -0.1783
 8479SOL    HW137073   3.483   3.465   3.112  0.6203  0.8708  1.2553
 8479SOL    HW237074   3.539   3.334   3.074 -0.5498  1.9877 -1.9964
 8480SOL     OW37075   0.048   2.476   1.387 -0.4170 -0.1903 -0.0484
 8480SOL    HW137076   4.701   2.460   1.429 -0.2325  1.2309  0.8592
 8480SOL    HW237077   0.061   2.396   1.335 -0.2824  1.3423 -2.3936
 8481SOL     OW37078   4.121   0.735   2.952  0.0583  0.5295  0.2041
 8481SOL    HW137079   4.191   0.672   2.973 -0.2500  0.1658  0.1392
 8481SOL    HW237080   4.057   0.672   2.918 -0.1298  1.2323 -0.7275
 8482SOL     OW37081   1.805   2.068   5.316  0.2929  0.0844 -0.0919
 8482SOL    HW137082   1.872   2.098   5.378  0.5625  0.1715 -0.4231
 8482SOL    HW237083   1.811   2.132   5.245  0.9072  1.9871  1.6573
 8483SOL     OW37084   1.112   3.962   2.217  0.0796 -0.0228 -0.1071
 8483SOL    HW137085   1.132   3.910   2.294 -0.3388  1.1408  0.7786
 8483SOL    HW237086   1.110   4.050   2.253 -0.6245 -0.8009  1.7151
 8484SOL     OW37087   1.169   3.245   8.267  0.1574  0.2946 -0.3035
 8484SOL    HW137088   1.144   3.164   8.312  0.1326  1.1817  1.2780
 8484SOL    HW237089   1.259   3.253   8.299 -0.0340 -1.8529  0.8524
 8485SOL     OW37090   3.605   2.523   3.215 -0.0888 -0.5434 -0.0366
 8485SOL    HW137091   3.633   2.601   3.167 -0.2432  0.1949  1.0644
 8485SOL    HW237092   3.656   2.451   3.176 -1.0245 -1.3855  0.3150
 8486SOL     OW37093   3.091   1.604   2.244  0.2245  0.1179  0.5183
 8486SOL    HW137094   3.117   1.596   2.335 -1.0388 -0.1550  0.8577
 8486SOL    HW237095   3.169   1.595   2.190 -0.5966  0.3918 -0.7420
 8487SOL     OW37096   1.418   0.126   5.671  0.8835  0.5088 -0.1298
 8487SOL    HW137097   1.355   0.145   5.740  0.4196 -1.9293  0.1109
 8487SOL    HW237098   1.381   0.173   5.596 -0.0904  0.3637  0.2539
 8488SOL     OW37099   2.780   3.986   5.226  0.6822  0.0989 -0.3704
 8488SOL    HW137100   2.754   4.067   5.181  0.1542  0.1623  0.0423
 8488SOL    HW237101   2.875   3.994   5.227  0.6739  0.1506  0.0156
 8489SOL     OW37102   4.116   2.843   5.421 -0.1232  0.1074 -0.4038
 8489SOL    HW137103   4.091   2.811   5.507 -0.5089  0.0215 -0.5466
 8489SOL    HW237104   4.061   2.922   5.413 -0.8626 -0.4214 -0.5828
 8490SOL     OW37105   2.796   0.631   7.737  0.7796 -0.1906  0.1704
 8490SOL    HW137106   2.879   0.676   7.721  1.4513 -0.6342  2.3625
 8490SOL    HW237107   2.756   0.686   7.805  1.0372  0.7826 -0.4615
 8491SOL     OW37108   2.383   2.733   1.787  0.4226  0.2423  0.6531
 8491SOL    HW137109   2.454   2.675   1.760 -1.3725 -0.6739 -2.0386
 8491SOL    HW237110   2.350   2.694   1.868 -1.4155  0.0363 -0.1873
 8492SOL     OW37111   3.869   0.597   4.243  0.4313 -0.2466 -0.5186
 8492SOL    HW137112   3.803   0.529   4.235  0.1743  0.1025 -1.2933
 8492SOL    HW237113   3.883   0.580   4.337  0.4631 -1.6335 -0.7776
 8493SOL     OW37114   3.914   3.896   1.780 -0.3260  0.0944 -0.5158
 8493SOL    HW137115   3.861   3.918   1.857  1.9258 -1.4993  1.5016
 8493SOL    HW237116   3.936   3.805   1.803 -1.7490 -0.2740 -0.5726
 8494SOL     OW37117   1.238   1.330   6.433  0.8141  0.1495 -0.5891
 8494SOL    HW137118   1.211   1.408   6.386  0.7410 -0.1325 -1.0160
 8494SOL    HW237119   1.293   1.285   6.369  0.6601 -0.7221 -0.1121
 8495SOL     OW37120   2.518   1.071   4.835  0.3780 -0.3201  0.6450
 8495SOL    HW137121   2.550   1.015   4.764 -0.5681  0.8783 -0.7155
 8495SOL    HW237122   2.597   1.121   4.855  0.2088  0.1251  0.1977
 8496SOL     OW37123   2.738   1.196   5.940 -0.7752  0.8624 -0.2600
 8496SOL    HW137124   2.767   1.133   5.874  0.2177 -0.8150  1.7586
 8496SOL    HW237125   2.714   1.140   6.014 -0.3453 -0.7756 -1.3636
 8497SOL     OW37126   3.068   0.803  16.342  0.4265 -0.0278  0.1091
 8497SOL    HW137127   2.985   0.850  16.333  1.2682  1.6579  1.0229
 8497SOL    HW237128   3.102   0.839  16.424  2.3985 -2.6623  0.4588
 8498SOL     OW37129   1.349   2.524   8.488 -0.0355  0.3019  0.2226
 8498SOL    HW137130   1.414   2.594   8.503  0.1217 -0.2506  2.1165
 8498SOL    HW237131   1.396   2.442   8.476 -0.1782  0.2759 -0.1494
 8499SOL     OW37132   3.435   3.738   8.481 -0.5042  0.2019  0.2469
 8499SOL    HW137133   3.480   3.688   8.414 -0.7745 -0.3166  0.4511
 8499SOL    HW237134   3.506   3.741   8.546 -1.4921  0.9856  1.2933
 8500SOL     OW37135   2.555   1.070   7.025 -0.9545  0.1329 -0.1527
 8500SOL    HW137136   2.484   1.134   7.017 -0.3802  0.9605  1.2824
 8500SOL    HW237137   2.616   1.101   6.959 -0.8061 -0.5666 -0.3474
 8501SOL     OW37138   1.719   1.319   2.773  0.3403 -0.2381 -0.4221
 8501SOL    HW137139   1.695   1.311   2.865 -0.8620  0.6974 -0.6597
 8501SOL    HW237140   1.761   1.405   2.777 -0.9804  0.5327 -3.1590
 8502SOL     OW37141   0.061   4.385   1.306  0.2161 -0.1152  0.3383
 8502SOL    HW137142   0.027   4.407   1.219  0.6090  0.5534  0.3556
 8502SOL    HW237143   0.088   4.472   1.333 -1.3712  0.9857 -1.7044
 8503SOL     OW37144   1.730   2.762   5.660 -0.2945 -0.2283 -0.2723
 8503SOL    HW137145   1.757   2.739   5.571 -0.1440 -0.9575 -0.0354
 8503SOL    HW237146   1.791   2.835   5.673  1.5908 -1.6592 -0.9793
 8504SOL     OW37147   2.576   3.910   9.273 -0.3650  0.1570 -0.3356
 8504SOL    HW137148   2.493   3.932   9.229 -1.2944 -0.3845  1.1446
 8504SOL    HW237149   2.638   3.971   9.234  1.2536 -1.6733 -0.6334
 8505SOL     OW37150   2.369   0.853  12.064 -0.4502  0.2589  0.1146
 8505SOL    HW137151   2.357   0.936  12.019 -0.3759  0.8806  1.2299
 8505SOL    HW237152   2.293   0.806  12.030  0.1371 -1.0208  0.5791
 8506SOL     OW37153   1.935   2.644   8.323 -0.0662  0.0311 -0.1177
 8506SOL    HW137154   1.965   2.556   8.346  0.1184  0.2399  0.4373
 8506SOL    HW237155   2.017   2.694   8.317 -1.3126  2.2074  1.0324
 8507SOL     OW37156   3.351   0.958   4.425 -0.1418  0.3167 -0.1923
 8507SOL    HW137157   3.383   1.038   4.384 -2.0436  0.6765 -0.9502
 8507SOL    HW237158   3.414   0.946   4.496  1.1567  0.6938 -1.2708
 8508SOL     OW37159   4.025   2.680   6.074 -0.0158 -0.0111  0.1508
 8508SOL    HW137160   4.087   2.660   6.145 -0.2093  0.9150  0.5864
 8508SOL    HW237161   3.947   2.644   6.116  0.0450  0.7602  0.9253
 8509SOL     OW37162   0.853   3.314   4.060  0.1032  0.5379 -0.0399
 8509SOL    HW137163   0.880   3.223   4.043  1.4107  1.1523 -1.1809
 8509SOL    HW237164   0.939   3.344   4.090 -0.3417  0.2694  1.5472
 8510SOL     OW37165   2.063   3.737  17.320 -0.4426  0.4021  0.3202
 8510SOL    HW137166   2.090   3.695  17.401 -1.1102 -0.6550 -0.0077
 8510SOL    HW237167   1.993   3.792  17.356 -0.3469  0.2939  0.6724
 8511SOL     OW37168   4.503   0.383  10.310  0.1355  0.7445 -0.6654
 8511SOL    HW137169   4.429   0.362  10.368  0.2007  0.8222 -0.5526
 8511SOL    HW237170   4.580   0.405  10.363 -1.0469  3.8814 -0.2320
 8512SOL     OW37171   4.174   1.244   1.993  0.0667  0.5774  0.0611
 8512SOL    HW137172   4.114   1.319   1.986 -0.5983 -0.0247 -0.6927
 8512SOL    HW237173   4.211   1.242   1.905  0.0527 -0.2601  0.0723
 8513SOL     OW37174   2.949   1.343   5.035 -0.5996  0.2455 -0.1364
 8513SOL    HW137175   2.919   1.335   5.126  3.0627 -0.7143  0.9946
 8513SOL    HW237176   3.035   1.301   5.046 -0.2815  0.8809 -0.2219
 8514SOL     OW37177   4.283   2.206  11.245  0.0444 -0.4515  0.0238
 8514SOL    HW137178   4.250   2.296  11.252 -1.3500 -0.8531 -1.4999
 8514SOL    HW237179   4.378   2.220  11.240 -0.0485 -0.1490 -0.8251
 8515SOL     OW37180   4.387   1.960   5.673 -0.6522  0.0923  0.0995
 8515SOL    HW137181   4.467   1.977   5.624 -0.9552 -1.8871 -1.0832
 8515SOL    HW237182   4.358   1.880   5.628  1.7311  0.6006 -2.2998
 8516SOL     OW37183   3.893   0.810   5.141 -0.1473 -0.5063 -0.0135
 8516SOL    HW137184   3.877   0.731   5.089  0.5238 -1.6024  1.4592
 8516SOL    HW237185   3.848   0.798   5.225 -0.1579 -0.8899 -0.0757
 8517SOL     OW37186   2.245   1.163   9.269  0.2339 -0.2828 -0.4842
 8517SOL    HW137187   2.225   1.252   9.239 -2.7772 -0.4793  0.9048
 8517SOL    HW237188   2.298   1.190   9.343 -1.1979  1.2647 -0.0447
 8518SOL     OW37189   0.622   1.807   3.571  0.4050 -0.4563  0.3335
 8518SOL    HW137190   0.637   1.859   3.650  0.3411  1.6877 -1.0561
 8518SOL    HW237191   0.682   1.844   3.506 -0.9521 -1.3060 -1.4100
 8519SOL     OW37192   2.768   0.622   9.200  0.2700 -0.1054 -0.2027
 8519SOL    HW137193   2.763   0.527   9.204  0.4804 -0.1060  0.0479
 8519SOL    HW237194   2.853   0.632   9.242  0.5127 -2.3638 -0.1645
 8520SOL     OW37195   0.781   0.163   3.021 -0.2236 -0.1154 -0.1429
 8520SOL    HW137196   0.831   0.107   2.962  2.0957  0.6358  1.1311
 8520SOL    HW237197   0.724   0.198   2.951 -1.1939 -1.2997  0.0669
 8521SOL     OW37198   3.485   0.065   1.925 -0.0191  0.1310 -0.1474
 8521SOL    HW137199   3.536   0.119   1.865  1.0350 -0.0286  0.5949
 8521SOL    HW237200   3.398   0.091   1.896  0.1139  1.5748  0.7641
 8522SOL     OW37201   1.578   2.973   4.682 -0.1958  0.1397  0.3433
 8522SOL    HW137202   1.572   3.022   4.600  3.5729 -1.2129 -0.7704
 8522SOL    HW237203   1.667   3.000   4.706  0.3059 -1.7026  0.5856
 8523SOL     OW37204   1.368   0.727   4.677 -0.0970 -0.3122  0.2919
 8523SOL    HW137205   1.342   0.706   4.587  1.5651 -3.3302  0.5181
 8523SOL    HW237206   1.460   0.744   4.659 -0.8018  3.2883  0.0819
 8524SOL     OW37207   3.004   1.157  14.514  0.4605 -0.2218  0.0256
 8524SOL    HW137208   3.027   1.244  14.548 -1.6801  0.1144  0.6563
 8524SOL    HW237209   2.913   1.165  14.485 -0.0508  1.3417  1.9998
 8525SOL     OW37210   4.253   4.246  12.909 -0.8344  0.6514 -0.0959
 8525SOL    HW137211   4.347   4.243  12.892 -0.7597 -0.3558  0.4759
 8525SOL    HW237212   4.251   4.150  12.914 -0.1787  0.6873  0.9709
 8526SOL     OW37213   1.527   4.162   7.331 -0.2369 -0.5159  0.5009
 8526SOL    HW137214   1.519   4.080   7.381  1.5094 -0.1358  1.3951
 8526SOL    HW237215   1.478   4.135   7.253  3.0332 -1.0530 -1.3358
 8527SOL     OW37216   1.417   2.646  11.671 -0.2181  0.4765 -0.4573
 8527SOL    HW137217   1.426   2.599  11.754  0.0714  0.9365 -0.2329
 8527SOL    HW237218   1.494   2.701  11.661  0.1582  0.1110  0.4930
 8528SOL     OW37219   3.124   3.882   2.752 -0.2168  0.2493  0.9195
 8528SOL    HW137220   3.203   3.851   2.794  1.2293  1.1564 -1.1306
 8528SOL    HW237221   3.069   3.805   2.767 -1.3118  0.6864 -0.8020
 8529SOL     OW37222   2.981   1.710   6.295 -0.4639  0.0567  0.2632
 8529SOL    HW137223   2.912   1.776   6.286 -0.9194 -0.3191  0.9945
 8529SOL    HW237224   2.932   1.635   6.329 -0.8879  0.3836  0.3732
 8530SOL     OW37225   3.669   0.752   4.446 -0.4054  0.1628  0.7400
 8530SOL    HW137226   3.641   0.674   4.495 -1.8165 -0.9583 -1.8646
 8530SOL    HW237227   3.652   0.730   4.355  0.7416  1.7328  0.1549
 8531SOL     OW37228   3.868   2.888   5.881  0.3644  0.1578  0.4419
 8531SOL    HW137229   3.918   2.963   5.848  2.3771 -1.9593 -1.3367
 8531SOL    HW237230   3.907   2.810   5.843  3.1765  0.7121  2.1639
 8532SOL     OW37231   3.085   4.172   1.934  0.4310 -0.1207 -0.0085
 8532SOL    HW137232   3.108   4.080   1.946  1.3984 -0.1203 -2.0265
 8532SOL    HW237233   3.149   4.205   1.871 -0.9688  1.3369 -0.6753
 8533SOL     OW37234   3.169   2.804   7.269  0.5072 -0.0118 -0.5809
 8533SOL    HW137235   3.167   2.873   7.336  1.3621  1.4140 -2.0161
 8533SOL    HW237236   3.227   2.839   7.201  0.0266 -0.8169 -1.4028
 8534SOL     OW37237   3.695   2.526   8.974 -0.2149  0.5039  0.4394
 8534SOL    HW137238   3.734   2.607   8.942 -0.3697 -0.1159 -1.3275
 8534SOL    HW237239   3.742   2.460   8.923  0.5131  0.0739  1.6685
 8535SOL     OW37240   0.718   1.182   3.186  0.2761  0.1801  0.1203
 8535SOL    HW137241   0.660   1.254   3.214  1.3782  1.2480 -0.3272
 8535SOL    HW237242   0.741   1.138   3.267 -0.0417  0.7002  0.4938
 8536SOL     OW37243   1.664   0.545  16.485 -0.3525 -0.4047  0.1910
 8536SOL    HW137244   1.741   0.489  16.480  1.6683  2.3537  0.2400
 8536SOL    HW237245   1.629   0.511  16.567  0.7368  0.8619  1.1991
 8537SOL     OW37246   1.524   1.170   8.611 -0.1385 -0.3619 -0.6743
 8537SOL    HW137247   1.492   1.083   8.635 -1.0392  0.1201 -0.0849
 8537SOL    HW237248   1.458   1.206   8.552 -0.8639 -1.1635 -0.3498
 8538SOL     OW37249   4.331   1.311   6.738 -0.4235 -0.3834 -0.5732
 8538SOL    HW137250   4.301   1.277   6.822  3.4930 -1.3484  0.3949
 8538SOL    HW237251   4.400   1.368   6.771  0.3027 -2.1502  0.9002
 8539SOL     OW37252   1.831   4.199  11.858  0.4268 -0.2272  0.4148
 8539SOL    HW137253   1.874   4.139  11.919  2.5729  1.2101  0.3296
 8539SOL    HW237254   1.784   4.259  11.916 -1.0880  2.3685 -3.5445
 8540SOL     OW37255   0.840   1.521  10.257 -0.1983 -0.6049  0.4530
 8540SOL    HW137256   0.934   1.536  10.262 -0.3858  0.3951  0.9837
 8540SOL    HW237257   0.835   1.447  10.196 -2.0531 -0.2040  0.1106
 8541SOL     OW37258   0.691   1.592   8.915  0.1625  0.0489  0.2264
 8541SOL    HW137259   0.637   1.609   8.838  0.2361  1.0388  0.3814
 8541SOL    HW237260   0.636   1.526   8.956  0.7882 -1.0012 -0.6204
 8542SOL     OW37261   1.127   0.870  11.729 -0.3924 -0.3338  0.2516
 8542SOL    HW137262   1.064   0.840  11.663  1.9714  1.5671 -2.9142
 8542SOL    HW237263   1.071   0.912  11.794 -1.0375  0.6987 -0.9677
 8543SOL     OW37264   0.966   0.433  16.850 -0.0491 -0.4084  0.6891
 8543SOL    HW137265   0.885   0.401  16.810 -0.4323 -0.6087  1.6312
 8543SOL    HW237266   0.938   0.470  16.934  0.3669  1.1032  0.1527
 8544SOL     OW37267   0.252   4.151   5.379  0.7840 -0.2559 -0.4707
 8544SOL    HW137268   0.336   4.175   5.339  0.4385 -0.9475 -1.5825
 8544SOL    HW237269   0.256   4.192   5.466 -1.0349  1.2727 -1.1052
 8545SOL     OW37270   3.243   2.050   8.849  0.5045  0.4624 -0.5534
 8545SOL    HW137271   3.227   2.119   8.784 -3.7885 -0.1253 -0.1122
 8545SOL    HW237272   3.255   2.105   8.927  1.9954  2.2131 -2.0110
 8546SOL     OW37273   0.137   2.735  15.837 -0.3719 -0.1256 -0.3229
 8546SOL    HW137274   0.092   2.783  15.907  1.5119  3.0552 -1.2988
 8546SOL    HW237275   0.186   2.811  15.805 -2.7381  1.3343 -0.4683
 8547SOL     OW37276   1.436   2.981  14.720  0.1799 -0.8424  0.0267
 8547SOL    HW137277   1.433   2.952  14.811 -1.9348 -2.4835 -0.5666
 8547SOL    HW237278   1.526   2.958  14.698  1.7184  3.5137  1.6660
 8548SOL     OW37279   0.686   3.742  10.086  0.1806 -0.0181 -0.3547
 8548SOL    HW137280   0.606   3.696  10.111  0.7829  0.6317  2.8860
 8548SOL    HW237281   0.694   3.803  10.160 -2.5586  1.7462 -1.5219
 8549SOL     OW37282   1.611   1.329   6.966 -0.9003  0.1328  0.7561
 8549SOL    HW137283   1.699   1.327   7.004 -0.0691 -0.1258 -1.1671
 8549SOL    HW237284   1.560   1.290   7.037 -1.5124 -1.5645 -0.6224
 8550SOL     OW37285   2.537   1.759   6.324  0.0605 -0.1999 -0.2700
 8550SOL    HW137286   2.480   1.709   6.266  1.6629 -1.2815 -0.8855
 8550SOL    HW237287   2.626   1.755   6.290  0.3256  1.4531  0.1819
 8551SOL     OW37288   2.241   0.756   7.232  0.5325  0.4254  0.0128
 8551SOL    HW137289   2.295   0.763   7.154  1.6005 -2.2491  0.4795
 8551SOL    HW237290   2.283   0.822   7.287 -1.1638  2.5353 -1.2091
 8552SOL     OW37291   1.685   0.208   5.978  0.4188 -0.3067 -0.3259
 8552SOL    HW137292   1.636   0.159   6.044 -0.3077 -0.8197 -1.2590
 8552SOL    HW237293   1.743   0.266   6.029  1.0548 -0.1225 -1.2559
 8553SOL     OW37294   2.932   0.031   6.179  0.5963 -0.2770  0.2066
 8553SOL    HW137295   2.874   4.692   6.179  0.5407 -0.2212  1.3699
 8553SOL    HW237296   2.932   0.065   6.268  0.5629  1.6244 -0.5271
 8554SOL     OW37297   3.296   1.950   4.183  0.1385 -0.5510  0.4716
 8554SOL    HW137298   3.306   1.910   4.097  1.0295 -0.6304  0.6200
 8554SOL    HW237299   3.283   2.040   4.153  3.2405 -0.0114  0.7893
 8555SOL     OW37300   3.240   2.531   2.824 -0.0359 -0.5453 -0.4742
 8555SOL    HW137301   3.219   2.493   2.739 -2.9268  0.0495 -0.0342
 8555SOL    HW237302   3.232   2.626   2.815  0.7513 -0.1604  2.9422
 8556SOL     OW37303   3.303   3.648   0.270 -0.2136  0.4839 -0.0435
 8556SOL    HW137304   3.223   3.596   0.280 -0.8371  1.4936  0.2675
 8556SOL    HW237305   3.256   3.719   0.226 -1.4451  0.0064  0.4918
 8557SOL     OW37306   3.490   0.300   9.145  0.2978 -0.0402  0.4253
 8557SOL    HW137307   3.485   0.209   9.173  2.0338 -0.1724  0.3220
 8557SOL    HW237308   3.396   0.316   9.141  0.4016  1.0178  1.7939
 8558SOL     OW37309   0.489   4.209   5.273  0.6231 -0.0465 -0.2203
 8558SOL    HW137310   0.560   4.150   5.247 -0.8335 -1.3765 -1.1512
 8558SOL    HW237311   0.518   4.293   5.236 -0.0165  0.7822  1.1615
 8559SOL     OW37312   3.353   0.844   1.036 -0.6518  0.0571  0.1660
 8559SOL    HW137313   3.290   0.866   1.104  1.6991 -0.2280  2.4586
 8559SOL    HW237314   3.407   0.922   1.023 -0.7764 -0.5672 -4.1413
 8560SOL     OW37315   3.557   0.651   6.492 -0.9879  0.2135  0.3032
 8560SOL    HW137316   3.632   0.622   6.440 -1.3401 -0.3101  0.0832
 8560SOL    HW237317   3.581   0.744   6.493 -0.9491  0.2091 -0.3938
 8561SOL     OW37318   0.134   3.814   5.668  0.4580  0.4630  0.4551
 8561SOL    HW137319   0.225   3.806   5.637 -0.4976 -0.8325 -2.0089
 8561SOL    HW237320   0.150   3.827   5.762 -1.0890  0.3892  0.7204
 8562SOL     OW37321   2.401   1.483   4.692 -0.0863  0.0095 -0.5197
 8562SOL    HW137322   2.322   1.532   4.670  0.9818  1.1281 -1.8214
 8562SOL    HW237323   2.418   1.451   4.604  1.7509 -0.1970 -0.0902
 8563SOL     OW37324   0.549   0.869   3.327  0.7636  0.1832 -0.4874
 8563SOL    HW137325   0.560   0.842   3.419  0.2446 -1.5323 -0.9312
 8563SOL    HW237326   0.627   0.831   3.285  1.0999 -0.9863  1.1637
 8564SOL     OW37327   2.123   3.863   4.494  0.2109 -0.3687  0.5194
 8564SOL    HW137328   2.029   3.883   4.503 -0.2123 -1.1812 -2.0361
 8564SOL    HW237329   2.134   3.888   4.402 -2.2739  1.5625  0.7265
 8565SOL     OW37330   0.115   4.608  11.840  0.4006 -0.2837 -0.2836
 8565SOL    HW137331   0.155   4.656  11.912 -1.5494 -1.0001  1.2713
 8565SOL    HW237332   0.028   4.649  11.838  0.7033  0.3847  0.5345
 8566SOL     OW37333   3.613   3.042   3.166 -0.0874  0.1558  0.0505
 8566SOL    HW137334   3.634   2.949   3.161 -1.5269 -0.0518 -2.3176
 8566SOL    HW237335   3.640   3.077   3.082 -0.3865  1.2915  0.4296
 8567SOL     OW37336   4.317   0.542   2.998 -0.3659  0.8956  0.5806
 8567SOL    HW137337   4.405   0.509   3.013 -1.8186 -2.4684  1.6440
 8567SOL    HW237338   4.267   0.467   2.965 -1.3350  0.5653  2.8619
 8568SOL     OW37339   0.933   2.758   2.971 -0.4572  0.1752  0.6053
 8568SOL    HW137340   1.022   2.746   3.003 -0.7540  1.1183  1.7779
 8568SOL    HW237341   0.887   2.692   3.024  1.4183 -0.4599  1.4411
 8569SOL     OW37342   1.501   3.742   0.849 -0.0024  0.1466 -0.0401
 8569SOL    HW137343   1.592   3.773   0.855  0.1665  0.1823 -3.1126
 8569SOL    HW237344   1.437   3.811   0.868 -0.2654  0.0966 -0.7475
 8570SOL     OW37345   0.942   0.182   6.068 -0.2442 -0.1146 -0.2741
 8570SOL    HW137346   0.985   0.239   6.004  1.9580 -0.2095  1.1155
 8570SOL    HW237347   0.861   0.162   6.021  1.3293 -1.8424 -2.2950
 8571SOL     OW37348   3.669   2.238   2.279 -0.5807  0.1857  0.0129
 8571SOL    HW137349   3.582   2.200   2.271 -1.1174  1.6478 -0.9321
 8571SOL    HW237350   3.719   2.158   2.262 -0.7257 -0.1305  1.0913
 8572SOL     OW37351   2.281   2.675  12.190 -0.2146 -0.0055 -0.1713
 8572SOL    HW137352   2.195   2.700  12.224 -0.1484 -0.5826  0.4119
 8572SOL    HW237353   2.339   2.681  12.265 -3.0237  1.7845  1.8816
 8573SOL     OW37354   3.505   0.978   4.679 -0.1600 -0.0577 -0.0688
 8573SOL    HW137355   3.502   1.044   4.747  1.0329 -1.5525  1.4381
 8573SOL    HW237356   3.599   0.967   4.670 -0.3087 -0.2728 -1.3698
 8574SOL     OW37357   2.681   2.648   4.796  0.0404  0.0184 -0.2228
 8574SOL    HW137358   2.612   2.591   4.830  1.8176 -1.0601  1.6268
 8574SOL    HW237359   2.759   2.594   4.808 -2.5075 -3.1979  1.8994
 8575SOL     OW37360   3.617   4.239   5.803  0.0647 -0.1034 -0.8633
 8575SOL    HW137361   3.534   4.283   5.785  0.3109  0.3587 -0.8464
 8575SOL    HW237362   3.685   4.305   5.792 -0.5478  0.6589 -0.0289
 8576SOL     OW37363   1.595   0.095  17.061  0.1604  0.2366 -0.3426
 8576SOL    HW137364   1.687   0.076  17.045  0.5113 -0.3256  2.4583
 8576SOL    HW237365   1.573   0.013  17.106 -0.2642  1.1538  1.1039
 8577SOL     OW37366   2.270   3.176   1.691 -0.1263 -0.0120  0.1012
 8577SOL    HW137367   2.342   3.150   1.748 -0.9754 -0.6095  0.8952
 8577SOL    HW237368   2.215   3.098   1.680  0.3402 -0.5000  1.3108
 8578SOL     OW37369   4.592   1.866   6.465  0.5860 -0.2541  0.3926
 8578SOL    HW137370   4.684   1.878   6.443  0.8228  1.8610  2.4624
 8578SOL    HW237371   4.552   1.839   6.382  0.5269 -0.1412  0.3834
 8579SOL     OW37372   1.232   1.303   5.924  0.2551 -0.0952 -0.4293
 8579SOL    HW137373   1.211   1.334   6.012  0.4204 -0.5918 -0.2103
 8579SOL    HW237374   1.308   1.358   5.904  1.9362 -2.1160  0.3091
 8580SOL     OW37375   4.731   3.596   9.664  0.0017 -0.6428 -0.3806
 8580SOL    HW137376   4.641   3.586   9.695  0.0062 -1.1771 -0.5443
 8580SOL    HW237377   4.711   3.608   9.571 -0.9686 -1.7842 -0.3213
 8581SOL     OW37378   4.411   3.850   5.547  0.0488 -0.1738  0.2576
 8581SOL    HW137379   4.494   3.806   5.532  0.8458  1.5552 -0.4542
 8581SOL    HW237380   4.392   3.884   5.459  1.2641  1.2566  0.5445
 8582SOL     OW37381   3.674   1.214  12.832 -0.4508 -0.0903  0.4227
 8582SOL    HW137382   3.618   1.202  12.909  0.0033 -1.0455  0.6061
 8582SOL    HW237383   3.633   1.295  12.801 -0.0990 -0.0491  0.0730
 8583SOL     OW37384   1.891   2.295  14.571  0.4795  0.5758 -0.5597
 8583SOL    HW137385   1.921   2.283  14.481 -2.2364  0.5407 -1.4682
 8583SOL    HW237386   1.888   2.205  14.602  0.1008  1.5202  2.0874
 8584SOL     OW37387   2.961   1.366   9.082  0.1519 -0.8020  0.2885
 8584SOL    HW137388   3.043   1.368   9.133 -2.1641 -1.1432  4.0174
 8584SOL    HW237389   2.900   1.412   9.140  0.0863 -0.7783  0.2008
 8585SOL     OW37390   0.533   2.195   5.722 -0.1194  0.8522 -0.4694
 8585SOL    HW137391   0.571   2.108   5.718 -1.1744  0.3325  1.0231
 8585SOL    HW237392   0.600   2.238   5.776 -0.7591  0.9431  0.2485
 8586SOL     OW37393   2.614   2.103  15.279  0.2819  0.0100 -0.3109
 8586SOL    HW137394   2.599   2.014  15.312  0.9675 -1.3102 -3.5795
 8586SOL    HW237395   2.589   2.158  15.353 -1.7569  1.0396 -1.7661
 8587SOL     OW37396   4.472   3.228   6.435  0.2077 -0.2258  0.4226
 8587SOL    HW137397   4.566   3.220   6.453  0.4274 -0.5853 -0.8650
 8587SOL    HW237398   4.477   3.282   6.356  1.4294 -1.1307 -0.1276
 8588SOL     OW37399   3.008   3.941  14.921  0.6637 -0.1913 -0.0558
 8588SOL    HW137400   3.100   3.964  14.931  1.3889 -2.6017 -1.0163
 8588SOL    HW237401   3.013   3.896  14.836  1.3460  0.8404 -0.5602
 8589SOL     OW37402   3.893   1.056   0.555  0.1909  0.5417  0.3597
 8589SOL    HW137403   3.903   0.987   0.490 -0.3833 -1.3804  2.3196
 8589SOL    HW237404   3.983   1.054   0.586  0.0843 -0.9953  0.5448
 8590SOL     OW37405   3.312   0.070   5.574  0.7825 -0.2620 -0.2090
 8590SOL    HW137406   3.391   0.059   5.627 -0.8443 -0.8983  2.0859
 8590SOL    HW237407   3.241   0.075   5.637  1.3497  1.5792  0.3019
 8591SOL     OW37408   2.540   3.919   9.753 -0.0855 -0.2751 -0.2757
 8591SOL    HW137409   2.520   3.961   9.836  2.0098  0.6456 -0.2135
 8591SOL    HW237410   2.586   3.996   9.716 -1.5994  1.5736  1.7196
 8592SOL     OW37411   4.442   0.755   7.493  0.4710 -0.4751  0.1153
 8592SOL    HW137412   4.408   0.694   7.427 -0.7241 -1.0038  1.2203
 8592SOL    HW237413   4.533   0.736   7.470  0.2153  0.4752 -1.7204
 8593SOL     OW37414   0.399   4.241   5.985 -0.7277  0.1407 -0.0335
 8593SOL    HW137415   0.307   4.251   5.963 -0.7458  0.1011  0.0241
 8593SOL    HW237416   0.424   4.174   5.921  0.1046 -1.0235  1.4882
 8594SOL     OW37417   3.447   4.463  16.645  0.4529 -0.2893  0.3790
 8594SOL    HW137418   3.366   4.487  16.689  0.4789 -0.4286  0.5011
 8594SOL    HW237419   3.458   4.368  16.652  1.6129 -0.2128 -0.3393
 8595SOL     OW37420   2.505   3.842   4.559 -0.1109 -0.1809 -0.8143
 8595SOL    HW137421   2.554   3.857   4.478  1.0256  0.5483  0.0055
 8595SOL    HW237422   2.571   3.787   4.603 -0.8427 -0.1017  0.3903
 8596SOL     OW37423   2.473   0.237   3.724 -0.7568  0.0339 -0.4317
 8596SOL    HW137424   2.555   0.283   3.743  0.0272 -1.6470  0.2351
 8596SOL    HW237425   2.505   0.163   3.674 -1.7410  0.3503 -1.5335
 8597SOL     OW37426   3.719   3.585   5.606 -0.4099 -0.2548  0.2608
 8597SOL    HW137427   3.666   3.607   5.682 -0.2216 -1.0914  0.6335
 8597SOL    HW237428   3.645   3.556   5.553 -1.4625  2.2201  0.4087
 8598SOL     OW37429   3.766   1.987  12.760 -0.4293  0.1799 -0.5988
 8598SOL    HW137430   3.672   1.989  12.779 -0.2673 -1.4115  0.3621
 8598SOL    HW237431   3.774   2.057  12.695 -1.1472  0.5230 -0.3193
 8599SOL     OW37432   2.716   0.533  12.394  0.0457  0.3082 -0.5331
 8599SOL    HW137433   2.651   0.554  12.327 -0.7717 -0.3061  0.0618
 8599SOL    HW237434   2.796   0.537  12.341  0.9802 -2.7792  0.6172
 8600SOL     OW37435   0.818   4.104   0.398 -0.3392  0.8163  0.3036
 8600SOL    HW137436   0.806   4.139   0.309 -1.7709 -0.8202 -0.1331
 8600SOL    HW237437   0.739   4.146   0.431 -0.1615  1.6687 -0.3314
 8601SOL     OW37438   1.851   2.256   1.405 -0.3348 -0.0917  0.2724
 8601SOL    HW137439   1.933   2.210   1.389 -0.3743 -0.1901  0.3527
 8601SOL    HW237440   1.878   2.289   1.491  0.4001  1.1598 -0.4370
 8602SOL     OW37441   1.203   3.606   1.832  0.7538 -0.0627 -0.1312
 8602SOL    HW137442   1.114   3.580   1.807  0.8033  0.9634 -1.3652
 8602SOL    HW237443   1.175   3.654   1.911 -2.6129 -0.0281 -1.3381
 8603SOL     OW37444   0.707   3.200   6.362 -0.4624 -0.3130 -0.8753
 8603SOL    HW137445   0.683   3.285   6.324  1.3151  0.1100 -1.0758
 8603SOL    HW237446   0.754   3.220   6.443  0.5190  1.2069 -1.8033
 8604SOL     OW37447   4.569   3.341  11.734  0.1947  0.4626 -0.1559
 8604SOL    HW137448   4.648   3.348  11.788 -0.3861 -0.4251  0.8002
 8604SOL    HW237449   4.606   3.315  11.649 -0.2638 -0.4043 -0.0954
 8605SOL     OW37450   3.803   2.293  15.409  0.0627 -0.3004  0.0997
 8605SOL    HW137451   3.877   2.259  15.460  0.8195  3.0691  1.2712
 8605SOL    HW237452   3.826   2.386  15.414  0.4279 -0.4225  0.6477
 8606SOL     OW37453   1.276   1.198   7.453 -0.3851 -0.4696  0.4229
 8606SOL    HW137454   1.220   1.214   7.377  0.2293 -1.6929 -0.2882
 8606SOL    HW237455   1.228   1.257   7.511 -0.1957 -0.0855  0.1929
 8607SOL     OW37456   2.030   2.732   6.900  0.3306 -0.0450  0.4121
 8607SOL    HW137457   2.003   2.648   6.936  0.3739  0.4168  1.5542
 8607SOL    HW237458   2.118   2.723   6.935  0.4802  1.1259  0.3491
 8608SOL     OW37459   3.484   3.560   5.469 -0.2218 -0.0602  0.4963
 8608SOL    HW137460   3.463   3.609   5.390 -2.1175 -1.8567 -0.1139
 8608SOL    HW237461   3.406   3.505   5.465  0.3110 -0.5884 -2.8359
 8609SOL     OW37462   3.230   0.478   3.531  0.4786 -0.4999  0.1269
 8609SOL    HW137463   3.257   0.471   3.439 -1.3848  0.8184 -0.5069
 8609SOL    HW237464   3.186   0.393   3.536 -1.1752  0.5379  2.6667
 8610SOL     OW37465   4.670   3.345   4.627  0.4790 -0.0365 -0.2040
 8610SOL    HW137466   4.649   3.286   4.699  1.2923  0.5728  0.5298
 8610SOL    HW237467   4.598   3.408   4.632  0.0034 -0.5706 -0.3861
 8611SOL     OW37468   4.220   0.086   9.075  0.3118 -0.0116 -0.4369
 8611SOL    HW137469   4.215   4.732   9.105  0.3260  0.8056  2.0501
 8611SOL    HW237470   4.171   0.072   8.994 -0.1940  0.3453 -0.1915
 8612SOL     OW37471   2.863   2.237  15.060  0.1450  0.0352 -0.6583
 8612SOL    HW137472   2.806   2.215  14.986  3.0349 -0.2864 -2.8139
 8612SOL    HW237473   2.912   2.312  15.028 -1.8611  1.6930  0.2077
 8613SOL     OW37474   1.928   4.238   1.893  0.2250 -0.5496  0.0564
 8613SOL    HW137475   1.892   4.242   1.981 -0.4156 -1.3180 -0.1676
 8613SOL    HW237476   1.924   4.143   1.880  1.2055 -0.3482 -1.7345
 8614SOL     OW37477   0.469   3.158   8.146  0.0257 -0.2754  0.1525
 8614SOL    HW137478   0.481   3.070   8.112  1.3080 -0.2371  0.5007
 8614SOL    HW237479   0.400   3.188   8.087  2.5066  1.0432 -2.0731
 8615SOL     OW37480   1.953   2.360   1.649  0.2196  0.1738 -0.0853
 8615SOL    HW137481   1.890   2.419   1.690  2.3350 -0.0114  3.3917
 8615SOL    HW237482   1.981   2.299   1.717 -0.8341  0.6408  0.7730
 8616SOL     OW37483   1.571   3.884   7.363  0.0350 -0.7972  0.3461
 8616SOL    HW137484   1.649   3.866   7.310  1.2552 -0.1331  1.9420
 8616SOL    HW237485   1.603   3.874   7.452 -1.1541 -1.9698  0.6383
 8617SOL     OW37486   2.408   4.591   2.661  0.2586  0.0404 -0.2603
 8617SOL    HW137487   2.491   4.543   2.657  0.6879  0.9126 -1.9939
 8617SOL    HW237488   2.348   4.521   2.684  1.9818 -0.4328  2.8169
 8618SOL     OW37489   3.728   0.441   2.558  0.1469  0.4072 -0.3938
 8618SOL    HW137490   3.641   0.401   2.558  0.5396 -0.4594  0.0144
 8618SOL    HW237491   3.722   0.505   2.629  1.4634  1.2977 -1.0915
 8619SOL     OW37492   4.616   1.061   0.797 -0.7688  0.1778 -0.6377
 8619SOL    HW137493   4.669   1.106   0.731  0.1001 -1.4017 -1.0202
 8619SOL    HW237494   4.683   1.010   0.841 -0.3252  0.8105 -0.5766
 8620SOL     OW37495   3.643   2.180   4.684 -0.4081  0.3735  0.5262
 8620SOL    HW137496   3.660   2.173   4.778  1.5256  2.1076  0.2989
 8620SOL    HW237497   3.675   2.267   4.660  0.0687  0.3802  1.1998
 8621SOL     OW37498   0.475   0.432  13.483  0.2274  0.1631 -0.8777
 8621SOL    HW137499   0.418   0.493  13.529 -0.8065  0.0446 -2.0315
 8621SOL    HW237500   0.413   0.416  13.413 -0.0323 -2.7917 -0.0003
 8622SOL     OW37501   2.826   2.647   5.475  0.1370 -0.2351 -0.9528
 8622SOL    HW137502   2.856   2.630   5.564  0.5998 -0.2834 -1.1186
 8622SOL    HW237503   2.820   2.742   5.463 -0.1253  0.0318  1.2560
 8623SOL     OW37504   3.682   4.141   3.721 -0.1212 -0.1441 -0.2724
 8623SOL    HW137505   3.702   4.051   3.695 -1.4799  0.3501 -2.9364
 8623SOL    HW237506   3.590   4.159   3.702  0.5661  1.6599 -1.9026
 8624SOL     OW37507   0.188   4.190   2.061  0.3587 -0.2010  0.2271
 8624SOL    HW137508   0.200   4.255   1.992  0.7239  0.3731  0.8302
 8624SOL    HW237509   0.189   4.255   2.131  0.6469  0.3996 -0.3406
 8625SOL     OW37510   1.268   1.726   0.591 -0.0028  0.3477  0.1665
 8625SOL    HW137511   1.363   1.714   0.594 -0.0472  0.1732  0.8878
 8625SOL    HW237512   1.267   1.793   0.660 -1.1230 -0.1458  0.6290
 8626SOL     OW37513   1.346   2.670   4.038  0.3052 -0.4016  0.5778
 8626SOL    HW137514   1.291   2.739   4.001  0.9731  0.4535  1.1723
 8626SOL    HW237515   1.293   2.612   4.093 -0.6944 -0.6181 -0.6278
 8627SOL     OW37516   0.121   0.092  13.067  0.5162 -0.0897 -0.4369
 8627SOL    HW137517   0.214   0.109  13.085  0.5184  1.0777 -1.5185
 8627SOL    HW237518   0.090   0.103  13.157  0.0316  3.8894 -1.1080
 8628SOL     OW37519   0.220   4.463   5.799 -0.1824 -0.1885  0.2445
 8628SOL    HW137520   0.152   4.472   5.864 -1.9001  0.4542 -1.6343
 8628SOL    HW237521   0.292   4.513   5.838 -0.3640  2.9119 -3.3849
 8629SOL     OW37522   2.922   2.600   7.620  0.3916  0.5691  0.6050
 8629SOL    HW137523   2.905   2.672   7.682 -0.8776  0.7090  0.0980
 8629SOL    HW237524   2.918   2.528   7.683 -1.5372  1.4720  1.5271
 8630SOL     OW37525   3.740   2.424   4.677 -0.1500  0.3857 -0.0767
 8630SOL    HW137526   3.822   2.466   4.652  1.6592 -2.6842  0.8215
 8630SOL    HW237527   3.741   2.441   4.771  0.2906  3.2484 -0.6112
 8631SOL     OW37528   3.964   2.381   1.559  0.0641  0.3717 -0.3050
 8631SOL    HW137529   3.895   2.390   1.626  0.0508 -0.3024 -0.2310
 8631SOL    HW237530   3.986   2.468   1.526  0.8864  0.4988  0.5671
 8632SOL     OW37531   4.067   1.302   6.655  0.8211 -0.4744 -0.6256
 8632SOL    HW137532   4.156   1.278   6.681  0.9777  1.7888  0.9452
 8632SOL    HW237533   4.044   1.364   6.724  0.6623 -0.7313 -0.4465
 8633SOL     OW37534   3.907   1.868  11.535  0.5221 -0.2944  0.5146
 8633SOL    HW137535   3.855   1.791  11.556 -0.3790  0.6257  1.6691
 8633SOL    HW237536   3.934   1.845  11.446 -0.0243  0.7349  0.0860
 8634SOL     OW37537   0.558   2.012   3.893  0.1780  0.1885  0.2248
 8634SOL    HW137538   0.498   1.953   3.847  0.4838 -0.5898  0.8272
 8634SOL    HW237539   0.625   2.015   3.825  0.6768 -2.7224  0.6179
 8635SOL     OW37540   3.590   3.649   0.921 -0.4225 -0.0162  0.4717
 8635SOL    HW137541   3.587   3.710   0.847 -0.8410 -0.2289  0.3159
 8635SOL    HW237542   3.498   3.656   0.945 -0.5571  0.4148 -0.1742
 8636SOL     OW37543   3.064   2.204   2.848  0.4588 -0.4504 -0.0956
 8636SOL    HW137544   3.102   2.283   2.809  1.2944 -1.3765 -1.1629
 8636SOL    HW237545   3.041   2.160   2.766  1.6021  1.3642 -1.4018
 8637SOL     OW37546   2.348   2.427   6.851 -0.2809  0.5431 -0.1508
 8637SOL    HW137547   2.425   2.397   6.802 -1.2234 -1.6858 -0.2604
 8637SOL    HW237548   2.295   2.347   6.851  0.9354 -0.2591  1.6813
 8638SOL     OW37549   3.760   1.236   3.577  0.0535 -0.0605 -0.0636
 8638SOL    HW137550   3.848   1.209   3.551  0.2259  0.0615  0.3961
 8638SOL    HW237551   3.783   1.288   3.654 -0.1004  0.5814 -0.4555
 8639SOL     OW37552   1.809   3.276  14.190  0.2626 -0.1431 -0.3326
 8639SOL    HW137553   1.739   3.260  14.127  0.5490 -1.4010 -0.3236
 8639SOL    HW237554   1.770   3.341  14.249  0.3273 -0.0630 -0.3788
 8640SOL     OW37555   3.403   3.019   1.444  0.1266 -0.6901 -0.0042
 8640SOL    HW137556   3.384   3.112   1.441  0.9017 -0.5670 -0.9885
 8640SOL    HW237557   3.319   2.977   1.462  0.2715 -0.3087  1.5804
 8641SOL     OW37558   1.372   1.465   7.267 -0.0504  0.3612  0.0608
 8641SOL    HW137559   1.334   1.411   7.197 -1.4283 -1.7441  2.4494
 8641SOL    HW237560   1.428   1.398   7.305 -0.2380 -0.3398 -0.8922
 8642SOL     OW37561   1.351   4.566   1.924  0.2483  0.6741  0.1428
 8642SOL    HW137562   1.392   4.652   1.916 -1.0899  1.2928 -0.0650
 8642SOL    HW237563   1.403   4.514   1.985  2.2491 -0.1047 -2.2395
 8643SOL     OW37564   1.800   1.232   8.078  0.9374  0.0529 -0.2028
 8643SOL    HW137565   1.825   1.139   8.074  2.5779  0.5854 -2.3905
 8643SOL    HW237566   1.742   1.230   8.002  0.8496 -0.4298 -0.1226
 8644SOL     OW37567   4.606   3.370  13.163 -0.1840 -0.0157  0.2046
 8644SOL    HW137568   4.693   3.377  13.203  0.6829 -1.6753 -1.4041
 8644SOL    HW237569   4.614   3.299  13.100 -0.9878  0.2355 -0.1705
 8645SOL     OW37570   0.842   1.875   3.395  0.2184  0.2522  0.2704
 8645SOL    HW137571   0.896   1.799   3.415 -1.0671 -0.7572 -0.1034
 8645SOL    HW237572   0.890   1.900   3.316 -0.0119  1.9948  0.6845
 8646SOL     OW37573   2.016   0.591   7.879 -0.5391  0.0279 -0.2046
 8646SOL    HW137574   1.947   0.652   7.853 -0.4730 -0.1563 -0.8150
 8646SOL    HW237575   2.035   0.555   7.792 -1.3964 -0.6169 -0.1176
 8647SOL     OW37576   0.196   2.921   2.750 -0.0989  0.2128 -0.0206
 8647SOL    HW137577   0.206   2.990   2.685  2.8622  0.2110  0.4515
 8647SOL    HW237578   0.107   2.893   2.728 -0.2207 -0.7817  1.7153
 8648SOL     OW37579   3.544   4.237  16.073 -0.4760 -0.0978  0.5026
 8648SOL    HW137580   3.558   4.261  15.981  0.0784 -0.3906  0.5083
 8648SOL    HW237581   3.628   4.197  16.095  1.4400  3.6111 -0.0268
 8649SOL     OW37582   0.016   0.984   5.532  0.5795 -0.0945 -0.1698
 8649SOL    HW137583   4.703   1.020   5.605 -1.1837 -1.7114 -0.6035
 8649SOL    HW237584   0.089   1.046   5.538  1.1905 -0.7756 -0.6165
 8650SOL     OW37585   0.563   3.477  10.065  0.3773  0.3090 -0.1036
 8650SOL    HW137586   0.491   3.524  10.107  0.2431 -0.8846  1.0062
 8650SOL    HW237587   0.501   3.426  10.012 -0.2105  0.0395  0.8354
 8651SOL     OW37588   2.772   4.297   4.405  0.0849 -0.1483  0.7451
 8651SOL    HW137589   2.678   4.308   4.420  0.3282 -0.0601  2.2146
 8651SOL    HW237590   2.807   4.300   4.494 -0.8752 -1.4669  1.1725
 8652SOL     OW37591   4.031   2.818  16.972  0.7093 -0.4618 -0.4242
 8652SOL    HW137592   3.967   2.770  17.024 -0.8919 -0.8228 -2.7738
 8652SOL    HW237593   3.968   2.875  16.928 -0.0941 -1.6429 -0.7940
 8653SOL     OW37594   4.104   3.697   8.641  0.5496  0.4896  0.7075
 8653SOL    HW137595   4.054   3.779   8.644  0.0787  0.2150  0.4602
 8653SOL    HW237596   4.071   3.654   8.561 -1.0698  4.0157 -0.5341
 8654SOL     OW37597   2.900   2.843   3.863  0.3141 -0.2652  0.1127
 8654SOL    HW137598   2.955   2.899   3.808 -0.3170 -1.6846 -1.9386
 8654SOL    HW237599   2.855   2.785   3.802  2.2420 -1.2083 -0.4074
 8655SOL     OW37600   2.539   3.125   5.990 -0.2307  0.5273  0.3550
 8655SOL    HW137601   2.562   3.143   5.898  1.3732 -0.8981  0.4713
 8655SOL    HW237602   2.528   3.216   6.015 -1.5465  0.8851 -1.5508
 8656SOL     OW37603   0.093   4.383  17.127 -0.3668 -0.6763 -0.2855
 8656SOL    HW137604   0.118   4.327  17.054 -0.1256  0.1510 -0.8326
 8656SOL    HW237605   0.105   4.321  17.200 -0.0528  0.5753  0.7226
 8657SOL     OW37606   1.641   4.627   6.188 -0.3420  0.0972  0.4092
 8657SOL    HW137607   1.731   4.649   6.211 -0.8744  1.3907  1.2507
 8657SOL    HW237608   1.584   4.701   6.210  1.2652  1.8164 -1.2306
 8658SOL     OW37609   1.467   1.104  13.323  0.0458  0.5324  0.1921
 8658SOL    HW137610   1.423   1.088  13.407 -0.4031 -0.2059 -0.1804
 8658SOL    HW237611   1.492   1.013  13.304 -1.0187 -0.2092  2.2889
 8659SOL     OW37612   1.991   3.742   8.206 -0.3557 -0.0597 -0.0227
 8659SOL    HW137613   1.902   3.724   8.236 -0.1743 -4.0123 -1.8402
 8659SOL    HW237614   2.015   3.655   8.175 -1.4385  0.3331 -2.0219
 8660SOL     OW37615   2.275   2.407   9.770  0.0104  0.4759  0.4280
 8660SOL    HW137616   2.201   2.467   9.764 -0.5509 -0.4770 -2.2120
 8660SOL    HW237617   2.297   2.419   9.862 -2.0184 -3.9915  1.5443
 8661SOL     OW37618   0.402   1.984  13.997  0.3854 -0.0360  0.7359
 8661SOL    HW137619   0.489   1.949  14.014 -0.6245 -2.0193  1.9527
 8661SOL    HW237620   0.354   1.908  13.963 -0.5156  2.0013 -2.4535
 8662SOL     OW37621   0.426   3.400   2.015 -0.1450 -0.9075  0.5298
 8662SOL    HW137622   0.422   3.383   2.109 -2.3807 -0.9376  0.4370
 8662SOL    HW237623   0.449   3.493   2.013 -2.5282 -0.3412  0.0120
 8663SOL     OW37624   1.673   1.039   8.358 -0.2601 -0.1817 -0.8220
 8663SOL    HW137625   1.648   1.132   8.361  1.9179  0.3672  0.4401
 8663SOL    HW237626   1.716   1.027   8.273 -1.2299  1.2407 -1.5323
 8664SOL     OW37627   0.195   2.470   6.706  0.2727  0.2504  0.4680
 8664SOL    HW137628   0.169   2.404   6.642  0.2042 -1.8631  2.6778
 8664SOL    HW237629   0.125   2.460   6.770 -0.5081  0.3479 -0.3780
 8665SOL     OW37630   0.647   2.464   1.311 -0.3704 -0.5901  0.1691
 8665SOL    HW137631   0.693   2.492   1.390  1.2113  0.9726 -1.3036
 8665SOL    HW237632   0.611   2.552   1.301  1.4936 -0.0021 -1.1795
 8666SOL     OW37633   0.138   2.561   6.028 -0.0658 -0.2596 -0.0233
 8666SOL    HW137634   0.144   2.499   6.101 -1.6053  0.2772  0.5670
 8666SOL    HW237635   0.225   2.597   6.042 -1.4001  2.5973  1.0663
 8667SOL     OW37636   3.536   0.295   9.648 -0.8193  0.2008 -0.3150
 8667SOL    HW137637   3.517   0.385   9.673  2.5831  1.2022 -1.2975
 8667SOL    HW237638   3.632   0.298   9.654 -0.7788 -1.0228 -0.2413
 8668SOL     OW37639   2.560   3.962   8.267 -0.0908  0.4580 -0.6220
 8668SOL    HW137640   2.648   3.998   8.258 -0.4846  0.8997 -2.5822
 8668SOL    HW237641   2.516   4.042   8.295 -0.3980  0.4076 -0.9721
 8669SOL     OW37642   3.398   2.482   6.580 -0.1663 -0.1029 -0.2974
 8669SOL    HW137643   3.446   2.529   6.511 -1.3938 -0.3310 -1.3098
 8669SOL    HW237644   3.365   2.407   6.531 -0.3131  1.4062 -2.4961
 8670SOL     OW37645   0.088   1.656   8.059  0.3327  0.0301 -0.6503
 8670SOL    HW137646   0.051   1.674   8.145 -2.0862 -1.5185 -1.3745
 8670SOL    HW237647   0.010   1.626   8.013 -0.6286 -1.0087  1.6383
 8671SOL     OW37648   1.631   4.468   6.441 -0.4183  0.0736 -0.1142
 8671SOL    HW137649   1.680   4.478   6.360  0.5432  1.0184  0.5868
 8671SOL    HW237650   1.545   4.443   6.408 -1.1357 -0.7653  2.3874
 8672SOL     OW37651   1.412   4.421  11.741 -0.4375 -0.1293 -0.1350
 8672SOL    HW137652   1.356   4.372  11.680  0.3906 -1.1686 -0.0678
 8672SOL    HW237653   1.347   4.462  11.798 -1.6294  1.5244 -2.6731
 8673SOL     OW37654   2.099   4.498   2.586  0.2992 -0.3404  0.4506
 8673SOL    HW137655   2.066   4.414   2.553  2.0738 -1.2349  0.9617
 8673SOL    HW237656   2.152   4.542   2.519 -0.1143  0.3194  0.5570
 8674SOL     OW37657   4.172   1.300   0.616 -0.2419  0.5135  0.0904
 8674SOL    HW137658   4.248   1.241   0.618 -0.6370  0.0452  1.7186
 8674SOL    HW237659   4.117   1.267   0.545  0.7347 -0.2272 -0.3194
 8675SOL     OW37660   4.413   0.131   7.806 -0.0389  0.2387  0.3740
 8675SOL    HW137661   4.500   0.132   7.847 -1.0786  0.1104  2.5774
 8675SOL    HW237662   4.366   0.103   7.885  0.5327 -1.6269  0.0527
 8676SOL     OW37663   0.153   1.984  10.237 -0.0295 -0.1428  0.1436
 8676SOL    HW137664   0.073   2.031  10.259 -0.5729 -1.8083  1.7155
 8676SOL    HW237665   0.205   1.995  10.317  1.1998 -2.0666 -0.3858
 8677SOL     OW37666   2.157   0.589   7.625 -0.2947  0.0838 -0.5968
 8677SOL    HW137667   2.132   0.678   7.602 -0.3824  0.0595 -0.5934
 8677SOL    HW237668   2.199   0.559   7.544 -1.8037  0.1322 -1.3968
 8678SOL     OW37669   2.885   0.000   4.012 -0.3001  0.0059 -0.5344
 8678SOL    HW137670   2.958   0.057   4.037  0.2341 -0.3674 -1.2353
 8678SOL    HW237671   2.818   0.045   4.063 -0.0955 -1.3244  0.8886
 8679SOL     OW37672   4.453   2.688   1.124  0.0111  0.1756 -0.2774
 8679SOL    HW137673   4.468   2.606   1.077  1.8376 -0.0785  0.7838
 8679SOL    HW237674   4.545   2.706   1.144  0.5031  0.8729 -3.0827
 8680SOL     OW37675   4.550   0.798   4.947  0.3660  0.4486  0.3184
 8680SOL    HW137676   4.545   0.703   4.944  1.5608  0.3947 -0.0858
 8680SOL    HW237677   4.570   0.819   4.855  0.5690 -0.0778  0.2444
 8681SOL     OW37678   3.590   2.749   4.832  0.0314 -0.6020  0.1489
 8681SOL    HW137679   3.619   2.663   4.861 -1.4898 -0.7971  1.0862
 8681SOL    HW237680   3.507   2.729   4.791 -1.2398  0.3683  2.2251
 8682SOL     OW37681   1.597   2.753   7.840  0.3055 -0.1887  0.0338
 8682SOL    HW137682   1.528   2.805   7.800 -0.7839 -0.5705  1.4171
 8682SOL    HW237683   1.629   2.699   7.768  1.8685 -0.9244  1.2654
 8683SOL     OW37684   3.408   1.834   8.907  0.5373  0.0943  0.0300
 8683SOL    HW137685   3.366   1.776   8.843 -0.5394 -1.3519  2.0259
 8683SOL    HW237686   3.355   1.909   8.880  1.3521  1.2515  1.7250
 8684SOL     OW37687   3.793   0.126   2.534 -0.4723  0.1604  0.4462
 8684SOL    HW137688   3.786   0.044   2.486  1.1248  0.7390 -0.7538
 8684SOL    HW237689   3.824   0.196   2.476 -0.8417  1.2858  1.6041
 8685SOL     OW37690   1.721   2.122  11.261 -0.1302  0.2674 -0.1819
 8685SOL    HW137691   1.696   2.205  11.219 -1.1701 -0.6713 -1.3906
 8685SOL    HW237692   1.792   2.140  11.322  1.6636 -1.8534 -1.6926
 8686SOL     OW37693   2.481   1.869   3.710  0.6657  0.4232  0.5179
 8686SOL    HW137694   2.419   1.941   3.694  0.4952  0.0809 -0.3298
 8686SOL    HW237695   2.560   1.922   3.710  1.2390 -0.4375  0.0409
 8687SOL     OW37696   0.818   2.165   9.240 -0.2342  0.4350  0.3198
 8687SOL    HW137697   0.779   2.087   9.200  1.9169 -0.8248  0.6969
 8687SOL    HW237698   0.778   2.159   9.327  0.0876  0.6708  0.4817
 8688SOL     OW37699   3.196   3.084   2.461 -0.3260 -0.3232 -0.2720
 8688SOL    HW137700   3.110   3.096   2.503 -0.5819 -1.2367 -0.5214
 8688SOL    HW237701   3.172   3.091   2.369 -1.8830 -1.7732  0.0140
 8689SOL     OW37702   1.428   4.139   8.315  0.3301  0.1744  0.3048
 8689SOL    HW137703   1.384   4.208   8.366 -0.7208  0.1964 -0.6284
 8689SOL    HW237704   1.471   4.179   8.240 -1.0920 -1.4541 -1.3668
 8690SOL     OW37705   1.744   2.326   2.288 -0.1247  0.2348 -0.1299
 8690SOL    HW137706   1.669   2.316   2.347  1.7043 -2.0623  1.7697
 8690SOL    HW237707   1.717   2.402   2.235 -0.1102 -0.7898 -1.6205
 8691SOL     OW37708   0.030   4.563   7.513  0.6920 -0.1523  0.3839
 8691SOL    HW137709   0.110   4.560   7.566  0.5685 -1.4001  0.4812
 8691SOL    HW237710   4.696   4.576   7.574  0.6244 -1.3300  0.5385
 8692SOL     OW37711   1.181   2.761   3.053  0.1151 -0.2160  0.0966
 8692SOL    HW137712   1.233   2.832   3.018  1.3989 -0.3989  1.6534
 8692SOL    HW237713   1.250   2.700   3.079  1.8052  1.2495 -1.0161
 8693SOL     OW37714   3.230   0.419   3.883 -0.1512  0.0380  0.1785
 8693SOL    HW137715   3.310   0.420   3.934  0.1922 -1.8375 -0.3256
 8693SOL    HW237716   3.262   0.366   3.810  0.3176  1.5974 -0.7357
 8694SOL     OW37717   3.239   0.376  10.645  0.3363 -0.0895 -0.0360
 8694SOL    HW137718   3.261   0.405  10.734  2.5040  1.8488 -1.2291
 8694SOL    HW237719   3.211   0.458  10.605  0.6084 -0.0439 -0.1298
 8695SOL     OW37720   0.340   2.798  16.306  0.4254  0.0199 -0.0748
 8695SOL    HW137721   0.403   2.861  16.272  1.2263  0.0740  1.5256
 8695SOL    HW237722   0.281   2.787  16.230  0.4142  0.9494 -0.1956
 8696SOL     OW37723   4.610   3.763   7.272  0.1820  0.4713 -0.4366
 8696SOL    HW137724   4.651   3.838   7.228 -0.5079  0.7304 -0.6393
 8696SOL    HW237725   4.665   3.685   7.266 -1.6159 -0.7865 -0.4394
 8697SOL     OW37726   0.856   2.873   5.266 -0.6272 -0.1728 -0.1982
 8697SOL    HW137727   0.912   2.799   5.242 -2.3944 -0.9664 -1.8345
 8697SOL    HW237728   0.769   2.833   5.262 -0.7982  0.0379  1.5215
 8698SOL     OW37729   3.716   1.087   6.107  0.0752 -0.2433 -0.5812
 8698SOL    HW137730   3.699   1.003   6.149  2.9788 -0.7389 -0.4030
 8698SOL    HW237731   3.719   1.158   6.171 -0.9918  1.8568 -2.8687
 8699SOL     OW37732   2.100   3.252   5.236 -0.5464  0.4321  0.0066
 8699SOL    HW137733   2.087   3.174   5.182  0.7806 -0.2790  0.7333
 8699SOL    HW237734   2.132   3.304   5.162  0.5511 -0.9317 -0.4798
 8700SOL     OW37735   1.428   1.216   7.138  0.2084  0.7084 -0.0558
 8700SOL    HW137736   1.469   1.149   7.193 -0.4751  0.1509 -0.2076
 8700SOL    HW237737   1.366   1.153   7.100  1.1520 -0.7061  0.7246
 8701SOL     OW37738   0.391   3.339   4.217  0.2829 -0.4999 -0.1655
 8701SOL    HW137739   0.432   3.371   4.297 -0.2676  0.5103 -0.2858
 8701SOL    HW237740   0.407   3.413   4.159 -1.5187  0.0021 -0.0243
 8702SOL     OW37741   3.356   1.741   1.540 -0.1381 -0.1407  0.6498
 8702SOL    HW137742   3.320   1.778   1.459  1.1057  1.3982  0.7997
 8702SOL    HW237743   3.287   1.753   1.605 -0.7116 -0.7220  0.1529
 8703SOL     OW37744   3.033   0.202   4.163 -0.4300 -0.4647  0.4070
 8703SOL    HW137745   3.048   0.288   4.124 -1.2582 -0.9031 -0.8605
 8703SOL    HW237746   2.998   0.222   4.250  3.5600  0.6260  1.7709
 8704SOL     OW37747   0.723   3.735   3.294 -0.0556  0.3726  0.0880
 8704SOL    HW137748   0.639   3.769   3.325 -0.3798 -2.2912  2.1669
 8704SOL    HW237749   0.692   3.683   3.219 -1.3763 -1.3012  1.7753
 8705SOL     OW37750   1.784   3.870   7.199  0.2445 -0.1075 -0.5090
 8705SOL    HW137751   1.838   3.799   7.165  1.2944 -0.2226  1.3351
 8705SOL    HW237752   1.754   3.911   7.118 -0.2006  1.4190  0.4282
 8706SOL     OW37753   2.249   0.806  16.861  0.3755 -0.3008  0.6131
 8706SOL    HW137754   2.315   0.868  16.830  0.7330 -0.9885  0.0255
 8706SOL    HW237755   2.255   0.734  16.799  1.2465  1.1788 -1.0295
 8707SOL     OW37756   1.344   3.732   5.652 -0.1474  0.4630  0.5047
 8707SOL    HW137757   1.424   3.695   5.616 -0.8541  1.1141 -1.7977
 8707SOL    HW237758   1.288   3.654   5.646  0.8750 -0.2387  0.1653
 8708SOL     OW37759   1.782   2.787   6.959 -0.0935  0.5661  0.1775
 8708SOL    HW137760   1.790   2.844   7.035  2.0770 -0.1960  0.5067
 8708SOL    HW237761   1.872   2.797   6.929  0.1408  2.7071  1.6506
 8709SOL     OW37762   0.688   3.902   5.853 -0.4394  0.2677 -0.0820
 8709SOL    HW137763   0.747   3.890   5.927  1.1608  2.3552 -1.0148
 8709SOL    HW237764   0.724   3.842   5.788  0.2078 -0.2417  0.7531
 8710SOL     OW37765   2.821   4.110   0.504  0.8647  0.4561 -0.5291
 8710SOL    HW137766   2.790   4.198   0.486  3.5850  0.9690 -2.7787
 8710SOL    HW237767   2.789   4.108   0.594  0.0846 -2.6167 -0.8499
 8711SOL     OW37768   3.916   1.320   3.326 -0.6042 -0.0224 -0.0882
 8711SOL    HW137769   3.935   1.247   3.384  0.2467 -0.5460 -1.0359
 8711SOL    HW237770   3.825   1.294   3.309 -0.6285  0.1191 -0.1773
 8712SOL     OW37771   2.172   1.461  12.056 -0.3645 -0.0871 -0.4495
 8712SOL    HW137772   2.100   1.523  12.042 -0.8165 -0.1113  1.7125
 8712SOL    HW237773   2.122   1.382  12.034 -2.1052  0.5359  1.2265
 8713SOL     OW37774   1.962   0.857   4.593 -0.1041  0.3932  0.5613
 8713SOL    HW137775   1.899   0.920   4.560  0.3085  0.4219 -0.1715
 8713SOL    HW237776   2.003   0.826   4.512 -0.9981 -0.0565  0.2855
 8714SOL     OW37777   3.726   1.383  13.553 -0.1543 -0.0376  0.0399
 8714SOL    HW137778   3.813   1.357  13.581  0.5831  2.4020  0.0314
 8714SOL    HW237779   3.738   1.470  13.515 -2.5493 -0.2652 -1.2196
 8715SOL     OW37780   0.221   3.419  14.421  0.1704 -0.1669  0.3357
 8715SOL    HW137781   0.253   3.373  14.343 -1.6999  0.9240 -1.0700
 8715SOL    HW237782   0.194   3.501  14.380 -1.7930 -1.3598 -0.7868
 8716SOL     OW37783   1.170   1.865  13.141  0.2201  0.2941  0.0235
 8716SOL    HW137784   1.171   1.956  13.169 -0.7063 -0.2720  1.8664
 8716SOL    HW237785   1.228   1.882  13.067 -0.6153  1.6501 -0.3263
 8717SOL     OW37786   3.064   4.323   6.998  0.6163 -0.1195  0.7172
 8717SOL    HW137787   3.009   4.248   6.977 -0.1013  0.8120 -0.7677
 8717SOL    HW237788   3.134   4.306   6.935 -0.4712  0.6499 -0.7049
 8718SOL     OW37789   0.255   1.366   2.992  0.2680 -0.3374  0.0618
 8718SOL    HW137790   0.270   1.456   3.019 -3.5992 -0.0466  1.2893
 8718SOL    HW237791   0.294   1.323   3.067 -0.9011  0.8666  1.3525
 8719SOL     OW37792   4.400   3.125  12.538 -0.3621  0.0517  0.2835
 8719SOL    HW137793   4.330   3.064  12.561  0.4451 -0.2536  1.9086
 8719SOL    HW237794   4.371   3.186  12.469  2.7669 -0.5363 -1.6063
 8720SOL     OW37795   3.929   2.691  12.617  0.0808  0.0424  0.2042
 8720SOL    HW137796   3.905   2.664  12.528 -0.8668  0.7558  0.2430
 8720SOL    HW237797   3.989   2.619  12.636  0.8227  0.5487 -0.2054
 8721SOL     OW37798   2.557   4.209  14.488 -0.1720  0.8849  0.1845
 8721SOL    HW137799   2.464   4.196  14.506 -0.0616  1.5024  1.1493
 8721SOL    HW237800   2.586   4.122  14.461  0.8488  0.8850  1.2932
 8722SOL     OW37801   1.975   1.414   8.545 -0.3277  0.1795  0.0077
 8722SOL    HW137802   2.053   1.368   8.513 -1.1534 -1.3848  0.2583
 8722SOL    HW237803   1.921   1.335   8.542  1.6926 -1.1354 -1.5708
 8723SOL     OW37804   2.459   3.952   1.439  0.7620 -0.4733  0.5385
 8723SOL    HW137805   2.512   4.025   1.471 -0.1192 -0.2029  1.3748
 8723SOL    HW237806   2.531   3.892   1.420 -0.4018 -1.4095 -0.9210
 8724SOL     OW37807   4.469   0.807   6.290  0.2076 -0.2090 -0.4901
 8724SOL    HW137808   4.405   0.877   6.301  0.2281 -0.0174 -1.5772
 8724SOL    HW237809   4.545   0.856   6.259  1.2611 -0.8559  1.0926
 8725SOL     OW37810   2.184   4.091  14.967  0.4320  0.0458 -0.8428
 8725SOL    HW137811   2.181   4.106  14.873 -1.6156 -0.3002 -0.8308
 8725SOL    HW237812   2.094   4.113  14.990  0.3320 -0.0809 -1.1174
 8726SOL     OW37813   0.525   3.649   2.049 -0.5887 -0.5405 -0.1958
 8726SOL    HW137814   0.576   3.708   1.993 -1.1787 -2.3438 -2.6686
 8726SOL    HW237815   0.590   3.605   2.103 -1.7816 -1.3313  0.6139
 8727SOL     OW37816   1.823   3.261  11.140 -0.1790  0.0548 -0.3965
 8727SOL    HW137817   1.764   3.279  11.066 -2.1283 -0.1480  1.1060
 8727SOL    HW237818   1.845   3.353  11.157 -3.3676  0.5712  0.9727
 8728SOL     OW37819   1.804   0.567  11.927  0.4873 -0.8302  0.5071
 8728SOL    HW137820   1.890   0.585  11.889 -0.5258  1.2845 -0.7833
 8728SOL    HW237821   1.822   0.484  11.971  3.0303  0.8236  2.5949
 8729SOL     OW37822   2.981   2.747  11.213  0.4897 -0.4790  0.2994
 8729SOL    HW137823   3.032   2.689  11.268 -0.9392 -2.2248 -0.2008
 8729SOL    HW237824   2.892   2.718  11.237 -0.0151 -0.2183 -1.2661
 8730SOL     OW37825   0.472   1.107  12.349 -0.1356 -0.2268 -0.3256
 8730SOL    HW137826   0.445   1.190  12.309 -3.0762 -0.0159  2.0647
 8730SOL    HW237827   0.514   1.136  12.430 -0.5727 -0.1858 -0.1143
 8731SOL     OW37828   2.984   2.153   4.560 -0.1618  0.6896  0.0264
 8731SOL    HW137829   2.996   2.173   4.653 -2.6903 -0.4631  0.6209
 8731SOL    HW237830   2.930   2.230   4.545  0.9988  1.6574  0.7686
 8732SOL     OW37831   3.040   3.562   8.726  0.2992 -0.0658 -0.0955
 8732SOL    HW137832   2.979   3.632   8.750 -1.8618 -2.4352  1.3134
 8732SOL    HW237833   3.094   3.555   8.805  1.8171  1.2149 -1.0241
 8733SOL     OW37834   4.117   2.856   1.171 -0.1494  0.9672  0.6819
 8733SOL    HW137835   4.153   2.933   1.216  2.1066  0.0091  0.5031
 8733SOL    HW237836   4.197   2.837   1.121 -1.0771 -0.7452 -0.1381
 8734SOL     OW37837   2.664   0.644  11.354 -0.1680  0.0600 -0.1630
 8734SOL    HW137838   2.574   0.618  11.376 -0.1252 -1.5560 -1.8575
 8734SOL    HW237839   2.649   0.739  11.357  2.3264  0.4583 -0.8710
 8735SOL     OW37840   0.561   4.094   4.687 -0.0706  0.1148  0.1215
 8735SOL    HW137841   0.502   4.034   4.734  2.4918 -1.9071  0.7373
 8735SOL    HW237842   0.499   4.126   4.621  1.0041  1.7696 -0.0746
 8736SOL     OW37843   2.738   1.266   7.483  0.2311  0.0980  0.1750
 8736SOL    HW137844   2.664   1.280   7.542  0.1652  0.9357 -0.1093
 8736SOL    HW237845   2.693   1.232   7.405  1.8451 -0.5022 -0.4857
 8737SOL     OW37846   3.776   1.240   1.364  0.0732 -0.6647  0.3688
 8737SOL    HW137847   3.790   1.324   1.321  0.2735 -1.5901 -1.4050
 8737SOL    HW237848   3.863   1.198   1.365 -0.4000 -1.6174  1.4976
 8738SOL     OW37849   4.016   1.137  14.454  0.6476  0.0038  0.7433
 8738SOL    HW137850   4.098   1.142  14.405  0.1570  0.7508  0.0015
 8738SOL    HW237851   3.956   1.189  14.400  0.1025  0.3247  1.6568
 8739SOL     OW37852   3.924   3.683   4.153 -0.4966  0.2046  0.0205
 8739SOL    HW137853   3.982   3.608   4.146  0.4960  1.0444 -0.6335
 8739SOL    HW237854   3.860   3.651   4.089 -1.6945 -0.2009  1.4085
 8740SOL     OW37855   1.245   2.210   3.858  0.2829 -0.9878  0.4283
 8740SOL    HW137856   1.279   2.261   3.932  0.5016  0.4345 -0.6577
 8740SOL    HW237857   1.320   2.189   3.803  0.1641 -0.9649  0.2599
 8741SOL     OW37858   2.724   3.093   8.847 -0.0567  0.1955 -0.6576
 8741SOL    HW137859   2.748   3.182   8.876 -1.8012 -0.0222  1.4364
 8741SOL    HW237860   2.656   3.111   8.782 -0.9170 -0.2149  0.1394
 8742SOL     OW37861   3.588   2.512   0.437  0.2339 -0.4637  0.3986
 8742SOL    HW137862   3.571   2.455   0.511 -0.8282 -1.4755 -0.6327
 8742SOL    HW237863   3.571   2.452   0.364  1.2123 -2.1825  1.5889
 8743SOL     OW37864   3.686   1.196   9.437 -0.0126  0.2918  0.5797
 8743SOL    HW137865   3.751   1.203   9.366 -1.2298  2.4260 -0.3514
 8743SOL    HW237866   3.654   1.108   9.418 -0.4382  0.7173 -0.6629
 8744SOL     OW37867   0.571   3.309  12.382 -0.6056  0.1273 -0.1305
 8744SOL    HW137868   0.591   3.399  12.408 -2.4278  0.5316 -0.0896
 8744SOL    HW237869   0.479   3.296  12.406 -0.5020 -0.6104 -0.1432
 8745SOL     OW37870   3.875   2.671   3.410  0.4956  0.6410  0.5222
 8745SOL    HW137871   3.918   2.747   3.370  0.5907  0.5023  0.3606
 8745SOL    HW237872   3.837   2.706   3.491  1.2365 -2.2344  2.1019
 8746SOL     OW37873   3.809   1.200   7.666 -0.5040  0.1151 -0.5318
 8746SOL    HW137874   3.754   1.262   7.713  0.1661 -0.6449  1.2373
 8746SOL    HW237875   3.855   1.164   7.742  0.9555  0.1611 -1.3947
 8747SOL     OW37876   1.469   4.653  14.594 -0.1335  0.0014 -0.5469
 8747SOL    HW137877   1.488   4.661  14.501  2.6780 -2.0200 -0.1643
 8747SOL    HW237878   1.509   4.735  14.624 -0.1673  0.3969 -1.6079
 8748SOL     OW37879   2.151   0.745   2.340  0.1848 -0.2864  0.3742
 8748SOL    HW137880   2.138   0.837   2.317 -4.9206 -0.9527  0.5122
 8748SOL    HW237881   2.154   0.754   2.435 -1.4390 -2.5400  0.6515
 8749SOL     OW37882   3.713   4.479   2.716 -0.3176  0.1644 -0.3672
 8749SOL    HW137883   3.659   4.537   2.662 -0.9287  0.1101  0.1723
 8749SOL    HW237884   3.655   4.404   2.729  1.7766 -1.2279  0.9487
 8750SOL     OW37885   0.503   1.021   3.056  0.4199 -0.7194 -0.4858
 8750SOL    HW137886   0.585   1.053   3.095  0.0761 -1.2963  0.7051
 8750SOL    HW237887   0.442   1.064   3.115  2.9898  3.8216 -1.1445
 8751SOL     OW37888   2.040   1.156  17.684 -0.3329 -0.1513 -0.2711
 8751SOL    HW137889   1.945   1.141  17.688 -0.6041  1.0800 -1.9421
 8751SOL    HW237890   2.053   1.128   0.027  0.7794  1.4182  0.0654
 8752SOL     OW37891   2.078   4.118  12.065 -0.1576  0.2691 -0.4130
 8752SOL    HW137892   2.155   4.139  12.117  0.0108  1.1523 -1.0136
 8752SOL    HW237893   2.098   4.174  11.990  0.7397  0.0703 -0.3165
 8753SOL     OW37894   2.340   3.457   8.817 -0.2252 -0.1300  0.1701
 8753SOL    HW137895   2.323   3.551   8.815  0.0341 -0.0347  2.8699
 8753SOL    HW237896   2.402   3.456   8.744 -1.1363 -0.5016 -0.6078
 8754SOL     OW37897   3.711   2.715  10.917  0.2240  0.0634  0.3595
 8754SOL    HW137898   3.636   2.690  10.971 -0.4526 -1.2211 -1.1698
 8754SOL    HW237899   3.785   2.689  10.972  1.1243  1.8414 -0.0216
 8755SOL     OW37900   0.462   4.313   9.858  0.2937 -0.1581 -0.4351
 8755SOL    HW137901   0.553   4.340   9.852 -0.0983  1.3084  0.0715
 8755SOL    HW237902   0.431   4.382   9.798 -0.4513  1.0892  1.3997
 8756SOL     OW37903   2.009   4.137   8.217  0.4251 -0.1235  0.5092
 8756SOL    HW137904   2.066   4.060   8.216 -1.9239 -1.8514 -0.8617
 8756SOL    HW237905   2.025   4.166   8.127 -0.0561 -0.3249  0.3608
 8757SOL     OW37906   3.744   0.582   6.307  0.2676  0.4692  0.1177
 8757SOL    HW137907   3.678   0.518   6.281 -0.4202  1.6586 -1.0592
 8757SOL    HW237908   3.819   0.532   6.341  0.7330  0.1487 -1.3696
 8758SOL     OW37909   1.836   1.194   8.562  0.4109  0.1723  0.4590
 8758SOL    HW137910   1.785   1.166   8.639  2.8622 -0.3811  1.8977
 8758SOL    HW237911   1.787   1.147   8.495  1.8692  0.5732 -0.8987
 8759SOL     OW37912   4.278   4.038  16.157 -0.5710  0.4751 -0.2588
 8759SOL    HW137913   4.193   4.037  16.113 -0.4548  1.6833 -0.5131
 8759SOL    HW237914   4.318   4.117  16.121  3.1359  1.2093  5.4852
 8760SOL     OW37915   4.602   4.521   7.721 -0.3341  0.4399 -0.2839
 8760SOL    HW137916   4.543   4.549   7.791 -1.2052  1.6220 -1.4784
 8760SOL    HW237917   4.670   4.470   7.765 -1.0313  0.3903  0.7299
 8761SOL     OW37918   1.803   4.545  12.520 -0.3059 -0.3770 -0.0455
 8761SOL    HW137919   1.711   4.556  12.545 -0.1026 -0.2922  0.6579
 8761SOL    HW237920   1.784   4.545  12.426 -0.0826  1.9390 -0.0897
 8762SOL     OW37921   1.580   2.233   7.000  0.1925 -0.5249  0.0931
 8762SOL    HW137922   1.589   2.303   7.065  2.7710  0.5203 -1.4012
 8762SOL    HW237923   1.531   2.167   7.049 -0.4029 -0.2746 -0.1688
 8763SOL     OW37924   1.511   3.250   5.928 -0.4177  0.0822 -0.4721
 8763SOL    HW137925   1.420   3.223   5.916  0.7822 -3.6054 -1.0433
 8763SOL    HW237926   1.541   3.272   5.840 -0.4226  2.2774  0.0543
 8764SOL     OW37927   1.609   4.225  15.780  0.1190 -0.1715  0.5503
 8764SOL    HW137928   1.639   4.284  15.711  1.3582 -0.5491  0.7694
 8764SOL    HW237929   1.533   4.267  15.821  0.1876  0.6237 -0.1473
 8765SOL     OW37930   0.727   4.301  17.635 -0.0732 -0.0928  0.5483
 8765SOL    HW137931   0.737   4.369  17.569  0.7943  0.3424  1.1261
 8765SOL    HW237932   0.759   4.219  17.598 -1.8504 -0.2760 -0.5594
 8766SOL     OW37933   1.532   2.134   6.555  0.3966  0.4579 -0.0110
 8766SOL    HW137934   1.482   2.211   6.530 -1.4267 -0.9565 -0.7350
 8766SOL    HW237935   1.561   2.110   6.467  1.0133  1.7239 -0.1494
 8767SOL     OW37936   4.386   2.042  12.868  0.2879  0.1246  0.2103
 8767SOL    HW137937   4.394   2.120  12.813 -0.1352 -0.4661 -0.6978
 8767SOL    HW237938   4.304   2.064  12.913 -0.5079 -1.3037 -0.5357
 8768SOL     OW37939   1.981   1.767   8.351 -0.5139  0.2524 -0.7009
 8768SOL    HW137940   1.948   1.694   8.402 -2.1541  1.5217  0.0237
 8768SOL    HW237941   1.904   1.796   8.302 -0.7656 -1.8503 -1.5267
 8769SOL     OW37942   1.300   4.099   3.780 -0.3543  0.1546  0.6247
 8769SOL    HW137943   1.215   4.120   3.741  0.1951 -0.1830 -0.7604
 8769SOL    HW237944   1.358   4.150   3.723 -2.1198  1.0348 -0.3960
 8770SOL     OW37945   2.612   2.494   2.474  0.0914  0.3420  0.4162
 8770SOL    HW137946   2.701   2.486   2.439 -1.5377 -4.5289 -2.5841
 8770SOL    HW237947   2.592   2.403   2.497 -0.8738  0.9242  1.8711
 8771SOL     OW37948   0.441   0.700   6.673  0.3802 -0.1940 -0.9836
 8771SOL    HW137949   0.470   0.610   6.659  0.6955 -0.0503 -1.2793
 8771SOL    HW237950   0.350   0.690   6.646 -0.1981 -0.0023  0.9354
 8772SOL     OW37951   2.930   2.674   1.937 -0.0138 -0.3197  0.1230
 8772SOL    HW137952   2.987   2.737   1.982 -1.8435 -0.0315  2.0642
 8772SOL    HW237953   2.868   2.655   2.008 -0.2803 -0.8474 -0.2546
 8773SOL     OW37954   2.483   4.514   8.383  0.1108 -0.0194 -0.1213
 8773SOL    HW137955   2.435   4.492   8.303  0.2206 -0.8923  0.0566
 8773SOL    HW237956   2.566   4.550   8.351 -0.9463  0.4799 -2.3492
 8774SOL     OW37957   1.876   2.542   2.906  0.2095  0.0722 -0.2098
 8774SOL    HW137958   1.814   2.561   2.977 -0.2334  2.7368 -1.3134
 8774SOL    HW237959   1.810   2.494   2.856  0.3783  1.9611 -2.2327
 8775SOL     OW37960   0.300   1.722   2.183 -0.3869 -0.0366 -0.3382
 8775SOL    HW137961   0.355   1.691   2.111  0.2672  0.8095 -0.2064
 8775SOL    HW237962   0.279   1.813   2.163 -0.7382  0.0481  0.4019
 8776SOL     OW37963   1.069   3.060   3.742  0.2125 -1.0289 -0.1590
 8776SOL    HW137964   1.087   3.097   3.655  0.3160 -1.2790 -0.2437
 8776SOL    HW237965   1.048   3.142   3.787  1.7921 -0.3265 -0.7008
 8777SOL     OW37966   1.015   3.845   9.104  0.1843 -0.0005  0.3922
 8777SOL    HW137967   0.982   3.790   9.033 -0.4148 -1.3146  1.6931
 8777SOL    HW237968   1.104   3.870   9.077  0.0923 -0.7085 -0.5670
 8778SOL     OW37969   2.729   1.515   9.161  0.6780  0.1336  0.1869
 8778SOL    HW137970   2.735   1.596   9.112  2.1360  0.6254  1.1534
 8778SOL    HW237971   2.645   1.475   9.136  0.3893 -0.6355  2.3267
 8779SOL     OW37972   1.674   0.278   4.232 -0.2728  0.4402 -0.4718
 8779SOL    HW137973   1.595   0.286   4.179  0.8765  0.2526 -2.2100
 8779SOL    HW237974   1.663   0.186   4.255  1.3147  0.4795  0.4682
 8780SOL     OW37975   2.593   4.633   6.778  0.2539  0.5377 -0.8030
 8780SOL    HW137976   2.510   4.587   6.789  0.9808 -0.9129 -1.3107
 8780SOL    HW237977   2.615   4.677   6.861  0.4197 -0.0855 -0.5131
 8781SOL     OW37978   3.096   0.689   7.645 -0.2797 -0.2245  0.2919
 8781SOL    HW137979   3.143   0.772   7.647  0.3715 -0.5333 -1.8676
 8781SOL    HW237980   3.143   0.653   7.570  1.5418  2.0263  0.3509
 8782SOL     OW37981   2.795   0.722   7.062 -0.2166  0.3135 -0.2725
 8782SOL    HW137982   2.784   0.721   6.967 -0.8709  0.1169 -0.1896
 8782SOL    HW237983   2.877   0.769   7.079 -1.1344  1.9716 -0.3607
 8783SOL     OW37984   0.559   0.398   8.005  0.0418 -0.0223  0.3639
 8783SOL    HW137985   0.534   0.478   8.050  3.1288  0.0628  1.9593
 8783SOL    HW237986   0.591   0.444   7.927 -0.4732 -0.3583 -0.0486
 8784SOL     OW37987   0.363   2.819  10.323 -0.1770 -0.5656 -0.0954
 8784SOL    HW137988   0.345   2.801  10.230 -0.7714  0.6620 -0.2197
 8784SOL    HW237989   0.391   2.733  10.355  1.0351 -0.8219 -1.8182
 8785SOL     OW37990   2.242   0.608  17.577  0.6745  0.2907 -0.0559
 8785SOL    HW137991   2.292   0.688  17.592  2.3231 -0.5348 -1.0740
 8785SOL    HW237992   2.155   0.645  17.563  0.8272  0.3295 -0.8704
 8786SOL     OW37993   4.673   3.471   3.614 -0.2719  0.3570 -0.1506
 8786SOL    HW137994   4.731   3.425   3.674 -2.5666 -2.1719  0.1436
 8786SOL    HW237995   4.720   3.552   3.595  2.4615 -1.1544  0.0739
 8787SOL     OW37996   0.444   2.073   7.563 -0.1830  0.4431 -0.4461
 8787SOL    HW137997   0.375   2.069   7.497 -1.7465  1.4399  1.1545
 8787SOL    HW237998   0.517   2.106   7.511  0.7512 -0.7036  0.1246
 8788SOL     OW37999   1.080   2.746   6.127  0.6597  0.7816  0.1760
 8788SOL    HW138000   1.064   2.832   6.087 -1.9530 -0.3815 -1.2401
 8788SOL    HW238001   1.099   2.779   6.215 -1.7093 -0.0659  1.0070
 8789SOL     OW38002   0.219   1.901   5.504  0.3895  0.0987  0.5046
 8789SOL    HW138003   0.246   1.981   5.459 -0.1448  1.5435  2.7505
 8789SOL    HW238004   0.280   1.894   5.578  0.6129  0.3617  0.3454
 8790SOL     OW38005   1.227   4.349   3.391 -0.1677  0.8135 -0.3306
 8790SOL    HW138006   1.199   4.440   3.403  0.1750  0.9879 -0.8510
 8790SOL    HW238007   1.214   4.339   3.297  2.6618  0.6740 -0.7139
 8791SOL     OW38008   0.038   2.268   4.851  0.8010  0.1607 -0.2251
 8791SOL    HW138009   0.069   2.275   4.760 -2.3998  2.0260 -1.1890
 8791SOL    HW238010   4.693   2.315   4.836 -0.3667 -1.6946  0.4335
 8792SOL     OW38011   0.287   4.644   2.341  0.2216 -0.3964 -0.1422
 8792SOL    HW138012   0.244   4.703   2.403  0.6769 -0.6848  0.4492
 8792SOL    HW238013   0.341   4.697   2.282  0.9754 -0.1064  0.8074
 8793SOL     OW38014   2.788   2.458  10.089 -0.1934 -0.2542 -0.3434
 8793SOL    HW138015   2.744   2.536  10.055 -1.9763 -0.5709  1.2530
 8793SOL    HW238016   2.799   2.470  10.183  2.3602  0.1124 -0.6906
 8794SOL     OW38017   2.236   4.028   6.424 -0.3972  0.0269  0.4349
 8794SOL    HW138018   2.242   3.934   6.442 -1.4219 -0.6592 -2.8273
 8794SOL    HW238019   2.284   4.023   6.342  0.8837  2.2317  1.0416
 8795SOL     OW38020   3.224   0.645   4.618  0.1461 -0.6515  0.3476
 8795SOL    HW138021   3.317   0.666   4.622 -0.2851  1.2365  0.2186
 8795SOL    HW238022   3.195   0.716   4.675 -2.5669 -1.6808  0.2730
 8796SOL     OW38023   0.383   0.568   4.731  0.0066  0.7430 -0.3007
 8796SOL    HW138024   0.385   0.479   4.767 -2.2162  0.6147 -0.4730
 8796SOL    HW238025   0.290   0.587   4.746  0.0396  1.2794 -0.7527
 8797SOL     OW38026   1.546   4.093   1.499 -0.9213 -0.1726 -0.4400
 8797SOL    HW138027   1.525   4.150   1.573 -1.7166  0.6710 -1.3101
 8797SOL    HW238028   1.508   4.153   1.435 -2.2230 -0.7494 -0.2023
 8798SOL     OW38029   2.846   1.504   7.548  0.0940 -0.5127 -0.5705
 8798SOL    HW138030   2.805   1.421   7.524  1.0020 -1.0404 -0.2794
 8798SOL    HW238031   2.878   1.478   7.634 -0.9751  1.6522  0.4838
 8799SOL     OW38032   2.551   3.330  17.035 -0.2374 -0.0417  0.4290
 8799SOL    HW138033   2.591   3.366  17.114  1.7378  1.0538 -1.0608
 8799SOL    HW238034   2.529   3.405  16.980  1.0581 -0.1522 -0.2321
 8800SOL     OW38035   1.905   2.984   8.721  0.3375 -0.4202 -0.0656
 8800SOL    HW138036   1.830   2.988   8.781  1.1145 -0.2613  0.8861
 8800SOL    HW238037   1.934   2.897   8.747 -2.4303 -1.2595  0.2853
 8801SOL     OW38038   2.972   3.244   2.816 -0.8438  0.0122 -0.9108
 8801SOL    HW138039   3.002   3.153   2.806 -1.2914 -0.1677 -0.5963
 8801SOL    HW238040   3.037   3.267   2.882 -0.5453 -1.4232 -0.6968
 8802SOL     OW38041   0.390   1.866  10.802  0.8700  0.1761  0.0603
 8802SOL    HW138042   0.375   1.956  10.773  3.6688  0.6061 -0.0922
 8802SOL    HW238043   0.346   1.817  10.733  2.0463 -0.2351 -0.4117
 8803SOL     OW38044   1.559   0.664   5.312  0.0324 -0.3071  0.0625
 8803SOL    HW138045   1.632   0.702   5.261 -0.6969  0.8896 -0.0927
 8803SOL    HW238046   1.507   0.613   5.249  1.6075 -2.1008  0.2059
 8804SOL     OW38047   2.054   2.742   8.869 -0.1232 -0.3674  0.2095
 8804SOL    HW138048   2.100   2.766   8.949 -1.4214 -0.9293  1.1154
 8804SOL    HW238049   2.107   2.670   8.834 -2.0205 -1.3039 -0.7691
 8805SOL     OW38050   3.686   3.118  11.129  0.3487 -0.1633  0.1627
 8805SOL    HW138051   3.695   3.135  11.223  2.0697 -1.7078  0.2824
 8805SOL    HW238052   3.774   3.103  11.096  1.0215 -1.3039  2.5165
 8806SOL     OW38053   0.596   0.187   1.962  0.1247 -0.2000  0.2636
 8806SOL    HW138054   0.664   0.252   1.977  1.1859 -1.5825  1.4751
 8806SOL    HW238055   0.551   0.231   1.890  1.4433 -0.3605 -0.6551
 8807SOL     OW38056   1.407   0.895   2.615  0.3432  0.2402  0.1571
 8807SOL    HW138057   1.431   0.981   2.581 -0.1723  0.8040  1.2196
 8807SOL    HW238058   1.488   0.866   2.657  0.7787  0.9138 -0.2127
 8808SOL     OW38059   2.920   3.664   7.455 -0.2054  0.1802 -0.0312
 8808SOL    HW138060   3.009   3.630   7.444 -0.2661  0.4678 -1.5316
 8808SOL    HW238061   2.887   3.600   7.518  1.4031  0.5847  1.2385
 8809SOL     OW38062   2.954   3.926   7.514 -0.8423  0.3030  0.6457
 8809SOL    HW138063   2.951   3.832   7.499 -0.1280  0.0583  2.0060
 8809SOL    HW238064   2.866   3.947   7.484 -0.5094 -0.0923 -0.6027
 8810SOL     OW38065   0.150   0.112   5.551 -0.1699  0.0514  0.4337
 8810SOL    HW138066   0.128   0.127   5.459  2.5361  1.6794  0.0714
 8810SOL    HW238067   0.129   0.018   5.554  0.4614 -0.1436 -0.9328
 8811SOL     OW38068   4.068   1.806   7.554 -0.6736 -0.0086  0.5669
 8811SOL    HW138069   4.087   1.738   7.618  1.4590 -1.9218 -2.0793
 8811SOL    HW238070   4.126   1.879   7.578  0.5930 -1.2764  1.3027
 8812SOL     OW38071   2.423   3.314   8.454  0.2336  0.4560  0.3004
 8812SOL    HW138072   2.351   3.377   8.449 -0.8940 -0.8336  0.3880
 8812SOL    HW238073   2.402   3.263   8.376  0.8128  2.4966 -1.2007
 8813SOL     OW38074   0.342   0.374   9.876 -0.5154 -0.4304 -0.1093
 8813SOL    HW138075   0.319   0.441   9.811  0.1790 -0.1397 -0.0600
 8813SOL    HW238076   0.297   0.297   9.842  1.4499 -1.7617  0.3091
 8814SOL     OW38077   4.367   2.107   8.726  0.4085 -0.3055 -0.0023
 8814SOL    HW138078   4.387   2.184   8.672  1.5421  0.0157  0.8841
 8814SOL    HW238079   4.359   2.150   8.811  1.9266 -0.7389  0.3556
 8815SOL     OW38080   1.142   1.332   4.803 -1.0038  0.4731 -0.0910
 8815SOL    HW138081   1.215   1.276   4.828 -1.7114 -0.7785 -0.8303
 8815SOL    HW238082   1.077   1.265   4.827  0.5571 -1.9791 -2.7499
 8816SOL     OW38083   3.723   3.178  16.035 -0.3441 -0.2717 -0.2634
 8816SOL    HW138084   3.759   3.196  15.948 -0.8647 -1.8149 -0.7984
 8816SOL    HW238085   3.795   3.211  16.089  0.9300 -1.5605 -1.1621
 8817SOL     OW38086   2.905   0.833   1.855 -0.2914  0.2057 -0.0430
 8817SOL    HW138087   2.930   0.926   1.860 -0.4194  0.2765 -0.7906
 8817SOL    HW238088   2.816   0.842   1.823 -1.0274  0.8763  2.1541
 8818SOL     OW38089   2.158   1.948   2.160 -0.5565 -0.2225  0.1042
 8818SOL    HW138090   2.220   1.950   2.233  0.2746  0.5839 -0.6253
 8818SOL    HW238091   2.084   1.903   2.201 -0.7313 -0.3082 -0.3043
 8819SOL     OW38092   2.212   1.350  12.828 -0.2711 -0.2051 -0.4060
 8819SOL    HW138093   2.254   1.430  12.798  2.5185 -1.8220 -0.7525
 8819SOL    HW238094   2.288   1.296  12.849  1.1118  1.5468 -0.9354
 8820SOL     OW38095   4.721   0.513  10.941  0.4148  0.5315 -0.0251
 8820SOL    HW138096   4.644   0.517  10.884  1.2089 -0.8025 -1.1746
 8820SOL    HW238097   0.031   0.436  10.909  0.4651  0.4915  0.1435
 8821SOL     OW38098   3.318   4.096   6.930 -0.3115  0.8529  0.5954
 8821SOL    HW138099   3.296   4.170   6.873 -4.0402  0.0680  1.0043
 8821SOL    HW238100   3.237   4.076   6.977 -1.3996  0.8682 -1.2592
 8822SOL     OW38101   1.366   4.038   1.779  0.0876 -0.2827 -0.2982
 8822SOL    HW138102   1.315   4.000   1.850 -0.8745 -1.2862 -1.5211
 8822SOL    HW238103   1.354   3.967   1.715  1.8884  0.1326 -1.0774
 8823SOL     OW38104   0.821   1.150   6.978  0.4595 -0.1852  0.2711
 8823SOL    HW138105   0.728   1.137   6.957  0.8215 -0.2414 -1.2936
 8823SOL    HW238106   0.836   1.078   7.039 -1.4793 -1.4159 -0.6996
 8824SOL     OW38107   4.297   1.645   6.561  0.1800 -0.0115  0.6617
 8824SOL    HW138108   4.356   1.612   6.493  2.1799  2.0404  1.3820
 8824SOL    HW238109   4.264   1.560   6.588 -1.5926  0.0364 -1.3578
 8825SOL     OW38110   2.234   1.610   2.872  0.2317  0.1441  0.5474
 8825SOL    HW138111   2.303   1.624   2.806 -1.4094 -1.6524 -1.5266
 8825SOL    HW238112   2.274   1.603   2.958  1.3419 -0.2764 -0.0051
 8826SOL     OW38113   4.101   1.964   9.219 -0.2680  0.0277 -0.4754
 8826SOL    HW138114   4.110   2.016   9.299  2.4740 -0.4084 -0.5126
 8826SOL    HW238115   4.161   2.002   9.155 -0.0043  0.4804  0.0456
 8827SOL     OW38116   2.590   2.894   4.272 -0.0440 -0.4430  0.9692
 8827SOL    HW138117   2.636   2.944   4.339 -0.6186  0.8269  0.4119
 8827SOL    HW238118   2.657   2.840   4.229  2.3557  1.5967  2.1141
 8828SOL     OW38119   2.626   3.891   3.553 -0.1109  0.1450  0.1793
 8828SOL    HW138120   2.665   3.845   3.478  1.3714 -1.0639  1.6955
 8828SOL    HW238121   2.623   3.979   3.516  1.1073 -0.1795 -0.7077
 8829SOL     OW38122   2.815   4.063   2.670  0.4201 -0.1763 -0.1053
 8829SOL    HW138123   2.872   4.130   2.632 -0.5380  0.5758 -0.2020
 8829SOL    HW238124   2.833   4.078   2.762  1.1786 -0.2717 -0.2333
 8830SOL     OW38125   0.369   4.187   2.685 -0.0715  0.6805  0.2546
 8830SOL    HW138126   0.350   4.181   2.592 -1.2621  1.3626  0.4514
 8830SOL    HW238127   0.290   4.145   2.720  0.4122 -0.4603 -0.0111
 8831SOL     OW38128   1.741   4.198   7.175  0.0250 -0.3430  0.2001
 8831SOL    HW138129   1.682   4.218   7.247 -1.2559  0.7495 -1.1431
 8831SOL    HW238130   1.690   4.156   7.106  0.1679  2.5345 -1.6651
 8832SOL     OW38131   3.840   3.827   0.332 -0.7824  0.0557  0.1418
 8832SOL    HW138132   3.830   3.896   0.398 -2.0107 -0.0109  0.0238
 8832SOL    HW238133   3.930   3.801   0.354 -0.7477  0.8109  0.8997
 8833SOL     OW38134   4.093   1.548   0.661  0.3188 -0.2030  0.3379
 8833SOL    HW138135   4.119   1.457   0.681  1.5388 -0.1193 -0.8155
 8833SOL    HW238136   4.053   1.535   0.575  1.1867  1.1568 -0.2650
 8834SOL     OW38137   1.040   2.168   6.916 -0.1866 -0.4732  0.1468
 8834SOL    HW138138   1.064   2.258   6.896  1.4120 -1.2276 -1.3240
 8834SOL    HW238139   0.980   2.149   6.844  0.1633 -0.4458 -0.1479
 8835SOL     OW38140   2.144   2.439   2.611 -0.1311  0.1491 -0.0931
 8835SOL    HW138141   2.184   2.384   2.544 -2.3282 -0.1502 -1.1579
 8835SOL    HW238142   2.211   2.440   2.679  0.5704  2.6659 -0.8100
 8836SOL     OW38143   4.400   1.620   2.574 -0.3676 -0.5988 -0.0082
 8836SOL    HW138144   4.467   1.604   2.507 -0.0607  0.2417  0.0994
 8836SOL    HW238145   4.431   1.561   2.643 -3.0895  0.4017  2.0372
 8837SOL     OW38146   1.471   2.527  16.818 -0.5320  0.1729  0.1065
 8837SOL    HW138147   1.536   2.461  16.839 -0.8522  0.7343  2.7613
 8837SOL    HW238148   1.448   2.556  16.906  1.1317 -0.3810  0.7209
 8838SOL     OW38149   0.012   1.433   8.397 -0.5179 -0.3242 -0.0111
 8838SOL    HW138150   0.040   1.508   8.344  0.6033 -0.9040 -0.2463
 8838SOL    HW238151   0.046   1.359   8.347  1.1258  0.4375 -0.0245
 8839SOL     OW38152   2.809   4.624   3.536  0.0768  0.2522 -0.1023
 8839SOL    HW138153   2.860   4.671   3.469  0.5552  2.8314  2.0718
 8839SOL    HW238154   2.836   4.535   3.512  1.8915  0.5981  0.6310
 8840SOL     OW38155   0.788   2.828   6.495 -0.0182 -0.1704  0.2388
 8840SOL    HW138156   0.706   2.876   6.491  1.5970  2.6159  0.5515
 8840SOL    HW238157   0.781   2.812   6.590  2.8197  0.0098  0.4935
 8841SOL     OW38158   1.849   1.467   6.672  0.6009  0.3448 -0.3975
 8841SOL    HW138159   1.860   1.373   6.654 -2.1981 -0.4555  1.9168
 8841SOL    HW238160   1.777   1.503   6.619 -0.1342 -1.4108 -0.5929
 8842SOL     OW38161   0.671   2.492   1.014 -0.1799 -0.7448 -0.0278
 8842SOL    HW138162   0.665   2.488   1.109  0.6559  0.4549  0.0823
 8842SOL    HW238163   0.729   2.417   0.999 -0.9015 -1.5699  1.3606
 8843SOL     OW38164   4.715   3.843   5.197 -0.1446 -0.1471 -0.3053
 8843SOL    HW138165   4.719   3.939   5.194  0.2824 -0.1168  1.3661
 8843SOL    HW238166   4.634   3.827   5.245  0.6192 -1.1242  0.6436
 8844SOL     OW38167   1.592   1.283  13.607 -0.0296  0.4653  0.2899
 8844SOL    HW138168   1.501   1.299  13.585  0.6141  2.2093 -1.1350
 8844SOL    HW238169   1.624   1.240  13.527  0.8102  0.0006  0.8787
 8845SOL     OW38170   2.054   0.873  16.620 -0.4318  0.4545 -0.2211
 8845SOL    HW138171   2.068   0.787  16.582  1.7589  1.0707 -0.7690
 8845SOL    HW238172   2.136   0.889  16.667 -0.1000  2.6381 -1.5218
 8846SOL     OW38173   1.126   3.652   5.478 -0.8981 -0.2716 -0.4580
 8846SOL    HW138174   1.052   3.591   5.489 -1.0307 -0.2708 -1.3183
 8846SOL    HW238175   1.199   3.597   5.450 -0.3168  0.2328  0.0783
 8847SOL     OW38176   4.588   2.275  14.803 -0.2059 -0.3402 -0.0031
 8847SOL    HW138177   4.518   2.240  14.859 -0.2051  0.0557  0.2401
 8847SOL    HW238178   4.666   2.234  14.839 -1.2132 -2.4975 -0.2567
 8848SOL     OW38179   1.738   1.235  11.724 -0.0295  0.0672  0.1378
 8848SOL    HW138180   1.719   1.324  11.755  0.9231  0.1418  0.5029
 8848SOL    HW238181   1.774   1.264  11.640  2.0764 -0.7018  0.7845
 8849SOL     OW38182   0.938   0.613   3.405  0.5376 -0.2806  0.1298
 8849SOL    HW138183   0.969   0.527   3.433 -0.6612  0.1076  2.6092
 8849SOL    HW238184   1.028   0.643   3.386  0.0313  1.5809  0.6695
 8850SOL     OW38185   2.110   3.666  14.204 -0.9203 -0.1245 -0.0328
 8850SOL    HW138186   2.184   3.636  14.256 -0.3475  0.1342 -0.6934
 8850SOL    HW238187   2.096   3.604  14.133  2.3396  0.9671 -1.6115
 8851SOL     OW38188   2.355   4.549   1.556 -0.1757  0.3840 -0.4923
 8851SOL    HW138189   2.282   4.566   1.615  1.2342  1.0677  1.0505
 8851SOL    HW238190   2.406   4.627   1.581 -4.8664  3.5815 -0.8354
 8852SOL     OW38191   2.653   2.720   1.661  0.1052  0.0811 -0.2843
 8852SOL    HW138192   2.748   2.713   1.672  0.4999  1.4983 -2.7521
 8852SOL    HW238193   2.626   2.642   1.711 -1.1586 -0.0924 -1.2179
 8853SOL     OW38194   0.108   2.196  14.139 -0.3614  0.1964 -0.0075
 8853SOL    HW138195   0.023   2.209  14.181  0.1739 -0.8079  1.3878
 8853SOL    HW238196   0.164   2.243  14.201  0.3479  1.0622 -1.3020
 8854SOL     OW38197   4.328   3.395  12.004  0.4775 -0.2344 -0.1155
 8854SOL    HW138198   4.311   3.401  11.910  2.4664 -2.4552 -0.5925
 8854SOL    HW238199   4.375   3.312  12.012  0.7703 -0.3435 -2.9677
 8855SOL     OW38200   3.609   1.958   1.430  0.3343  0.1530 -0.1734
 8855SOL    HW138201   3.633   1.904   1.505  1.1226  1.6371  0.6423
 8855SOL    HW238202   3.695   1.966   1.389  1.1153  0.8413  1.6061
 8856SOL     OW38203   3.288   3.451   5.719 -0.0126 -0.0401  0.0943
 8856SOL    HW138204   3.327   3.406   5.794  0.4913 -0.0924 -0.2030
 8856SOL    HW238205   3.325   3.410   5.641 -0.5341 -0.5439  0.1143
 8857SOL     OW38206   0.644   3.129   9.640 -0.8284 -0.3893 -0.1786
 8857SOL    HW138207   0.692   3.086   9.710  0.9622  0.5556 -0.8345
 8857SOL    HW238208   0.713   3.180   9.598 -0.0377 -1.2767  0.0490
 8858SOL     OW38209   3.270   4.547   4.812 -0.2409  0.2450 -0.1737
 8858SOL    HW138210   3.242   4.515   4.727 -0.5686  0.2164 -0.0558
 8858SOL    HW238211   3.252   4.471   4.868 -0.7698  1.1575  0.9054
 8859SOL     OW38212   4.252   2.247   4.751  0.0831  0.4684  0.5975
 8859SOL    HW138213   4.266   2.188   4.826 -0.0787 -1.5419 -0.9582
 8859SOL    HW238214   4.197   2.186   4.702  0.7516 -0.3564  0.8586
 8860SOL     OW38215   1.136   2.646   2.727  0.1048 -0.0003  0.1520
 8860SOL    HW138216   1.117   2.668   2.818 -0.1825  0.1343  0.0614
 8860SOL    HW238217   1.113   2.553   2.723  0.9527 -0.2513  1.0401
 8861SOL     OW38218   4.180   4.733  16.107  0.3459 -0.5766  0.4047
 8861SOL    HW138219   4.263   0.032  16.077  1.7200 -2.5408  1.8543
 8861SOL    HW238220   4.136   4.722  16.023  1.1343 -3.7310  0.3849
 8862SOL     OW38221   3.279   2.840   4.658 -0.8794  0.5219  0.3999
 8862SOL    HW138222   3.210   2.847   4.591  0.4837 -0.9253 -1.1643
 8862SOL    HW238223   3.293   2.746   4.667 -0.9725  0.4117 -0.5744
 8863SOL     OW38224   2.298   3.393   6.718 -0.2934  0.2290  0.0446
 8863SOL    HW138225   2.392   3.378   6.726 -0.5272 -0.6394  0.9749
 8863SOL    HW238226   2.271   3.310   6.756  1.3250  1.3176  3.5925
 8864SOL     OW38227   0.663   1.677  10.378 -0.4009  0.1046  0.6319
 8864SOL    HW138228   0.725   1.606  10.358  0.3878  0.9161  0.2082
 8864SOL    HW238229   0.659   1.723  10.294 -0.0110 -1.7628 -0.4259
 8865SOL     OW38230   3.111   1.069  13.396  0.0248 -0.0987  0.0020
 8865SOL    HW138231   3.111   1.039  13.305  4.6859  0.2698 -0.1056
 8865SOL    HW238232   3.120   1.164  13.391  1.9542 -0.3087 -0.5941
 8866SOL     OW38233   3.064   3.141  13.613  0.1604 -0.3203 -0.2309
 8866SOL    HW138234   3.121   3.143  13.690  0.4483  0.6101 -0.4605
 8866SOL    HW238235   3.056   3.235  13.595 -2.8290 -0.1632  2.1326
 8867SOL     OW38236   2.566   1.340   0.068 -0.5930 -0.0529  0.0432
 8867SOL    HW138237   2.601   1.419   0.109  2.5061 -0.1470 -2.4787
 8867SOL    HW238238   2.477   1.369   0.047 -0.2059  1.8371  0.9619
 8868SOL     OW38239   3.676   2.025   1.910 -0.3325 -0.0996 -0.1905
 8868SOL    HW138240   3.651   1.950   1.963 -1.5007 -0.2082 -0.8965
 8868SOL    HW238241   3.608   2.035   1.843 -0.7196 -0.2344  0.1886
 8869SOL     OW38242   3.062   4.321   6.542 -0.0357 -0.0149 -0.4433
 8869SOL    HW138243   3.078   4.363   6.458 -0.7893  0.1114 -0.5192
 8869SOL    HW238244   2.989   4.265   6.514 -0.1865 -0.0077 -0.0589
 8870SOL     OW38245   1.319   1.011   7.709  0.2712 -0.2771 -0.1019
 8870SOL    HW138246   1.384   0.943   7.689  0.4474 -0.1515  0.0484
 8870SOL    HW238247   1.289   1.032   7.621  0.7364 -1.1676 -0.4767
 8871SOL     OW38248   2.297   1.472   5.513 -0.6530 -0.2303 -0.3949
 8871SOL    HW138249   2.215   1.508   5.480  0.4736  2.3257 -0.4736
 8871SOL    HW238250   2.279   1.477   5.606 -0.3774 -2.3679 -0.2462
 8872SOL     OW38251   3.755   3.678   8.632 -0.1860  0.6901  0.1608
 8872SOL    HW138252   3.713   3.761   8.613 -2.6654 -0.9176 -1.2848
 8872SOL    HW238253   3.847   3.687   8.604  0.2407  0.1883  1.3911
 8873SOL     OW38254   0.671   0.242  16.309  0.0130  0.0115  0.0510
 8873SOL    HW138255   0.755   0.272  16.342  0.5109 -1.1325 -0.2002
 8873SOL    HW238256   0.671   0.302  16.234  2.4654  0.4097  0.3869
 8874SOL     OW38257   0.166   0.394   5.560  0.8122 -0.6935 -0.2817
 8874SOL    HW138258   0.181   0.402   5.466  1.8901 -0.8187 -0.1206
 8874SOL    HW238259   0.164   0.300   5.575  0.5842 -0.4766  1.0712
 8875SOL     OW38260   0.483   0.115   5.993  0.2652 -0.0673  0.4979
 8875SOL    HW138261   0.404   0.142   5.946 -0.2716 -1.6914  0.4605
 8875SOL    HW238262   0.484   0.185   6.059  1.1507  0.9675 -0.6350
 8876SOL     OW38263   2.285   1.629  12.821 -0.5453  0.9259  0.4645
 8876SOL    HW138264   2.287   1.672  12.906  1.4524  0.4803  0.6414
 8876SOL    HW238265   2.342   1.679  12.762  0.2025 -0.5065 -0.0289
 8877SOL     OW38266   0.025   0.275   5.006  0.2574 -0.2996  0.8823
 8877SOL    HW138267   0.118   0.294   4.990  0.3464 -1.6253 -0.2383
 8877SOL    HW238268   0.039   0.202   5.067  0.7132 -0.5055  0.5365
 8878SOL     OW38269   3.204   1.129   4.052 -0.0907  0.2630 -0.0652
 8878SOL    HW138270   3.298   1.123   4.036 -0.4024 -3.0851 -0.6193
 8878SOL    HW238271   3.208   1.154   4.144 -0.8312 -0.0259  0.0482
 8879SOL     OW38272   3.277   0.783   5.926 -0.2284 -0.2570 -0.6164
 8879SOL    HW138273   3.257   0.812   6.015 -2.5010  1.3166 -1.6282
 8879SOL    HW238274   3.287   0.864   5.876  0.3753 -0.0196 -0.0906
 8880SOL     OW38275   3.484   2.943   7.266  0.3854 -0.2248 -0.3836
 8880SOL    HW138276   3.561   2.993   7.239  0.2684 -0.0545 -0.4046
 8880SOL    HW238277   3.447   2.954   7.179  0.1117 -0.1203 -0.2555
 8881SOL     OW38278   1.982   2.229  10.202 -0.2493  0.4784 -0.0746
 8881SOL    HW138279   2.071   2.211  10.169 -0.1949  2.8722 -1.2001
 8881SOL    HW238280   1.936   2.168  10.144 -1.0947 -0.0913  1.2033
 8882SOL     OW38281   1.660   0.822   2.732 -0.3979  0.0445  0.3558
 8882SOL    HW138282   1.730   0.823   2.667 -0.1544 -0.3358  0.6130
 8882SOL    HW238283   1.687   0.899   2.782 -3.0341 -0.0690  1.9639
 8883SOL     OW38284   0.135   2.465  16.677 -0.1396 -0.3583 -0.1349
 8883SOL    HW138285   0.062   2.502  16.727  2.7733  2.0314  2.2901
 8883SOL    HW238286   0.205   2.503  16.730 -0.1197  0.3654 -0.6790
 8884SOL     OW38287   0.275   4.264   6.715  0.7294  0.4051  0.3107
 8884SOL    HW138288   0.205   4.329   6.712  0.6815  0.4129  1.7337
 8884SOL    HW238289   0.355   4.316   6.706 -0.0195  1.4854 -0.0990
 8885SOL     OW38290   2.732   1.867   3.297 -0.2535  0.0012 -0.1029
 8885SOL    HW138291   2.652   1.815   3.303 -1.6637  1.9376 -2.0005
 8885SOL    HW238292   2.787   1.833   3.227 -2.1715  1.1675 -2.1623
 8886SOL     OW38293   1.577   1.421   5.638  1.0605 -0.5026 -0.5434
 8886SOL    HW138294   1.545   1.440   5.550 -0.3223 -1.8051 -0.3363
 8886SOL    HW238295   1.503   1.453   5.690 -0.8415 -2.3426 -2.1144
 8887SOL     OW38296   4.157   1.327   0.263  0.1608 -0.0038 -0.1400
 8887SOL    HW138297   4.210   1.253   0.295  0.2873 -0.8931 -2.4224
 8887SOL    HW238298   4.122   1.286   0.184 -0.9720 -0.8676  0.8243
 8888SOL     OW38299   4.005   2.706   5.633  0.1358 -0.1224  0.1083
 8888SOL    HW138300   4.062   2.662   5.696 -0.8841  0.1470  1.2106
 8888SOL    HW238301   3.940   2.639   5.608  0.3834  0.5033 -2.2605
 8889SOL     OW38302   0.797   3.544   7.758  0.2258 -0.0620  0.5158
 8889SOL    HW138303   0.836   3.553   7.671  1.6943 -2.0993  0.9593
 8889SOL    HW238304   0.716   3.499   7.734 -0.9411  3.5088 -2.1815
 8890SOL     OW38305   2.554   0.726   6.001 -0.1195  0.0450 -0.4008
 8890SOL    HW138306   2.562   0.686   6.088 -0.7319 -1.9196 -1.2506
 8890SOL    HW238307   2.466   0.764   6.005 -0.5417 -0.9188 -0.6620
 8891SOL     OW38308   3.046   1.565   4.887  0.6727 -0.1834  1.1316
 8891SOL    HW138309   3.029   1.479   4.925  2.1663  0.5784  3.4865
 8891SOL    HW238310   3.114   1.599   4.944 -0.6120 -1.0280  3.1769
 8892SOL     OW38311   1.206   1.832   4.257 -0.3528 -0.4769 -1.2718
 8892SOL    HW138312   1.199   1.847   4.163 -0.6432  1.9686 -0.8762
 8892SOL    HW238313   1.232   1.740   4.254  0.4389 -0.2689 -0.8216
 8893SOL     OW38314   1.327   0.127   8.202  0.2049 -0.1252  0.4896
 8893SOL    HW138315   1.341   0.130   8.296 -1.8077  0.0942  0.7901
 8893SOL    HW238316   1.416   0.117   8.169 -0.7919 -0.5677 -2.1079
 8894SOL     OW38317   3.918   1.369   6.948  0.2289 -0.6084 -0.3797
 8894SOL    HW138318   3.854   1.299   6.956 -0.6549  0.4591  1.8512
 8894SOL    HW238319   3.968   1.353   7.028 -0.3004  0.2371  0.1192
 8895SOL     OW38320   4.170   0.509   4.336 -0.0158  0.0293  0.8000
 8895SOL    HW138321   4.188   0.450   4.409 -2.5863 -0.9524  0.6234
 8895SOL    HW238322   4.140   0.438   4.280  1.2813  0.1472 -0.0411
 8896SOL     OW38323   4.552   0.555   4.625 -0.0573  0.2413  0.5001
 8896SOL    HW138324   4.458   0.573   4.630 -0.2463 -0.3418 -0.6461
 8896SOL    HW238325   4.592   0.640   4.643 -1.8288  0.9847  0.9326
 8897SOL     OW38326   4.688   2.293  15.431  0.7791 -0.9500  0.5967
 8897SOL    HW138327   0.020   2.282  15.497  1.9380 -0.4647 -0.5428
 8897SOL    HW238328   4.714   2.233  15.362  1.4027 -0.6423  0.5595
 8898SOL     OW38329   4.278   1.246  11.575  0.5236 -0.6189  0.2692
 8898SOL    HW138330   4.326   1.208  11.648 -1.4573 -1.0232  1.3670
 8898SOL    HW238331   4.305   1.185  11.507  1.7864 -0.3215  0.5025
 8899SOL     OW38332   2.592   1.954   6.088 -0.0030  0.2713  0.1378
 8899SOL    HW138333   2.509   1.989   6.054 -0.4743 -1.3825 -0.4290
 8899SOL    HW238334   2.610   1.897   6.013 -1.9366 -0.9632  0.6138
 8900SOL     OW38335   2.657   1.825   5.808  0.1826  0.1949  0.3276
 8900SOL    HW138336   2.628   1.780   5.887 -0.3879 -2.8888 -1.6188
 8900SOL    HW238337   2.702   1.759   5.755  2.1245  2.6538 -1.0880
 8901SOL     OW38338   4.394   1.453   9.027  0.0987 -0.3382  0.4180
 8901SOL    HW138339   4.388   1.416   8.939  0.0066 -2.5986  1.3558
 8901SOL    HW238340   4.302   1.477   9.041  0.2842  1.4237 -1.3886
 8902SOL     OW38341   2.140   4.116  12.550  0.3783  0.4214  0.0921
 8902SOL    HW138342   2.144   4.192  12.607 -1.0762 -1.1768  2.3076
 8902SOL    HW238343   2.108   4.162  12.472  1.6843  2.3214  0.6827
 8903SOL     OW38344   1.893   4.143   0.671  0.1769  0.2850  0.0630
 8903SOL    HW138345   1.982   4.118   0.645  0.5279  0.2344  1.3112
 8903SOL    HW238346   1.883   4.106   0.759 -0.5682 -0.4842 -0.3446
 8904SOL     OW38347   4.246   3.124   5.938 -0.8507 -0.1779 -0.2124
 8904SOL    HW138348   4.292   3.041   5.925  0.1881  0.6466 -1.7712
 8904SOL    HW238349   4.325   3.173   5.963 -2.3491  1.3796  1.4404
 8905SOL     OW38350   0.412   4.065   6.215 -0.3164 -0.2911  0.0656
 8905SOL    HW138351   0.501   4.044   6.185  0.0755  2.1334 -0.4590
 8905SOL    HW238352   0.388   4.121   6.141  0.3262 -0.2135 -0.0855
 8906SOL     OW38353   0.542   4.676   0.934 -0.2707 -0.3841  0.3002
 8906SOL    HW138354   0.621   4.624   0.920 -1.5144 -1.6663 -1.9084
 8906SOL    HW238355   0.533   4.722   0.851 -0.0356 -0.2103  0.3702
 8907SOL     OW38356   4.052   2.994   6.145  0.3945  0.2294 -0.3875
 8907SOL    HW138357   4.072   2.904   6.118 -1.1855  0.3674 -2.0513
 8907SOL    HW238358   4.106   3.040   6.081  1.0005 -0.0960 -0.1072
 8908SOL     OW38359   2.383   1.179  14.806  0.5234 -0.4941  0.1097
 8908SOL    HW138360   2.444   1.107  14.791  1.1480  0.0402  0.0713
 8908SOL    HW238361   2.354   1.193  14.715 -2.2561 -1.1856  0.9142
 8909SOL     OW38362   3.600   2.206  17.296  0.2329 -0.0748 -0.3109
 8909SOL    HW138363   3.544   2.271  17.338 -0.0787 -1.5974  1.6403
 8909SOL    HW238364   3.537   2.135  17.311  0.2677 -0.0866 -0.2214
 8910SOL     OW38365   4.113   1.618   7.759 -0.2679 -0.4288  0.2555
 8910SOL    HW138366   4.126   1.615   7.854  1.2877 -0.5533  0.0392
 8910SOL    HW238367   4.191   1.578   7.721 -1.8145 -3.8660  0.6816
 8911SOL     OW38368   0.380   4.398   2.884  0.3644 -0.3866  0.3591
 8911SOL    HW138369   0.346   4.355   2.806 -0.4071 -0.6124  0.8189
 8911SOL    HW238370   0.304   4.391   2.943 -2.0590  1.2729 -2.5772
 8912SOL     OW38371   1.478   4.599  14.305 -0.4541  1.0750 -0.3323
 8912SOL    HW138372   1.386   4.577  14.318 -0.9408  1.7343 -2.5940
 8912SOL    HW238373   1.498   4.537  14.236 -1.8477 -1.0355  1.1629
 8913SOL     OW38374   2.675   1.533   4.034 -0.2055 -0.1868 -0.4549
 8913SOL    HW138375   2.628   1.615   4.019 -0.6275 -0.5645 -1.2185
 8913SOL    HW238376   2.607   1.465   4.034  0.0867 -0.4915  1.3352
 8914SOL     OW38377   0.295   2.544   0.087  0.2129  0.6171  0.7999
 8914SOL    HW138378   0.250   2.496   0.018 -2.3577  1.9654  1.5229
 8914SOL    HW238379   0.343   2.612   0.040 -0.4284  0.3766 -0.2049
 8915SOL     OW38380   3.057   3.526  11.045 -0.6133 -0.4189 -0.2851
 8915SOL    HW138381   3.090   3.439  11.070  0.8775  0.0464 -0.6410
 8915SOL    HW238382   3.071   3.535  10.951  1.7918  1.6308  0.2859
 8916SOL     OW38383   4.662   1.589   6.157 -0.2262 -1.0355  0.0439
 8916SOL    HW138384   4.676   1.682   6.174 -0.3863 -1.6973  3.7378
 8916SOL    HW238385   0.010   1.549   6.174 -0.3977 -2.0149 -1.4072
 8917SOL     OW38386   0.206   3.390   5.666 -0.5074 -0.1729  0.2601
 8917SOL    HW138387   0.158   3.473   5.662  1.6217  1.0431 -0.0971
 8917SOL    HW238388   0.280   3.409   5.723  0.8240 -0.6415 -1.3166
 8918SOL     OW38389   1.436   3.180   4.113  0.0847  0.4974 -0.5244
 8918SOL    HW138390   1.423   3.100   4.061 -1.8746  1.1718 -1.0755
 8918SOL    HW238391   1.446   3.145   4.201  0.9938 -0.7333 -1.1124
 8919SOL     OW38392   2.306   0.842   4.147 -0.2154  0.0582  0.5220
 8919SOL    HW138393   2.258   0.923   4.162  0.5505  0.0989  2.6480
 8919SOL    HW238394   2.271   0.829   4.058  2.0603  4.3426 -1.0380
 8920SOL     OW38395   2.404   3.771   6.061  0.2891 -0.3738  0.4941
 8920SOL    HW138396   2.398   3.677   6.045 -1.3929  0.1029 -1.6423
 8920SOL    HW238397   2.361   3.801   5.981 -0.4055  1.8929  1.6969
 8921SOL     OW38398   2.195   0.870   3.873 -0.6669 -0.0766 -0.7626
 8921SOL    HW138399   2.162   0.915   3.795 -1.1424  0.1301 -0.4402
 8921SOL    HW238400   2.250   0.812   3.822  0.5516 -0.6345  1.2056
 8922SOL     OW38401   3.902   2.127  13.997 -0.4499 -0.0720  0.2517
 8922SOL    HW138402   3.816   2.164  13.981  0.7220  2.5693  0.0967
 8922SOL    HW238403   3.961   2.148  13.924 -1.6234 -0.1777 -0.7347
 8923SOL     OW38404   3.426   0.035   9.570 -0.5438  0.4625 -0.6202
 8923SOL    HW138405   3.466   0.117   9.600  1.2539 -0.4937 -0.3791
 8923SOL    HW238406   3.496   4.711   9.592 -0.8551  1.1864  2.4472
 8924SOL     OW38407   4.595   1.444   7.505 -0.0866  0.3068 -0.0233
 8924SOL    HW138408   4.557   1.443   7.418 -0.4046  0.8803  0.1067
 8924SOL    HW238409   4.518   1.456   7.560 -0.1513  1.4597 -0.3664
 8925SOL     OW38410   1.623   2.727   4.099 -0.3211  0.4965 -0.0859
 8925SOL    HW138411   1.622   2.757   4.190  0.0966  2.5837 -0.7899
 8925SOL    HW238412   1.531   2.705   4.087  0.8809 -5.2891  1.2693
 8926SOL     OW38413   3.317   4.222   3.392 -0.3359 -0.0729 -0.8757
 8926SOL    HW138414   3.264   4.244   3.315  0.6959  1.4519 -1.1583
 8926SOL    HW238415   3.279   4.275   3.463 -0.2224 -3.8034  1.9691
 8927SOL     OW38416   4.187   0.120   6.696  0.2464 -0.3413 -0.2234
 8927SOL    HW138417   4.128   0.165   6.758  0.4720  0.3544 -0.5190
 8927SOL    HW238418   4.176   0.031   6.730 -0.5855  0.0811  0.6102
 8928SOL     OW38419   2.593   0.480   9.779  0.1879  0.0768  0.7379
 8928SOL    HW138420   2.634   0.539   9.715 -1.3820  0.3705  0.0055
 8928SOL    HW238421   2.642   0.514   9.854  1.3505 -1.3025  0.6166
 8929SOL     OW38422   2.405   1.553  11.914 -0.6687 -0.1748 -0.4457
 8929SOL    HW138423   2.420   1.628  11.972 -0.0237  0.0169 -0.8572
 8929SOL    HW238424   2.325   1.518  11.953 -0.9794 -1.4788 -2.2633
 8930SOL     OW38425   1.814   0.602   3.167  0.2240 -0.8111 -0.0364
 8930SOL    HW138426   1.875   0.658   3.215 -0.4287 -0.0968 -0.0283
 8930SOL    HW238427   1.732   0.625   3.210  0.0914 -0.9909 -0.1937
 8931SOL     OW38428   0.242   1.157   3.897 -0.2334 -0.7660 -0.2887
 8931SOL    HW138429   0.317   1.196   3.942 -0.5319 -0.1297 -0.3550
 8931SOL    HW238430   0.273   1.136   3.809 -0.7991 -1.7136 -0.2681
 8932SOL     OW38431   4.703   2.844   2.086 -0.4928  0.3996 -0.3325
 8932SOL    HW138432   4.699   2.928   2.041  1.0669  0.5034 -0.2866
 8932SOL    HW238433   4.625   2.801   2.050 -1.7527  2.3819  0.0276
 8933SOL     OW38434   3.868   1.849   8.842  0.0039  0.4700  0.1702
 8933SOL    HW138435   3.913   1.918   8.892 -1.7645  1.2714  0.6435
 8933SOL    HW238436   3.793   1.825   8.896 -0.9750  0.8676 -1.0197
 8934SOL     OW38437   3.759   3.110   9.401 -0.7551 -0.1356 -0.0863
 8934SOL    HW138438   3.779   3.076   9.488  1.2299  0.5516 -0.2741
 8934SOL    HW238439   3.799   3.196   9.403 -2.1110  0.4698  0.6446
 8935SOL     OW38440   2.328   0.077   7.187 -0.2181 -0.2692 -0.2773
 8935SOL    HW138441   2.250   0.037   7.149  0.3370 -0.6884 -0.9995
 8935SOL    HW238442   2.393   0.008   7.173 -0.2377  0.0553 -2.0490
 8936SOL     OW38443   3.721   2.176   8.570  0.6716 -0.1250 -0.1146
 8936SOL    HW138444   3.701   2.130   8.652 -0.0350 -1.3828 -0.9941
 8936SOL    HW238445   3.631   2.188   8.539 -0.2120 -1.2168  1.9736
 8937SOL     OW38446   4.426   3.494   6.633  0.3336  0.3141 -0.1359
 8937SOL    HW138447   4.400   3.417   6.683 -2.0960  2.3443  1.6839
 8937SOL    HW238448   4.506   3.466   6.589  1.7750 -1.2474  3.4506
 8938SOL     OW38449   2.160   0.202   5.573 -0.3987 -0.6302  0.1038
 8938SOL    HW138450   2.093   0.270   5.570  1.7375  1.4349 -0.3583
 8938SOL    HW238451   2.130   0.154   5.651  0.3807 -0.2581  0.6382
 8939SOL     OW38452   1.104   4.595   1.172  0.1326  0.1948 -0.0067
 8939SOL    HW138453   1.181   4.538   1.179  0.9774  1.3508  0.1609
 8939SOL    HW238454   1.035   4.543   1.211 -0.2890  1.2174  0.6054
 8940SOL     OW38455   0.459   0.964   7.379  0.1407 -0.6083  0.1750
 8940SOL    HW138456   0.452   0.917   7.462  2.4124 -1.5364 -0.1547
 8940SOL    HW238457   0.550   0.994   7.387 -0.9510  2.5100  0.9494
 8941SOL     OW38458   3.534   2.142   5.122 -0.1215 -0.1943  0.1174
 8941SOL    HW138459   3.608   2.191   5.159  0.8736 -1.4690 -0.1453
 8941SOL    HW238460   3.505   2.212   5.065 -1.2531 -0.3046  0.5659
 8942SOL     OW38461   2.236   0.301  14.637  0.2860  0.3524 -0.1918
 8942SOL    HW138462   2.276   0.292  14.551  0.6126 -2.5360  0.2665
 8942SOL    HW238463   2.160   0.247  14.617 -0.1387  0.2112  1.8204
 8943SOL     OW38464   4.366   0.066   2.477  0.1654  0.3853 -0.3109
 8943SOL    HW138465   4.316   0.046   2.398 -1.1837  0.6182  0.4695
 8943SOL    HW238466   4.295   0.112   2.522 -1.0578 -0.9336 -0.8938
 8944SOL     OW38467   4.272   0.082   6.446 -0.1739 -0.0020  0.3059
 8944SOL    HW138468   4.247   0.100   6.537  1.0056  0.5890  0.5130
 8944SOL    HW238469   4.323   0.158   6.418 -1.8534  0.5719 -1.1889
 8945SOL     OW38470   4.718   0.355   7.068  0.0267 -0.2039  0.0991
 8945SOL    HW138471   0.011   0.337   6.979  0.2055  0.9811 -0.0805
 8945SOL    HW238472   4.629   0.386   7.049 -0.3679 -2.4298 -1.7376
 8946SOL     OW38473   4.657   0.940   6.154  0.3477  0.1422  0.1261
 8946SOL    HW138474   4.673   1.005   6.086 -1.5299 -1.9932 -2.3547
 8946SOL    HW238475   0.005   0.949   6.195 -0.3364  1.2556  1.3345
 8947SOL     OW38476   0.605   1.156  11.726  0.1109  0.1898  0.2113
 8947SOL    HW138477   0.658   1.189  11.654 -1.2397  2.8648  0.4241
 8947SOL    HW238478   0.628   1.204  11.806 -0.0337 -0.5250  0.6835
 8948SOL     OW38479   1.779   3.919  16.193 -0.0152 -0.6773  0.0982
 8948SOL    HW138480   1.802   3.953  16.279 -1.5625  1.4645 -0.3438
 8948SOL    HW238481   1.701   3.869  16.217  1.0953 -1.9884  1.0328
 8949SOL     OW38482   2.434   2.515   5.647  0.3901  0.0097 -0.1809
 8949SOL    HW138483   2.496   2.500   5.575  2.7623  0.1646  1.8339
 8949SOL    HW238484   2.355   2.477   5.608  1.0439  0.4330 -1.9438
 8950SOL     OW38485   2.072   1.506   7.180 -0.1009  0.1465  0.3801
 8950SOL    HW138486   2.047   1.595   7.158 -0.2103  0.2463  0.9052
 8950SOL    HW238487   2.048   1.456   7.102 -2.0556  2.6494 -0.6352
 8951SOL     OW38488   3.928   0.607  16.170  0.2486  0.2361  0.7294
 8951SOL    HW138489   3.969   0.689  16.142  1.3276 -0.1733  1.1063
 8951SOL    HW238490   3.834   0.625  16.168  0.0486 -0.9100 -0.5941
 8952SOL     OW38491   3.329   0.311  13.201 -0.4748 -0.1724  0.3282
 8952SOL    HW138492   3.241   0.326  13.235  0.4425  2.4066  1.5209
 8952SOL    HW238493   3.334   0.215  13.208  2.2948 -0.2288 -2.2383
 8953SOL     OW38494   3.040   1.227   1.603 -0.0407 -0.2380 -0.0887
 8953SOL    HW138495   3.102   1.300   1.604 -1.1332  0.6681  0.7861
 8953SOL    HW238496   2.973   1.271   1.550 -0.5466  1.6638  2.1617
 8954SOL     OW38497   3.145   4.454  17.242 -0.2534 -0.0455 -0.0680
 8954SOL    HW138498   3.231   4.447  17.282 -1.2983 -0.4672  2.1168
 8954SOL    HW238499   3.158   4.424  17.152  1.4344  0.6459 -0.0443
 8955SOL     OW38500   3.185   3.954  12.247  0.1073  0.4748  0.1672
 8955SOL    HW138501   3.136   3.905  12.313  0.3982 -0.4793 -0.3074
 8955SOL    HW238502   3.272   3.952  12.285  0.8262 -1.0291 -1.5458
 8956SOL     OW38503   1.915   3.464  13.665  0.4658 -0.6852  0.2432
 8956SOL    HW138504   1.855   3.514  13.720 -1.9317 -1.0183 -2.0631
 8956SOL    HW238505   1.924   3.392  13.728  1.7928 -1.4974 -0.8889
 8957SOL     OW38506   3.876   3.542   6.469 -1.1480 -0.0387 -0.2112
 8957SOL    HW138507   3.946   3.580   6.522 -1.7596 -1.3029  1.5134
 8957SOL    HW238508   3.818   3.617   6.461  0.0277  0.8463 -0.4624
 8958SOL     OW38509   1.217   0.098  13.940 -0.3722 -0.2134 -0.5710
 8958SOL    HW138510   1.238   0.012  13.975  0.6186 -0.0397 -0.7532
 8958SOL    HW238511   1.252   0.095  13.851 -1.2215  2.0957 -1.0023
 8959SOL     OW38512   3.158   3.492   8.987  0.0484 -0.6455  0.2142
 8959SOL    HW138513   3.246   3.503   8.951 -0.0911 -0.1292  0.0295
 8959SOL    HW238514   3.172   3.504   9.081  1.7973 -0.2321 -0.0902
 8960SOL     OW38515   1.401   3.521   2.003 -0.0461  0.4245 -0.2371
 8960SOL    HW138516   1.332   3.544   2.066  1.7761 -0.1212  1.9371
 8960SOL    HW238517   1.362   3.511   1.916  0.0058  2.2258 -0.4819
 8961SOL     OW38518   4.552   0.372   0.989 -0.0641 -0.3506 -0.0705
 8961SOL    HW138519   4.533   0.369   1.083  1.9319  0.6502  0.3645
 8961SOL    HW238520   4.562   0.466   0.974 -1.2938 -0.0981  0.7205
 8962SOL     OW38521   1.814   3.639  11.541 -0.1161  0.3545 -0.4240
 8962SOL    HW138522   1.744   3.589  11.499 -1.3960  2.5225 -0.8692
 8962SOL    HW238523   1.820   3.716  11.484  0.3257 -1.4156 -2.7558
 8963SOL     OW38524   0.660   1.518   4.871  0.0380 -0.4049 -0.0554
 8963SOL    HW138525   0.685   1.425   4.876  0.7128 -0.1185  1.9317
 8963SOL    HW238526   0.571   1.513   4.836  0.0905 -0.2601 -0.2137
 8964SOL     OW38527   0.892   4.427   2.835  0.1288 -0.4854 -0.6101
 8964SOL    HW138528   0.925   4.428   2.925  1.8880 -1.1360 -1.2383
 8964SOL    HW238529   0.875   4.521   2.829  2.2268 -0.0248  0.9519
 8965SOL     OW38530   2.470   2.493   8.206  0.3920  0.1717  0.4674
 8965SOL    HW138531   2.418   2.550   8.263 -3.0046  0.3623 -2.8259
 8965SOL    HW238532   2.432   2.504   8.119 -1.7235  0.3351  1.4019
 8966SOL     OW38533   2.582   1.593   6.561 -0.1553  0.5365  0.6631
 8966SOL    HW138534   2.562   1.648   6.485 -0.4091  1.1107  1.1451
 8966SOL    HW238535   2.643   1.660   6.591  1.4831 -0.6123 -0.1110
 8967SOL     OW38536   1.558   0.927   7.148 -0.0933 -0.1233  0.5035
 8967SOL    HW138537   1.521   0.870   7.080 -1.6925 -2.2663  3.1395
 8967SOL    HW238538   1.650   0.925   7.122  0.1252  0.0880  1.2617
 8968SOL     OW38539   0.634   4.702   3.157 -0.4656 -0.1228 -0.0066
 8968SOL    HW138540   0.685   0.041   3.128  0.2438  0.8936  3.8827
 8968SOL    HW238541   0.693   4.663   3.222 -2.3362  0.4969  2.0485
 8969SOL     OW38542   4.604   0.292   4.710  0.2885 -0.1302 -0.6399
 8969SOL    HW138543   4.602   0.372   4.657  0.0493  0.9822  1.0640
 8969SOL    HW238544   4.698   0.271   4.706  0.2026 -0.7947  0.6809
 8970SOL     OW38545   2.794   0.791   5.453 -0.5739 -0.4339  0.1247
 8970SOL    HW138546   2.865   0.802   5.516  0.3201 -1.8237 -0.6478
 8970SOL    HW238547   2.826   0.711   5.413  1.9917  0.9466 -0.5651
 8971SOL     OW38548   3.343   3.970  11.965  0.3913 -0.1517 -0.6241
 8971SOL    HW138549   3.431   3.939  11.987  0.2273 -1.1438 -1.4003
 8971SOL    HW238550   3.304   3.980  12.051  0.9122 -2.3602 -0.1527
 8972SOL     OW38551   3.686   0.425  10.305  0.2022  0.3244  0.3838
 8972SOL    HW138552   3.640   0.421  10.221 -0.8659  2.0142  0.8960
 8972SOL    HW238553   3.621   0.447  10.372 -0.9225 -0.9479 -0.2767
 8973SOL     OW38554   3.095   2.249   1.751 -0.6211 -0.1615 -0.4103
 8973SOL    HW138555   3.109   2.337   1.786 -1.2434 -0.0186 -0.5214
 8973SOL    HW238556   3.131   2.244   1.663  0.2599  0.1307 -0.0721
 8974SOL     OW38557   4.246   4.264  14.684 -0.2300 -0.8826  0.0482
 8974SOL    HW138558   4.202   4.218  14.613  0.2750  0.0883 -0.9013
 8974SOL    HW238559   4.321   4.305  14.639 -0.2437  0.0603  0.8802
 8975SOL     OW38560   4.290   1.831   8.683  0.1948  0.2101 -0.0539
 8975SOL    HW138561   4.349   1.808   8.754  0.1473  0.6010  0.1152
 8975SOL    HW238562   4.287   1.925   8.701 -2.4743  0.4155 -1.4686
 8976SOL     OW38563   2.095   3.444  14.617  0.6816  0.3960 -0.5029
 8976SOL    HW138564   2.101   3.367  14.561 -0.1936 -0.7782  1.0505
 8976SOL    HW238565   2.043   3.500  14.558  0.4245 -2.0579 -2.6030
 8977SOL     OW38566   2.645   3.887   6.004  0.2288 -0.1571  0.0819
 8977SOL    HW138567   2.647   3.826   5.930 -1.4418 -0.6335  0.4314
 8977SOL    HW238568   2.564   3.859   6.046 -0.1993 -0.4774 -0.9620
 8978SOL     OW38569   0.055   3.900   7.483  0.0924  0.1438  0.0039
 8978SOL    HW138570   4.724   3.879   7.420 -1.4370 -1.7629  2.2569
 8978SOL    HW238571   0.076   3.811   7.512  1.1056  0.3190 -0.2267
 8979SOL     OW38572   4.588   1.256  11.023  0.2065  0.1282  0.3159
 8979SOL    HW138573   4.530   1.180  11.018 -0.1979  0.3830  1.1390
 8979SOL    HW238574   4.564   1.293  11.108 -0.2558 -0.7577  0.5659
 8980SOL     OW38575   4.602   1.979   2.566 -0.1033  0.0199  0.5359
 8980SOL    HW138576   4.571   2.050   2.622  0.9104  0.4578  0.5208
 8980SOL    HW238577   4.641   2.034   2.499 -1.0115 -1.6259 -1.3491
 8981SOL     OW38578   1.399   2.906  11.260  0.1587 -0.1330  0.0295
 8981SOL    HW138579   1.324   2.963  11.246  1.5153  2.2325  2.3966
 8981SOL    HW238580   1.464   2.976  11.252  0.2990 -0.0315  1.9278
 8982SOL     OW38581   3.485   3.093  10.933  0.4461  0.2745  0.0966
 8982SOL    HW138582   3.419   3.162  10.933  0.6593  0.4769  0.2452
 8982SOL    HW238583   3.542   3.115  11.007 -0.4449  1.2638  0.4808
 8983SOL     OW38584   0.276   2.053   3.000  0.4654 -0.4243  0.1506
 8983SOL    HW138585   0.266   2.099   2.917  2.5706 -0.6220 -0.1964
 8983SOL    HW238586   0.368   2.064   3.023  0.9229  1.2553 -2.5447
 8984SOL     OW38587   4.195   3.379   6.311 -1.4659  0.3013 -0.3227
 8984SOL    HW138588   4.161   3.292   6.332  0.1985 -0.4131 -0.5483
 8984SOL    HW238589   4.204   3.411   6.400 -1.6825 -1.0947  0.2046
 8985SOL     OW38590   4.139   1.840   2.088  0.0921  0.1256  0.1416
 8985SOL    HW138591   4.123   1.926   2.049 -0.1803  1.0403  2.2646
 8985SOL    HW238592   4.179   1.795   2.014  2.1735  0.9982  0.7332
 8986SOL     OW38593   0.180   1.767   5.264 -0.2183 -0.7415  0.0429
 8986SOL    HW138594   0.173   1.804   5.352 -0.1425 -2.4890  0.7763
 8986SOL    HW238595   0.090   1.759   5.232 -1.0907 -0.7193  2.4918
 8987SOL     OW38596   3.753   4.151  13.765  0.1845  0.2952 -0.0413
 8987SOL    HW138597   3.725   4.208  13.837 -1.5116  1.1672 -1.4080
 8987SOL    HW238598   3.752   4.065  13.808  1.0328  1.4493  2.2750
 8988SOL     OW38599   1.200   0.856   5.748  0.0898 -0.7495 -0.3613
 8988SOL    HW138600   1.240   0.937   5.718  0.3859 -1.5038 -1.9926
 8988SOL    HW238601   1.190   0.790   5.679  1.7847 -0.2342 -1.0851
 8989SOL     OW38602   0.892   4.644   7.867 -0.3902  0.6748  0.2225
 8989SOL    HW138603   0.891   4.679   7.778 -1.6484  0.4973  0.1717
 8989SOL    HW238604   0.804   4.655   7.901  0.7249 -0.2127  3.3614
 8990SOL     OW38605   3.591   3.233  12.711 -0.0987 -0.6188  0.2025
 8990SOL    HW138606   3.535   3.194  12.644 -0.6185  1.3460 -0.5068
 8990SOL    HW238607   3.585   3.322  12.677 -0.8408 -0.3095  1.1382
 8991SOL     OW38608   1.616   1.061   5.808 -0.0745  0.2695 -0.4327
 8991SOL    HW138609   1.655   1.102   5.732 -0.0206  0.2682 -0.4054
 8991SOL    HW238610   1.643   0.970   5.794 -0.5737  0.5126 -2.8987
 8992SOL     OW38611   2.627   0.691   8.935  0.0627  0.0688 -0.3945
 8992SOL    HW138612   2.564   0.622   8.953 -0.9266  0.8682 -0.7894
 8992SOL    HW238613   2.692   0.673   9.002 -1.1280 -0.9673  0.4797
 8993SOL     OW38614   3.114   0.723   3.699  0.6849  0.1517  0.2968
 8993SOL    HW138615   3.146   0.813   3.697  0.2537  0.3171  0.8995
 8993SOL    HW238616   3.194   0.674   3.680  0.7626  1.1833 -2.0265
 8994SOL     OW38617   0.904   2.682   1.042 -0.3650  0.6094  0.8303
 8994SOL    HW138618   0.823   2.639   1.016  1.0364 -2.2910  1.2761
 8994SOL    HW238619   0.872   2.765   1.077  0.9865  0.5768  2.1329
 8995SOL     OW38620   2.951   0.711   6.433 -0.1944  0.3301 -0.0474
 8995SOL    HW138621   2.999   0.723   6.352 -0.0633 -3.2534 -0.4922
 8995SOL    HW238622   2.977   0.620   6.450 -2.4447 -0.1299  0.9956
 8996SOL     OW38623   0.361   0.464   3.301  0.1633  0.4389  0.2606
 8996SOL    HW138624   0.363   0.368   3.310  1.0600  0.3549 -0.7766
 8996SOL    HW238625   0.338   0.465   3.209  0.6867 -0.4794  0.1137
 8997SOL     OW38626   4.626   3.859  14.731  0.1736  0.0588 -0.0570
 8997SOL    HW138627   4.718   3.879  14.746  1.0803 -1.9951 -2.8666
 8997SOL    HW238628   4.615   3.781  14.785  4.0133  0.5477  1.4124
 8998SOL     OW38629   0.152   4.127   7.661 -0.2009 -0.7104  0.1318
 8998SOL    HW138630   0.107   4.086   7.587  0.6149  1.3589 -1.5397
 8998SOL    HW238631   0.164   4.054   7.721  2.5389  0.2920  0.8072
 8999SOL     OW38632   2.805   1.517  16.466  0.6014 -0.2679 -0.1813
 8999SOL    HW138633   2.756   1.579  16.412  0.5791 -0.3313 -0.2344
 8999SOL    HW238634   2.886   1.500  16.418  1.0422 -0.3924  0.6077
 9000SOL     OW38635   4.483   4.135  14.816  0.4707  0.4142  0.3915
 9000SOL    HW138636   4.429   4.064  14.849  0.5202  1.4941  2.7699
 9000SOL    HW238637   4.415   4.172  14.760 -0.1653 -0.7446  0.4019
 9001SOL     OW38638   1.516   3.518  12.062 -0.6665 -0.1220 -0.3229
 9001SOL    HW138639   1.422   3.508  12.049 -0.7752  0.1018  0.3038
 9001SOL    HW238640   1.519   3.514  12.157  0.6859 -0.5037 -0.3736
 9002SOL     OW38641   3.738   3.625   2.024  0.3519  0.0523 -0.0186
 9002SOL    HW138642   3.733   3.715   1.992  1.2449  0.3458  0.6763
 9002SOL    HW238643   3.644   3.606   2.022  0.3776 -0.2604  1.4626
 9003SOL     OW38644   0.383   1.452   9.610 -0.5435  0.3853  0.6401
 9003SOL    HW138645   0.328   1.521   9.645 -0.1770  1.0579 -0.1135
 9003SOL    HW238646   0.420   1.425   9.695 -0.7407 -0.8326  0.3472
 9004SOL     OW38647   2.422   4.144   8.389  0.2562 -0.6305  0.6931
 9004SOL    HW138648   2.435   4.208   8.459  0.8716  0.2448 -0.2101
 9004SOL    HW238649   2.329   4.127   8.400  0.1330 -0.6556 -0.4005
 9005SOL     OW38650   3.032   1.516   8.012 -0.7479 -0.0731 -0.3955
 9005SOL    HW138651   2.974   1.581   8.051 -2.5283 -1.1787 -1.1729
 9005SOL    HW238652   3.110   1.525   8.065  0.9293 -2.6403 -2.4051
 9006SOL     OW38653   3.873   4.446   9.683 -0.1077 -0.3791  0.4040
 9006SOL    HW138654   3.956   4.480   9.717 -0.6830  0.4383  0.9959
 9006SOL    HW238655   3.865   4.506   9.608  2.7053 -0.8631 -0.2961
 9007SOL     OW38656   2.925   1.344  13.151  0.3881 -0.5004  0.1338
 9007SOL    HW138657   2.996   1.399  13.183  1.4654 -0.4266 -2.4140
 9007SOL    HW238658   2.917   1.383  13.064 -0.3889 -1.4886 -0.2338
 9008SOL     OW38659   0.490   1.692   1.940 -0.2621 -0.2643 -0.0720
 9008SOL    HW138660   0.475   1.604   1.908  0.2358 -0.7160  0.9130
 9008SOL    HW238661   0.485   1.739   1.857  0.3244 -0.0291  0.0216
 9009SOL     OW38662   0.876   0.874   7.764 -0.2441 -0.3446 -0.0716
 9009SOL    HW138663   0.882   0.781   7.744 -0.9837 -0.7351  1.5850
 9009SOL    HW238664   0.943   0.886   7.830 -0.0636  0.6659 -0.4284
 9010SOL     OW38665   2.296   2.442  12.429 -0.1714 -0.6978  0.4148
 9010SOL    HW138666   2.261   2.529  12.413  1.0888 -0.2948 -0.1194
 9010SOL    HW238667   2.389   2.465  12.430 -1.2039  3.4169 -3.6679
 9011SOL     OW38668   2.267   1.881   3.346 -0.1191 -0.0724  0.1987
 9011SOL    HW138669   2.249   1.960   3.295 -1.6612 -0.8506 -0.4760
 9011SOL    HW238670   2.187   1.868   3.398 -0.4800  1.2224 -0.0208
 9012SOL     OW38671   4.388   2.986   7.568  0.4836  0.4901  0.0247
 9012SOL    HW138672   4.446   3.035   7.510 -2.6687 -0.1353 -3.6725
 9012SOL    HW238673   4.301   3.016   7.539  1.3289  0.4730 -2.4893
 9013SOL     OW38674   0.463   0.807   7.609 -0.0593 -0.1899 -0.4718
 9013SOL    HW138675   0.507   0.735   7.563 -0.7304 -1.3311  0.6599
 9013SOL    HW238676   0.377   0.766   7.618  0.1281 -0.5822 -0.4563
 9014SOL     OW38677   2.287   1.749  16.146 -0.3644  0.4689 -0.5268
 9014SOL    HW138678   2.353   1.815  16.169 -1.0884 -0.6997  4.8865
 9014SOL    HW238679   2.329   1.663  16.148 -1.3788  0.0273  1.4473
 9015SOL     OW38680   3.173   1.626  11.025 -0.1566 -0.4354 -0.2402
 9015SOL    HW138681   3.198   1.586  10.942  0.9455 -2.2112  0.9364
 9015SOL    HW238682   3.245   1.615  11.087 -0.8032 -0.6361  0.4785
 9016SOL     OW38683   4.672   2.479   7.512  0.4372  0.0488  0.0306
 9016SOL    HW138684   0.014   2.428   7.523  1.8142  2.5431  1.7609
 9016SOL    HW238685   4.699   2.551   7.455 -0.4934  2.2524  2.3219
 9017SOL     OW38686   3.221   0.189   9.457  0.0989 -0.3633  0.1994
 9017SOL    HW138687   3.267   0.112   9.423  1.6502  1.3292 -1.5265
 9017SOL    HW238688   3.250   0.178   9.548 -0.1120 -0.3401  0.2708
 9018SOL     OW38689   0.165   0.288   5.275 -0.3092  0.4904 -0.2065
 9018SOL    HW138690   0.239   0.348   5.288 -0.8062  0.8569  0.8744
 9018SOL    HW238691   0.199   0.231   5.206 -2.2514 -0.3530 -0.4727
 9019SOL     OW38692   0.477   0.263   8.540 -0.3646  0.2298 -0.0757
 9019SOL    HW138693   0.525   0.275   8.622  0.8659  0.9742 -0.8965
 9019SOL    HW238694   0.389   0.289   8.568 -0.9361 -1.8503  0.0718
 9020SOL     OW38695   2.944   0.903   9.779  0.2459 -0.0369  0.0042
 9020SOL    HW138696   2.916   0.982   9.826 -0.4040 -0.2733  0.0188
 9020SOL    HW238697   3.007   0.865   9.839 -0.4027  1.9398  1.9427
 9021SOL     OW38698   1.470   0.574   0.796 -0.2243  0.5238  0.1079
 9021SOL    HW138699   1.465   0.522   0.716  1.1467 -0.2073  0.5015
 9021SOL    HW238700   1.527   0.532   0.860 -2.1600 -3.5725 -0.8777
 9022SOL     OW38701   4.702   0.980   8.380 -0.0075 -0.5069  0.1833
 9022SOL    HW138702   4.699   0.907   8.441 -0.8970 -0.1251  0.5915
 9022SOL    HW238703   4.626   1.034   8.401 -0.1215 -0.9957  1.0145
 9023SOL     OW38704   3.506   0.654   7.581  0.2562  0.3278  0.2168
 9023SOL    HW138705   3.536   0.741   7.607  0.3559  0.3214  0.1189
 9023SOL    HW238706   3.506   0.606   7.664  0.1513 -0.5959 -0.3165
 9024SOL     OW38707   4.159   3.276   5.259  0.2216 -0.4640  0.0677
 9024SOL    HW138708   4.146   3.231   5.342 -2.3160  1.6661  0.8191
 9024SOL    HW238709   4.069   3.301   5.239  0.7918  0.2339 -1.6406
 9025SOL     OW38710   3.804   2.881   6.295  0.3796 -0.1103 -0.1741
 9025SOL    HW138711   3.853   2.800   6.278  0.2411  0.0211 -1.2164
 9025SOL    HW238712   3.877   2.942   6.308 -0.2898  0.6414  0.0449
 9026SOL     OW38713   0.391   1.749  12.507  0.2347  0.4872  0.4615
 9026SOL    HW138714   0.411   1.762  12.414 -0.5628 -0.0995  0.2102
 9026SOL    HW238715   0.296   1.754  12.501  0.0888 -3.3323 -0.7892
 9027SOL     OW38716   4.298   0.677   9.789  0.0987  0.5150  0.6887
 9027SOL    HW138717   4.319   0.643   9.875  1.7954 -0.0989  0.0228
 9027SOL    HW238718   4.251   0.759   9.802  1.7582  1.6176 -0.2609
 9028SOL     OW38719   2.832   4.082   7.151 -0.0321 -0.4461 -0.1914
 9028SOL    HW138720   2.914   4.044   7.120 -0.0025  1.0854 -1.9986
 9028SOL    HW238721   2.766   4.029   7.107  2.3094 -2.1748 -1.5723
 9029SOL     OW38722   0.284   3.103   6.414  0.3487  0.0336 -0.2895
 9029SOL    HW138723   0.355   3.039   6.422 -1.1704 -1.5982 -0.1308
 9029SOL    HW238724   0.299   3.135   6.325  0.0017 -0.3375 -0.4803
 9030SOL     OW38725   1.601   0.531   2.492  0.4585 -0.5160 -0.6419
 9030SOL    HW138726   1.694   0.520   2.512  0.3761  0.9960  0.5215
 9030SOL    HW238727   1.573   0.579   2.570  0.8182  1.1744 -1.5670
 9031SOL     OW38728   0.388   2.137  14.893 -0.3072 -0.4627  0.1278
 9031SOL    HW138729   0.385   2.042  14.880  2.7497 -0.7946  1.8977
 9031SOL    HW238730   0.428   2.138  14.980 -1.4808 -4.6233  0.7283
 9032SOL     OW38731   3.232   0.043   3.255  0.1504  0.0205 -0.1296
 9032SOL    HW138732   3.302   0.038   3.190 -0.3669  0.1125 -0.6915
 9032SOL    HW238733   3.264   0.006   3.337  0.6902  0.1581 -0.2832
 9033SOL     OW38734   2.090   4.308  11.881 -0.6856 -0.3965  0.0798
 9033SOL    HW138735   2.134   4.340  11.802 -0.9403 -0.8109 -0.2283
 9033SOL    HW238736   2.010   4.270  11.845  0.3303  0.7954 -3.4477
 9034SOL     OW38737   3.347   2.581   4.728 -0.3980 -0.2421  0.0878
 9034SOL    HW138738   3.404   2.555   4.655 -1.0883  0.8862 -0.8493
 9034SOL    HW238739   3.266   2.542   4.693  0.2454  0.3157 -2.0631
 9035SOL     OW38740   4.708   0.585  15.058 -0.2634 -0.1155 -0.1962
 9035SOL    HW138741   4.711   0.492  15.081  1.3920  0.4254  1.7568
 9035SOL    HW238742   4.717   0.589  14.963 -1.1361  0.9058 -0.2273
 9036SOL     OW38743   3.640   0.556  14.429  0.0285 -0.5136  0.0232
 9036SOL    HW138744   3.614   0.566  14.521  1.2052 -0.1792  0.3272
 9036SOL    HW238745   3.604   0.474  14.395  0.1321 -0.8801  0.7734
 9037SOL     OW38746   1.735   1.703   3.784  0.5297 -0.2411 -0.1926
 9037SOL    HW138747   1.712   1.679   3.694  0.4397 -1.0892  0.0514
 9037SOL    HW238748   1.793   1.779   3.780 -0.2163  0.3866  0.8838
 9038SOL     OW38749   3.969   2.409   3.258  0.4314  0.6397  0.1772
 9038SOL    HW138750   3.946   2.477   3.321 -3.3954  0.2464 -0.8096
 9038SOL    HW238751   3.893   2.397   3.201 -0.4581 -0.7922  1.6611
 9039SOL     OW38752   3.828   4.640   9.503 -0.2902  0.1703 -0.7650
 9039SOL    HW138753   3.920   4.655   9.525  0.5705 -1.4823 -3.3812
 9039SOL    HW238754   3.832   4.640   9.408  1.6242  1.8311 -0.6803
 9040SOL     OW38755   3.590   4.374   8.827  0.5344  0.1933  0.0639
 9040SOL    HW138756   3.621   4.351   8.739  2.0125 -1.0554  0.8993
 9040SOL    HW238757   3.569   4.283   8.848 -0.7661 -0.4308 -3.9543
 9041SOL     OW38758   1.745   4.404   8.066  0.1798 -0.3918  0.0372
 9041SOL    HW138759   1.706   4.475   8.016 -0.9457 -1.8441 -1.1267
 9041SOL    HW238760   1.809   4.365   8.007  0.8930  1.5155 -0.4586
 9042SOL     OW38761   2.218   1.450  14.079  0.0223 -0.6376 -0.2691
 9042SOL    HW138762   2.186   1.511  14.146 -0.2127 -0.7605 -0.2677
 9042SOL    HW238763   2.138   1.398  14.068  0.8530 -2.5775  2.7874
 9043SOL     OW38764   3.673   3.461   7.877  0.7135 -0.0532  0.0129
 9043SOL    HW138765   3.595   3.424   7.835  0.3765 -0.4182  0.9638
 9043SOL    HW238766   3.659   3.431   7.967 -0.2319  0.2533 -0.0347
 9044SOL     OW38767   2.555   4.286   8.027  0.0431  0.4365 -0.3463
 9044SOL    HW138768   2.501   4.345   8.079 -0.2964 -0.3637  0.2180
 9044SOL    HW238769   2.627   4.345   8.004 -0.3972  1.0346 -0.1876
 9045SOL     OW38770   2.447   3.178   5.001 -0.3107 -0.1651 -0.2541
 9045SOL    HW138771   2.532   3.205   5.035 -0.5813  0.8493 -0.3822
 9045SOL    HW238772   2.402   3.154   5.083 -2.5260  0.6007 -1.2413
 9046SOL     OW38773   2.615   4.029   7.946 -0.0415  0.4410  0.3576
 9046SOL    HW138774   2.622   3.996   8.036 -1.2649 -2.5326 -0.6219
 9046SOL    HW238775   2.620   4.121   7.971  2.4596  0.0665  1.2230
 9047SOL     OW38776   1.988   1.541  17.431  0.0672  0.1295  0.2596
 9047SOL    HW138777   1.914   1.563  17.488  0.5646  0.9018  0.5951
 9047SOL    HW238778   2.014   1.456  17.468 -1.0310 -0.2701  0.1325
 9048SOL     OW38779   3.036   2.180   3.121  0.2725  0.0000  0.3445
 9048SOL    HW138780   3.041   2.176   3.025 -0.2037 -0.1619  0.3280
 9048SOL    HW238781   2.946   2.154   3.137  0.6025 -0.3229  1.7060
 9049SOL     OW38782   2.279   1.859   4.108  0.1076  0.1719 -0.1104
 9049SOL    HW138783   2.356   1.808   4.084  1.5730  1.6510  1.5088
 9049SOL    HW238784   2.243   1.894   4.026 -0.0952 -1.0057 -0.5276
 9050SOL     OW38785   1.820   2.322   5.099 -0.4232  0.3664  0.1015
 9050SOL    HW138786   1.891   2.384   5.118  1.0876 -0.9196 -1.4110
 9050SOL    HW238787   1.831   2.320   5.004 -1.8868  1.0541 -0.0925
 9051SOL     OW38788   2.055   3.344   1.774 -0.0098 -0.0303 -0.5055
 9051SOL    HW138789   2.098   3.264   1.744  1.9612  0.3757  1.2296
 9051SOL    HW238790   2.138   3.388   1.793  0.3511 -1.6003  1.5756
 9052SOL     OW38791   0.296   0.877   1.303 -0.5249  0.2737  0.6360
 9052SOL    HW138792   0.264   0.824   1.230 -0.9000  0.4730  0.6528
 9052SOL    HW238793   0.390   0.858   1.308 -0.8931 -1.3210  1.5454
 9053SOL     OW38794   2.525   3.861   4.067 -0.0648 -0.3984 -0.2705
 9053SOL    HW138795   2.585   3.788   4.056 -0.6168 -0.8254 -0.4446
 9053SOL    HW238796   2.468   3.845   3.991 -0.4383  0.2019 -0.1215
 9054SOL     OW38797   0.408   4.157  14.113 -0.2354 -0.4255 -0.2162
 9054SOL    HW138798   0.479   4.126  14.170 -0.2922  1.5943  0.9535
 9054SOL    HW238799   0.397   4.246  14.146  1.3485 -0.6368  0.9217
 9055SOL     OW38800   3.040   1.871   3.608  0.3170  0.3771  0.4483
 9055SOL    HW138801   3.127   1.900   3.636  0.4995 -0.4385  0.7249
 9055SOL    HW238802   3.060   1.868   3.515  3.0541  1.4393  0.9928
 9056SOL     OW38803   4.290   0.921   2.310  0.0245 -0.0584 -0.3219
 9056SOL    HW138804   4.292   1.016   2.319 -1.6681 -0.2263  1.6409
 9056SOL    HW238805   4.255   0.897   2.395  2.4470 -1.1447  0.3547
 9057SOL     OW38806   4.547   4.649  13.306  0.0410  0.0428 -0.5157
 9057SOL    HW138807   4.580   4.622  13.392  0.9036 -2.1121 -1.5196
 9057SOL    HW238808   4.505   4.732  13.328 -1.2249 -0.5443 -0.7190
 9058SOL     OW38809   4.314   4.446   6.458  0.3411  0.3800  0.4227
 9058SOL    HW138810   4.272   4.382   6.516 -1.2264  0.9419 -0.1202
 9058SOL    HW238811   4.238   4.478   6.411 -0.7624  1.4472  2.9505
 9059SOL     OW38812   1.591   3.459   9.308  0.4795 -0.0788  0.1179
 9059SOL    HW138813   1.521   3.496   9.362  0.8122  1.6501 -0.6312
 9059SOL    HW238814   1.550   3.467   9.222 -2.7019 -0.1822  1.6368
 9060SOL     OW38815   0.662   4.720  17.020 -0.5153  0.1786 -0.3281
 9060SOL    HW138816   0.593   4.661  17.051 -0.4649 -0.2024 -0.9386
 9060SOL    HW238817   0.734   4.659  17.003  0.4336  1.1274  0.2671
 9061SOL     OW38818   2.817   0.959   3.259 -0.5008 -0.0209  0.0030
 9061SOL    HW138819   2.860   1.026   3.207  1.9237  0.0854  2.1260
 9061SOL    HW238820   2.772   0.912   3.189 -1.2464 -1.0919  1.1965
 9062SOL     OW38821   0.065   0.300  14.641  0.3327 -0.1068 -0.2032
 9062SOL    HW138822   0.074   0.251  14.723  1.2503 -2.0590 -1.4764
 9062SOL    HW238823   0.145   0.353  14.641 -0.1430  0.6096 -0.0847
 9063SOL     OW38824   2.036   0.219   6.867  0.3400  0.6410  0.4923
 9063SOL    HW138825   2.118   0.179   6.896 -0.1265 -0.5556  0.1474
 9063SOL    HW238826   1.983   0.224   6.946 -1.2236  0.5438 -0.5503
 9064SOL     OW38827   3.215   0.919   2.889  0.1567 -0.0296  0.4336
 9064SOL    HW138828   3.258   0.996   2.926 -0.4491  0.6692 -0.3275
 9064SOL    HW238829   3.286   0.856   2.876 -1.1033 -1.3152 -0.1744
 9065SOL     OW38830   2.200   4.711   2.363 -0.0571 -0.2451  0.2427
 9065SOL    HW138831   2.210   4.663   2.281 -1.9252  1.4193 -0.9762
 9065SOL    HW238832   2.199   0.061   2.324 -0.7505 -0.9837 -1.3852
 9066SOL     OW38833   0.162   3.904   9.484  0.2469  0.3265 -0.3797
 9066SOL    HW138834   0.091   3.926   9.546 -0.3656 -0.6844 -0.7153
 9066SOL    HW238835   0.143   3.811   9.468 -1.1863  0.3741  0.9883
 9067SOL     OW38836   0.318   3.252   4.530 -0.4023  0.2156 -0.3472
 9067SOL    HW138837   0.284   3.236   4.618  0.8886  0.9700  0.2826
 9067SOL    HW238838   0.318   3.347   4.520 -3.0301  0.1532 -1.1590
 9068SOL     OW38839   2.349   1.108  13.430 -0.1015 -0.0545 -0.1298
 9068SOL    HW138840   2.440   1.134  13.413 -0.3497  0.2555 -0.9818
 9068SOL    HW238841   2.353   1.021  13.469  3.4065 -0.0941 -0.5468
 9069SOL     OW38842   4.211   2.018   1.466 -0.4898 -0.4123  0.2578
 9069SOL    HW138843   4.117   2.036   1.459 -0.2206  0.4066 -1.0303
 9069SOL    HW238844   4.202   1.951   1.534 -1.7238  0.1624  0.6511
 9070SOL     OW38845   1.239   1.974   2.555 -0.1606  0.6293 -0.1613
 9070SOL    HW138846   1.250   1.949   2.463 -0.0867 -0.4868  0.1459
 9070SOL    HW238847   1.170   2.039   2.546 -1.4652 -0.4919  1.5769
 9071SOL     OW38848   0.779   2.366   7.835  0.0408 -0.0806  0.2404
 9071SOL    HW138849   0.753   2.389   7.924 -2.1555 -0.6154 -0.2369
 9071SOL    HW238850   0.696   2.356   7.787  0.1853  0.2859 -0.0871
 9072SOL     OW38851   1.746   1.736  11.722 -0.0476  0.3058  0.2227
 9072SOL    HW138852   1.742   1.785  11.805 -3.8185 -0.3280  0.4381
 9072SOL    HW238853   1.745   1.812  11.664  1.4894 -1.2703 -1.8241
 9073SOL     OW38854   2.652   3.937   2.332 -0.1725 -0.2438  0.3735
 9073SOL    HW138855   2.566   3.980   2.331 -0.3612 -0.5631  2.0342
 9073SOL    HW238856   2.659   3.936   2.237 -0.8027 -0.5014  0.3311
 9074SOL     OW38857   0.095   0.167   3.685 -0.0644  0.3561 -0.4799
 9074SOL    HW138858   0.110   0.236   3.620 -1.2858  0.6314 -0.4581
 9074SOL    HW238859   0.024   0.208   3.734  0.2909 -0.1562  0.4544
 9075SOL     OW38860   2.725   3.996   8.699 -0.1892 -0.1286  0.5271
 9075SOL    HW138861   2.723   3.979   8.793 -0.7247  0.8306  0.6795
 9075SOL    HW238862   2.635   3.979   8.672 -0.0778  1.5188 -0.9132
 9076SOL     OW38863   4.128   2.451   1.011 -0.1177 -0.2448 -0.1438
 9076SOL    HW138864   4.114   2.361   1.040 -0.8587  0.0726  0.4944
 9076SOL    HW238865   4.224   2.454   1.012 -0.0254 -2.3979 -2.9144
 9077SOL     OW38866   2.556   2.951   7.380  0.4991 -0.6867  0.5371
 9077SOL    HW138867   2.473   2.940   7.425 -0.5935  3.1919 -0.5239
 9077SOL    HW238868   2.612   2.935   7.456  0.0245 -1.8042  0.6480
 9078SOL     OW38869   3.314   2.459   7.012  0.1291 -0.1158  0.5272
 9078SOL    HW138870   3.345   2.368   7.017 -0.1627 -0.3200 -1.2236
 9078SOL    HW238871   3.228   2.452   7.053 -0.0135  1.0659  0.4130
 9079SOL     OW38872   1.024   2.032   7.635  0.2048  0.0214  0.0403
 9079SOL    HW138873   0.956   2.047   7.569  1.4696  0.1205 -1.2405
 9079SOL    HW238874   1.003   2.096   7.703 -2.0065  0.3493 -0.9233
 9080SOL     OW38875   2.551   1.041   5.214  0.1257 -0.2943  0.4419
 9080SOL    HW138876   2.504   0.965   5.247  1.4211 -1.1013  0.4537
 9080SOL    HW238877   2.611   1.050   5.288  0.7373 -2.2478  0.1741
 9081SOL     OW38878   0.014   3.224   9.791  0.2969 -0.3258 -0.4364
 9081SOL    HW138879   0.004   3.234   9.886  1.0784  0.7766 -0.4760
 9081SOL    HW238880   0.090   3.277   9.767  0.7361 -1.3641 -1.3529
 9082SOL     OW38881   1.751   2.194   4.183  0.0624  0.3837 -0.0360
 9082SOL    HW138882   1.822   2.257   4.171  1.1749 -0.8951 -0.1741
 9082SOL    HW238883   1.758   2.184   4.278  0.5242  0.6231 -0.0465
 9083SOL     OW38884   1.888   3.410  17.427  0.1821 -0.1621 -0.1077
 9083SOL    HW138885   1.945   3.446  17.495 -0.4824 -0.4089  0.5795
 9083SOL    HW238886   1.852   3.334  17.473  1.2982 -1.5581 -1.5469
 9084SOL     OW38887   0.216   0.709   9.226 -0.0272  0.6296 -0.0920
 9084SOL    HW138888   0.254   0.642   9.169  0.8802  0.0881  1.1271
 9084SOL    HW238889   0.239   0.791   9.182  1.0838  0.0300 -0.6349
 9085SOL     OW38890   3.671   0.985   3.198  0.1079  0.4548 -0.0350
 9085SOL    HW138891   3.664   1.081   3.199 -0.8262  0.4003 -0.3744
 9085SOL    HW238892   3.729   0.980   3.122 -0.9518  2.1194 -0.9826
 9086SOL     OW38893   2.715   4.384   2.169 -0.2929  0.3350  0.0776
 9086SOL    HW138894   2.783   4.437   2.209  1.1376 -1.6618  0.2376
 9086SOL    HW238895   2.639   4.439   2.188 -0.5723 -0.2374  0.6212
 9087SOL     OW38896   3.452   0.830  11.301  0.1731 -0.4194  0.4544
 9087SOL    HW138897   3.472   0.893  11.370  1.6816 -1.9094  1.4018
 9087SOL    HW238898   3.529   0.836  11.245  0.4463 -0.9968  0.7630
 9088SOL     OW38899   1.558   3.046   6.139  0.6213 -0.3142 -0.7475
 9088SOL    HW138900   1.588   3.100   6.212 -2.9000  3.2315 -1.9519
 9088SOL    HW238901   1.544   3.117   6.076  3.4119  0.9648  0.0666
 9089SOL     OW38902   4.366   1.499   7.707  0.3717 -0.3089 -0.4424
 9089SOL    HW138903   4.326   1.412   7.703 -1.6261  0.6254 -0.6034
 9089SOL    HW238904   4.445   1.484   7.760  0.6531 -1.6059 -1.2283
 9090SOL     OW38905   1.481   0.936   8.931 -1.2129 -0.3923 -0.4053
 9090SOL    HW138906   1.465   0.960   9.022 -2.6319  0.3139 -0.8351
 9090SOL    HW238907   1.389   0.914   8.915 -1.5919 -0.2863  1.6026
 9091SOL     OW38908   1.155   3.763   3.492  0.6790  0.2157  0.1293
 9091SOL    HW138909   1.136   3.669   3.496 -1.0150  0.4741 -1.8281
 9091SOL    HW238910   1.105   3.796   3.417  1.6875 -0.7761 -0.9812
 9092SOL     OW38911   1.825   0.538   2.615 -0.2222  0.0600 -0.2455
 9092SOL    HW138912   1.918   0.534   2.636  0.2284 -0.7954 -2.3521
 9092SOL    HW238913   1.794   0.553   2.704  0.2127 -1.4132  0.1425
 9093SOL     OW38914   3.912   2.683   6.803 -0.5204  0.1152  0.1256
 9093SOL    HW138915   4.004   2.666   6.821 -0.4132  0.3942 -0.1496
 9093SOL    HW238916   3.882   2.721   6.885 -1.2961 -1.6458  0.6701
 9094SOL     OW38917   3.241   1.140  12.988 -0.9134 -0.2894 -0.7157
 9094SOL    HW138918   3.328   1.122  13.022 -0.9750 -1.1396 -1.0214
 9094SOL    HW238919   3.202   1.073  13.044 -1.2516  0.3589 -0.1690
 9095SOL     OW38920   4.386   2.378   1.946  0.3342 -0.4125 -0.3942
 9095SOL    HW138921   4.360   2.426   1.867  0.4217  1.1041  0.5056
 9095SOL    HW238922   4.315   2.371   2.010  0.4289  1.0991 -0.1166
 9096SOL     OW38923   3.245   4.544   4.219 -0.2504 -0.0816  0.0830
 9096SOL    HW138924   3.218   4.465   4.174 -1.7388  1.2993 -1.4407
 9096SOL    HW238925   3.324   4.506   4.259  0.5892 -2.4582 -3.8879
 9097SOL     OW38926   2.201   4.481   3.419 -0.5318  0.1497  0.1170
 9097SOL    HW138927   2.254   4.405   3.398  0.2603  0.0329  2.5593
 9097SOL    HW238928   2.113   4.450   3.397  0.3437 -0.8513 -1.9713
 9098SOL     OW38929   0.872   3.012   4.025  0.0840  0.5458  0.2016
 9098SOL    HW138930   0.861   2.984   4.116  0.8237 -0.2175  0.0559
 9098SOL    HW238931   0.885   2.922   3.996 -0.8103 -0.4685  2.9485
 9099SOL     OW38932   2.330   3.223   3.748 -0.0080  0.2131 -0.2177
 9099SOL    HW138933   2.401   3.160   3.758 -1.2319 -1.1760 -0.2302
 9099SOL    HW238934   2.256   3.201   3.805 -1.1648 -0.4637 -1.9836
 9100SOL     OW38935   2.124   2.057   4.676 -0.4060 -0.2616  0.1252
 9100SOL    HW138936   2.038   2.014   4.677 -0.7859  0.4968  1.6141
 9100SOL    HW238937   2.188   1.987   4.678 -0.3897 -0.2136  1.6087
 9101SOL     OW38938   2.322   2.939   4.944 -0.4074 -0.1488 -0.0327
 9101SOL    HW138939   2.410   2.937   4.980 -0.1230  4.1988 -0.4955
 9101SOL    HW238940   2.301   3.032   4.938  1.2398  0.3397  1.9555
 9102SOL     OW38941   1.108   0.186   2.881  0.5828 -0.4371 -0.1078
 9102SOL    HW138942   1.196   0.214   2.906  0.5191  0.8847 -1.3742
 9102SOL    HW238943   1.103   0.198   2.786 -1.6032  0.6828  0.1724
 9103SOL     OW38944   2.764   3.426  12.940  0.2813 -0.0245  0.0817
 9103SOL    HW138945   2.709   3.475  13.002 -0.2716 -1.1042  0.4530
 9103SOL    HW238946   2.820   3.370  12.993  1.3001 -1.2477 -2.3257
 9104SOL     OW38947   1.987   1.024   3.778 -0.5923 -0.4393  0.0865
 9104SOL    HW138948   1.950   1.050   3.862 -1.3864  3.0419 -1.3427
 9104SOL    HW238949   2.047   1.097   3.764  0.1202 -0.8963  0.7787
 9105SOL     OW38950   4.036   2.064   5.744 -0.3334 -0.2158  0.7554
 9105SOL    HW138951   3.967   2.089   5.805 -1.2387  0.4439 -0.5199
 9105SOL    HW238952   4.106   2.126   5.764  0.9507 -1.6094  0.5591
 9106SOL     OW38953   4.339   2.045   4.933 -0.3112 -0.7501 -0.2631
 9106SOL    HW138954   4.341   1.949   4.934  0.7328 -0.7354 -0.9601
 9106SOL    HW238955   4.419   2.071   4.977 -0.2132  0.8635 -1.4046
 9107SOL     OW38956   0.127   1.760   1.942  0.6743  0.1785  0.2656
 9107SOL    HW138957   0.061   1.745   2.009 -0.8934 -2.9552 -2.0111
 9107SOL    HW238958   0.069   1.788   1.871  0.9573  0.1612  0.0272
 9108SOL     OW38959   3.492   2.117   4.300 -0.0743 -0.5635  0.2773
 9108SOL    HW138960   3.423   2.171   4.338  1.2349 -0.5693  2.6264
 9108SOL    HW238961   3.449   2.049   4.248  1.7677 -2.1520  0.8399
 9109SOL     OW38962   0.554   1.786   8.414 -0.2214 -0.0829 -0.6598
 9109SOL    HW138963   0.556   1.874   8.378  0.3045 -0.3526 -1.2919
 9109SOL    HW238964   0.460   1.775   8.400 -0.8858  1.0146  2.9917
 9110SOL     OW38965   0.992   2.584   0.406  0.1256  0.3898  0.1667
 9110SOL    HW138966   1.067   2.525   0.397 -0.1585 -0.4220  3.2090
 9110SOL    HW238967   1.019   2.640   0.478  1.3566 -1.1894  0.9313
 9111SOL     OW38968   3.682   0.876  12.151 -0.2114  0.3939 -0.4610
 9111SOL    HW138969   3.611   0.839  12.100 -0.1127 -0.5447  0.0860
 9111SOL    HW238970   3.699   0.818  12.225 -0.0621  0.1752 -0.6706
 9112SOL     OW38971   4.423   2.118   1.784  0.1712 -0.1863 -0.5306
 9112SOL    HW138972   4.394   2.200   1.745 -2.5270 -0.5136  0.7476
 9112SOL    HW238973   4.475   2.087   1.710 -0.6883 -1.1010 -0.7500
 9113SOL     OW38974   0.724   2.341   1.842  0.0293  0.4850 -0.2534
 9113SOL    HW138975   0.747   2.427   1.808  1.4763  1.0646  2.2208
 9113SOL    HW238976   0.644   2.369   1.887 -1.2440  1.0312 -2.8789
 9114SOL     OW38977   3.244   3.182   1.961 -0.0170 -0.6368 -0.8121
 9114SOL    HW138978   3.205   3.149   1.880 -0.1271 -0.8345 -0.6772
 9114SOL    HW238979   3.328   3.140   1.946 -0.3208 -0.3804 -3.2443
 9115SOL     OW38980   4.564   0.961   3.850  0.6789  0.0706  0.2880
 9115SOL    HW138981   4.551   1.000   3.763 -0.1456 -0.2812  0.2533
 9115SOL    HW238982   4.478   0.956   3.891  0.0532  0.1735 -1.0018
 9116SOL     OW38983   1.327   0.142   2.090  0.4707 -0.1700  0.1846
 9116SOL    HW138984   1.376   0.079   2.143  2.9186  2.2629  0.8196
 9116SOL    HW238985   1.396   0.186   2.041  0.5085 -1.4771 -0.9314
 9117SOL     OW38986   1.677   3.324   6.572 -0.1361 -0.0382  0.1076
 9117SOL    HW138987   1.689   3.377   6.651  1.5390 -1.8944  1.1024
 9117SOL    HW238988   1.668   3.235   6.605  0.2302 -0.0609  0.1493
 9118SOL     OW38989   0.534   3.984   9.264 -0.8324 -0.6687  0.5126
 9118SOL    HW138990   0.553   3.999   9.171  1.3943  1.6370  1.3356
 9118SOL    HW238991   0.619   3.962   9.302  0.4663 -1.2570 -2.6926
 9119SOL     OW38992   0.553   1.010  14.637  0.7596 -0.1240  0.0469
 9119SOL    HW138993   0.470   0.979  14.602  0.6127  0.2841  0.0279
 9119SOL    HW238994   0.579   0.942  14.699 -1.3337  0.0262  1.0842
 9120SOL     OW38995   2.781   1.797   3.759  0.8350  0.3032  0.5288
 9120SOL    HW138996   2.840   1.723   3.772 -0.5464 -1.2586 -2.0280
 9120SOL    HW238997   2.844   1.844   3.705 -0.1335  0.5274 -0.4163
 9121SOL     OW38998   3.730   2.215  10.036 -0.2933 -0.3628  0.0580
 9121SOL    HW138999   3.680   2.285   9.995  2.7144  0.9581 -1.4163
 9121SOL    HW239000   3.797   2.268  10.079 -0.0530  1.0717 -2.0839
 9122SOL     OW39001   4.671   2.221  10.811 -0.1042  0.3098  0.4692
 9122SOL    HW139002   4.721   2.240  10.890  0.4763  0.9998 -0.0579
 9122SOL    HW239003   4.694   2.299  10.760 -2.3718 -0.3582 -1.6096
 9123SOL     OW39004   4.694   0.227   2.941  0.0279 -0.0849 -0.1398
 9123SOL    HW139005   4.699   0.133   2.921 -0.9490 -0.3533  0.8949
 9123SOL    HW239006   4.640   0.262   2.870  0.7765  1.8119  0.2375
 9124SOL     OW39007   0.374   2.373  15.355  0.0755 -0.4204 -0.0965
 9124SOL    HW139008   0.363   2.449  15.412 -0.6882 -1.4852  1.1798
 9124SOL    HW239009   0.432   2.322  15.412  0.4077 -1.2625 -1.2114
 9125SOL     OW39010   0.260   1.489   8.860 -0.1844  0.2120  0.1678
 9125SOL    HW139011   0.244   1.472   8.767  1.7906  1.3732 -0.3895
 9125SOL    HW239012   0.291   1.406   8.896 -0.2901  0.9030  1.8723
 9126SOL     OW39013   1.650   4.021   6.993  0.2268 -0.0475  0.0065
 9126SOL    HW139014   1.567   4.068   7.005 -0.1728 -0.6064 -0.6183
 9126SOL    HW239015   1.634   3.964   6.918 -0.9881 -0.8264  0.8464
 9127SOL     OW39016   1.673   1.538   9.296 -0.4132 -0.5993  0.4473
 9127SOL    HW139017   1.764   1.521   9.271 -0.9592 -1.1388 -1.2286
 9127SOL    HW239018   1.621   1.460   9.275 -1.8051 -0.0050  1.6945
 9128SOL     OW39019   2.712   3.626   4.600  0.0875  0.2997  0.0132
 9128SOL    HW139020   2.798   3.668   4.596  0.2342  0.0172  0.1790
 9128SOL    HW239021   2.746   3.555   4.655  0.0855 -0.9017 -1.5249
 9129SOL     OW39022   3.557   1.017   0.982  0.1934  0.3434 -0.6079
 9129SOL    HW139023   3.624   1.031   0.916  1.1691 -0.0422  0.3060
 9129SOL    HW239024   3.609   1.018   1.063  0.7573  0.9620 -0.9838
 9130SOL     OW39025   0.557   2.037   8.282  0.7963 -0.6114 -0.3468
 9130SOL    HW139026   0.639   2.067   8.241  0.0400  1.0034 -0.7056
 9130SOL    HW239027   0.495   2.074   8.219  1.0926  0.7585  0.1672
 9131SOL     OW39028   1.491   0.103   4.750  0.0645  0.2975  1.0374
 9131SOL    HW139029   1.475   0.016   4.715 -1.4047  0.7712  0.5418
 9131SOL    HW239030   1.492   0.079   4.843 -0.3749 -0.7527  0.7597
 9132SOL     OW39031   4.120   0.509   5.517 -0.3128 -0.1815  0.3273
 9132SOL    HW139032   4.190   0.573   5.505  0.1151 -0.6560  0.2744
 9132SOL    HW239033   4.101   0.479   5.428 -2.4639  1.4760  0.2463
 9133SOL     OW39034   0.100   3.358   3.850  0.0946  0.0848 -0.1569
 9133SOL    HW139035   0.070   3.438   3.893  0.5801  0.2486 -0.1216
 9133SOL    HW239036   0.195   3.349   3.852 -0.0932 -1.5543  0.7642
 9134SOL     OW39037   4.225   0.831   7.790 -0.2959 -0.2568  0.3028
 9134SOL    HW139038   4.171   0.870   7.722 -0.9845 -2.2137 -0.2861
 9134SOL    HW239039   4.247   0.909   7.841  2.7364 -0.6723 -0.3562
 9135SOL     OW39040   2.171   0.255   2.284 -0.2267  0.1457 -0.7373
 9135SOL    HW139041   2.217   0.334   2.313 -0.8432  0.3784 -0.3876
 9135SOL    HW239042   2.099   0.250   2.348  0.1924  0.6586 -0.2246
 9136SOL     OW39043   0.448   2.589   3.766  0.0166 -0.1899 -0.1901
 9136SOL    HW139044   0.402   2.527   3.822 -0.3496  1.0237  0.8649
 9136SOL    HW239045   0.534   2.604   3.807 -0.4664 -0.6545  0.9964
 9137SOL     OW39046   2.370   3.896   2.577 -0.1717 -0.0914 -0.3578
 9137SOL    HW139047   2.366   3.852   2.492 -0.5446 -1.4005  0.3499
 9137SOL    HW239048   2.277   3.894   2.600 -0.0797 -1.7736 -0.1629
 9138SOL     OW39049   3.525   1.772  11.835  0.4693  0.1461 -0.0790
 9138SOL    HW139050   3.521   1.677  11.848 -1.3273  0.2281  0.0779
 9138SOL    HW239051   3.457   1.785  11.901  0.1672 -0.4574 -0.2676
 9139SOL     OW39052   1.163   3.300  12.836  0.2789 -0.1152 -0.0565
 9139SOL    HW139053   1.130   3.282  12.924  0.1777  1.3753  0.2054
 9139SOL    HW239054   1.179   3.394  12.837  2.2733 -0.4885  1.7916
 9140SOL     OW39055   1.242   4.087   5.183  0.4980 -0.4250  0.5233
 9140SOL    HW139056   1.222   4.148   5.254  0.6958  1.3692 -0.9386
 9140SOL    HW239057   1.192   4.124   5.110 -1.3545 -0.1506  1.9488
 9141SOL     OW39058   3.985   1.654   2.886 -0.0364  0.3602 -0.2662
 9141SOL    HW139059   4.016   1.689   2.969 -1.0835  0.4623  0.0811
 9141SOL    HW239060   4.065   1.632   2.838  0.0631 -0.2297  0.1609
 9142SOL     OW39061   3.800   1.270   0.032 -0.4051 -0.1006 -0.9214
 9142SOL    HW139062   3.833   1.215  17.708  1.5491 -2.3736  1.7029
 9142SOL    HW239063   3.777   1.200   0.093 -0.3580 -0.0247 -0.8170
 9143SOL     OW39064   1.158   2.547   8.098  0.3538 -0.2754 -0.2082
 9143SOL    HW139065   1.092   2.607   8.062  0.2823 -0.3306 -0.1700
 9143SOL    HW239066   1.161   2.582   8.187 -1.4871  1.3837 -0.8039
 9144SOL     OW39067   0.323   0.237   1.354  0.0184 -0.3980 -0.6282
 9144SOL    HW139068   0.404   0.226   1.404  0.2465 -1.2632 -1.1736
 9144SOL    HW239069   0.255   0.201   1.411  1.9362 -2.8525  0.1377
 9145SOL     OW39070   2.746   4.600   8.301 -0.5310  0.1665  0.2106
 9145SOL    HW139071   2.757   4.693   8.285 -1.8037  0.8571  3.4002
 9145SOL    HW239072   2.838   4.571   8.297 -0.5877 -0.1953  1.4821
 9146SOL     OW39073   2.284   1.198   8.090  0.0409  0.1151 -0.3024
 9146SOL    HW139074   2.192   1.179   8.111 -0.5492  0.1461 -2.8644
 9146SOL    HW239075   2.334   1.157   8.160  0.0149 -0.4045 -0.5893
 9147SOL     OW39076   1.155   4.613   6.836 -0.1925 -0.1754 -0.2869
 9147SOL    HW139077   1.173   4.662   6.756 -2.7075 -0.6461 -1.1278
 9147SOL    HW239078   1.166   4.528   6.795 -1.3579  0.4955 -1.9694
 9148SOL     OW39079   0.786   3.509  17.481 -0.3033 -0.3804 -0.2255
 9148SOL    HW139080   0.758   3.419  17.492  0.5309 -0.5870  0.2259
 9148SOL    HW239081   0.746   3.526  17.396 -0.2689 -0.7461 -0.3119
 9149SOL     OW39082   3.746   4.140  10.045  0.1977  0.3385 -0.1393
 9149SOL    HW139083   3.751   4.212   9.982 -0.4848  0.8294  0.3678
 9149SOL    HW239084   3.836   4.122  10.071 -0.3445  0.2559  1.6957
 9150SOL     OW39085   1.903   0.260   8.397  0.0310 -0.0404  0.1225
 9150SOL    HW139086   1.998   0.264   8.400 -0.0731  1.4451  1.4443
 9150SOL    HW239087   1.877   0.313   8.473  0.6701 -1.1441  1.1062
 9151SOL     OW39088   2.020   4.048  15.831  0.7877 -0.4864  0.1301
 9151SOL    HW139089   2.003   3.958  15.806 -0.9383 -0.0813 -0.1498
 9151SOL    HW239090   2.114   4.054  15.850  0.9523 -0.1908 -0.7981
 9152SOL     OW39091   4.499   2.857   1.756 -0.4570 -0.5039 -0.5650
 9152SOL    HW139092   4.571   2.798   1.734  0.2626 -0.2383  1.0552
 9152SOL    HW239093   4.545   2.919   1.812 -0.1554 -1.1690 -0.0808
 9153SOL     OW39094   3.895   2.841   8.098  0.1688 -0.0288  0.3045
 9153SOL    HW139095   3.978   2.885   8.114  0.1598 -0.0501  0.4079
 9153SOL    HW239096   3.910   2.753   8.064 -1.3526  0.6287 -2.1035
 9154SOL     OW39097   0.907   3.580   3.102 -0.2187  0.3706 -0.2304
 9154SOL    HW139098   0.970   3.651   3.088 -0.9676  1.2450  0.7547
 9154SOL    HW239099   0.939   3.545   3.185 -5.0511 -1.8161  0.7263
 9155SOL     OW39100   0.745   1.981   7.917  0.6150  0.2400  0.3893
 9155SOL    HW139101   0.727   2.032   7.996 -0.7737 -2.3614  1.7736
 9155SOL    HW239102   0.835   2.009   7.899  1.4416 -3.4749 -1.3657
 9156SOL     OW39103   0.900   1.826   3.853  0.2311 -0.6994  0.2284
 9156SOL    HW139104   0.906   1.850   3.945  0.7170  1.4920 -0.3631
 9156SOL    HW239105   0.917   1.914   3.820 -2.3589 -0.4057 -0.3498
 9157SOL     OW39106   4.570   3.814  17.559 -0.7440 -0.2212  0.0056
 9157SOL    HW139107   4.630   3.862  17.616  1.4741 -0.0229 -2.4903
 9157SOL    HW239108   4.490   3.826  17.610 -0.2544  0.0494  0.7195
 9158SOL     OW39109   3.858   0.288   6.910  0.1451 -0.4137  0.2601
 9158SOL    HW139110   3.843   0.196   6.892 -0.2576 -0.6686  1.9197
 9158SOL    HW239111   3.953   0.288   6.915  0.2418  1.4601 -1.3266
 9159SOL     OW39112   0.127   2.836   4.769  0.2793 -0.4498 -0.0906
 9159SOL    HW139113   0.085   2.917   4.798 -0.1054 -0.4773 -0.5607
 9159SOL    HW239114   0.075   2.815   4.691  0.8424 -1.0059 -0.3047
 9160SOL     OW39115   3.425   4.401  15.832  0.1198 -0.2974 -0.9890
 9160SOL    HW139116   3.448   4.361  15.748  0.9847  1.4144 -1.5745
 9160SOL    HW239117   3.335   4.428  15.814 -0.3053  0.7139  2.7235
 9161SOL     OW39118   2.212   1.276  17.492  0.3949  0.0204 -0.3578
 9161SOL    HW139119   2.131   1.251  17.538 -0.2166  0.2607 -1.2935
 9161SOL    HW239120   2.279   1.214  17.521 -2.4825 -2.8503  0.1795
 9162SOL     OW39121   4.049   4.290  10.464  0.5129  0.3615 -0.0348
 9162SOL    HW139122   4.081   4.312  10.552  0.4683  0.0390  0.0641
 9162SOL    HW239123   4.052   4.376  10.423 -2.9215  0.2294 -0.6032
 9163SOL     OW39124   2.144   4.022  13.287  0.5237  0.2869 -0.2951
 9163SOL    HW139125   2.093   3.987  13.215  2.3915  0.6133 -1.7884
 9163SOL    HW239126   2.079   4.013  13.357 -0.9084 -3.3441 -2.1324
 9164SOL     OW39127   0.026   2.603   3.060  0.2796  0.2367  0.1303
 9164SOL    HW139128   0.070   2.683   3.034 -1.2554  0.8740 -0.5092
 9164SOL    HW239129   0.095   2.556   3.106  0.8305 -0.0741 -1.0274
 9165SOL     OW39130   0.071   0.373  13.483  0.2870 -0.5926  0.8761
 9165SOL    HW139131   0.099   0.334  13.566  1.2208  1.1032  1.3687
 9165SOL    HW239132   4.729   0.419  13.509  1.1509  1.2023  0.3667
 9166SOL     OW39133   4.150   4.726  17.104  0.1781  0.3317 -0.4015
 9166SOL    HW139134   4.145   0.064  17.045 -0.8879  1.4577  1.1147
 9166SOL    HW239135   4.074   4.677  17.074  1.2787 -2.9898  2.2089
 9167SOL     OW39136   0.652   1.909  14.075 -0.5697  0.0370 -0.3419
 9167SOL    HW139137   0.679   1.872  14.159 -2.1594  3.7731  1.8606
 9167SOL    HW239138   0.689   1.997  14.086  0.6013 -0.5720  0.4989
 9168SOL     OW39139   0.702   3.756   7.351  0.5225  0.2713  0.5547
 9168SOL    HW139140   0.607   3.756   7.365  0.8348 -0.8489  2.7539
 9168SOL    HW239141   0.701   3.784   7.260 -0.6252 -0.0913  0.4587
 9169SOL     OW39142   0.614   3.197   5.727  0.0194  0.3444  0.7212
 9169SOL    HW139143   0.622   3.255   5.651 -2.9588  0.2514  0.3384
 9169SOL    HW239144   0.672   3.123   5.704  0.0647  0.5026  0.3209
 9170SOL     OW39145   2.603   1.736   2.893  0.2024 -0.0048  0.4300
 9170SOL    HW139146   2.612   1.654   2.845  1.4735 -0.4013  1.3376
 9170SOL    HW239147   2.674   1.721   2.956 -0.5984 -1.9691  0.8756
 9171SOL     OW39148   1.350   4.359  11.163  0.4476 -0.5056 -0.2115
 9171SOL    HW139149   1.284   4.379  11.228  1.4012 -0.8835  0.8815
 9171SOL    HW239150   1.360   4.264  11.176  0.2461 -0.6750 -1.2968
 9172SOL     OW39151   2.301   4.191   3.385  1.2689 -0.5878 -0.1112
 9172SOL    HW139152   2.306   4.191   3.290  4.0553  0.8918  0.0273
 9172SOL    HW239153   2.319   4.101   3.411  1.5153 -0.4982  0.0320
 9173SOL     OW39154   0.415   0.144   7.009 -0.6074 -0.1598  0.6037
 9173SOL    HW139155   0.497   0.177   6.972 -0.0007 -0.9017  1.2913
 9173SOL    HW239156   0.380   0.093   6.935  0.6295 -2.0825  1.3412
 9174SOL     OW39157   4.727   4.644  12.708 -0.3319 -0.4352 -0.9149
 9174SOL    HW139158   4.704   4.557  12.675 -1.5258 -0.9804  1.3300
 9174SOL    HW239159   0.023   4.688  12.630  1.1263 -1.4860 -0.8932
 9175SOL     OW39160   3.774   2.461   5.792  0.2055 -0.0351 -0.0822
 9175SOL    HW139161   3.865   2.468   5.821  0.6701  0.6174 -1.7225
 9175SOL    HW239162   3.772   2.481   5.698  0.6241  1.5875  0.2536
 9176SOL     OW39163   4.691   4.527   2.496  0.7986 -0.3644 -0.8488
 9176SOL    HW139164   4.672   4.576   2.416 -0.5949 -1.4771 -1.1890
 9176SOL    HW239165   4.640   4.579   2.558  0.9421 -1.3860  0.1352
 9177SOL     OW39166   1.992   1.278   1.902  0.1120 -0.1189 -0.4049
 9177SOL    HW139167   1.931   1.350   1.883  1.6710  1.3095 -0.0105
 9177SOL    HW239168   2.043   1.265   1.822 -0.6303  0.8259 -1.0301
 9178SOL     OW39169   4.433   1.750   7.605  0.6393 -0.8561  0.6697
 9178SOL    HW139170   4.410   1.667   7.648 -1.9155 -0.0969  0.7673
 9178SOL    HW239171   4.439   1.804   7.684 -0.9634  2.6742 -1.6421
 9179SOL     OW39172   3.277   1.748   8.677 -0.0778  0.6126  0.3195
 9179SOL    HW139173   3.202   1.801   8.651 -2.5696 -2.8705  0.3821
 9179SOL    HW239174   3.333   1.770   8.603 -0.9246  0.6270 -0.3245
 9180SOL     OW39175   1.906   0.451   4.267  0.3660  0.0751 -0.0013
 9180SOL    HW139176   1.820   0.415   4.246  0.6288  0.0560 -1.0680
 9180SOL    HW239177   1.891   0.468   4.360  1.6948 -0.2477  0.2738
 9181SOL     OW39178   3.415   2.927   2.480  0.1284  0.1547  0.0638
 9181SOL    HW139179   3.443   2.957   2.567  0.8614  0.9451 -0.4493
 9181SOL    HW239180   3.326   2.961   2.478  0.8169  2.2358  4.0529
 9182SOL     OW39181   1.768   2.422  10.279 -0.1405  0.3420  0.2408
 9182SOL    HW139182   1.841   2.409  10.219  0.5395 -0.4964  1.2409
 9182SOL    HW239183   1.810   2.473  10.349 -0.2322  0.0249  0.5246
 9183SOL     OW39184   1.264   1.125  12.196 -0.1278 -0.0171  0.3173
 9183SOL    HW139185   1.263   1.130  12.100 -0.3534  2.3651  0.4470
 9183SOL    HW239186   1.282   1.033  12.215  1.4477  0.3414  0.5181
 9184SOL     OW39187   3.777   4.326   7.556  0.2190  0.1546  0.7731
 9184SOL    HW139188   3.772   4.400   7.496  1.4274 -1.6236 -1.5110
 9184SOL    HW239189   3.697   4.335   7.609  0.5279  1.6105  0.9978
 9185SOL     OW39190   2.902   3.729   6.307  0.0995  0.3136  0.1722
 9185SOL    HW139191   2.984   3.697   6.344 -0.4319 -1.2233  0.0090
 9185SOL    HW239192   2.889   3.667   6.235 -1.6199  0.3476  0.4582
 9186SOL     OW39193   2.814   4.116  14.894 -0.1228 -0.4833  0.0538
 9186SOL    HW139194   2.855   4.035  14.924  2.1560  0.9163  0.6931
 9186SOL    HW239195   2.875   4.139  14.823 -0.2199  1.3680  0.5799
 9187SOL     OW39196   2.066   2.426   5.854 -0.1898 -0.0369 -0.1162
 9187SOL    HW139197   2.025   2.426   5.941  1.2423  2.8135  0.5550
 9187SOL    HW239198   2.150   2.465   5.879 -0.7495  2.5483 -2.3141
 9188SOL     OW39199   0.058   1.060   5.249  0.2177  0.7341 -0.4610
 9188SOL    HW139200   0.091   1.006   5.176 -1.0486 -0.4003 -0.1875
 9188SOL    HW239201   4.729   1.001   5.284  1.4277  0.3959  1.2862
 9189SOL     OW39202   2.214   4.613   7.694 -0.1123 -0.3970 -0.1663
 9189SOL    HW139203   2.170   4.677   7.639 -0.1237  1.9811  2.6000
 9189SOL    HW239204   2.243   4.545   7.633 -0.9157  0.9193 -2.0208
 9190SOL     OW39205   2.669   2.380   8.938 -0.0393  0.1368 -0.0285
 9190SOL    HW139206   2.670   2.390   8.842  0.8503  0.9011  0.0572
 9190SOL    HW239207   2.716   2.298   8.954  2.0587  1.3582  0.0092
 9191SOL     OW39208   4.222   1.235   6.962 -0.8554 -0.3677 -0.2949
 9191SOL    HW139209   4.176   1.263   7.041 -1.7343  0.3604 -1.0512
 9191SOL    HW239210   4.276   1.165   6.999  1.3607  0.5667 -1.7282
 9192SOL     OW39211   0.283   1.345   5.090  0.9395  0.2491  0.4595
 9192SOL    HW139212   0.244   1.403   5.155 -1.0696  1.3643 -1.7593
 9192SOL    HW239213   0.373   1.377   5.097  1.1891 -0.6220  1.1738
 9193SOL     OW39214   0.752   4.334   3.417  0.3064 -0.0095 -0.2341
 9193SOL    HW139215   0.753   4.362   3.508  2.4047 -2.0846  0.3877
 9193SOL    HW239216   0.806   4.402   3.377 -0.0627  0.4167  0.0029
 9194SOL     OW39217   2.338   1.573  14.784 -0.0700 -0.6463 -0.1172
 9194SOL    HW139218   2.398   1.510  14.825 -0.1687  1.4854  3.2303
 9194SOL    HW239219   2.343   1.548  14.691  0.0103  1.3091 -0.6313
 9195SOL     OW39220   4.358   3.556   8.696 -0.7496  0.4525 -0.3428
 9195SOL    HW139221   4.273   3.601   8.688 -1.8179 -1.2380  1.4504
 9195SOL    HW239222   4.391   3.550   8.606  0.9738  2.5929  0.1479
 9196SOL     OW39223   1.230   3.576   9.207  0.5221  0.3143 -0.3392
 9196SOL    HW139224   1.278   3.594   9.287 -0.8511  0.6992  0.4013
 9196SOL    HW239225   1.288   3.509   9.171  0.0739  0.5788 -1.5415
 9197SOL     OW39226   2.063   2.673   4.061  0.2132  0.3067  0.2894
 9197SOL    HW139227   2.105   2.759   4.065 -1.4996  1.1562 -0.0621
 9197SOL    HW239228   1.979   2.687   4.106  1.1037 -0.6444  2.2402
 9198SOL     OW39229   0.594   3.051   5.054 -0.2285  0.3197 -0.2616
 9198SOL    HW139230   0.569   3.142   5.045 -1.9108  0.0747  1.8918
 9198SOL    HW239231   0.581   3.039   5.148  2.0142  1.5834  0.2107
 9199SOL     OW39232   3.575   4.730   5.649 -0.0351 -0.1792 -0.1565
 9199SOL    HW139233   3.578   4.657   5.711 -0.5733  0.1081  0.2062
 9199SOL    HW239234   3.604   0.065   5.704  1.9329 -0.3386 -0.9759
 9200SOL     OW39235   3.175   1.160  16.251  0.0482 -0.2426 -0.2056
 9200SOL    HW139236   3.153   1.075  16.215 -0.1918  0.3678 -1.4864
 9200SOL    HW239237   3.146   1.147  16.342  0.8618 -0.1343  0.0731
 9201SOL     OW39238   2.473   0.260   8.909 -0.4980  0.1340 -0.1136
 9201SOL    HW139239   2.450   0.217   8.991  0.6462  0.9462  0.6403
 9201SOL    HW239240   2.456   0.352   8.931 -0.1880  0.0243  0.5751
 9202SOL     OW39241   0.868   3.000   6.895 -0.8101 -0.0798  0.6019
 9202SOL    HW139242   0.919   3.048   6.960 -1.3183  1.1517  0.0791
 9202SOL    HW239243   0.930   2.980   6.826  0.4467  2.5210  1.0006
 9203SOL     OW39244   3.296   3.237   1.216  0.3313  0.0347 -0.2045
 9203SOL    HW139245   3.283   3.268   1.306 -2.1299 -1.0189 -0.2192
 9203SOL    HW239246   3.392   3.233   1.210  0.3062  1.5381 -1.6928
 9204SOL     OW39247   1.266   3.108   6.408 -0.0102 -0.0170  0.6004
 9204SOL    HW139248   1.318   3.176   6.450  1.2922 -0.5277 -0.2090
 9204SOL    HW239249   1.333   3.040   6.411  1.0653  1.1027  2.1461
 9205SOL     OW39250   0.311   1.204  15.809 -0.0937  0.5558 -0.6010
 9205SOL    HW139251   0.228   1.214  15.763 -1.1969  0.4212  1.3568
 9205SOL    HW239252   0.323   1.282  15.863  0.1629  0.5664 -0.6696
 9206SOL     OW39253   3.159   2.739   4.414  0.4666 -0.0622  0.3969
 9206SOL    HW139254   3.090   2.792   4.455 -0.1391  0.7523 -1.6623
 9206SOL    HW239255   3.132   2.731   4.322 -0.9555 -1.9806  0.9679
 9207SOL     OW39256   3.563   2.399   1.339  0.1347 -0.3554  0.4520
 9207SOL    HW139257   3.657   2.390   1.324 -0.1031 -0.6492 -0.8852
 9207SOL    HW239258   3.542   2.489   1.314 -2.0667 -0.8823  0.4760
 9208SOL     OW39259   3.539   0.173   4.010 -0.1205 -0.1463 -0.2735
 9208SOL    HW139260   3.461   0.117   4.013 -0.5614  0.3717 -2.0013
 9208SOL    HW239261   3.607   0.112   3.982 -0.2273 -0.6235  0.4848
 9209SOL     OW39262   3.888   1.407   5.609  0.6107 -0.0339  0.0021
 9209SOL    HW139263   3.895   1.350   5.685 -0.9596  0.2851  0.3749
 9209SOL    HW239264   3.807   1.374   5.571  1.2633 -1.6777  0.0488
 9210SOL     OW39265   4.718   0.318  17.715 -0.3452  0.0672 -0.1234
 9210SOL    HW139266   4.718   0.393  17.656 -0.9859 -0.6811 -1.0610
 9210SOL    HW239267   4.644   0.338   0.024 -0.1255 -0.9070  0.4957
 9211SOL     OW39268   4.711   1.105   1.846  0.1748  0.4190 -0.2407
 9211SOL    HW139269   4.718   1.141   1.934  0.7130  0.9970 -0.5161
 9211SOL    HW239270   0.032   1.165   1.799  0.2593  0.4412 -0.1079
 9212SOL     OW39271   0.049   2.192   1.410 -0.1312  0.0510  0.2610
 9212SOL    HW139272   0.140   2.193   1.382 -0.9477 -2.8554 -2.6219
 9212SOL    HW239273   0.044   2.103   1.445 -0.9765  0.0725  0.2007
 9213SOL     OW39274   3.058   1.048   3.709 -0.5072  0.4087  0.2017
 9213SOL    HW139275   2.979   1.060   3.658 -0.5050  0.1829  0.1446
 9213SOL    HW239276   3.020   1.027   3.795 -1.1296 -3.0818 -0.9390
 9214SOL     OW39277   4.633   3.580   1.618 -0.1674  0.2676  0.0728
 9214SOL    HW139278   4.702   3.602   1.681  1.9176 -0.4888 -1.9240
 9214SOL    HW239279   4.615   3.673   1.602  0.6046  0.4817  0.4638
 9215SOL     OW39280   0.983   2.183   7.860  0.3553 -0.0336  0.2706
 9215SOL    HW139281   0.915   2.238   7.821  1.2067  1.0893  0.3613
 9215SOL    HW239282   1.015   2.237   7.933 -1.0865 -0.2298  1.0441
 9216SOL     OW39283   1.582   4.737  13.604  0.2572  0.8224  0.6442
 9216SOL    HW139284   1.638   4.694  13.669  0.3612 -0.6879 -0.4425
 9216SOL    HW239285   1.504   0.025  13.654 -0.3665  0.7544 -0.3058
 9217SOL     OW39286   4.030   3.354  11.506 -0.0122 -0.2517 -0.2528
 9217SOL    HW139287   4.115   3.373  11.468 -0.2592  2.2218  0.4121
 9217SOL    HW239288   3.972   3.371  11.431 -1.4767  0.8175  1.1073
 9218SOL     OW39289   0.723   0.278   6.491  0.5501  0.3263  0.2944
 9218SOL    HW139290   0.758   0.267   6.402  0.0730 -1.2328  0.2888
 9218SOL    HW239291   0.751   0.368   6.509  0.3002  0.2711  0.9357
 9219SOL     OW39292   4.340   3.033  15.196 -0.1819  0.3310  0.2397
 9219SOL    HW139293   4.300   2.957  15.153 -0.4862 -0.2393  1.5201
 9219SOL    HW239294   4.432   3.014  15.217  0.2391 -0.6746 -2.4573
 9220SOL     OW39295   3.747   1.872   5.260  0.2031 -0.3724 -0.2361
 9220SOL    HW139296   3.740   1.777   5.261 -1.8332 -0.1969  1.4597
 9220SOL    HW239297   3.837   1.903   5.272 -0.1667 -0.2868  2.3480
 9221SOL     OW39298   0.116   4.250   5.034  0.5121 -0.0847 -0.1797
 9221SOL    HW139299   0.198   4.289   5.005  0.5975  0.2622  0.5491
 9221SOL    HW239300   0.106   4.176   4.974 -1.0114  0.3607 -0.4654
 9222SOL     OW39301   3.506   1.133  12.442 -0.0613  0.7406 -0.0132
 9222SOL    HW139302   3.586   1.168  12.481  0.5556  0.7343 -1.2727
 9222SOL    HW239303   3.540   1.109  12.356  1.1511  2.1717  0.0556
 9223SOL     OW39304   4.270   4.490  10.070  0.0091  0.1962 -0.2852
 9223SOL    HW139305   4.354   4.445  10.080  0.7074  1.4800 -0.2835
 9223SOL    HW239306   4.304   4.570  10.029  0.2920 -1.5699 -3.4248
 9224SOL     OW39307   1.686   3.298   6.161  0.0026 -0.0140  0.2634
 9224SOL    HW139308   1.638   3.300   6.078 -1.1491 -1.8800  0.8707
 9224SOL    HW239309   1.774   3.290   6.125 -0.0035 -0.1048  0.2679
 9225SOL     OW39310   4.459   2.092  15.010  0.3310 -0.4648  0.0496
 9225SOL    HW139311   4.455   2.104  15.105 -2.7530 -0.3167 -0.1078
 9225SOL    HW239312   4.467   1.998  14.994 -0.1113  0.1664 -3.7195
 9226SOL     OW39313   0.171   0.741   9.861  0.5236 -0.0715  0.3216
 9226SOL    HW139314   0.175   0.820   9.806  1.6582 -0.3130  0.0485
 9226SOL    HW239315   0.242   0.760   9.922  1.5324  1.7436 -1.4007
 9227SOL     OW39316   3.662   3.658  14.157 -0.2680 -0.4169 -1.3614
 9227SOL    HW139317   3.680   3.722  14.226  0.7547 -1.5565 -0.5727
 9227SOL    HW239318   3.750   3.623  14.144  0.4062 -0.0603  2.3475
 9228SOL     OW39319   4.235   1.173   5.130 -0.2240 -0.2666 -0.3756
 9228SOL    HW139320   4.323   1.191   5.161 -0.2788  0.5802 -0.7042
 9228SOL    HW239321   4.191   1.218   5.202 -1.6817  0.5832 -1.7949
 9229SOL     OW39322   3.561   4.367   4.049  0.2481  0.0632  0.1918
 9229SOL    HW139323   3.536   4.292   3.995 -1.6759 -0.0719  1.2945
 9229SOL    HW239324   3.650   4.372   4.013 -0.5558  1.8189 -1.5334
 9230SOL     OW39325   0.635   3.232   1.598 -0.3724  0.2415 -0.1915
 9230SOL    HW139326   0.684   3.312   1.618 -0.4600  0.4347 -0.7561
 9230SOL    HW239327   0.707   3.171   1.583 -0.7797 -0.0175 -1.1254
 9231SOL     OW39328   2.816   3.189   6.529 -0.6821  0.0145  0.7258
 9231SOL    HW139329   2.818   3.177   6.624  0.4920  1.4184  0.8813
 9231SOL    HW239330   2.863   3.112   6.498  1.4033  0.5568  2.5357
 9232SOL     OW39331   1.188   3.906   1.964 -0.3970  0.6311 -0.0170
 9232SOL    HW139332   1.106   3.910   1.914 -1.4092 -0.2297  1.5840
 9232SOL    HW239333   1.171   3.932   2.055 -2.1851 -0.4352 -0.0619
 9233SOL     OW39334   3.045   3.395   1.708 -0.0605 -0.1433  0.2012
 9233SOL    HW139335   3.102   3.462   1.747 -0.0429  1.4836 -2.6244
 9233SOL    HW239336   3.006   3.439   1.633  0.8090 -1.8973 -1.2788
 9234SOL     OW39337   4.418   0.788   1.714  0.0243 -0.4830 -0.0828
 9234SOL    HW139338   4.386   0.768   1.802 -2.8357 -0.6524 -1.1765
 9234SOL    HW239339   4.359   0.855   1.680  0.1424 -0.5070 -0.3361
 9235SOL     OW39340   0.009   3.789   3.260  0.8303  0.1875  0.8154
 9235SOL    HW139341   0.047   3.718   3.312  3.3518  1.2428  0.4125
 9235SOL    HW239342   4.708   3.736   3.190 -1.0319  3.1995 -0.4196
 9236SOL     OW39343   4.580   1.251   8.103 -0.1563  0.4111  0.8609
 9236SOL    HW139344   4.524   1.176   8.122 -0.9343  0.7173 -0.2640
 9236SOL    HW239345   4.654   1.235   8.162 -0.7318 -1.7703  0.9699
 9237SOL     OW39346   3.456   3.886  12.705  0.5650 -0.1088  0.5096
 9237SOL    HW139347   3.440   3.813  12.765  0.1749  0.6000  1.2850
 9237SOL    HW239348   3.396   3.943  12.753  0.2177 -0.6577  0.7289
 9238SOL     OW39349   2.402   1.207   5.556 -0.1348  0.5185  0.3817
 9238SOL    HW139350   2.454   1.253   5.621 -0.7280  2.9122 -0.8145
 9238SOL    HW239351   2.378   1.278   5.496  0.0465  0.7143  0.5428
 9239SOL     OW39352   2.884   2.025   5.711  0.0280  0.4728  0.3180
 9239SOL    HW139353   2.794   2.020   5.743 -0.5261  1.0879 -1.1215
 9239SOL    HW239354   2.905   2.110   5.749  1.2820  0.2785  0.0653
 9240SOL     OW39355   2.899   2.483   4.890  0.1410  0.2878  0.6457
 9240SOL    HW139356   2.930   2.411   4.835  1.7648  1.7125 -0.3174
 9240SOL    HW239357   2.872   2.441   4.971  1.8351  0.3961  1.2778
 9241SOL     OW39358   2.607   3.614   2.957  0.0581 -0.1007  0.4266
 9241SOL    HW139359   2.551   3.675   2.909  0.7646  1.1689  1.2160
 9241SOL    HW239360   2.649   3.678   3.015  2.3971 -2.6112  1.4667
 9242SOL     OW39361   0.855   0.338   9.904 -0.0822  0.3394 -0.6103
 9242SOL    HW139362   0.935   0.302   9.941 -0.0616 -0.1217 -1.1109
 9242SOL    HW239363   0.804   0.357   9.984  1.4307 -2.1676  0.9455
 9243SOL     OW39364   4.009   0.015   3.379  0.3504  0.1515  0.6721
 9243SOL    HW139365   4.082   0.075   3.394  0.8838 -0.6050  1.1154
 9243SOL    HW239366   3.955   0.067   3.318  0.9064  0.3614  0.3589
 9244SOL     OW39367   2.150   1.669   0.112  0.2486  0.1591 -0.7007
 9244SOL    HW139368   2.240   1.686   0.142 -0.4330 -1.0796  2.1024
 9244SOL    HW239369   2.120   1.754   0.080  1.3170  0.3020 -1.3134
 9245SOL     OW39370   3.812   1.559   6.582 -0.3791  0.4327  0.5189
 9245SOL    HW139371   3.899   1.584   6.612 -1.3453 -0.2624  3.9235
 9245SOL    HW239372   3.780   1.516   6.662  0.4452 -1.3401 -0.1147
 9246SOL     OW39373   4.038   0.286   4.214  0.5016 -0.6118 -0.3135
 9246SOL    HW139374   4.049   0.196   4.247  0.7775 -0.9241 -1.2587
 9246SOL    HW239375   3.945   0.297   4.235  0.9548  3.2796 -0.4325
 9247SOL     OW39376   0.165   0.584  16.638  0.1941  0.1948 -0.1138
 9247SOL    HW139377   0.108   0.596  16.714 -0.1836 -1.5165 -0.1142
 9247SOL    HW239378   0.250   0.617  16.666  0.0342  1.7431 -1.4999
 9248SOL     OW39379   0.449   3.372   3.351 -0.0982 -0.4754 -0.5428
 9248SOL    HW139380   0.463   3.295   3.406  0.8313 -0.6297 -0.9949
 9248SOL    HW239381   0.415   3.334   3.270 -1.3476  1.3262 -0.8539
 9249SOL     OW39382   1.095   4.585   5.286 -0.1457 -0.0089  0.4186
 9249SOL    HW139383   1.046   4.504   5.272 -1.2389  0.5927  0.7616
 9249SOL    HW239384   1.145   4.590   5.205  0.2329  0.2487  0.6660
 9250SOL     OW39385   2.569   1.882   7.295 -0.6532 -0.1388  0.1215
 9250SOL    HW139386   2.634   1.838   7.350 -0.5603  0.6100  0.6141
 9250SOL    HW239387   2.578   1.974   7.319 -2.2545 -0.2098  0.9932
 9251SOL     OW39388   4.042   4.205   9.695 -0.4952 -0.0981 -0.3331
 9251SOL    HW139389   4.066   4.247   9.778  0.1146  1.6112 -1.3847
 9251SOL    HW239390   4.005   4.277   9.645  0.7875 -0.3110 -1.6048
 9252SOL     OW39391   3.850   3.824   3.302 -0.1758 -0.5760 -0.0447
 9252SOL    HW139392   3.852   3.728   3.297 -2.6466 -0.7841  2.8795
 9252SOL    HW239393   3.941   3.829   3.330 -0.1772 -2.2255  0.2838
 9253SOL     OW39394   1.795   0.878  16.551  0.4044  0.5276  0.3507
 9253SOL    HW139395   1.890   0.877  16.566  0.3768  1.7049  0.5986
 9253SOL    HW239396   1.801   0.821  16.475  1.9455 -0.9066  1.5280
 9254SOL     OW39397   1.743   2.506   4.298  0.3437 -0.4751 -0.2594
 9254SOL    HW139398   1.826   2.545   4.324  1.5300 -2.9809 -0.2990
 9254SOL    HW239399   1.759   2.493   4.205 -0.9246  0.7661 -0.6477
 9255SOL     OW39400   1.286   4.583  14.036  0.5240 -0.5467  0.2189
 9255SOL    HW139401   1.343   4.528  13.982  1.5584 -0.4826  1.2588
 9255SOL    HW239402   1.255   4.536  14.113  0.3730  0.9080  1.0440
 9256SOL     OW39403   0.218   1.786  14.605 -0.0703 -0.2954  0.7271
 9256SOL    HW139404   0.264   1.813  14.526  0.0370 -0.9919  0.5588
 9256SOL    HW239405   0.149   1.852  14.608  0.5564  0.3415  1.6281
 9257SOL     OW39406   2.133   3.753   3.868 -0.6553  0.1839 -0.1564
 9257SOL    HW139407   2.227   3.766   3.857 -1.0089 -0.6441 -4.3945
 9257SOL    HW239408   2.120   3.775   3.960  0.0533 -0.6089  0.1295
 9258SOL     OW39409   2.299   1.482   6.603  0.4516  0.2610  0.2492
 9258SOL    HW139410   2.318   1.407   6.659 -2.3837  1.4356  2.7437
 9258SOL    HW239411   2.387   1.518   6.592  0.1683  0.9229  0.1326
 9259SOL     OW39412   0.813   0.153   0.584 -0.7685 -0.1298 -0.1263
 9259SOL    HW139413   0.858   0.208   0.647 -2.4088  0.4095  0.5622
 9259SOL    HW239414   0.889   0.138   0.528  1.9876  0.4911  3.4665
 9260SOL     OW39415   2.762   1.659   6.969  0.3480 -0.3744 -0.4177
 9260SOL    HW139416   2.750   1.595   6.899 -0.6281  0.0097 -0.6113
 9260SOL    HW239417   2.673   1.690   6.989  0.9054  0.9444 -0.0110
 9261SOL     OW39418   0.042   2.166   5.598 -0.2721 -0.5505  0.2847
 9261SOL    HW139419   0.129   2.166   5.636 -0.4135  0.3124  0.6010
 9261SOL    HW239420   0.035   2.261   5.584  1.2544 -0.6992 -1.6031
 9262SOL     OW39421   3.384   0.210   4.344 -0.1866  0.2825 -0.0294
 9262SOL    HW139422   3.354   0.257   4.266  0.5214  0.1686 -0.3757
 9262SOL    HW239423   3.382   0.276   4.413 -1.1118  0.0092  0.1933
 9263SOL     OW39424   2.188   0.647   8.540  0.4351 -0.0525  0.3964
 9263SOL    HW139425   2.279   0.671   8.559  0.1149  1.4423  0.0597
 9263SOL    HW239426   2.197   0.595   8.460  1.1379 -0.5808  0.8228
 9264SOL     OW39427   2.523   4.204  11.984  0.2398  0.4448  0.2682
 9264SOL    HW139428   2.584   4.273  11.958 -0.3966  1.5720  1.7218
 9264SOL    HW239429   2.478   4.202  11.900  1.3623 -3.9598 -0.1917
 9265SOL     OW39430   1.212   2.382   1.617 -0.4243 -0.2797 -0.7230
 9265SOL    HW139431   1.229   2.442   1.545  1.3579  0.9698  0.7723
 9265SOL    HW239432   1.154   2.319   1.573  0.6595 -1.8845  0.1394
 9266SOL     OW39433   2.376   3.206  10.400 -0.2838 -0.6658  0.0714
 9266SOL    HW139434   2.373   3.114  10.426 -0.0289 -0.9631 -0.9405
 9266SOL    HW239435   2.371   3.259  10.480  0.4912  0.3048 -0.5169
 9267SOL     OW39436   0.021   1.001  10.223 -0.2824  0.1890 -0.0373
 9267SOL    HW139437   0.093   0.947  10.189 -1.0830 -1.9704  1.6685
 9267SOL    HW239438   0.035   0.974  10.314  1.9957 -0.3666 -0.5455
 9268SOL     OW39439   0.004   2.088   7.903 -0.2404  0.4653 -0.3802
 9268SOL    HW139440   0.092   2.082   7.865 -0.1230 -0.2826  0.0127
 9268SOL    HW239441   0.019   2.137   7.985 -0.8966 -1.4153  0.8484
 9269SOL     OW39442   1.955   0.857   8.859 -0.1703  0.0955 -0.1052
 9269SOL    HW139443   2.013   0.875   8.933 -1.0024 -1.1403  0.8433
 9269SOL    HW239444   1.884   0.919   8.874  0.6663  0.3692  2.7224
 9270SOL     OW39445   0.286   3.205   6.151  0.5209 -0.1817  0.1352
 9270SOL    HW139446   0.222   3.276   6.145  0.9288 -0.0496 -2.8581
 9270SOL    HW239447   0.237   3.130   6.118  0.5645  0.1872 -0.7693
 9271SOL     OW39448   2.631   3.890  11.138  0.4763  0.8492  0.7110
 9271SOL    HW139449   2.633   3.820  11.203 -0.1873 -1.9108 -2.2325
 9271SOL    HW239450   2.720   3.875  11.105  0.0867  2.4388 -1.0381
 9272SOL     OW39451   1.658   0.270  16.623 -0.3201 -0.7249 -0.1798
 9272SOL    HW139452   1.726   0.265  16.690  0.0264  1.2576 -0.3654
 9272SOL    HW239453   1.722   0.286  16.554 -0.0040 -1.7585 -0.1172
 9273SOL     OW39454   1.123   4.529   4.480 -0.7738  0.2268  0.1817
 9273SOL    HW139455   1.094   4.487   4.561  0.5671  0.6827  0.9156
 9273SOL    HW239456   1.040   4.570   4.457 -0.4612  0.1124 -1.1316
 9274SOL     OW39457   2.465   2.164   5.716  0.0470 -0.3932  0.1821
 9274SOL    HW139458   2.459   2.090   5.656  1.6929  0.2796 -0.8095
 9274SOL    HW239459   2.426   2.236   5.666 -1.7541 -1.4997  0.0017
 9275SOL     OW39460   4.015   3.971   4.472  0.2451 -0.1339 -0.1483
 9275SOL    HW139461   4.088   3.915   4.496  0.3841  0.2429  0.3117
 9275SOL    HW239462   4.051   4.030   4.406 -1.1413  1.1281  0.2060
 9276SOL     OW39463   2.689   3.100   1.837  0.1170  0.2386  0.6286
 9276SOL    HW139464   2.684   3.070   1.928 -0.2434  0.5758  0.7179
 9276SOL    HW239465   2.618   3.045   1.803 -0.4296 -0.7913  3.4874
 9277SOL     OW39466   3.848   3.175  10.201  0.0454 -0.2084  0.7420
 9277SOL    HW139467   3.872   3.096  10.153 -3.1891 -0.1211 -1.0772
 9277SOL    HW239468   3.787   3.136  10.264 -0.0423  1.1620  1.5133
 9278SOL     OW39469   1.160   3.101  14.065 -0.0159 -0.8640 -0.6756
 9278SOL    HW139470   1.177   3.092  14.159  0.0240  0.4072 -0.5550
 9278SOL    HW239471   1.074   3.143  14.065  0.3558 -0.1374  3.3411
 9279SOL     OW39472   1.718   3.040   5.786  0.4495 -0.6023 -0.3155
 9279SOL    HW139473   1.629   3.044   5.751  0.1845  1.6482  0.6669
 9279SOL    HW239474   1.728   3.133   5.805  2.3472 -0.4867 -1.8844
 9280SOL     OW39475   2.797   2.156  16.683 -0.5506 -0.1854  0.0377
 9280SOL    HW139476   2.817   2.140  16.774  0.0797  1.4146  0.1816
 9280SOL    HW239477   2.720   2.100  16.676  1.2205 -2.3315 -2.2061
 9281SOL     OW39478   3.801   4.347   3.936 -0.2262  0.5076 -0.0595
 9281SOL    HW139479   3.816   4.341   3.841  2.1711 -1.0783  0.4254
 9281SOL    HW239480   3.848   4.428   3.955  0.6039 -0.0444  0.2505
 9282SOL     OW39481   0.672   1.874  12.866  0.2808  0.1852 -0.7128
 9282SOL    HW139482   0.755   1.919  12.884  0.0712  0.1020  0.4237
 9282SOL    HW239483   0.645   1.850  12.954  0.6851 -4.4116 -1.8080
 9283SOL     OW39484   4.108   3.307   4.412 -0.8268 -0.4610  0.1565
 9283SOL    HW139485   4.193   3.266   4.432 -0.6107 -0.3219 -0.4734
 9283SOL    HW239486   4.050   3.231   4.402 -0.5182 -0.7588  0.6370
 9284SOL     OW39487   0.070   1.357   1.381  0.5544 -0.2857  0.0956
 9284SOL    HW139488   0.045   1.449   1.369  1.6565 -0.1637 -1.2848
 9284SOL    HW239489   0.082   1.323   1.292 -2.7946 -1.5318  0.1267
 9285SOL     OW39490   4.648   3.072  12.653 -0.3489  0.1672 -0.3957
 9285SOL    HW139491   4.624   2.979  12.662 -2.1355  0.5879 -0.8108
 9285SOL    HW239492   4.567   3.104  12.613 -1.0716 -1.5925 -0.3632
 9286SOL     OW39493   1.969   4.568   3.962  0.5061 -0.2374  0.1966
 9286SOL    HW139494   2.063   4.587   3.956  0.6896 -0.8015  1.2512
 9286SOL    HW239495   1.946   4.603   4.049 -1.3705  0.5393 -0.6121
 9287SOL     OW39496   3.153   0.934  13.142 -0.2334  0.5507 -0.7995
 9287SOL    HW139497   3.184   0.844  13.130 -2.8400 -0.4738  0.1366
 9287SOL    HW239498   3.062   0.916  13.166  0.2589 -0.6499  0.1476
 9288SOL     OW39499   2.930   1.100   4.466 -0.3936  0.0624 -0.3078
 9288SOL    HW139500   2.992   1.172   4.482 -0.7066  0.1255  0.6680
 9288SOL    HW239501   2.986   1.023   4.459 -0.8623 -0.4788  1.6896
 9289SOL     OW39502   0.101   2.817   8.217  0.4021  0.0542  0.3172
 9289SOL    HW139503   0.091   2.765   8.137  0.3141 -0.4617  0.6677
 9289SOL    HW239504   0.142   2.754   8.276 -0.9108  0.6305  1.8357
 9290SOL     OW39505   2.370   2.586   7.649  0.1595  0.0880 -0.1178
 9290SOL    HW139506   2.394   2.542   7.568 -0.0318  0.0092 -0.1309
 9290SOL    HW239507   2.318   2.522   7.698  1.6729 -0.9470  0.1346
 9291SOL     OW39508   3.530   2.270  15.336 -0.1402 -0.0169 -0.2259
 9291SOL    HW139509   3.613   2.271  15.383 -0.1643 -0.1433 -0.1812
 9291SOL    HW239510   3.547   2.308  15.250  2.4168  1.0291  0.7306
 9292SOL     OW39511   4.415   2.907  10.993 -0.2645 -0.1173 -0.3116
 9292SOL    HW139512   4.407   2.941  11.083  0.5606 -2.4757  0.6581
 9292SOL    HW239513   4.509   2.915  10.980 -0.1101 -0.7234  0.4249
 9293SOL     OW39514   1.848   3.485  17.711 -0.8609 -0.1708 -0.0809
 9293SOL    HW139515   1.794   3.410  17.686  0.5587 -0.8394 -1.1912
 9293SOL    HW239516   1.890   3.438   0.036  0.4530 -0.6993 -1.1684
 9294SOL     OW39517   3.369   2.014   6.036 -0.1055 -0.0883 -0.5378
 9294SOL    HW139518   3.391   1.952   5.966 -3.2443 -0.3304 -1.3302
 9294SOL    HW239519   3.273   2.009   6.036 -0.0879 -0.1989  1.5203
 9295SOL     OW39520   1.910   0.528  13.836 -0.3629  0.3255 -0.4887
 9295SOL    HW139521   1.860   0.462  13.788 -0.2293 -1.5641  1.9827
 9295SOL    HW239522   1.877   0.524  13.926 -0.3000 -1.0943 -0.5253
 9296SOL     OW39523   3.874   0.455   8.934 -0.7835  0.2366  0.5981
 9296SOL    HW139524   3.962   0.469   8.970  0.5165 -2.1696 -1.6581
 9296SOL    HW239525   3.883   0.361   8.925 -1.6849  0.2334 -0.1716
 9297SOL     OW39526   0.630   1.208   4.235  0.1168  0.2591  0.3077
 9297SOL    HW139527   0.582   1.253   4.166  0.5054 -1.5210 -1.1114
 9297SOL    HW239528   0.629   1.276   4.303 -1.1454 -0.2320  0.7646
 9298SOL     OW39529   0.241   3.294   8.969 -0.5917  0.2901 -0.3504
 9298SOL    HW139530   0.241   3.387   8.991  1.0547  0.3312 -0.5373
 9298SOL    HW239531   0.280   3.300   8.882 -1.1555 -3.3353 -0.8588
 9299SOL     OW39532   2.842   4.171   1.110  0.4037 -0.2567 -0.0801
 9299SOL    HW139533   2.747   4.177   1.119  0.5693 -1.1703  2.3507
 9299SOL    HW239534   2.864   4.083   1.143  0.9826 -1.0770 -2.5874
 9300SOL     OW39535   0.439   4.198  11.345  0.0863  0.3479  0.1924
 9300SOL    HW139536   0.348   4.176  11.328 -0.7447  3.4754  0.5808
 9300SOL    HW239537   0.461   4.259  11.275  1.5773 -1.8996 -1.3026
 9301SOL     OW39538   2.136   1.033   2.277 -0.4300  0.1410  0.2393
 9301SOL    HW139539   2.142   1.099   2.208  0.4557  2.0463  2.1532
 9301SOL    HW239540   2.088   1.082   2.344  0.9574 -1.2936  2.2891
 9302SOL     OW39541   4.267   2.273   6.333  0.0823  0.1899  0.3377
 9302SOL    HW139542   4.324   2.349   6.326 -0.7984  0.8777  0.6940
 9302SOL    HW239543   4.236   2.287   6.422 -1.3478 -0.4247 -0.0762
 9303SOL     OW39544   2.280   3.723   8.804  0.4817  0.2959  0.4736
 9303SOL    HW139545   2.211   3.711   8.738 -2.3843  2.8570  2.9774
 9303SOL    HW239546   2.246   3.807   8.835  0.5140  0.9803 -1.3401
 9304SOL     OW39547   4.356   3.377  15.189  1.3256  0.0135  0.2057
 9304SOL    HW139548   4.261   3.379  15.182  1.6224  0.8406 -3.6897
 9304SOL    HW239549   4.377   3.447  15.252  0.4029  0.6347 -0.1751
 9305SOL     OW39550   1.071   2.898   6.395 -0.0646  0.3233  0.3141
 9305SOL    HW139551   0.989   2.920   6.439 -0.3208  0.5834 -0.2937
 9305SOL    HW239552   1.125   2.972   6.423 -1.8479  2.6722 -2.4109
 9306SOL     OW39553   4.165   2.090   2.858 -0.6524 -0.0502  0.4040
 9306SOL    HW139554   4.116   2.143   2.920  0.5158  1.3094  0.1623
 9306SOL    HW239555   4.100   2.070   2.790  0.7600  1.7566 -1.4565
 9307SOL     OW39556   3.820   0.328   0.446  0.0094 -0.1640  0.1960
 9307SOL    HW139557   3.806   0.266   0.517 -0.6469  0.4804  0.6286
 9307SOL    HW239558   3.743   0.316   0.390 -1.5333  3.3666  1.5699
 9308SOL     OW39559   0.463   0.609   8.116  0.6181  0.5136 -0.1469
 9308SOL    HW139560   0.382   0.650   8.145  0.3824  1.6083 -2.3957
 9308SOL    HW239561   0.499   0.580   8.200  0.7499  2.5634  0.4952
 9309SOL     OW39562   3.754   3.265   5.525 -0.0653 -0.2645  0.1366
 9309SOL    HW139563   3.725   3.350   5.491 -3.4172 -0.8569  1.4313
 9309SOL    HW239564   3.788   3.298   5.608  0.4589  0.4830 -0.3773
 9310SOL     OW39565   1.472   1.149   4.175 -0.2823 -0.1874  0.5524
 9310SOL    HW139566   1.509   1.173   4.090 -2.2677  1.3365  0.1257
 9310SOL    HW239567   1.473   1.232   4.224 -1.7147  0.0113  0.2497
 9311SOL     OW39568   3.021   1.329  14.225 -0.1360  0.6032  0.1623
 9311SOL    HW139569   3.007   1.374  14.142 -3.1962  0.1595  0.4384
 9311SOL    HW239570   3.050   1.408  14.271  1.0841  0.1360  0.2067
 9312SOL     OW39571   4.458   2.271   2.584 -0.3930  0.1208 -0.5198
 9312SOL    HW139572   4.394   2.218   2.536 -2.4833 -0.9469  3.4434
 9312SOL    HW239573   4.398   2.307   2.649 -1.3561 -1.6884 -0.3879
 9313SOL     OW39574   1.971   2.142   9.843  0.1556  0.0122  0.2718
 9313SOL    HW139575   2.059   2.156   9.809  0.5276 -0.5983  0.9803
 9313SOL    HW239576   1.988   2.081   9.915 -0.7588  0.9771  1.3236
 9314SOL     OW39577   2.869   2.754   5.786 -0.0412  0.7834  0.0643
 9314SOL    HW139578   2.841   2.734   5.876 -0.4003  0.6618 -0.0745
 9314SOL    HW239579   2.832   2.842   5.774  0.7633  1.4164  2.0729
 9315SOL     OW39580   4.237   0.977   6.233 -0.5058 -0.1306  0.5438
 9315SOL    HW139581   4.192   0.912   6.288  2.6793 -0.9663  2.1969
 9315SOL    HW239582   4.177   1.051   6.229 -1.5171 -1.0480 -0.9603
 9316SOL     OW39583   2.393   2.293   0.925  0.3026 -0.1933 -0.9145
 9316SOL    HW139584   2.452   2.368   0.934  1.6056 -1.4922  1.2501
 9316SOL    HW239585   2.335   2.317   0.997  1.8291 -0.7274  0.4657
 9317SOL     OW39586   3.095   1.125  16.492  0.4136 -0.5384  0.0555
 9317SOL    HW139587   3.014   1.160  16.528  0.4656 -1.0790  0.7109
 9317SOL    HW239588   3.109   1.050  16.550 -0.4815  0.9114  2.1497
 9318SOL     OW39589   3.658   4.283  11.285 -0.2094 -0.1767 -0.2655
 9318SOL    HW139590   3.657   4.192  11.255 -1.7439  0.0749 -0.9848
 9318SOL    HW239591   3.581   4.281  11.341 -1.1940  1.2978 -1.5884
 9319SOL     OW39592   3.970   1.083   7.868  0.2517  0.4095 -0.3571
 9319SOL    HW139593   4.056   1.071   7.908  0.5246  0.8775 -0.8086
 9319SOL    HW239594   3.922   1.110   7.946 -0.8512 -1.2220 -0.4571
 9320SOL     OW39595   4.040   1.634   5.546 -0.1449 -0.1508 -0.0975
 9320SOL    HW139596   3.989   1.564   5.587 -2.3659  1.1175 -0.6455
 9320SOL    HW239597   3.984   1.712   5.553 -0.7173 -0.3716 -2.2303
 9321SOL     OW39598   3.082   0.563   2.858  0.0484  0.0881  0.6266
 9321SOL    HW139599   3.094   0.560   2.953 -2.0040 -2.4514  0.8049
 9321SOL    HW239600   3.093   0.656   2.842  1.3535 -0.3525 -0.9740
 9322SOL     OW39601   2.879   0.182  16.013 -0.0304 -0.4176 -0.4143
 9322SOL    HW139602   2.922   0.242  16.073 -0.0922 -2.3974  1.6095
 9322SOL    HW239603   2.939   0.109  16.026  0.1697  0.0646  1.2600
 9323SOL     OW39604   3.067   0.390   5.393  0.4810 -0.0332 -0.0440
 9323SOL    HW139605   3.099   0.456   5.330 -0.7271  0.9883  0.4167
 9323SOL    HW239606   3.006   0.344   5.335  1.7720 -0.1141 -1.3653
 9324SOL     OW39607   0.520   0.729  16.321 -0.1947  0.6043  0.0399
 9324SOL    HW139608   0.529   0.820  16.295 -0.2993  0.0045 -2.1236
 9324SOL    HW239609   0.593   0.713  16.380 -0.4118  2.0420  0.6947
 9325SOL     OW39610   0.410   3.068  16.994  0.2525  0.3318 -0.0884
 9325SOL    HW139611   0.433   2.979  17.019  1.3539  0.2974 -1.2261
 9325SOL    HW239612   0.319   3.071  17.022 -0.0653 -2.3622 -0.8720
 9326SOL     OW39613   0.169   3.655   4.393 -0.2146 -0.4345  0.4613
 9326SOL    HW139614   0.206   3.691   4.313  0.9692 -3.0191 -0.1494
 9326SOL    HW239615   0.076   3.672   4.378  0.0197  0.2038 -0.2992
 9327SOL     OW39616   4.142   0.973  16.871 -0.5138  0.0085 -0.3789
 9327SOL    HW139617   4.220   1.012  16.832  0.0049 -0.0222  0.6478
 9327SOL    HW239618   4.106   1.053  16.909 -0.3617  0.5276 -1.3162
 9328SOL     OW39619   4.575   4.321   8.420  0.2284 -0.0951  0.1244
 9328SOL    HW139620   4.631   4.303   8.344 -1.8108  1.7479 -1.8234
 9328SOL    HW239621   4.588   4.240   8.468 -1.3058  0.4563  1.4700
 9329SOL     OW39622   3.982   2.780  15.439 -0.2079  0.3290 -0.5503
 9329SOL    HW139623   4.025   2.819  15.362  0.3940  1.5984  0.4294
 9329SOL    HW239624   4.057   2.791  15.496 -1.1751  4.9646 -0.1627
 9330SOL     OW39625   0.437   0.557   5.955 -0.1501  0.6184  0.2096
 9330SOL    HW139626   0.352   0.565   5.998 -1.1078 -1.4337 -1.3421
 9330SOL    HW239627   0.417   0.541   5.863 -0.2709 -0.2509  0.3840
 9331SOL     OW39628   2.552   2.617   1.418 -1.1687  0.1748 -0.1238
 9331SOL    HW139629   2.575   2.682   1.484 -0.1379 -1.8427  1.4938
 9331SOL    HW239630   2.588   2.536   1.453 -0.8444  0.8487  1.0672
 9332SOL     OW39631   2.840   2.334   2.655 -0.3332 -0.1311 -0.0133
 9332SOL    HW139632   2.935   2.323   2.645 -0.5851 -2.9074  0.7971
 9332SOL    HW239633   2.824   2.323   2.748 -0.9699 -1.6849 -0.3001
 9333SOL     OW39634   3.459   3.086   5.856 -0.0337  0.0014 -0.3729
 9333SOL    HW139635   3.525   3.155   5.857 -0.9506  0.8829 -0.4471
 9333SOL    HW239636   3.513   3.008   5.869  1.0265  0.7185 -0.5504
 9334SOL     OW39637   3.485   0.772   3.152 -0.2631 -0.2108 -0.2742
 9334SOL    HW139638   3.515   0.851   3.198  0.6237 -0.1540 -0.9562
 9334SOL    HW239639   3.391   0.779   3.166 -0.2142 -1.0812  0.5443
 9335SOL     OW39640   0.259   2.499  15.896 -0.1648  0.0182  0.0723
 9335SOL    HW139641   0.229   2.590  15.891  0.2322  0.1011 -0.8572
 9335SOL    HW239642   0.289   2.488  15.986 -1.2977  0.5468  0.5147
 9336SOL     OW39643   0.527   4.007  17.502  0.5317 -0.2179 -0.4274
 9336SOL    HW139644   0.519   3.912  17.500  3.3070 -0.4779  0.0926
 9336SOL    HW239645   0.622   4.011  17.515  0.1620  1.7190  1.5289
 9337SOL     OW39646   0.780   0.919   3.892  0.0172 -0.3270 -0.1378
 9337SOL    HW139647   0.855   0.918   3.952 -1.5850  1.5820  1.8987
 9337SOL    HW239648   0.740   0.840   3.929 -1.4765  1.1217  1.3474
 9338SOL     OW39649   4.076   1.823  15.694  0.5428 -0.4473  0.1614
 9338SOL    HW139650   4.076   1.765  15.770  3.6066  0.4286  0.8472
 9338SOL    HW239651   4.011   1.883  15.731  0.8235  1.3269 -2.2321
 9339SOL     OW39652   2.034   3.145   7.430  0.5875  0.2522 -0.1950
 9339SOL    HW139653   2.108   3.111   7.380 -0.7114 -1.4349 -0.9633
 9339SOL    HW239654   2.075   3.177   7.510  1.3924 -0.3607 -0.3676
 9340SOL     OW39655   0.927   3.576  15.326 -0.6410  0.2131 -0.1134
 9340SOL    HW139656   0.885   3.658  15.299 -1.1223 -0.3046 -0.9333
 9340SOL    HW239657   0.980   3.605  15.400 -1.0512 -1.3897  0.8128
 9341SOL     OW39658   1.752   3.787   6.104  0.4879  0.5242  0.3250
 9341SOL    HW139659   1.739   3.720   6.171 -0.7801 -0.8315 -1.2653
 9341SOL    HW239660   1.748   3.868   6.155  4.2329  1.1152 -0.3261
 9342SOL     OW39661   3.778   0.495   5.501 -0.5926  0.3550  0.1115
 9342SOL    HW139662   3.712   0.471   5.566 -0.9809  1.5372  0.1488
 9342SOL    HW239663   3.859   0.509   5.549 -0.7939 -1.3866  0.9701
 9343SOL     OW39664   0.348   3.782   3.761 -0.4480 -0.6332 -0.8238
 9343SOL    HW139665   0.341   3.699   3.713  0.1611 -0.6617 -0.8661
 9343SOL    HW239666   0.317   3.845   3.697  1.4116  1.0683 -0.0683
 9344SOL     OW39667   3.116   4.002   6.582  0.2675  0.3879 -0.3488
 9344SOL    HW139668   3.030   4.020   6.546  0.2027 -0.7029 -0.7616
 9344SOL    HW239669   3.165   4.082   6.566  0.9887 -0.0598 -0.3915
 9345SOL     OW39670   4.562   1.149  10.169  0.0995 -0.1407  0.2892
 9345SOL    HW139671   4.641   1.104  10.199 -0.2717 -0.8191  0.2482
 9345SOL    HW239672   4.584   1.158  10.077  0.7539 -0.9355  0.3642
 9346SOL     OW39673   2.625   2.944   6.465 -0.1345 -0.2536 -0.2444
 9346SOL    HW139674   2.620   2.950   6.370 -2.4646  1.8207  0.0114
 9346SOL    HW239675   2.718   2.965   6.476  0.4934 -2.7972 -0.6470
 9347SOL     OW39676   4.089   0.774   6.332  0.5288  0.0560  0.0329
 9347SOL    HW139677   4.133   0.715   6.271 -0.1144 -0.1925 -0.1965
 9347SOL    HW239678   4.075   0.727   6.414 -1.4358  2.1930  0.9306
 9348SOL     OW39679   3.816   3.742  12.806  0.2882  0.3233 -0.1209
 9348SOL    HW139680   3.864   3.694  12.738 -0.2335 -0.3326 -0.0311
 9348SOL    HW239681   3.823   3.680  12.878 -1.1679  0.8871  0.5010
 9349SOL     OW39682   1.070   3.249  14.614 -0.3328  0.4743 -0.0042
 9349SOL    HW139683   1.060   3.176  14.553 -0.7780 -0.7374  1.4947
 9349SOL    HW239684   1.095   3.324  14.561 -2.8233  0.5671 -1.0175
 9350SOL     OW39685   2.438   1.626   3.603 -0.1897  0.3099 -0.2180
 9350SOL    HW139686   2.466   1.556   3.662 -0.9378  0.4285  0.2787
 9350SOL    HW239687   2.475   1.702   3.648 -1.4328  0.5991  0.3266
 9351SOL     OW39688   2.666   3.107   3.739 -0.7747  0.2010 -0.3728
 9351SOL    HW139689   2.742   3.091   3.794 -1.3948  2.8737  1.2474
 9351SOL    HW239690   2.615   3.035   3.777  0.8358 -1.4834 -1.4591
 9352SOL     OW39691   2.385   1.227  14.066 -0.0360  0.4063 -0.0810
 9352SOL    HW139692   2.353   1.183  13.987  0.1420 -0.5246  0.3633
 9352SOL    HW239693   2.341   1.311  14.081  0.0524  0.7064 -1.5251
 9353SOL     OW39694   1.344   4.273   7.621  0.1147  0.3368 -0.8528
 9353SOL    HW139695   1.439   4.281   7.631 -0.1325 -1.6983  3.1079
 9353SOL    HW239696   1.336   4.352   7.567  1.9667  0.8950 -0.3183
 9354SOL     OW39697   2.790   0.395   7.987  0.9075  0.2414  0.1971
 9354SOL    HW139698   2.714   0.413   7.932  0.3446  1.5457  1.4081
 9354SOL    HW239699   2.741   0.354   8.059  2.8766 -1.8411  0.3614
 9355SOL     OW39700   2.682   1.150  10.901 -0.9547  0.0460  0.1962
 9355SOL    HW139701   2.738   1.077  10.876  0.3011  0.6183  1.3364
 9355SOL    HW239702   2.731   1.228  10.872 -3.1497  1.5633  0.5823
 9356SOL     OW39703   2.006   1.884  14.789  0.1406  0.2549 -0.7421
 9356SOL    HW139704   2.098   1.907  14.803 -0.3388  0.0364  2.8878
 9356SOL    HW239705   2.014   1.788  14.789 -0.1736  0.2317 -0.1637
 9357SOL     OW39706   4.504   0.151   6.711 -0.6234 -0.0197 -0.3625
 9357SOL    HW139707   4.411   0.156   6.731 -0.6253 -0.4675 -0.2618
 9357SOL    HW239708   4.510   0.058   6.689  2.4687 -0.2588  1.3351
 9358SOL     OW39709   3.233   0.488   8.453 -0.5054 -0.0575  0.0105
 9358SOL    HW139710   3.293   0.539   8.398 -2.4811  0.2682 -1.8578
 9358SOL    HW239711   3.294   0.430   8.499  1.6365  0.5557 -2.0926
 9359SOL     OW39712   4.118   0.041  10.070  0.1026  0.0203 -0.1422
 9359SOL    HW139713   4.046   0.068  10.127  0.9082 -0.1882  0.9706
 9359SOL    HW239714   4.184   0.043  10.139 -0.1232 -0.2269  0.0790
 9360SOL     OW39715   2.647   3.182  11.859  0.6818 -0.0794  0.2359
 9360SOL    HW139716   2.725   3.236  11.850  0.6062 -0.0676 -0.3144
 9360SOL    HW239717   2.693   3.098  11.855 -0.7020 -0.7472 -1.6896
 9361SOL     OW39718   0.319   1.072   4.252  0.4855  0.2704  0.0303
 9361SOL    HW139719   0.373   1.054   4.329  0.7107  1.7727  0.2224
 9361SOL    HW239720   0.324   0.992   4.200  0.3727 -0.0122  0.4582
 9362SOL     OW39721   3.855   4.196  12.320 -0.0244 -0.6842  0.2079
 9362SOL    HW139722   3.789   4.225  12.383  1.4063  1.7768  0.5707
 9362SOL    HW239723   3.935   4.230  12.361  0.4859 -0.3906 -1.0471
 9363SOL     OW39724   2.039   2.158  15.627 -0.0670  0.4513 -0.4019
 9363SOL    HW139725   2.114   2.179  15.571 -1.5623 -1.2292 -3.0375
 9363SOL    HW239726   2.055   2.064  15.639 -1.1597  0.2552 -0.4477
 9364SOL     OW39727   3.918   3.426   7.682  0.0900  0.0886 -0.7010
 9364SOL    HW139728   3.829   3.447   7.653  0.3361  1.9890 -0.0191
 9364SOL    HW239729   3.902   3.345   7.731  1.0563 -0.5571 -1.4638
 9365SOL     OW39730   2.047   3.089   6.932  0.1720  0.1109 -0.3974
 9365SOL    HW139731   2.052   3.010   6.878  0.9779 -0.4862  0.5457
 9365SOL    HW239732   2.136   3.122   6.921  0.7115 -1.2660 -0.1402
 9366SOL     OW39733   4.086   1.807   1.631 -0.4888 -0.4181 -0.1819
 9366SOL    HW139734   4.006   1.852   1.656  0.0915  1.0359 -0.9428
 9366SOL    HW239735   4.054   1.721   1.603  2.5153 -0.8694 -2.2948
 9367SOL     OW39736   4.551   1.854  12.965  0.4273  0.1193 -0.8382
 9367SOL    HW139737   4.506   1.933  12.935  0.8825  0.9886  0.7734
 9367SOL    HW239738   4.515   1.802  12.893  1.8972 -1.8415 -0.1478
 9368SOL     OW39739   2.975   4.042  16.360  0.2622 -0.0455  0.1687
 9368SOL    HW139740   2.895   3.995  16.382 -1.5434  2.2661 -1.3551
 9368SOL    HW239741   2.950   4.133  16.378  0.0478  0.1230 -0.9364
 9369SOL     OW39742   3.705   2.726   1.970  0.4615  0.8977 -0.6384
 9369SOL    HW139743   3.762   2.769   2.034 -1.9082  0.6691  1.6133
 9369SOL    HW239744   3.652   2.680   2.035 -1.1103  2.3648 -0.8949
 9370SOL     OW39745   1.327   2.683  17.495 -0.5616  0.5912  0.3765
 9370SOL    HW139746   1.376   2.757  17.531 -0.9314  0.7029  0.6514
 9370SOL    HW239747   1.364   2.684  17.407 -1.1489 -1.5182  0.0885
 9371SOL     OW39748   1.369   2.978  10.471  0.1208  0.2633  0.3502
 9371SOL    HW139749   1.390   2.895  10.514  0.2273 -1.0589 -2.2722
 9371SOL    HW239750   1.397   3.023  10.551  0.8840 -1.1389  0.8655
 9372SOL     OW39751   1.046   1.174   4.463  0.6030  0.2448  0.4154
 9372SOL    HW139752   1.129   1.219   4.443 -0.0105 -0.3139 -3.3430
 9372SOL    HW239753   1.021   1.132   4.380  0.0481  0.5921  0.4062
 9373SOL     OW39754   2.068   3.582  10.250  0.3535  0.3461 -0.8630
 9373SOL    HW139755   2.144   3.526  10.240  0.4574  0.8036 -2.6413
 9373SOL    HW239756   2.077   3.621  10.163 -0.9281 -0.8574 -1.5446
 9374SOL     OW39757   1.048   2.233   5.779  0.7972 -0.1949  0.2391
 9374SOL    HW139758   0.993   2.294   5.828  1.4778 -0.0649  0.8443
 9374SOL    HW239759   1.128   2.284   5.774 -1.0321  2.5670 -1.0212
 9375SOL     OW39760   4.681   2.826  12.939  0.1310 -0.2042 -0.4512
 9375SOL    HW139761   0.029   2.792  12.911 -0.1328 -1.4283  0.2391
 9375SOL    HW239762   4.615   2.757  12.946  0.1239 -0.2650 -1.1116
 9376SOL     OW39763   3.147   3.189   4.626  0.0376  0.2325  0.1570
 9376SOL    HW139764   3.106   3.242   4.558 -2.7428 -2.1108  0.0285
 9376SOL    HW239765   3.230   3.177   4.579 -0.6853 -2.7756 -0.2907
 9377SOL     OW39766   2.112   0.810  15.633 -0.4071 -0.0359  0.0408
 9377SOL    HW139767   2.114   0.716  15.649 -0.3510 -0.0897 -0.2759
 9377SOL    HW239768   2.180   0.840  15.693  0.0741 -1.4103  0.1722
 9378SOL     OW39769   4.593   0.796   5.411  0.6446  0.4120  0.0935
 9378SOL    HW139770   4.663   0.731   5.408 -0.0152 -0.1709 -3.0610
 9378SOL    HW239771   4.637   0.870   5.452 -0.9519 -0.2515  3.0035
 9379SOL     OW39772   4.695   1.567   7.065 -0.1838 -0.2278 -0.7889
 9379SOL    HW139773   4.708   1.649   7.113  0.2308 -2.4456  2.9282
 9379SOL    HW239774   4.655   1.517   7.137 -0.9289  0.5614 -0.6441
 9380SOL     OW39775   0.358   2.493  16.867 -0.5175  0.4871 -0.0313
 9380SOL    HW139776   0.307   2.502  16.946  1.5498 -1.5179  1.5550
 9380SOL    HW239777   0.313   2.566  16.825 -0.9048  0.1710 -0.1623
 9381SOL     OW39778   2.664   0.252  14.904 -0.1725  0.1674 -0.3610
 9381SOL    HW139779   2.596   0.315  14.927 -0.7899 -0.7970  0.4680
 9381SOL    HW239780   2.603   0.185  14.871 -1.3988  0.6090  0.9947
 9382SOL     OW39781   3.744   0.179   5.479  0.1743  0.7136 -0.5277
 9382SOL    HW139782   3.778   0.265   5.504 -0.4762  0.8548 -0.1297
 9382SOL    HW239783   3.759   0.141   5.565  2.7696  1.4486 -0.6440
 9383SOL     OW39784   0.801   1.288   2.557  0.2290 -0.7713  0.4687
 9383SOL    HW139785   0.888   1.309   2.592 -0.3882  0.0951  1.4864
 9383SOL    HW239786   0.765   1.377   2.557  1.0926 -0.4029  4.5654
 9384SOL     OW39787   0.415   0.012   5.645  0.2702 -0.3291  0.0550
 9384SOL    HW139788   0.337   0.041   5.693  1.8408  0.4619  2.1478
 9384SOL    HW239789   0.444   4.674   5.696 -0.7920 -0.3112  0.6773
 9385SOL     OW39790   2.100   1.655  14.266  0.2718 -0.8622  0.6076
 9385SOL    HW139791   2.037   1.633  14.198 -0.9471 -0.7763  1.7224
 9385SOL    HW239792   2.066   1.740  14.295  0.1527 -1.4230  2.0735
 9386SOL     OW39793   3.722   2.589   5.273  0.5922  0.1131 -0.2465
 9386SOL    HW139794   3.627   2.598   5.259  1.0799 -1.5735 -4.7920
 9386SOL    HW239795   3.742   2.678   5.302  2.4809 -0.9535  1.6741
 9387SOL     OW39796   3.395   0.052  13.270 -0.0192 -0.1468  0.6679
 9387SOL    HW139797   3.470   0.084  13.220 -0.7886 -1.2719 -1.2434
 9387SOL    HW239798   3.391   4.695  13.249  0.5322  0.0511 -0.3569
 9388SOL     OW39799   0.730   0.724   2.231  0.6354 -0.1421 -0.2423
 9388SOL    HW139800   0.739   0.813   2.264  3.0644 -1.1783  1.9161
 9388SOL    HW239801   0.643   0.729   2.193  0.9178 -2.6860 -1.2128
 9389SOL     OW39802   4.259   2.467  15.421  0.1040 -0.5362  0.1071
 9389SOL    HW139803   4.179   2.507  15.388 -1.0058 -2.7302  0.1136
 9389SOL    HW239804   4.317   2.470  15.345 -0.6530  3.2546 -0.3378
 9390SOL     OW39805   2.724   0.801   6.787 -0.4588  0.2411  0.2533
 9390SOL    HW139806   2.783   0.876   6.778  0.3671 -0.6275 -1.4096
 9390SOL    HW239807   2.695   0.779   6.699 -1.5964  2.3572  0.1074
 9391SOL     OW39808   3.990   0.641   6.558 -0.2760  0.7850 -0.4966
 9391SOL    HW139809   4.034   0.563   6.594 -0.0488  1.2660  0.2651
 9391SOL    HW239810   3.908   0.637   6.607  0.3032 -0.9574  0.3648
 9392SOL     OW39811   1.132   4.248   2.270  0.2190 -0.0929  0.0100
 9392SOL    HW139812   1.150   4.264   2.362 -1.1529  0.9441  0.1014
 9392SOL    HW239813   1.179   4.321   2.229 -0.5421 -0.4506 -1.4909
 9393SOL     OW39814   3.324   2.958   3.304 -0.3896  0.2335  0.0429
 9393SOL    HW139815   3.341   2.985   3.214 -1.5194  0.9062  0.0303
 9393SOL    HW239816   3.402   2.915   3.338 -0.7943  1.2399  2.2823
 9394SOL     OW39817   4.582   3.394   7.914 -0.1760 -0.2791  0.1966
 9394SOL    HW139818   4.508   3.455   7.914  1.7616  2.0908  1.3071
 9394SOL    HW239819   4.549   3.334   7.981  0.2045  0.0350  0.6720
 9395SOL     OW39820   0.084   0.296  13.753 -0.0433 -0.2020 -0.0997
 9395SOL    HW139821   0.132   0.214  13.740 -2.0487 -1.3432 -0.2773
 9395SOL    HW239822   0.086   0.299  13.848  1.8468  1.6767 -0.1868
 9396SOL     OW39823   2.207   4.334   5.915 -0.4182  0.4251  0.3862
 9396SOL    HW139824   2.232   4.370   6.000 -2.5134  2.3152  0.1968
 9396SOL    HW239825   2.139   4.279   5.954  0.2994  0.0930  1.1559
 9397SOL     OW39826   2.449   0.854   8.802 -0.7418  0.1322 -0.1499
 9397SOL    HW139827   2.492   0.791   8.859  1.7301  1.4928 -0.4822
 9397SOL    HW239828   2.521   0.883   8.746 -0.1447 -0.3018  0.3846
 9398SOL     OW39829   0.414   3.825   5.621  0.1383  0.3291  0.6285
 9398SOL    HW139830   0.404   3.825   5.525 -1.4662 -0.1525  0.8011
 9398SOL    HW239831   0.476   3.753   5.634  1.7586  1.3583 -1.3239
 9399SOL     OW39832   2.532   1.127   3.657 -0.3069  0.0060  0.2969
 9399SOL    HW139833   2.577   1.047   3.685 -3.0315 -1.6140  0.0969
 9399SOL    HW239834   2.603   1.180   3.620 -0.3617 -0.2309 -0.1539
 9400SOL     OW39835   3.196   2.483   6.154 -0.0965  0.7782  0.4989
 9400SOL    HW139836   3.286   2.471   6.124  0.0918 -0.0607  1.4051
 9400SOL    HW239837   3.201   2.471   6.249  1.6227  0.0670  0.3126
 9401SOL     OW39838   1.437   1.879   3.030 -0.5128 -0.1230 -0.1814
 9401SOL    HW139839   1.457   1.879   3.124 -0.2252  2.0227 -0.2293
 9401SOL    HW239840   1.416   1.790   3.001  0.1767 -1.1794  2.4884
 9402SOL     OW39841   2.908   0.663   8.054  0.0159  0.5832  0.1762
 9402SOL    HW139842   2.920   0.576   8.014 -0.2963  0.1263  1.0754
 9402SOL    HW239843   2.827   0.692   8.013  0.8123 -1.3170 -2.7462
 9403SOL     OW39844   1.139   3.282   5.795 -0.1979  0.6479  0.2167
 9403SOL    HW139845   1.049   3.305   5.820 -0.1373  0.3522  0.6887
 9403SOL    HW239846   1.170   3.244   5.877 -0.3332  1.7901  0.8083
 9404SOL     OW39847   3.804   0.671  10.176 -0.0603 -0.5090 -0.2618
 9404SOL    HW139848   3.846   0.612  10.112  0.5149  0.7574 -1.0532
 9404SOL    HW239849   3.755   0.605  10.225 -0.0722 -1.6285 -1.7356
 9405SOL     OW39850   4.017   1.139   3.507  0.0352  0.2202  0.4174
 9405SOL    HW139851   4.013   1.047   3.532  0.2177  0.3280  0.8555
 9405SOL    HW239852   4.101   1.149   3.462  0.3867 -1.4420  0.7124
 9406SOL     OW39853   0.637   4.568   1.711  0.1136 -0.0915  0.2573
 9406SOL    HW139854   0.644   4.655   1.673 -0.6839 -2.3938 -5.2425
 9406SOL    HW239855   0.692   4.573   1.789  1.6450 -0.0544 -0.8163
 9407SOL     OW39856   0.696   1.847  16.833  0.2389 -1.0059 -0.0136
 9407SOL    HW139857   0.701   1.821  16.925  1.3781 -1.3681 -0.1801
 9407SOL    HW239858   0.609   1.886  16.832  2.3015  3.5787  0.2521
 9408SOL     OW39859   1.079   0.211   4.473  0.3827  0.4000 -0.2209
 9408SOL    HW139860   1.080   0.257   4.557  1.6683 -2.1094  1.1063
 9408SOL    HW239861   1.022   0.134   4.477  1.3517 -0.2440  1.0832
 9409SOL     OW39862   3.869   0.716   7.296  0.2009  0.1597 -0.5481
 9409SOL    HW139863   3.875   0.695   7.389  0.2165 -1.2405 -0.8712
 9409SOL    HW239864   3.799   0.654   7.275  0.3548 -0.5446  1.0160
 9410SOL     OW39865   0.105   1.854   4.302 -0.0087 -0.0988 -0.1847
 9410SOL    HW139866   0.113   1.762   4.329 -0.0618  0.6255  2.3344
 9410SOL    HW239867   0.057   1.883   4.380 -1.9832 -0.8723 -1.1356
 9411SOL     OW39868   2.323   1.415  11.671 -0.4440  0.1859 -0.1788
 9411SOL    HW139869   2.227   1.417  11.669 -0.4707  1.3988  2.2979
 9411SOL    HW239870   2.348   1.488  11.728 -1.3507  0.0446  0.4045
 9412SOL     OW39871   3.552   4.044   0.903 -0.3538 -0.0186 -0.8309
 9412SOL    HW139872   3.534   3.981   0.833  0.6679 -1.0243 -0.1883
 9412SOL    HW239873   3.617   4.100   0.862 -0.9776  0.4449 -1.1921
 9413SOL     OW39874   3.628   0.029   4.919  0.0675 -0.1824  0.3999
 9413SOL    HW139875   3.640   4.701   4.850  1.0734  0.0044  0.3942
 9413SOL    HW239876   3.589   0.101   4.870  1.6078 -0.7560 -1.6804
 9414SOL     OW39877   0.963   3.971   1.608  0.0500  0.1536 -0.1982
 9414SOL    HW139878   0.974   3.924   1.525 -0.6771 -1.0009  0.3684
 9414SOL    HW239879   0.887   4.023   1.584 -1.3537 -1.4268  0.8403
 9415SOL     OW39880   2.633   1.484   6.820 -0.0144  0.1325  0.2392
 9415SOL    HW139881   2.617   1.490   6.726 -2.5610  0.3369  0.6812
 9415SOL    HW239882   2.543   1.486   6.851 -0.4300 -2.0927 -0.7959
 9416SOL     OW39883   4.735   1.977  15.030 -0.2320  0.0709  0.7556
 9416SOL    HW139884   4.655   1.966  14.978  0.2492  0.1974 -0.0157
 9416SOL    HW239885   0.058   2.036  14.985  0.8080  0.4485  2.6320
 9417SOL     OW39886   3.850   3.427  11.313 -0.2274 -0.2127  0.6500
 9417SOL    HW139887   3.884   3.492  11.252 -1.7564  0.2995  0.3541
 9417SOL    HW239888   3.790   3.486  11.359  0.7811  2.3513 -1.3504
 9418SOL     OW39889   3.063   0.992   1.137  0.0655  0.6090 -0.3329
 9418SOL    HW139890   3.055   1.079   1.176  0.5524 -0.0923  1.3463
 9418SOL    HW239891   3.097   1.016   1.051  2.1921 -1.1317  0.0169
 9419SOL     OW39892   1.948   1.841  17.526 -0.2035  0.3791 -0.4302
 9419SOL    HW139893   1.887   1.878  17.591 -0.2602 -0.2477 -0.1253
 9419SOL    HW239894   1.886   1.789  17.475  0.6707 -2.7384  1.7179
 9420SOL     OW39895   4.390   2.737   7.281 -0.3568 -0.2240  0.3538
 9420SOL    HW139896   4.306   2.775   7.257 -0.9086 -0.8442  1.2942
 9420SOL    HW239897   4.389   2.733   7.377 -0.2239 -0.1112  0.3608
 9421SOL     OW39898   0.566   1.707   3.993 -0.1976 -0.2675  0.4807
 9421SOL    HW139899   0.619   1.735   3.918 -2.2327  2.6551  0.1446
 9421SOL    HW239900   0.628   1.716   4.065  2.2338  2.7254 -1.9405
 9422SOL     OW39901   3.396   0.607   5.117 -0.1967  0.1568  0.1954
 9422SOL    HW139902   3.453   0.564   5.053  0.8833  0.1698  1.1343
 9422SOL    HW239903   3.450   0.580   5.191 -2.0199 -0.7944  1.1490
 9423SOL     OW39904   2.221   0.664  10.702  0.2684 -0.4141 -0.3769
 9423SOL    HW139905   2.301   0.716  10.693  0.8036 -1.1893 -0.1288
 9423SOL    HW239906   2.214   0.625  10.614 -2.2963 -1.2869  0.2073
 9424SOL     OW39907   3.582   4.076   8.918  0.1029  0.6659 -0.4588
 9424SOL    HW139908   3.612   3.986   8.924 -0.4810  0.5732  1.0849
 9424SOL    HW239909   3.539   4.090   9.002 -0.1742  1.2105 -0.6936
 9425SOL     OW39910   1.353   3.533   7.202 -0.0723  1.2381  0.6072
 9425SOL    HW139911   1.307   3.492   7.129  2.0818 -0.0437 -0.0555
 9425SOL    HW239912   1.291   3.549   7.273 -0.6412  0.3538  0.3050
 9426SOL     OW39913   2.048   3.292  10.036  0.1220 -0.0176 -0.5491
 9426SOL    HW139914   2.109   3.326  10.102 -0.7386 -0.7871  0.6481
 9426SOL    HW239915   1.971   3.345  10.056  1.5774  0.3114  4.1016
 9427SOL     OW39916   3.194   3.090   3.055  0.2823 -0.4278  0.3756
 9427SOL    HW139917   3.213   3.183   3.042  1.2241 -0.4727  1.4611
 9427SOL    HW239918   3.103   3.098   3.082  0.8948  1.2351  2.0196
 9428SOL     OW39919   3.869   1.543   0.834  0.2078 -0.2142  0.7208
 9428SOL    HW139920   3.854   1.638   0.841 -0.0878 -0.2509  0.5705
 9428SOL    HW239921   3.927   1.536   0.758 -0.0318  0.5582  0.4690
 9429SOL     OW39922   1.935   0.644   8.699  0.0361  0.7692 -0.4688
 9429SOL    HW139923   1.966   0.712   8.760 -1.9022 -0.6581  2.1264
 9429SOL    HW239924   1.978   0.662   8.616 -2.2308  0.7917 -1.6372
 9430SOL     OW39925   4.253   2.615   3.350 -0.1029  0.1967 -0.0766
 9430SOL    HW139926   4.342   2.583   3.368  0.8001  2.3504 -0.7164
 9430SOL    HW239927   4.218   2.541   3.301 -1.7411  0.7621  0.2708
 9431SOL     OW39928   2.013   1.876   9.021 -0.3845 -0.1235  0.2842
 9431SOL    HW139929   1.998   1.902   9.112  4.1183 -1.0330  1.2455
 9431SOL    HW239930   2.060   1.951   8.986 -0.4337  0.7232  2.0147
 9432SOL     OW39931   3.143   3.283   5.225 -0.6680  0.2149 -0.2508
 9432SOL    HW139932   3.089   3.222   5.174  1.9767  0.3488 -3.1609
 9432SOL    HW239933   3.231   3.259   5.198  0.1040  1.6474  0.9660
 9433SOL     OW39934   1.363   4.462   2.818  0.2604 -0.4649 -0.0671
 9433SOL    HW139935   1.395   4.457   2.728  0.1576 -0.7764 -0.0893
 9433SOL    HW239936   1.296   4.394   2.808  1.3697 -1.3521 -1.4180
 9434SOL     OW39937   3.307   1.483   7.548 -0.2344 -0.1575  0.0755
 9434SOL    HW139938   3.296   1.552   7.483  0.6617 -0.8231 -0.7679
 9434SOL    HW239939   3.243   1.504   7.616 -0.1500 -2.1510  0.7702
 9435SOL     OW39940   1.158   1.842   1.819 -0.7068 -0.1331 -0.2657
 9435SOL    HW139941   1.064   1.831   1.804 -0.2766 -3.1373 -0.6802
 9435SOL    HW239942   1.175   1.923   1.772 -0.2381 -1.4960 -2.4252
 9436SOL     OW39943   0.916   0.051   1.761  0.6692  0.1489  0.0837
 9436SOL    HW139944   0.868   4.732   1.821 -0.4409  1.2252  0.2032
 9436SOL    HW239945   0.848   0.113   1.736  0.1322 -0.2134  0.6490
 9437SOL     OW39946   2.042   3.852   5.726 -0.0787  0.1215  0.1387
 9437SOL    HW139947   2.081   3.914   5.664 -1.3060  1.8995  1.1213
 9437SOL    HW239948   1.957   3.894   5.738 -1.0155 -1.1028 -2.2117
 9438SOL     OW39949   3.689   2.979   6.068 -0.0343 -0.1888  0.0973
 9438SOL    HW139950   3.754   2.956   6.134 -2.2188  0.4676  2.4822
 9438SOL    HW239951   3.744   2.970   5.991 -0.1641 -1.2405  0.1271
 9439SOL     OW39952   2.551   0.146   9.387 -0.0056  0.9330 -0.5148
 9439SOL    HW139953   2.569   0.057   9.417 -1.0056  1.0653  0.4562
 9439SOL    HW239954   2.568   0.185   9.473 -0.8155 -0.0833  0.1012
 9440SOL     OW39955   4.024   1.907  12.695  0.0552 -0.4451  0.7478
 9440SOL    HW139956   3.931   1.932  12.690  0.5320  1.0261 -0.5560
 9440SOL    HW239957   4.019   1.813  12.712  2.0464 -0.3050  2.0803
 9441SOL     OW39958   3.994   0.982   5.787  0.4430 -0.2254 -0.2433
 9441SOL    HW139959   4.064   0.920   5.767 -0.2014 -0.7591 -0.8845
 9441SOL    HW239960   3.936   0.925   5.837  2.5562 -1.0043  1.2887
 9442SOL     OW39961   2.764   2.508  10.365 -0.3752  0.2956 -0.3875
 9442SOL    HW139962   2.850   2.493  10.403  0.0931 -1.4194 -2.1532
 9442SOL    HW239963   2.716   2.427  10.384  0.0820 -0.0400 -0.6805
 9443SOL     OW39964   2.274   4.469   7.450  0.0601 -0.1937  0.2141
 9443SOL    HW139965   2.346   4.478   7.387 -1.3408 -4.3877 -1.9930
 9443SOL    HW239966   2.233   4.390   7.414 -1.4308  1.6636 -2.1878
 9444SOL     OW39967   0.989   3.314   2.084 -0.0785 -0.1508  0.1160
 9444SOL    HW139968   1.070   3.275   2.119 -0.7999 -0.0911  1.8825
 9444SOL    HW239969   0.976   3.257   2.008  0.6872 -0.6632  0.3623
 9445SOL     OW39970   2.291   3.226   8.962  0.3615  0.3111 -0.3186
 9445SOL    HW139971   2.381   3.212   8.992 -0.2544  0.2915  1.5165
 9445SOL    HW239972   2.300   3.301   8.903 -2.3682  0.8011 -0.0889
 9446SOL     OW39973   1.394   1.934   5.778 -0.0472  0.0632 -0.8164
 9446SOL    HW139974   1.434   1.866   5.831 -1.9041  0.1390  0.6881
 9446SOL    HW239975   1.434   2.012   5.815  0.9959 -1.0968  0.4522
 9447SOL     OW39976   3.381   4.490  14.659 -0.1389  0.4405 -0.1003
 9447SOL    HW139977   3.359   4.548  14.731  0.1501 -0.5566  0.7939
 9447SOL    HW239978   3.457   4.446  14.698 -0.6913 -2.1499 -1.9749
 9448SOL     OW39979   3.496   3.268   8.259 -0.4824 -0.1507 -0.4093
 9448SOL    HW139980   3.421   3.224   8.300 -1.4290  2.6994  0.9264
 9448SOL    HW239981   3.465   3.350   8.220  0.0209 -0.1355 -0.7651
 9449SOL     OW39982   2.694   0.498   5.495 -0.0825 -0.0083  0.2610
 9449SOL    HW139983   2.758   0.546   5.443 -1.7286  0.4010 -1.3631
 9449SOL    HW239984   2.748   0.485   5.573  3.2289 -0.5321 -2.1112
 9450SOL     OW39985   3.352   0.124  10.856 -0.1591 -0.3457 -0.1364
 9450SOL    HW139986   3.409   0.055  10.890  0.3764  1.1347  1.9534
 9450SOL    HW239987   3.339   0.176  10.936  1.8727  1.4085 -0.9286
 9451SOL     OW39988   2.633   1.301  14.661 -0.2779  0.7239  0.3382
 9451SOL    HW139989   2.700   1.235  14.639 -0.5224  0.4054  0.5548
 9451SOL    HW239990   2.572   1.287  14.589  1.0097  2.8373 -1.1599
 9452SOL     OW39991   0.252   0.806  13.000 -0.1668  0.3060 -0.1544
 9452SOL    HW139992   0.253   0.718  12.960  1.0606  0.8822 -1.3972
 9452SOL    HW239993   0.300   0.774  13.076 -1.1403 -1.3846 -0.2350
 9453SOL     OW39994   0.869   2.877   2.748  0.4461 -0.3415 -0.4303
 9453SOL    HW139995   0.902   2.834   2.827  0.0163 -0.6522 -0.4232
 9453SOL    HW239996   0.945   2.915   2.705  1.5358  0.4129  2.1494
 9454SOL     OW39997   2.147   0.533  15.673  0.2398  0.1869 -0.0191
 9454SOL    HW139998   2.109   0.481  15.603  0.3862 -1.3601  1.0495
 9454SOL    HW239999   2.241   0.514  15.671  0.4890  1.5145 -0.6231
 9455SOL     OW40000   2.736   3.573   0.693 -1.1403  0.0556 -0.6276
 9455SOL    HW140001   2.765   3.655   0.734 -0.2262 -0.6585  0.1575
 9455SOL    HW240002   2.752   3.502   0.755 -1.8001 -0.0363 -0.5624
 9456SOL     OW40003   3.589   1.018   2.726 -0.1861 -0.1242  0.1927
 9456SOL    HW140004   3.500   1.032   2.693  0.9850  0.7789 -2.5569
 9456SOL    HW240005   3.597   1.074   2.803 -2.3361  1.2256 -0.5634
 9457SOL     OW40006   4.068   1.462   6.417  0.1412  0.0564 -0.5146
 9457SOL    HW140007   4.067   1.409   6.496  0.5049 -1.7357 -1.7236
 9457SOL    HW240008   4.005   1.531   6.441 -1.0317 -0.6349 -1.5593
 9458SOL     OW40009   4.702   2.156   2.337 -0.1922  0.4641  0.4302
 9458SOL    HW140010   4.635   2.193   2.280  0.5669 -0.2569 -0.9345
 9458SOL    HW240011   0.030   2.226   2.333  0.3587 -0.0818 -0.1500
 9459SOL     OW40012   0.362   0.706   2.344  0.2610  0.5014 -0.1808
 9459SOL    HW140013   0.310   0.762   2.401  1.6414  0.4192  1.1629
 9459SOL    HW240014   0.440   0.681   2.394 -1.3565  1.2672  2.7435
 9460SOL     OW40015   2.488   0.342   6.961 -0.1827 -0.8377  0.0508
 9460SOL    HW140016   2.546   0.306   6.893  1.3146  0.1423  0.7980
 9460SOL    HW240017   2.480   0.434   6.934  0.9112 -0.6499  0.3599
 9461SOL     OW40018   2.164   1.313   5.245  0.1954 -0.1763 -0.1956
 9461SOL    HW140019   2.233   1.272   5.192  1.6043  1.8285  0.0835
 9461SOL    HW240020   2.180   1.405   5.224  0.4283 -0.2195 -0.2031
 9462SOL     OW40021   0.402   3.392   2.288 -0.5973  0.1785 -0.3174
 9462SOL    HW140022   0.441   3.477   2.313 -0.7859 -0.0170  0.6569
 9462SOL    HW240023   0.415   3.338   2.366  0.2179 -0.4773 -0.9181
 9463SOL     OW40024   3.929   1.630   2.176  0.7772 -0.8608 -0.4112
 9463SOL    HW140025   3.972   1.592   2.252 -0.0553  0.3347  0.6493
 9463SOL    HW240026   3.981   1.707   2.157  0.7654 -0.9796 -0.9390
 9464SOL     OW40027   2.087   1.660   4.171 -0.0125  0.1520  0.2551
 9464SOL    HW140028   2.133   1.592   4.220  0.0912  1.8901  2.5662
 9464SOL    HW240029   2.154   1.722   4.142  0.6584 -0.9281 -0.4970
 9465SOL     OW40030   0.180   0.454   9.400 -0.3160  0.1688  0.4565
 9465SOL    HW140031   0.233   0.518   9.352  1.0894 -1.0501  0.3761
 9465SOL    HW240032   0.147   0.390   9.337  2.9495 -0.2060 -0.8860
 9466SOL     OW40033   3.303   0.026   2.469  0.2869  0.3091  0.4693
 9466SOL    HW140034   3.262   0.011   2.383 -0.1728 -0.5327  0.8356
 9466SOL    HW240035   3.244   0.096   2.498 -0.3598 -1.2883  2.9838
 9467SOL     OW40036   3.039   2.134  15.976 -0.1723  0.1328 -0.0164
 9467SOL    HW140037   2.954   2.132  15.933 -0.0782 -0.0196 -0.1942
 9467SOL    HW240038   3.067   2.222  15.951  3.4761 -1.3576 -1.2020
 9468SOL     OW40039   4.159   0.096   5.291  0.2451 -0.3207  0.2170
 9468SOL    HW140040   4.092   0.165   5.290  1.5327  0.9700  2.9244
 9468SOL    HW240041   4.202   0.102   5.377  0.4922 -0.7013  0.1171
 9469SOL     OW40042   2.226   1.109   7.683 -0.4080 -0.1140  0.0568
 9469SOL    HW140043   2.145   1.139   7.724 -0.1745 -0.7051  0.9338
 9469SOL    HW240044   2.286   1.145   7.748 -1.2250  0.8486  0.2855
 9470SOL     OW40045   1.158   2.267  13.462  0.4162 -0.2297 -0.2150
 9470SOL    HW140046   1.235   2.279  13.517 -0.4118  1.8644  0.4850
 9470SOL    HW240047   1.099   2.326  13.509  0.9083 -0.2231  0.3883
 9471SOL     OW40048   2.479   0.578   9.338  0.8503  0.5272 -0.5794
 9471SOL    HW140049   2.478   0.556   9.431  0.1995 -1.1353 -0.9829
 9471SOL    HW240050   2.569   0.610   9.327  0.6578  1.6645  1.2252
 9472SOL     OW40051   2.444   0.930   4.421 -0.1925 -0.1554 -0.5936
 9472SOL    HW140052   2.454   1.002   4.359  0.4009 -0.0054 -0.3240
 9472SOL    HW240053   2.350   0.931   4.437 -0.5236 -0.9065 -2.5150
 9473SOL     OW40054   2.732   2.127   4.932  0.3099 -0.0506  0.1658
 9473SOL    HW140055   2.736   2.088   4.844  1.5914  0.0912  0.1625
 9473SOL    HW240056   2.643   2.162   4.933 -0.2592 -1.4635 -0.5670
 9474SOL     OW40057   4.463   1.826   0.796 -0.5035  0.1797  0.0734
 9474SOL    HW140058   4.466   1.767   0.871 -1.2817 -0.0720 -0.1011
 9474SOL    HW240059   4.498   1.769   0.726 -2.9107 -0.2146 -0.7894
 9475SOL     OW40060   3.473   3.690   2.460  0.6353 -0.1350  0.4426
 9475SOL    HW140061   3.421   3.678   2.540  1.6939 -1.8919  0.8640
 9475SOL    HW240062   3.416   3.740   2.402  0.6458 -2.0453 -1.2083
 9476SOL     OW40063   1.650   3.588  11.321  0.2682  0.1120  0.0837
 9476SOL    HW140064   1.610   3.665  11.279 -1.0075  0.1084  1.2930
 9476SOL    HW240065   1.729   3.583  11.267  0.6491  1.0046  0.5499
 9477SOL     OW40066   2.032   1.120   5.121  0.6231 -0.3385 -0.5040
 9477SOL    HW140067   2.007   1.054   5.186  0.7973  0.4719  0.3884
 9477SOL    HW240068   2.077   1.185   5.175  0.5361 -0.1410 -0.6702
 9478SOL     OW40069   2.640   2.150  14.326 -0.0902  0.0926  0.2260
 9478SOL    HW140070   2.598   2.116  14.247 -1.3339 -0.2493  1.0442
 9478SOL    HW240071   2.733   2.156  14.303 -0.0903 -0.1815  0.1522
 9479SOL     OW40072   4.244   0.744   4.491 -0.6452 -0.8373  0.5385
 9479SOL    HW140073   4.232   0.657   4.452 -0.0841 -0.4458 -0.5058
 9479SOL    HW240074   4.269   0.726   4.582  0.0720 -3.2604 -0.1182
 9480SOL     OW40075   0.418   0.319   1.742  0.3816 -0.0457 -0.3395
 9480SOL    HW140076   0.344   0.336   1.684 -0.3694  1.2370  0.9980
 9480SOL    HW240077   0.385   0.373   1.815 -2.4562 -1.8849 -0.2631
 9481SOL     OW40078   2.956   2.345   9.003 -0.0052  0.0300 -0.9195
 9481SOL    HW140079   2.950   2.393   8.920  0.0434 -0.8180 -1.4138
 9481SOL    HW240080   2.939   2.254   8.978  1.6303 -0.4743 -0.1728
 9482SOL     OW40081   2.173   4.055   1.530 -0.0496  0.4410  0.1887
 9482SOL    HW140082   2.106   4.020   1.589 -0.3188  0.1174 -0.3092
 9482SOL    HW240083   2.253   4.012   1.558  0.4484 -0.6709 -2.9780
 9483SOL     OW40084   1.057   2.270   9.547 -0.1619  0.2568  0.1558
 9483SOL    HW140085   1.070   2.314   9.631 -1.8635  0.9592  0.0625
 9483SOL    HW240086   0.969   2.234   9.562  0.4218 -0.7478  1.1396
 9484SOL     OW40087   2.067   3.657   2.841 -0.1085 -0.1893 -0.1738
 9484SOL    HW140088   2.085   3.574   2.797 -0.7634 -0.2758 -0.2866
 9484SOL    HW240089   2.141   3.668   2.901 -1.6036  1.5794  1.3486
 9485SOL     OW40090   0.717   3.501   8.526 -0.2779 -0.6082  0.1332
 9485SOL    HW140091   0.668   3.424   8.496  0.7876 -0.2028 -2.6966
 9485SOL    HW240092   0.780   3.460   8.584 -0.5549 -1.0040  0.1572
 9486SOL     OW40093   1.249   1.494   8.021  0.3630  0.5471  0.3127
 9486SOL    HW140094   1.204   1.537   8.094 -0.8288  1.2798 -0.8614
 9486SOL    HW240095   1.183   1.433   7.986 -0.6713  1.2413  1.0309
 9487SOL     OW40096   3.669   2.965  10.794  0.1692  0.7744  0.3644
 9487SOL    HW140097   3.614   3.018  10.853 -1.8709 -2.8078  1.7292
 9487SOL    HW240098   3.653   2.874  10.817 -0.0432  0.4375 -1.1248
 9488SOL     OW40099   3.859   3.542  11.706 -0.4971 -0.4130  0.2478
 9488SOL    HW140100   3.904   3.531  11.622  2.9528 -0.3991  2.0711
 9488SOL    HW240101   3.869   3.458  11.751  0.0633 -0.9191 -0.8198
 9489SOL     OW40102   2.512   2.824   7.647 -0.2362  0.4264  0.3711
 9489SOL    HW140103   2.522   2.730   7.657 -0.3243  0.0441 -2.8950
 9489SOL    HW240104   2.426   2.831   7.606  0.3142  1.4399 -0.6237
 9490SOL     OW40105   4.428   1.829   7.138  0.2830 -0.3590 -0.4163
 9490SOL    HW140106   4.401   1.870   7.220  1.6326 -0.7885  0.2352
 9490SOL    HW240107   4.515   1.799   7.163 -0.1009  0.1044  1.4431
 9491SOL     OW40108   1.195   2.796   1.609 -0.2544 -0.1490  0.1185
 9491SOL    HW140109   1.164   2.793   1.699 -1.2313 -1.5918 -0.2820
 9491SOL    HW240110   1.158   2.712   1.583 -0.0532 -0.5805  1.2637
 9492SOL     OW40111   1.812   0.649   8.240 -0.8867 -0.0495  0.2808
 9492SOL    HW140112   1.768   0.678   8.161 -1.2250  1.0412  0.8677
 9492SOL    HW240113   1.850   0.729   8.278  0.3737 -0.2007 -0.6872
 9493SOL     OW40114   2.422   4.095   5.030  0.0843  0.3186 -0.4998
 9493SOL    HW140115   2.510   4.087   4.994 -0.3376  0.3278 -1.5265
 9493SOL    HW240116   2.375   4.058   4.955 -0.1423  1.8469 -1.1048
 9494SOL     OW40117   0.239   2.454  14.220  0.0794 -0.0752 -0.2197
 9494SOL    HW140118   0.266   2.507  14.145 -2.7433 -0.3825 -1.4542
 9494SOL    HW240119   0.166   2.508  14.248 -0.6458  0.4698 -3.1170
 9495SOL     OW40120   3.146   4.457   3.281  0.5384 -0.0427  0.2517
 9495SOL    HW140121   3.207   4.512   3.231  2.0315 -0.1663  1.9348
 9495SOL    HW240122   3.136   4.382   3.223 -1.7930  1.0255 -0.7285
 9496SOL     OW40123   1.716   2.181   9.584  0.4401 -0.1982  0.5167
 9496SOL    HW140124   1.622   2.170   9.598  0.0292  0.3791 -1.7142
 9496SOL    HW240125   1.749   2.175   9.673  1.6367  0.3828  0.1123
 9497SOL     OW40126   2.867   3.333   6.776 -0.1450 -0.1047  0.3634
 9497SOL    HW140127   2.921   3.299   6.848 -1.3630 -0.3724  1.1548
 9497SOL    HW240128   2.926   3.393   6.730 -0.1885 -0.5224 -0.2383
 9498SOL     OW40129   2.283   3.592   3.019  0.1791  0.6735 -0.2918
 9498SOL    HW140130   2.328   3.511   2.997  1.3250  1.0926  0.5411
 9498SOL    HW240131   2.337   3.661   2.981  0.7025  1.3558  1.6786
 9499SOL     OW40132   3.047   1.427  16.329 -0.1440 -0.1947 -0.0054
 9499SOL    HW140133   3.101   1.439  16.408 -0.2547  0.7261 -0.0692
 9499SOL    HW240134   3.037   1.332  16.328 -1.4823 -0.0237 -2.3998
 9500SOL     OW40135   1.505   2.032   8.252 -0.2633  0.5408  0.1192
 9500SOL    HW140136   1.576   2.096   8.265  0.0141  0.1624  0.4868
 9500SOL    HW240137   1.536   1.949   8.288 -2.1324 -0.0353  0.3623
 9501SOL     OW40138   3.604   1.689   2.687 -0.2542  0.0572  0.0721
 9501SOL    HW140139   3.621   1.600   2.657 -1.8187  0.2478 -1.4415
 9501SOL    HW240140   3.509   1.690   2.674 -0.0961  1.6370 -0.9881
 9502SOL     OW40141   0.414   3.674   6.698  0.2650 -0.3881 -0.2056
 9502SOL    HW140142   0.378   3.664   6.610  0.0882 -1.1130 -0.0504
 9502SOL    HW240143   0.351   3.731   6.744 -0.9060 -1.3270 -0.6586
 9503SOL     OW40144   3.988   1.684   4.662  0.5061  0.3874 -0.0286
 9503SOL    HW140145   3.912   1.636   4.696  1.7863 -1.5187  0.1257
 9503SOL    HW240146   3.945   1.735   4.593  1.1566 -1.4513 -1.7733
 9504SOL     OW40147   3.145   0.343  11.558  0.4851 -0.1475  0.0129
 9504SOL    HW140148   3.212   0.285  11.522  1.3212  0.1743  1.0382
 9504SOL    HW240149   3.065   0.297  11.534 -0.3249  0.8446  0.7892
 9505SOL     OW40150   1.378   0.779   4.042  0.6403 -0.1335 -0.6281
 9505SOL    HW140151   1.464   0.739   4.029  0.8721  0.3316 -0.5378
 9505SOL    HW240152   1.320   0.724   4.096 -0.1193  0.8110 -0.4830
 9506SOL     OW40153   4.198   4.035   8.440 -0.6000  0.4889  0.4397
 9506SOL    HW140154   4.148   4.022   8.360 -1.4515 -0.5647  1.1568
 9506SOL    HW240155   4.288   4.021   8.409 -1.0814 -0.3431 -0.5489
 9507SOL     OW40156   1.100   4.209  17.613 -0.2157 -0.2281 -0.7326
 9507SOL    HW140157   1.069   4.299  17.623 -1.8555 -0.8850  0.2509
 9507SOL    HW240158   1.169   4.234  17.552  1.0880 -0.4986  0.6207
 9508SOL     OW40159   2.221   2.477   8.901 -0.3389  0.3698 -0.0316
 9508SOL    HW140160   2.273   2.557   8.902 -0.0294  0.1752 -1.0996
 9508SOL    HW240161   2.200   2.482   8.994  1.6553  2.0292  0.3304
 9509SOL     OW40162   0.666   1.452  12.830  0.3187  0.2191  0.4555
 9509SOL    HW140163   0.737   1.516  12.834  0.9565 -0.4218 -0.4480
 9509SOL    HW240164   0.692   1.422  12.743  0.4351  1.4317  0.0801
 9510SOL     OW40165   1.527   4.497   5.972  0.0214 -0.1213  0.3670
 9510SOL    HW140166   1.575   4.550   6.035  0.3827  0.2121 -0.1857
 9510SOL    HW240167   1.454   4.477   6.030  1.1231  2.2782  2.5807
 9511SOL     OW40168   2.565   0.888   6.322  0.1424  0.2524  0.2792
 9511SOL    HW140169   2.581   0.794   6.317  2.3262  0.6480  0.0001
 9511SOL    HW240170   2.473   0.894   6.293  0.7422  2.4810 -1.2134
 9512SOL     OW40171   0.466   1.352   5.540 -0.6710  0.1071  0.4661
 9512SOL    HW140172   0.390   1.336   5.485 -0.6848  0.8412  0.2800
 9512SOL    HW240173   0.432   1.332   5.627 -1.2391 -2.8172 -0.4183
 9513SOL     OW40174   1.121   4.568   8.690 -0.0810 -0.0938 -0.7370
 9513SOL    HW140175   1.143   4.639   8.630  1.1935 -0.7619 -1.0656
 9513SOL    HW240176   1.192   4.509   8.664 -0.2313  0.2577 -1.9507
 9514SOL     OW40177   4.405   4.711   9.988 -0.2159 -0.2065 -0.2962
 9514SOL    HW140178   4.372   0.002   9.903 -0.9696 -0.9907 -0.2569
 9514SOL    HW240179   4.423   0.062  10.022 -2.9659  0.3860 -0.3637
 9515SOL     OW40180   0.795   3.926  10.312  0.0402 -0.0408 -0.3681
 9515SOL    HW140181   0.711   3.970  10.329  1.0446  2.2075 -1.2293
 9515SOL    HW240182   0.819   3.907  10.403  0.8350 -0.5439 -0.6856
 9516SOL     OW40183   3.700   1.776   1.646 -0.4841  0.5309 -0.5082
 9516SOL    HW140184   3.710   1.702   1.586  0.1143 -0.6937  1.0704
 9516SOL    HW240185   3.612   1.757   1.679 -0.2661 -2.6224 -1.7127
 9517SOL     OW40186   2.381   3.522  14.573 -0.3941 -0.2599 -0.3554
 9517SOL    HW140187   2.296   3.490  14.603 -0.3895 -0.0882 -0.1542
 9517SOL    HW240188   2.432   3.490  14.647 -1.5804 -1.3961 -0.0321
 9518SOL     OW40189   3.983   4.225  16.560 -0.1919  0.3533 -0.3113
 9518SOL    HW140190   4.002   4.306  16.513  4.0124  0.0248  0.7692
 9518SOL    HW240191   3.990   4.246  16.653  0.0449 -0.9779 -0.0339
 9519SOL     OW40192   3.577   4.268  17.258 -0.4791 -0.2507 -0.2535
 9519SOL    HW140193   3.511   4.335  17.277  0.0597  0.5501 -1.2156
 9519SOL    HW240194   3.525   4.210  17.202 -1.8482 -0.4866  1.2495
 9520SOL     OW40195   1.250   3.140  17.603  0.5502  0.0489  0.4204
 9520SOL    HW140196   1.169   3.189  17.591 -0.2043 -1.2533  0.2338
 9520SOL    HW240197   1.219   3.055  17.571  0.5445  0.1473  0.1599
 9521SOL     OW40198   3.027   0.632   9.244 -0.4667  0.5949  0.0315
 9521SOL    HW140199   3.070   0.573   9.306  0.2284  1.0118 -0.0546
 9521SOL    HW240200   3.017   0.570   9.172 -3.6474 -0.9568  1.8042
 9522SOL     OW40201   3.934   3.682  17.593  0.0984  0.3132  0.0783
 9522SOL    HW140202   3.925   3.736  17.514  0.6732  1.4971  0.8227
 9522SOL    HW240203   3.844   3.667  17.622  0.6847  0.3136  1.9107
 9523SOL     OW40204   4.675   2.970   6.552  0.2722  0.5834  0.5085
 9523SOL    HW140205   4.662   2.968   6.647 -0.8484  2.4739  0.3760
 9523SOL    HW240206   0.015   3.026   6.543  0.4167  0.0797 -1.3982
 9524SOL     OW40207   3.205   0.340  11.244  0.3571  0.2399 -0.4588
 9524SOL    HW140208   3.119   0.298  11.240  0.2616  0.3249  0.6970
 9524SOL    HW240209   3.186   0.425  11.284 -0.9215 -0.2203 -0.1186
 9525SOL     OW40210   1.749   1.710  17.362  0.0329  0.0928  0.5251
 9525SOL    HW140211   1.677   1.663  17.320  0.8625 -2.8010  2.3117
 9525SOL    HW240212   1.767   1.765  17.286 -0.0411 -1.4109 -0.5874
 9526SOL     OW40213   0.871   1.417  12.624 -0.2042 -0.2014 -0.7011
 9526SOL    HW140214   0.885   1.511  12.639 -0.3577 -0.3244  0.1577
 9526SOL    HW240215   0.954   1.378  12.654  0.1255 -0.3304 -1.7716
 9527SOL     OW40216   3.099   1.864   6.517  0.5896  0.0846 -0.3394
 9527SOL    HW140217   3.112   1.790   6.575 -0.4143 -1.1724 -1.7215
 9527SOL    HW240218   3.061   1.821   6.441  1.4478 -2.7246  0.8410
 9528SOL     OW40219   0.107   0.843   6.935  0.2910  0.2520  0.5278
 9528SOL    HW140220   0.147   0.855   7.021  1.8640 -1.7669  0.0691
 9528SOL    HW240221   0.162   0.907   6.889 -1.3047  2.2942  1.4241
 9529SOL     OW40222   2.646   1.226  12.940  0.3772  0.0057  0.3719
 9529SOL    HW140223   2.642   1.320  12.922  0.8100 -0.2823 -1.2278
 9529SOL    HW240224   2.686   1.200  12.857 -0.8928 -0.0581 -0.2116
 9530SOL     OW40225   3.345   2.889   6.164 -0.2568  0.0596  0.0360
 9530SOL    HW140226   3.351   2.884   6.260  2.2577 -0.0944 -0.1091
 9530SOL    HW240227   3.329   2.981   6.148  2.1732  0.3317 -0.9167
 9531SOL     OW40228   1.252   4.183   6.040 -0.3386  0.6333 -0.3119
 9531SOL    HW140229   1.320   4.171   6.106  0.7694 -0.2824 -1.6280
 9531SOL    HW240230   1.249   4.278   6.026  1.1499  0.7138 -0.1020
 9532SOL     OW40231   0.108   2.129   5.237  0.2075  0.1435  0.1537
 9532SOL    HW140232   0.153   2.150   5.318 -0.9651 -0.4244  0.9607
 9532SOL    HW240233   0.122   2.207   5.183 -0.8294  0.2815  0.0759
 9533SOL     OW40234   0.136   4.723   3.476  0.2348  0.6879  0.2884
 9533SOL    HW140235   0.076   0.007   3.548 -0.7641  1.7382 -0.8490
 9533SOL    HW240236   0.136   0.064   3.420 -1.4663  1.8508  1.9211
 9534SOL     OW40237   3.741   4.592   7.059 -0.5779  0.2415  0.4863
 9534SOL    HW140238   3.765   4.515   7.007 -1.8186  0.6759 -0.6973
 9534SOL    HW240239   3.693   4.650   7.001 -0.3027  0.5729  0.5919
 9535SOL     OW40240   1.105   1.729   7.422 -0.2282  0.1210  0.1162
 9535SOL    HW140241   1.130   1.812   7.461 -1.3034 -0.3191  1.7535
 9535SOL    HW240242   1.099   1.742   7.328 -2.9873 -2.5960 -0.0847
 9536SOL     OW40243   3.470   2.601   1.569  0.5756 -0.0461  0.8257
 9536SOL    HW140244   3.415   2.540   1.519 -1.5851  0.9790  1.9574
 9536SOL    HW240245   3.552   2.595   1.520  1.4859 -1.0004  2.4902
 9537SOL     OW40246   4.371   0.595   6.466  0.1702  0.2358  0.0110
 9537SOL    HW140247   4.365   0.665   6.530  0.0515 -0.7607  1.0946
 9537SOL    HW240248   4.401   0.644   6.389 -1.3691 -0.5539 -1.0813
 9538SOL     OW40249   1.700   3.571   6.291 -0.6842  0.2712 -0.3443
 9538SOL    HW140250   1.750   3.559   6.372  1.1510  0.5294 -1.4500
 9538SOL    HW240251   1.696   3.486   6.247 -1.9594 -0.4446  1.1770
 9539SOL     OW40252   2.901   2.454  13.641 -0.1515  0.4800  0.3131
 9539SOL    HW140253   2.913   2.548  13.630 -0.7069  0.5903  0.6434
 9539SOL    HW240254   2.928   2.456  13.733  3.0236  1.2705 -0.6272
 9540SOL     OW40255   0.579   0.085   0.701  0.0669  0.0643 -0.2387
 9540SOL    HW140256   0.565   4.733   0.671 -0.8853 -0.1369  0.7777
 9540SOL    HW240257   0.662   0.105   0.659 -0.1530  0.5439 -0.4555
 9541SOL     OW40258   3.229   0.806   6.575 -0.0876 -0.5417 -0.0566
 9541SOL    HW140259   3.251   0.795   6.668 -2.3174  0.5328  0.5968
 9541SOL    HW240260   3.227   0.713   6.555  0.6815 -0.9221  1.6190
 9542SOL     OW40261   3.279   4.641  12.274 -0.0660 -0.7239  0.6283
 9542SOL    HW140262   3.347   4.674  12.332  0.2049 -1.2862  0.6368
 9542SOL    HW240263   3.264   4.712  12.212  0.4738 -3.1862 -2.3700
 9543SOL     OW40264   1.761   3.038   4.405 -1.0314  0.4012  0.3655
 9543SOL    HW140265   1.838   3.095   4.408  0.5389 -1.7973  1.3661
 9543SOL    HW240266   1.732   3.048   4.314 -1.8600  0.5634  0.6494
 9544SOL     OW40267   3.180   3.348   4.255  0.1048 -0.1547  0.0658
 9544SOL    HW140268   3.133   3.267   4.273  0.8794 -1.0845 -2.1316
 9544SOL    HW240269   3.269   3.324   4.231 -0.3699 -0.9200 -0.9003
 9545SOL     OW40270   2.191   4.446   2.232  0.1658 -0.0510  0.8013
 9545SOL    HW140271   2.138   4.367   2.233  0.8129 -0.5074 -1.2572
 9545SOL    HW240272   2.220   4.449   2.141 -0.2587 -0.6231  0.6481
 9546SOL     OW40273   3.331   2.320   5.562  0.2906  0.0891  0.2725
 9546SOL    HW140274   3.409   2.303   5.509  1.0509  0.4624  1.2689
 9546SOL    HW240275   3.365   2.382   5.626  0.4198  2.4620 -2.1185
 9547SOL     OW40276   2.779   1.833   2.357 -0.3542 -0.6669 -0.5925
 9547SOL    HW140277   2.783   1.905   2.295  1.5387  0.2038  0.5227
 9547SOL    HW240278   2.763   1.757   2.302  0.9218 -1.5029  0.1732
 9548SOL     OW40279   1.512   0.830   7.696 -0.6432 -0.3760  0.1287
 9548SOL    HW140280   1.587   0.878   7.663  0.1364 -1.4421  0.3413
 9548SOL    HW240281   1.555   0.747   7.716  0.7998 -0.1900 -2.2109
 9549SOL     OW40282   3.978   1.439   2.599  0.1003  0.2357 -0.2746
 9549SOL    HW140283   3.957   1.358   2.551 -2.2039  1.5233 -1.4763
 9549SOL    HW240284   4.047   1.410   2.658  0.3132  0.9356 -0.1821
 9550SOL     OW40285   2.122   0.467   8.089 -0.3011 -0.2286 -0.2764
 9550SOL    HW140286   2.055   0.489   8.024 -0.0014 -2.4071 -1.3304
 9550SOL    HW240287   2.152   0.387   8.045  1.1413 -0.4639  1.1704
 9551SOL     OW40288   2.058   4.430   4.709  0.2102  0.3525  0.2290
 9551SOL    HW140289   2.005   4.353   4.689  1.5047 -0.9494  1.8506
 9551SOL    HW240290   1.991   4.497   4.690 -1.1898 -1.1998 -0.3007
 9552SOL     OW40291   3.309   4.637  17.025 -0.4166  0.0857 -0.3224
 9552SOL    HW140292   3.281   4.692  17.098 -1.3508  0.1930 -0.7615
 9552SOL    HW240293   3.308   4.696  16.950 -0.3557  2.8128  1.8203
 9553SOL     OW40294   0.174   4.413   2.237  0.4628  0.0785  0.5268
 9553SOL    HW140295   0.085   4.427   2.269 -0.3974 -2.7372 -0.6448
 9553SOL    HW240296   0.211   4.498   2.212 -0.2930  0.8247  1.9439
 9554SOL     OW40297   3.071   0.979  10.546 -0.3064 -0.6053  0.2296
 9554SOL    HW140298   3.133   0.916  10.583  1.9695  1.7153  0.2956
 9554SOL    HW240299   3.061   1.041  10.619 -1.2334  2.2462 -2.3256
 9555SOL     OW40300   3.823   3.244   6.442  0.3132  0.2371  0.1773
 9555SOL    HW140301   3.734   3.229   6.413 -1.1566  2.2399  3.5453
 9555SOL    HW240302   3.823   3.337   6.467 -0.1793  0.6827 -1.5300
 9556SOL     OW40303   2.776   1.568   2.224 -0.6976  0.2312  0.5635
 9556SOL    HW140304   2.758   1.526   2.140 -2.3272  0.8099  0.6015
 9556SOL    HW240305   2.851   1.521   2.258 -0.4633 -0.2505 -0.6049
 9557SOL     OW40306   3.454   0.622  14.143  0.1685 -0.3495  0.0569
 9557SOL    HW140307   3.537   0.576  14.157  1.3533  1.7211 -0.1850
 9557SOL    HW240308   3.468   0.685  14.073 -0.5511  0.3077  0.5089
 9558SOL     OW40309   3.020   4.538   8.331  0.3249 -0.2247 -0.3512
 9558SOL    HW140310   3.059   4.562   8.415 -3.5236 -1.2242  1.6858
 9558SOL    HW240311   3.097   4.530   8.275  0.7600 -0.8140  0.3357
 9559SOL     OW40312   4.611   3.685   7.799  0.3059  0.1856 -0.1164
 9559SOL    HW140313   4.582   3.736   7.724  0.4542  0.3832 -0.0419
 9559SOL    HW240314   4.706   3.692   7.791  0.1214  2.1375 -0.6241
 9560SOL     OW40315   2.581   4.655   8.976 -0.3421 -0.1906 -0.1029
 9560SOL    HW140316   2.532   4.582   8.938  1.3598 -1.0370 -0.6679
 9560SOL    HW240317   2.516   4.708   9.022  0.3664  0.4575  0.1579
 9561SOL     OW40318   3.610   0.194   3.045  0.4764  0.3603  0.1885
 9561SOL    HW140319   3.683   0.248   3.076  1.5630 -1.3550  0.5950
 9561SOL    HW240320   3.567   0.240   2.973 -0.2612  0.0169  0.4128
 9562SOL     OW40321   2.965   2.849   7.832  0.5439  0.0825 -0.2220
 9562SOL    HW140322   2.952   2.836   7.926 -0.8904  1.5175 -0.2187
 9562SOL    HW240323   2.905   2.922   7.817  1.2999  0.5796 -0.8658
 9563SOL     OW40324   0.531   2.008   3.047 -0.1319 -0.4926  0.4852
 9563SOL    HW140325   0.574   1.936   3.000  0.7096  0.2936  0.0626
 9563SOL    HW240326   0.575   2.021   3.131  0.7557 -1.8497  0.2324
 9564SOL     OW40327   3.916   4.475  10.806  0.0168  1.1589  0.3207
 9564SOL    HW140328   3.873   4.507  10.727  0.4709 -0.5797 -0.6475
 9564SOL    HW240329   3.859   4.404  10.836  0.5866 -0.4107 -2.2845
 9565SOL     OW40330   2.264   3.719   4.658 -0.1798 -0.2606 -0.1916
 9565SOL    HW140331   2.350   3.758   4.643 -2.0274  3.1566 -1.9087
 9565SOL    HW240332   2.209   3.755   4.589  1.2091  0.5110 -0.8988
 9566SOL     OW40333   4.173   4.679   7.175  0.0672  0.0840 -0.2125
 9566SOL    HW140334   4.102   4.650   7.117 -1.0192 -0.4502  1.3821
 9566SOL    HW240335   4.121   4.725   7.241 -1.0677  2.1477 -2.5526
 9567SOL     OW40336   4.190   4.260  11.251 -0.2540 -0.1109 -0.1854
 9567SOL    HW140337   4.232   4.182  11.289 -1.4387 -0.5778  0.1820
 9567SOL    HW240338   4.263   4.295  11.199  0.4380  0.4308  1.1496
 9568SOL     OW40339   4.029   4.155  15.119  0.2086 -0.1934  0.4808
 9568SOL    HW140340   4.117   4.127  15.143  2.7537  4.2195 -3.5738
 9568SOL    HW240341   4.048   4.207  15.041  0.2630 -1.3097 -0.2471
 9569SOL     OW40342   2.816   4.594   2.815  0.1861 -0.3313  0.1808
 9569SOL    HW140343   2.829   4.563   2.726  0.1781 -0.7921  0.3369
 9569SOL    HW240344   2.831   4.688   2.805  0.0450 -0.2128  1.0172
   4.73731   4.73731  17.74751
