Membrane in water
40344
    1TMC1    C1    1   2.458   4.667  11.513  0.3467  0.7351 -0.3114
    1TMC1    C2    2   2.576   4.736  11.484  0.2707 -0.1241  0.1083
    1TMC1    C3    3   2.579   0.081  11.375  0.0922  0.1620  0.1931
    1TMC1    C4    4   2.341   4.692  11.443  0.0856  0.0242  0.4074
    1TMC1    C5    5   2.349   0.037  11.332 -0.0255  0.7354 -0.0185
    1TMC1    C6    6   2.466   0.106  11.298 -0.0662  0.1164  0.3335
    1TMC1     C    7   2.443   4.589  11.635  0.4686  0.5696  0.3084
    1TMC1     O    8   2.331   4.580  11.679 -0.0151 -0.2405 -0.4011
    1TMC1     H    9   2.666   4.723  11.543  0.1092 -0.2517  0.3282
    1TMC1    H1   10   2.262   4.619  11.454 -1.1616  1.0240 -1.9667
    1TMC1    H2   11   2.465   0.159  11.204  0.0600 -1.0827 -0.3361
    1TMC1    C7   12   2.226   0.067  11.265 -0.4996  0.2370 -0.7162
    1TMC1    C8   13   2.700   0.155  11.351 -1.0609 -0.0783 -0.4802
    1TMC1    O1   14   2.123   4.738  11.279 -0.7330  0.5898  0.0056
    1TMC1    O2   15   2.800   0.130  11.417 -0.6992 -0.6885 -0.3254
    1TMC1    O3   16   2.219   0.205  11.255 -0.0407 -0.0351  0.3520
    1TMC1    H3   17   2.298   0.262  11.252 -1.0753  1.4395  1.5164
    1TMC1    O5   18   2.662   0.285  11.317  0.2213 -0.0088 -0.5001
    1TMC1    H5   19   2.565   0.293  11.305  0.1704  0.5773  0.3110
    2MPD2     C   20   2.602   4.199  11.927  0.2704 -0.1798  0.2930
    2MPD2    C1   21   2.482   4.265  11.913 -0.3635 -0.3214 -0.3923
    2MPD2    C2   22   2.461   4.361  11.816  0.2587  0.3876  0.1003
    2MPD2    C3   23   2.555   4.391  11.720 -0.3829 -0.5027 -0.3848
    2MPD2    C4   24   2.669   4.317  11.723 -0.2072  0.3568 -0.4302
    2MPD2    C5   25   2.695   4.232  11.831  0.3510  0.1269 -0.0857
    2MPD2     H   26   2.373   4.424  11.823  0.8655  1.1745  0.6309
    2MPD2    H1   27   2.744   4.325  11.646  0.6867  3.7091  0.7646
    2MPD2    H2   28   2.618   4.125  12.004 -0.5472 -2.1118 -1.3922
    2MPD2    H3   29   2.782   4.167  11.834 -1.1180 -1.8079  0.8936
    2MPD2     N   30   2.549   4.501  11.635  0.1808  0.1510 -0.3376
    2MPD2    H5   31   2.625   4.516  11.569  0.6286 -1.7437 -0.2398
    2MPD2    N1   32   2.380   4.245  12.002  0.2055 -0.2452 -0.0446
    2MPD2    H7   33   2.290   4.289  11.988  0.5353  0.1928 -0.8006
    3TMC1    C1   34   1.072   0.384  11.164 -0.1499 -0.7015  0.1921
    3TMC1    C2   35   1.057   0.257  11.127 -0.6918  0.7497 -0.2614
    3TMC1    C3   36   1.149   0.204  11.041 -0.2555 -0.2910 -0.5007
    3TMC1    C4   37   1.185   0.459  11.127 -0.2906  0.8688 -0.6494
    3TMC1    C5   38   1.278   0.397  11.051 -0.0288  1.2444 -0.8179
    3TMC1    C6   39   1.262   0.273  10.999  0.2485 -0.3129  0.4214
    3TMC1     C   40   0.949   0.453  11.214  0.0582  0.8004  0.6009
    3TMC1     O   41   0.860   0.376  11.253  0.4687 -0.6761 -0.0578
    3TMC1     H   42   0.966   0.201  11.147  0.2743 -0.9057 -0.4590
    3TMC1    H1   43   1.193   0.563  11.157  3.0047 -0.5195  3.2949
    3TMC1    H2   44   1.321   0.240  10.914  1.3395  1.4973  0.4864
    3TMC1    C7   45   1.383   0.475  10.987  0.0565  0.1525  0.0713
    3TMC1    C8   46   1.113   0.074  10.993 -0.5984  0.1657  0.2088
    3TMC1    O1   47   1.505   0.448  10.988  0.2381  0.1221 -0.5501
    3TMC1    O2   48   1.003   0.034  10.968  0.1457 -0.7858  0.3743
    3TMC1    O3   49   1.337   0.592  10.941 -0.3954  0.2365 -0.3571
    3TMC1    H3   50   1.239   0.591  10.943 -0.4290  1.0612 -2.1277
    3TMC1    O5   51   1.230   0.011  10.984 -0.3124  0.4483 -0.1491
    3TMC1    H5   52   1.313   0.059  11.005 -0.5877  0.9267 -0.1487
    4MPD2     C   53   0.598   0.837  11.198  0.4261  0.0383 -0.2904
    4MPD2    C1   54   0.724   0.888  11.174  0.1511 -0.0768 -0.5410
    4MPD2    C2   55   0.829   0.798  11.169 -0.0980 -0.2523  0.5201
    4MPD2    C3   56   0.817   0.664  11.196  0.2405  0.0033 -0.2957
    4MPD2    C4   57   0.691   0.616  11.221 -0.3623  0.6392  0.6201
    4MPD2    C5   58   0.577   0.705  11.228  0.0733 -0.1733 -0.3123
    4MPD2     H   59   0.929   0.824  11.136  0.6201 -2.5685  0.8452
    4MPD2    H1   60   0.671   0.512  11.243  1.3994  0.5195  1.7203
    4MPD2    H2   61   0.509   0.899  11.192  0.9007  0.6205 -1.3125
    4MPD2    H3   62   0.479   0.670  11.257  0.4491 -0.6291  0.4280
    4MPD2     N   63   0.935   0.584  11.182  0.2845 -0.5280 -0.1161
    4MPD2    H5   64   1.023   0.635  11.170 -0.3850  0.1106 -2.3089
    4MPD2    N1   65   0.758   1.023  11.144 -0.0902  0.4786  0.2479
    4MPD2    H7   66   0.857   1.043  11.152  0.2425 -0.6698 -0.8726
    5TCq1    O1   67   2.125   2.872  12.397  0.2215 -0.3479 -0.6309
    5TCq1    C1   68   2.087   2.797  12.289  0.2938  1.0790  0.7811
    5TCq1    O2   69   2.051   2.681  12.289 -0.5081 -0.2902  0.6808
    5TCq1    C2   70   2.045   2.889  12.181 -0.4089 -0.1103 -0.5563
    5TCq1    C3   71   2.028   3.023  12.194 -0.1192  0.8926 -0.3193
    5TCq1    C4   72   1.998   3.097  12.082 -0.3258  0.8781 -0.0588
    5TCq1    C5   73   1.964   3.027  11.967  0.0950 -0.2863  0.2600
    5TCq1    C6   74   1.978   2.892  11.957 -0.0227 -0.6377  0.4252
    5TCq1    C7   75   2.017   2.820  12.069 -0.6918 -0.2537 -0.4474
    5TCq1    C8   76   1.950   2.816  11.834 -0.4629 -0.9870  1.1569
    5TCq1    O4   77   1.955   2.693  11.848  0.3810  0.1686  0.2653
    5TCq1    C9   78   1.968   3.238  12.085  0.1858 -0.0371 -0.5393
    5TCq1    O5   79   2.017   3.319  12.175 -0.0716  1.1114 -0.4914
    5TCq1    O6   80   1.879   3.277  12.007 -0.1476  1.2003  0.0494
    5TCq1    H1   81   2.178   2.951  12.374  0.5409 -0.1951  0.6187
    5TCq1    H2   82   2.035   3.078  12.287  0.3918  0.7284 -0.2620
    5TCq1    H3   83   1.915   3.080  11.886 -0.7527 -0.5851  0.5734
    5TCq1    H4   84   2.036   2.714  12.059  1.0524  0.1450 -1.4290
    6MPD2     C   85   1.879   2.937  11.494 -0.1242  0.2941 -0.4752
    6MPD2    C1   86   1.914   2.844  11.592 -0.0661 -0.4708  0.1804
    6MPD2    C2   87   1.916   2.710  11.550  0.5929 -0.5739  0.5077
    6MPD2    C3   88   1.888   2.677  11.420 -0.4150  0.1565  0.6574
    6MPD2    C4   89   1.870   2.777  11.323  0.2561  0.0484  0.5747
    6MPD2    C5   90   1.862   2.907  11.365 -0.3085  0.1957  0.6876
    6MPD2     H   91   1.935   2.634  11.624  0.2611 -0.8588  0.2964
    6MPD2    H1   92   1.848   2.746  11.221 -1.6997  0.1651  0.9667
    6MPD2    H2   93   1.876   3.038  11.534 -1.0304 -0.5452  1.5921
    6MPD2    H3   94   1.830   2.981  11.293  1.0361  0.4161  0.3052
    6MPD2     N   95   1.873   2.542  11.386 -0.3710 -0.7142  0.7006
    6MPD2    H5   96   1.862   2.478  11.463  3.0141 -2.2457 -0.1220
    6MPD2    N1   97   1.943   2.892  11.718 -0.1960  0.1831 -0.2116
    6MPD2    H7   98   1.959   2.992  11.725  4.2582 -0.5691 -0.1462
    7TCq1    O1   99   3.795   2.236  13.409  0.8959 -0.2742 -0.5094
    7TCq1    C1  100   3.775   2.104  13.390 -0.0994 -0.3791 -0.2371
    7TCq1    O2  101   3.751   2.055  13.280 -0.4051  0.3362 -0.2210
    7TCq1    C2  102   3.800   2.030  13.512  0.3107  0.0199 -0.7953
    7TCq1    C3  103   3.760   2.086  13.628 -0.3382  0.2124  0.7142
    7TCq1    C4  104   3.805   2.023  13.745 -0.3697  0.3184  0.7555
    7TCq1    C5  105   3.893   1.922  13.734 -0.1116  0.0808 -0.0644
    7TCq1    C6  106   3.933   1.872  13.610 -0.6093  0.0917 -0.7834
    7TCq1    C7  107   3.872   1.914  13.500  0.0266 -0.3762  0.2927
    7TCq1    C8  108   4.024   1.758  13.606 -1.0749 -0.7440 -0.1442
    7TCq1    O4  109   4.011   1.668  13.521  0.2733  0.7575  0.1824
    7TCq1    C9  110   3.765   2.074  13.874  1.0836 -0.1975  0.5681
    7TCq1    O5  111   3.817   2.023  13.976 -0.2365  0.0562 -0.1781
    7TCq1    O6  112   3.675   2.159  13.874 -0.0961  0.1280  0.6562
    7TCq1    H1  113   3.825   2.269  13.497 -0.2820 -0.0786 -0.1870
    7TCq1    H2  114   3.694   2.172  13.638  0.5085  0.6249  2.8732
    7TCq1    H3  115   3.920   1.872  13.826 -0.2359 -0.7426 -0.4722
    7TCq1    H4  116   3.909   1.876  13.405  1.1668  1.7496 -0.1060
    8MPD2     C  117   4.415   1.506  13.818  0.0231 -0.5921 -0.2731
    8MPD2    C1  118   4.332   1.461  13.716 -0.3558 -0.8132  1.2155
    8MPD2    C2  119   4.238   1.552  13.679  0.0481 -0.0673  0.3527
    8MPD2    C3  120   4.235   1.682  13.728 -0.1833 -0.1016 -0.1926
    8MPD2    C4  121   4.326   1.719  13.828 -0.5568 -0.1202 -0.1644
    8MPD2    C5  122   4.416   1.627  13.868  0.3826  0.0510  0.0564
    8MPD2     H  123   4.167   1.530  13.600 -0.2986 -1.6933  1.1312
    8MPD2    H1  124   4.322   1.818  13.873 -0.3254  0.1179 -0.6631
    8MPD2    H2  125   4.478   1.428  13.859 -0.3957 -0.8427 -0.1107
    8MPD2    H3  126   4.479   1.654  13.953  0.0177  1.3193 -0.0654
    8MPD2     N  127   4.122   1.769  13.707 -0.5151 -0.0232  0.2338
    8MPD2    H5  128   4.134   1.862  13.747  0.5231 -0.1254  0.1653
    8MPD2    N1  129   4.334   1.326  13.679 -0.7152  0.8281 -0.0848
    8MPD2    H7  130   4.414   1.277  13.717 -0.5313  0.5977 -0.7767
    9TMC1    C1  131   2.077   1.527  11.740  0.8329 -0.4351 -0.6938
    9TMC1    C2  132   2.091   1.642  11.666  0.1741  0.2895  0.1487
    9TMC1    C3  133   2.080   1.766  11.723 -0.4382 -0.1723  0.1160
    9TMC1    C4  134   2.029   1.535  11.870 -0.0102 -0.3032 -0.3827
    9TMC1    C5  135   2.018   1.662  11.920  0.0269  0.5673 -0.1810
    9TMC1    C6  136   2.048   1.775  11.850  0.1602  0.0975  0.1314
    9TMC1     C  137   2.077   1.395  11.678  0.0041 -0.0134 -0.2208
    9TMC1     O  138   2.087   1.405  11.555  0.5243 -0.4463 -0.5515
    9TMC1     H  139   2.128   1.633  11.564 -0.1626 -1.2967  0.1820
    9TMC1    H1  140   1.992   1.447  11.920  4.1609 -0.9257  1.5858
    9TMC1    H2  141   2.025   1.868  11.901 -2.2181 -1.5046  1.9225
    9TMC1    C7  142   1.970   1.693  12.057 -0.3773  0.1751  0.1242
    9TMC1    C8  143   2.093   1.888  11.665  0.3436  0.2724  0.3190
    9TMC1    O1  144   1.854   1.732  12.061 -0.2208 -0.6080 -0.3247
    9TMC1    O2  145   2.041   1.986  11.708 -0.2393  0.2995  0.3578
    9TMC1    O3  146   2.022   1.595  12.139 -0.3600 -0.2367 -0.3917
    9TMC1    H3  147   2.111   1.569  12.109 -0.6418 -2.7171  0.9041
    9TMC1    O5  148   2.172   1.882  11.563  0.0772 -0.3367 -0.0155
    9TMC1    H5  149   2.223   1.800  11.545 -1.4845 -1.1014 -0.9254
   10MPD2     C  150   2.021   1.117  11.577  0.6098 -0.0635 -0.1661
   10MPD2    C1  151   2.043   1.147  11.709  0.0049 -0.0191 -0.6776
   10MPD2    C2  152   2.058   1.044  11.800 -0.3218  0.0273 -0.1838
   10MPD2    C3  153   2.021   0.913  11.770  0.0593 -0.0823  0.3835
   10MPD2    C4  154   1.979   0.886  11.645 -0.3203  0.0210 -0.3815
   10MPD2    C5  155   1.983   0.987  11.552 -0.1357  0.2957  0.3869
   10MPD2     H  156   2.089   1.069  11.901  0.7927  0.9157 -0.7575
   10MPD2    H1  157   1.935   0.791  11.616  1.4095 -0.9710  0.2112
   10MPD2    H2  158   2.016   1.195  11.503  3.5377  0.4008  0.1221
   10MPD2    H3  159   1.945   0.960  11.454 -0.1622 -0.5978  0.6476
   10MPD2     N  160   2.016   0.806  11.867  0.1481  0.0960  0.1608
   10MPD2    H5  161   1.977   0.718  11.836 -2.3353  1.0856  0.4540
   10MPD2    N1  162   2.062   1.281  11.757  0.0012  0.8245 -0.3401
   10MPD2    H7  163   2.057   1.291  11.858 -0.8070  3.6361 -0.6391
   11TCq1    O1  164   2.205   0.382  13.748 -0.2859  0.3253 -0.3788
   11TCq1    C1  165   2.110   0.482  13.726  0.2971 -0.3441 -1.2799
   11TCq1    O2  166   2.145   0.596  13.691  0.3047 -0.0971  0.2227
   11TCq1    C2  167   1.969   0.451  13.774  0.5409  0.4777  0.2349
   11TCq1    C3  168   1.891   0.561  13.808 -0.4742  1.1607  0.5190
   11TCq1    C4  169   1.756   0.544  13.815  0.5044  0.0353 -0.2947
   11TCq1    C5  170   1.706   0.418  13.811 -0.0136 -1.0391  0.2788
   11TCq1    C6  171   1.785   0.313  13.773 -0.1420 -0.2363 -0.0182
   11TCq1    C7  172   1.917   0.330  13.746  0.3927 -0.7763  0.6543
   11TCq1    C8  173   1.707   0.189  13.741 -0.1191 -0.0316  0.7156
   11TCq1    O4  174   1.589   0.179  13.767  0.1359  0.4829 -0.3754
   11TCq1    C9  175   1.668   0.659  13.833  1.0333 -0.2464  0.0809
   11TCq1    O5  176   1.542   0.633  13.826  0.1310  0.7261  0.4790
   11TCq1    O6  177   1.720   0.769  13.848 -0.1550  0.6656 -0.8283
   11TCq1    H1  178   2.168   0.305  13.796  1.8599 -0.3803  0.1689
   11TCq1    H2  179   1.944   0.656  13.813  0.4927  0.6544 -0.0635
   11TCq1    H3  180   1.600   0.394  13.809 -0.8162  2.6062 -1.3622
   11TCq1    H4  181   1.981   0.249  13.711  0.9916  0.4201 -0.9950
   12MPD2     C  182   1.619   4.674  13.607  0.0573  0.7153 -0.1359
   12MPD2    C1  183   1.749   4.704  13.619  0.6178 -0.0145  0.4856
   12MPD2    C2  184   1.843   4.616  13.575  0.1358 -0.1417  0.4230
   12MPD2    C3  185   1.809   4.486  13.535 -0.2218 -1.0377 -0.0694
   12MPD2    C4  186   1.677   4.460  13.513  0.5878  0.2365  0.2093
   12MPD2    C5  187   1.579   4.551  13.557  0.0070  0.1739  0.6187
   12MPD2     H  188   1.947   4.647  13.580  0.0087  0.6525 -1.8569
   12MPD2    H1  189   1.662   4.357  13.483 -0.5790  0.7157 -0.8322
   12MPD2    H2  190   1.548   0.004  13.654  1.1069  0.2024  2.2081
   12MPD2    H3  191   1.473   4.533  13.545  0.1233  1.1456 -1.8568
   12MPD2     N  192   1.903   4.388  13.497  0.2272 -0.4140  0.5250
   12MPD2    H5  193   1.867   4.304  13.453  0.2528  0.1644 -0.5745
   12MPD2    N1  194   1.789   0.084  13.684  0.4714 -0.0466  0.6145
   12MPD2    H7  195   1.889   0.092  13.700  0.1840  1.3100  1.6700
   13TCq1    O1  196   2.408   0.829  11.704  0.4421 -0.0148  0.2860
   13TCq1    C1  197   2.390   0.869  11.575  0.3478 -0.7033  0.7515
   13TCq1    O2  198   2.453   0.963  11.522  0.2916 -0.0773  0.2309
   13TCq1    C2  199   2.334   0.752  11.511 -0.0882  0.4932  0.4146
   13TCq1    C3  200   2.397   0.710  11.395  0.4801 -0.4627  0.1907
   13TCq1    C4  201   2.363   0.570  11.366 -0.0352 -0.8056 -0.2631
   13TCq1    C5  202   2.268   0.497  11.437  0.6372 -0.2091  1.4279
   13TCq1    C6  203   2.197   0.558  11.534  0.0705  0.0841  0.4573
   13TCq1    C7  204   2.235   0.686  11.578 -0.5895  0.0996 -0.6757
   13TCq1    C8  205   2.082   0.498  11.605 -0.4091  0.5107 -0.4712
   13TCq1    O4  206   2.026   0.571  11.692 -0.6377 -0.3998 -0.4118
   13TCq1    C9  207   2.424   0.503  11.253  0.2054  0.0501  0.2425
   13TCq1    O5  208   2.418   0.378  11.255  0.1278  0.1126  0.3287
   13TCq1    O6  209   2.506   0.566  11.181  0.0620 -0.0604  0.0013
   13TCq1    H1  210   2.358   0.749  11.729  1.4618 -0.4725  0.8940
   13TCq1    H2  211   2.458   0.764  11.324  1.5511 -1.3798  0.4227
   13TCq1    H3  212   2.258   0.392  11.413 -1.1600  0.5612 -1.2094
   13TCq1    H4  213   2.187   0.733  11.663  1.3941  1.6729 -0.4376
   14MPD2     C  214   1.884   0.227  11.443 -0.6436  0.0140  0.1641
   14MPD2    C1  215   1.913   0.330  11.533  0.5335 -0.6897 -0.1507
   14MPD2    C2  216   1.808   0.374  11.624  0.4717 -0.2636 -0.3277
   14MPD2    C3  217   1.692   0.297  11.621 -0.6056 -0.8571  0.3127
   14MPD2    C4  218   1.675   0.196  11.533 -0.6539  0.0068  0.2273
   14MPD2    C5  219   1.764   0.164  11.437  0.0340  0.0010 -0.9164
   14MPD2     H  220   1.815   0.461  11.688  0.9721 -0.5886  0.0664
   14MPD2    H1  221   1.581   0.143  11.527 -0.5042 -0.6509  3.4342
   14MPD2    H2  222   1.952   0.200  11.364 -0.1798  0.1612  0.5141
   14MPD2    H3  223   1.738   0.092  11.360  0.5741 -0.6421 -0.4995
   14MPD2     N  224   1.604   0.335  11.722  0.1388  0.3580  0.5916
   14MPD2    H5  225   1.628   0.418  11.775  0.2605 -0.6744  2.1436
   14MPD2    N1  226   2.036   0.398  11.522  0.0748  0.9607  0.4236
   14MPD2    H7  227   2.083   0.373  11.436  0.4821 -0.9554  1.2022
   15TCq1    O1  228   0.169   3.919   1.639  0.1673  0.4037  0.1323
   15TCq1    C1  229   0.155   3.832   1.535  0.4767 -0.4851 -0.2011
   15TCq1    O2  230   0.220   3.732   1.510 -0.1371  0.9841  0.1004
   15TCq1    C2  231   0.015   3.845   1.491 -0.6661 -0.4893 -0.0221
   15TCq1    C3  232   4.690   3.965   1.483 -0.1071  0.2335 -0.0320
   15TCq1    C4  233   4.554   3.950   1.453 -0.6720 -0.0808 -0.1333
   15TCq1    C5  234   4.493   3.832   1.425  0.1944  0.1482  0.1762
   15TCq1    C6  235   4.566   3.720   1.434  0.3528  0.7211  0.3610
   15TCq1    C7  236   4.698   3.719   1.474  0.4898 -0.2412  0.1705
   15TCq1    C8  237   4.522   3.604   1.351  0.1749  0.8961  0.5182
   15TCq1    O4  238   4.604   3.515   1.349 -0.0483 -0.1704  0.1199
   15TCq1    C9  239   4.475   4.072   1.438  0.2337  1.1136  0.6272
   15TCq1    O5  240   4.535   4.174   1.386 -0.6533 -0.6110  0.0202
   15TCq1    O6  241   4.353   4.047   1.456  0.2126 -0.0561 -0.5368
   15TCq1    H1  242   0.092   3.980   1.646  0.1363  0.2778  0.9037
   15TCq1    H2  243   4.726   4.065   1.504 -1.3133  0.5033  0.7697
   15TCq1    H3  244   4.389   3.830   1.395  0.5363  1.1981 -1.1071
   15TCq1    H4  245   0.015   3.627   1.485 -0.4151 -1.1113 -2.4220
   16MPD2     C  246   4.291   3.589   1.074 -0.1640 -0.0078 -0.5915
   16MPD2    C1  247   4.373   3.534   1.171  0.5031 -0.4821  0.3356
   16MPD2    C2  248   4.411   3.400   1.168 -0.5542 -0.0719 -0.6570
   16MPD2    C3  249   4.352   3.321   1.071  0.0553 -0.3329 -0.0051
   16MPD2    C4  250   4.275   3.375   0.980  0.0518  0.4508 -0.5282
   16MPD2    C5  251   4.244   3.504   0.977  0.1713 -0.2026  0.1395
   16MPD2     H  252   4.478   3.356   1.242 -0.4852 -0.4214 -0.9319
   16MPD2    H1  253   4.240   3.324   0.891  0.3942 -1.5288  0.4642
   16MPD2    H2  254   4.255   3.691   1.073 -0.3583 -0.0680  0.1689
   16MPD2    H3  255   4.181   3.549   0.902 -0.8755 -0.5815  0.7974
   16MPD2     N  256   4.382   3.181   1.082  0.4751 -0.1689 -0.5644
   16MPD2    H5  257   4.460   3.150   1.139  1.3629  0.5944 -1.3687
   16MPD2    N1  258   4.417   3.626   1.263  0.1909  0.1027 -0.7978
   16MPD2    H7  259   4.376   3.719   1.264  1.1165  0.5096 -0.8933
   17TMC1    C1  260   1.857   3.629  11.767 -0.2280  0.2165  0.1955
   17TMC1    C2  261   1.741   3.601  11.837  0.6480 -0.5183 -0.6000
   17TMC1    C3  262   1.749   3.579  11.970 -0.1632 -0.2613 -0.5284
   17TMC1    C4  263   1.973   3.642  11.833  0.5168  0.2403 -0.3519
   17TMC1    C5  264   1.969   3.620  11.967 -0.2364 -0.3708 -0.5538
   17TMC1    C6  265   1.865   3.586  12.033  0.8119  0.2938 -0.1055
   17TMC1     C  266   1.851   3.622  11.625  0.1880 -0.2285  0.1740
   17TMC1     O  267   1.774   3.535  11.582  0.2847 -0.1363 -0.1775
   17TMC1     H  268   1.651   3.609  11.777  1.4086  0.1211 -1.6658
   17TMC1    H1  269   2.071   3.662  11.791 -0.0388  2.5638 -0.5868
   17TMC1    H2  270   1.862   3.580  12.141  1.1820 -0.0927 -0.1162
   17TMC1    C7  271   2.089   3.652  12.044  0.0768 -0.1458  0.8046
   17TMC1    C8  272   1.633   3.527  12.050 -0.0356  0.5057 -0.1357
   17TMC1    O1  273   2.175   3.732  12.000 -0.5535 -0.7491  0.5212
   17TMC1    O2  274   1.522   3.578  12.052 -0.2139  0.0759  0.2695
   17TMC1    O3  275   2.125   3.554  12.131 -0.1902 -0.0821  0.3025
   17TMC1    H3  276   2.070   3.474  12.143  0.7316 -0.8572 -0.6794
   17TMC1    O5  277   1.664   3.403  12.090 -0.0499  0.1072 -0.8125
   17TMC1    H5  278   1.753   3.375  12.061  0.8591 -0.4800  2.5531
   18MPD2     C  279   1.902   3.618  11.330 -0.0486  0.1881  0.6300
   18MPD2    C1  280   1.966   3.701  11.419 -0.5534  0.0152  0.7674
   18MPD2    C2  281   2.066   3.786  11.376 -0.4860 -1.1833  0.4577
   18MPD2    C3  282   2.115   3.787  11.251 -0.0706  0.5724  0.6199
   18MPD2    C4  283   2.059   3.691  11.167 -0.0346  0.3585 -0.2828
   18MPD2    C5  284   1.947   3.613  11.202  0.0540  0.1044  0.2240
   18MPD2     H  285   2.111   3.854  11.447 -3.9644  1.8850 -0.2414
   18MPD2    H1  286   2.097   3.664  11.069 -1.3112  0.8227 -0.9031
   18MPD2    H2  287   1.808   3.565  11.339 -0.4956  0.8607 -0.0232
   18MPD2    H3  288   1.919   3.532  11.136 -3.1657  0.7979  0.7784
   18MPD2     N  289   2.219   3.868  11.200  0.3502  0.2174  0.0816
   18MPD2    H5  290   2.257   3.849  11.108 -0.9499 -1.1819 -0.1548
   18MPD2    N1  291   1.929   3.704  11.559 -0.2845 -0.0992  0.8082
   18MPD2    H7  292   1.985   3.772  11.611  0.8568 -0.0227 -0.5244
   19TMC2    C1  293   3.429   0.188  14.337 -1.1434 -0.1446 -0.1289
   19TMC2    C2  294   3.360   0.293  14.396  0.6046 -0.3623 -0.1383
   19TMC2    C3  295   3.226   0.292  14.408 -0.3985  0.2309  0.3776
   19TMC2    C4  296   3.360   0.084  14.292 -0.0963  0.4297 -0.1068
   19TMC2    C5  297   3.218   0.092  14.291  0.5529 -0.3472 -0.2651
   19TMC2    C6  298   3.147   0.191  14.354  0.3716 -0.0049 -0.0403
   19TMC2     C  299   3.577   0.194  14.346 -0.1607  0.8910  0.1479
   19TMC2     O  300   3.638   0.299  14.368  0.2374 -0.0492  0.2109
   19TMC2     H  301   3.424   0.357  14.456  2.0994 -0.3204 -1.7828
   19TMC2    H1  302   3.408   0.006  14.233 -0.6961 -0.1357  0.1543
   19TMC2    H2  303   3.043   0.179  14.382  0.6413  1.3798  1.5500
   19TMC2    C7  304   3.143   4.730  14.220  0.8186 -0.3459 -0.4355
   19TMC2    C8  305   3.163   0.378  14.502 -0.0583 -0.2175  0.0437
   19TMC2    O1  306   3.199   4.625  14.186 -0.4637  0.1534  0.1318
   19TMC2    O2  307   3.060   0.354  14.564  0.4813 -0.1681  0.1186
   19TMC2    O5  308   3.242   0.485  14.516 -0.5120 -0.1859  0.4626
   19TMC2    H5  309   3.284   0.508  14.431 -0.7302 -0.7240  0.2140
   20MPD2     C  310   3.874   0.112  14.338  0.7780 -0.2893 -0.3737
   20MPD2    C1  311   3.763   0.031  14.357  0.2705  0.4265  1.0084
   20MPD2    C2  312   3.798   4.637  14.383  0.1424  0.2417 -0.4600
   20MPD2    C3  313   3.922   4.585  14.402 -0.1627  0.1245 -0.1757
   20MPD2    C4  314   4.026   4.666  14.380 -0.4846 -0.2929  0.9404
   20MPD2    C5  315   3.999   0.058  14.340 -0.3832  0.3018  0.1438
   20MPD2     H  316   3.717   4.570  14.409 -0.5387  1.2881  0.1221
   20MPD2    H1  317   4.131   4.638  14.380 -0.6738 -0.9917  0.1949
   20MPD2    H2  318   3.849   0.217  14.326  3.2235  0.1208 -1.7730
   20MPD2    H3  319   4.082   0.120  14.308 -1.3552  1.8038  0.5125
   20MPD2     N  320   3.960   4.463  14.456 -0.0138 -0.0895 -0.3846
   20MPD2    H5  321   4.056   4.462  14.488 -0.6373  0.0338  1.5280
   20MPD2    N1  322   3.626   0.067  14.353  0.0906  0.9422  0.6699
   20MPD2    H7  323   3.561   4.728  14.367 -1.0797  1.6250 -0.9808
   21TMC2    C1  324   1.129   0.009  14.710 -0.4282  0.0940  0.0169
   21TMC2    C2  325   1.144   4.621  14.743  0.5974 -0.2071  0.0978
   21TMC2    C3  326   1.049   4.574  14.827  0.0917 -0.3258 -0.1809
   21TMC2    C4  327   1.018   0.082  14.750 -0.4062  0.6661  0.2720
   21TMC2    C5  328   0.923   0.030  14.825  0.1480 -0.2934  0.2572
   21TMC2    C6  329   0.937   4.640  14.867  0.1280  0.1507  0.3729
   21TMC2     C  330   1.213   0.054  14.603  0.1119  0.0864 -0.4492
   21TMC2     O  331   1.211   0.176  14.589  0.5088  0.4647 -0.5767
   21TMC2     H  332   1.243   4.577  14.746  0.1945 -1.0244  1.7335
   21TMC2    H1  333   1.003   0.184  14.719 -0.9422  0.1792 -1.0617
   21TMC2    H2  334   0.875   4.594  14.942 -0.3607  2.0872  1.1535
   21TMC2    C7  335   0.864   0.103  14.932 -0.0670  0.5985 -0.4719
   21TMC2    C8  336   1.068   4.438  14.877  0.6726  0.8719 -0.7627
   21TMC2    O1  337   0.869   0.043  15.041  0.1591 -0.3066 -0.1726
   21TMC2    O2  338   1.017   4.401  14.980  0.6217 -0.1792 -0.3467
   21TMC2    O5  339   1.072   4.351  14.770  0.1288  0.3045  0.6752
   21TMC2    H5  340   1.119   4.386  14.691  0.8888  0.5843  1.2462
   22MPD2     C  341   1.566   0.008  14.233  0.0031  0.2321 -0.1523
   22MPD2    C1  342   1.511   0.118  14.290  0.4235 -0.0360  0.2197
   22MPD2    C2  343   1.422   0.105  14.395  0.1583  0.1823  0.0758
   22MPD2    C3  344   1.393   4.715  14.449  0.0989  0.1000  0.0084
   22MPD2    C4  345   1.464   4.609  14.401 -0.2639  0.8975  0.6822
   22MPD2    C5  346   1.551   4.618  14.292 -0.0986  0.4044 -0.2485
   22MPD2     H  347   1.377   0.193  14.440  1.0414 -0.3472  2.0171
   22MPD2    H1  348   1.450   4.509  14.440  0.6362  0.0831 -1.0455
   22MPD2    H2  349   1.635   4.738  14.150  0.5925 -2.5411  0.6472
   22MPD2    H3  350   1.598   4.527  14.257 -1.2963 -0.7800  1.2350
   22MPD2     N  351   1.286   4.694  14.543  0.3323  0.3133  0.4248
   22MPD2    H5  352   1.257   4.598  14.561 -0.6996  0.4408 -0.4980
   22MPD2    N1  353   1.538   0.246  14.243 -0.6763 -0.5573 -0.1814
   22MPD2    H7  354   1.481   0.321  14.281 -0.7432 -0.3722 -0.6561
   23TMC2    C1  355   2.183   1.588  15.050  0.0942  0.0914 -0.5736
   23TMC2    C2  356   2.141   1.702  14.988  0.3128  0.4365  0.2623
   23TMC2    C3  357   2.036   1.690  14.898 -0.3052  0.4921 -0.6385
   23TMC2    C4  358   2.120   1.469  15.032  0.0811 -0.0579 -0.2641
   23TMC2    C5  359   2.008   1.461  14.953 -0.0378  0.6386 -0.2519
   23TMC2    C6  360   1.967   1.569  14.876  1.1193  0.0829 -0.6642
   23TMC2     C  361   2.278   1.603  15.160 -0.8756 -0.1257 -0.1750
   23TMC2     O  362   2.267   1.527  15.257 -0.0994 -0.6482 -0.8620
   23TMC2     H  363   2.162   1.798  15.034 -2.9359 -0.4340  3.5353
   23TMC2    H1  364   2.143   1.382  15.093 -0.5098 -0.5963 -0.8094
   23TMC2    H2  365   1.871   1.561  14.825 -0.6190  3.2305  2.1066
   23TMC2    C7  366   1.954   1.326  14.934  0.2675  0.6985  0.5362
   23TMC2    C8  367   1.983   1.800  14.823 -0.0132  0.1209 -0.1347
   23TMC2    O1  368   2.037   1.234  14.922  0.2753 -0.7654  0.5396
   23TMC2    O2  369   1.884   1.787  14.748  0.0455 -0.6439 -0.3614
   23TMC2    O5  370   2.056   1.914  14.839  0.3894  0.2311 -0.1730
   23TMC2    H5  371   2.141   1.908  14.888  0.4453 -0.1314 -0.3128
   24MPD2     C  372   2.755   1.740  15.264 -0.3179  0.0174 -0.5516
   24MPD2    C1  373   2.683   1.631  15.311 -0.7950  0.8230  0.4720
   24MPD2    C2  374   2.545   1.628  15.274 -0.3777 -0.1396  0.2318
   24MPD2    C3  375   2.491   1.722  15.196 -0.5379  0.1786  0.8904
   24MPD2    C4  376   2.563   1.836  15.166 -0.2322  1.0110  0.4898
   24MPD2    C5  377   2.688   1.844  15.209  0.6287 -0.5382  0.2238
   24MPD2     H  378   2.479   1.548  15.304 -0.5075 -0.6656 -1.4564
   24MPD2    H1  379   2.516   1.920  15.116 -2.3011  0.2066  1.0740
   24MPD2    H2  380   2.863   1.748  15.273 -0.2960  0.5436 -1.3482
   24MPD2    H3  381   2.748   1.932  15.189 -1.1970  0.0295 -2.8803
   24MPD2     N  382   2.364   1.706  15.137  0.7127  0.2236 -0.5846
   24MPD2    H5  383   2.336   1.777  15.070 -0.6048  1.0445  0.8494
   24MPD2    N1  384   2.749   1.531  15.378 -0.0883  0.1583 -0.2893
   24MPD2    H7  385   2.847   1.545  15.402 -0.4647 -0.1483  1.3914
   25TMC2    C1  386   0.825   4.024  11.830  0.7163  0.1816 -0.6175
   25TMC2    C2  387   0.817   4.157  11.863  0.2186  0.2835 -0.2556
   25TMC2    C3  388   0.869   4.205  11.980  0.1524  0.0449  0.5057
   25TMC2    C4  389   0.891   3.943  11.919  0.2001  0.3586  0.0011
   25TMC2    C5  390   0.948   3.998  12.028 -0.6513 -0.1623  0.2132
   25TMC2    C6  391   0.945   4.131  12.066 -0.2295 -0.6664  0.6083
   25TMC2     C  392   0.775   3.977  11.708  0.8712  0.4103 -0.9972
   25TMC2     O  393   0.743   4.063  11.630 -0.1842  0.4316  0.1005
   25TMC2     H  394   0.767   4.224  11.794  2.4062  2.8295  0.6029
   25TMC2    H1  395   0.909   3.839  11.896  4.2119  0.4974  2.5898
   25TMC2    H2  396   0.989   4.169  12.157 -0.2871  0.4138  0.1789
   25TMC2    C7  397   1.001   3.913  12.135  0.0526  0.4451  0.3656
   25TMC2    C8  398   0.871   4.347  11.990  0.5668  0.8877 -0.2485
   25TMC2    O1  399   0.935   3.813  12.168 -0.5898  0.5755  0.3031
   25TMC2    O2  400   0.773   4.409  11.946 -0.0844  0.2339 -0.4564
   25TMC2    O5  401   0.995   4.387  11.975 -0.1887 -0.3752  0.1993
   25TMC2    H5  402   1.050   4.317  12.017 -1.6511 -2.0589 -0.7029
   26MPD2     C  403   0.606   3.654  11.341 -0.3549  0.0549  0.3891
   26MPD2    C1  404   0.631   3.581  11.450  0.0412  0.2741  0.7946
   26MPD2    C2  405   0.683   3.640  11.562 -0.4759 -0.0600 -0.4986
   26MPD2    C3  406   0.707   3.780  11.570 -0.2129  0.1535 -0.2914
   26MPD2    C4  407   0.672   3.856  11.454 -0.5727  0.9031 -0.0907
   26MPD2    C5  408   0.623   3.787  11.346  0.4860  0.8253  1.1812
   26MPD2     H  409   0.717   3.574  11.641 -0.2942  0.3478 -0.2369
   26MPD2    H1  410   0.681   3.963  11.444  3.2672  0.4148 -1.6362
   26MPD2    H2  411   0.563   3.602  11.256  0.5337 -1.3155  0.7657
   26MPD2    H3  412   0.594   3.839  11.255  0.5357  0.5385  1.0039
   26MPD2     N  413   0.751   3.838  11.692  0.1642  0.6662 -0.3787
   26MPD2    H5  414   0.758   3.778  11.774  1.4600  0.2268 -0.8236
   26MPD2    N1  415   0.606   3.444  11.441 -0.3861  0.0467 -0.0308
   26MPD2    H7  416   0.562   3.422  11.353  0.5677 -0.9119 -0.2727
   27TMC2    C1  417   0.201   0.962  12.454  0.0864  0.6076  0.8485
   27TMC2    C2  418   0.153   1.086  12.413  0.4920 -0.0066 -0.4463
   27TMC2    C3  419   0.237   1.170  12.346  0.7421  0.4552 -0.2488
   27TMC2    C4  420   0.337   0.939  12.455 -0.3153 -0.4564 -0.0535
   27TMC2    C5  421   0.422   1.028  12.401  0.4234 -0.0669 -0.2025
   27TMC2    C6  422   0.377   1.145  12.335 -0.7478 -0.7372 -0.6169
   27TMC2     C  423   0.128   0.899  12.559 -0.6365  0.9381  0.7497
   27TMC2     O  424   0.063   0.968  12.638  0.4821  0.4226 -0.5409
   27TMC2     H  425   0.048   1.108  12.422  1.3568  3.1454  1.9508
   27TMC2    H1  426   0.372   0.851  12.508 -0.2016 -1.4854 -1.8211
   27TMC2    H2  427   0.443   1.208  12.277 -0.6804  0.4567  0.7562
   27TMC2    C7  428   0.551   1.040  12.465 -0.6398 -0.3306  0.1062
   27TMC2    C8  429   0.200   1.302  12.308 -0.1889  0.0912  0.6512
   27TMC2    O1  430   0.558   0.968  12.566  0.1238 -0.1762  0.1212
   27TMC2    O2  431   0.248   1.347  12.205 -0.5316  0.0715  0.2198
   27TMC2    O5  432   0.198   1.366  12.422 -0.2300  0.5633 -0.2111
   27TMC2    H5  433   0.171   1.312  12.500 -2.9013 -1.6067 -2.6645
   28MPD2     C  434   4.701   0.477  12.798  0.1674 -0.4093 -0.1401
   28MPD2    C1  435   4.689   0.611  12.832  0.7001  0.2387 -0.1032
   28MPD2    C2  436   4.737   0.705  12.743 -0.4528  0.2165  0.3044
   28MPD2    C3  437   0.078   0.671  12.632 -0.7588 -0.2124 -0.1767
   28MPD2    C4  438   0.104   0.537  12.608 -0.3727  0.6831  0.3979
   28MPD2    C5  439   0.034   0.444  12.687 -0.5207  0.0218  0.0569
   28MPD2     H  440   4.716   0.809  12.763  1.1108  0.3818  1.0934
   28MPD2    H1  441   0.142   0.496  12.515  0.3855  2.1696  0.0557
   28MPD2    H2  442   4.647   0.403  12.856  0.3677 -0.3660  0.1023
   28MPD2    H3  443   0.033   0.340  12.656  0.7591  0.6232 -1.9446
   28MPD2     N  444   0.151   0.763  12.557 -0.5788 -0.0496  0.5485
   28MPD2    H5  445   0.227   0.733  12.497 -0.3663  0.7043  0.4319
   28MPD2    N1  446   4.617   0.645  12.952 -0.2108 -0.0322  0.0333
   28MPD2    H7  447   4.582   0.564  13.003  0.8134 -0.9495 -0.7086
   29TMC2    C1  448   4.468   3.466  14.803  0.0131  0.3019  0.5486
   29TMC2    C2  449   4.477   3.487  14.938 -1.1771  0.2154  0.2966
   29TMC2    C3  450   4.515   3.608  14.976  0.8471 -0.2393 -0.1169
   29TMC2    C4  451   4.496   3.565  14.711  0.5012  0.1125  0.1179
   29TMC2    C5  452   4.545   3.685  14.758  0.3267  0.4602 -0.0477
   29TMC2    C6  453   4.561   3.708  14.890  0.1308 -0.2057 -0.0585
   29TMC2     C  454   4.424   3.339  14.754 -0.0415 -0.5462 -0.1362
   29TMC2     O  455   4.444   3.246  14.830  0.0203 -0.3623  0.0846
   29TMC2     H  456   4.431   3.417  15.007  0.2025  0.4966  1.5208
   29TMC2    H1  457   4.485   3.548  14.605  2.4339  0.6535 -0.1561
   29TMC2    H2  458   4.583   3.809  14.922 -2.2413  0.3106 -0.0180
   29TMC2    C7  459   4.596   3.776  14.660  0.0126 -0.3740 -0.2200
   29TMC2    C8  460   4.501   3.639  15.122  0.1141 -0.6972 -0.2229
   29TMC2    O1  461   4.555   3.759  14.548 -0.1560 -0.3486  0.0633
   29TMC2    O2  462   4.433   3.570  15.197  0.1132 -0.3645  0.3372
   29TMC2    O5  463   4.627   3.681  15.152  0.0908 -0.4882  0.3455
   29TMC2    H5  464   4.683   3.717  15.080  0.5817 -0.3660  0.7808
   30MPD2     C  465   4.261   3.019  14.391 -0.0519  0.6274  0.0846
   30MPD2    C1  466   4.344   3.000  14.503  1.0455 -0.6248 -0.9099
   30MPD2    C2  467   4.376   3.108  14.581 -0.0957  0.4343  0.9737
   30MPD2    C3  468   4.321   3.234  14.558  0.0367 -0.6542  0.0463
   30MPD2    C4  469   4.245   3.247  14.447  0.2599  1.0873  0.6954
   30MPD2    C5  470   4.218   3.147  14.364 -0.1317 -0.0913 -0.1574
   30MPD2     H  471   4.432   3.086  14.671  2.4808  1.2636 -0.4115
   30MPD2    H1  472   4.219   3.350  14.423 -2.1957  0.4879  0.7880
   30MPD2    H2  473   4.237   2.939  14.321  1.3951  1.1649 -1.0099
   30MPD2    H3  474   4.163   3.152  14.270 -0.5099 -2.2120 -0.0600
   30MPD2     N  475   4.352   3.348  14.636  0.3970 -0.5165  0.0877
   30MPD2    H5  476   4.326   3.441  14.604 -0.9378 -1.5623 -1.8125
   30MPD2    N1  477   4.390   2.874  14.546 -0.1677  0.1188 -0.8050
   30MPD2    H7  478   4.462   2.871  14.618 -1.5386  1.4458  0.6281
   31TMC2    C1  479   2.438   2.068  15.724  0.4822 -0.5556 -0.0976
   31TMC2    C2  480   2.302   2.072  15.708  0.3315 -0.2765  0.7055
   31TMC2    C3  481   2.233   2.086  15.825 -0.0482 -0.6113  0.4734
   31TMC2    C4  482   2.506   2.083  15.841  0.3689  0.0098 -0.6545
   31TMC2    C5  483   2.429   2.083  15.958 -0.2218  0.3280 -0.1137
   31TMC2    C6  484   2.296   2.103  15.946 -0.5072  0.7714 -0.4508
   31TMC2     C  485   2.502   2.109  15.601 -0.0639  0.1611 -0.6179
   31TMC2     O  486   2.431   2.170  15.520  0.1744  0.0972 -0.4400
   31TMC2     H  487   2.259   2.066  15.608  2.3100  0.6108 -0.2017
   31TMC2    H1  488   2.614   2.075  15.847  0.6475  1.2907 -4.1308
   31TMC2    H2  489   2.235   2.107  16.035  0.2750  0.5686  0.0931
   31TMC2    C7  490   2.492   2.100  16.084 -0.0822 -0.1783  0.0968
   31TMC2    C8  491   2.085   2.098  15.814  0.8331  0.6805  0.2531
   31TMC2    O1  492   2.570   2.014  16.117  0.5347 -0.2241 -0.3862
   31TMC2    O2  493   2.019   2.030  15.734 -0.0135 -0.3946 -0.2989
   31TMC2    O5  494   2.045   2.192  15.899 -0.9022 -0.0656  0.4963
   31TMC2    H5  495   2.111   2.242  15.952  2.0806 -2.6596 -0.7042
   32MPD2     C  496   2.871   2.157  15.257 -0.3011  0.2914  0.2815
   32MPD2    C1  497   2.760   2.223  15.273  0.4388 -0.6461  0.9528
   32MPD2    C2  498   2.682   2.197  15.380 -0.0179  1.3074  0.1250
   32MPD2    C3  499   2.711   2.096  15.473  0.2061 -0.1548  0.5631
   32MPD2    C4  500   2.830   2.035  15.461 -0.4121  0.5429 -0.3172
   32MPD2    C5  501   2.910   2.064  15.359 -0.4647  0.0269 -0.2266
   32MPD2     H  502   2.590   2.255  15.386 -2.2660 -2.3105  1.0794
   32MPD2    H1  503   2.859   1.943  15.509 -2.2725  0.4251  0.5543
   32MPD2    H2  504   2.933   2.173  15.169 -1.5132  1.8552 -0.2901
   32MPD2    H3  505   3.006   2.014  15.356  0.0208  0.9331 -0.0218
   32MPD2     N  506   2.626   2.058  15.574 -0.0763  0.1911 -0.7673
   32MPD2    H5  507   2.661   1.990  15.640 -3.9689 -0.2490  0.8499
   32MPD2    N1  508   2.727   2.312  15.168  0.2951  0.7988  0.0316
   32MPD2    H7  509   2.793   2.318  15.091  0.5910 -2.4890  0.0569
   33TMC2    C1  510   2.203   0.265  10.913  0.2311 -0.0623  0.5014
   33TMC2    C2  511   2.085   0.269  10.986 -0.0168  0.7988 -0.1390
   33TMC2    C3  512   2.050   0.398  11.036  0.2398 -0.2207 -0.3115
   33TMC2    C4  513   2.263   0.383  10.863  0.8358 -0.0462  0.8789
   33TMC2    C5  514   2.210   0.504  10.902  0.3733  0.0560  0.5197
   33TMC2    C6  515   2.104   0.514  10.985 -0.0397 -0.1595 -0.0471
   33TMC2     C  516   2.275   0.138  10.919 -0.4189 -0.0842  0.0053
   33TMC2     O  517   2.215   0.031  10.953 -0.1741  0.3517 -0.8749
   33TMC2     H  518   2.039   0.181  11.029  1.3349  0.1382 -0.0387
   33TMC2    H1  519   2.345   0.390  10.793  0.6201 -0.5279  0.5810
   33TMC2    H2  520   2.084   0.607  11.036  0.3557  0.0312 -0.2418
   33TMC2    C7  521   2.270   0.630  10.857  0.2570  0.6140 -1.0636
   33TMC2    C8  522   1.928   0.406  11.120  0.3173  0.2435  0.6805
   33TMC2    O1  523   2.385   0.632  10.816  0.6547 -0.1326  0.0861
   33TMC2    O2  524   1.916   0.478  11.219 -0.1266  0.6304 -0.2296
   33TMC2    O5  525   1.827   0.329  11.071 -0.3893  0.3651 -0.2946
   33TMC2    H5  526   1.833   0.297  10.979 -0.4379  0.1700 -0.2293
   34MPD2     C  527   2.716   4.653  11.066 -0.1734 -0.6728 -0.1221
   34MPD2    C1  528   2.589   4.612  11.064 -0.5162 -0.3588 -0.9050
   34MPD2    C2  529   2.493   4.681  11.000 -0.3252  0.3664 -0.0591
   34MPD2    C3  530   2.512   0.073  10.958  0.3899  0.2513  0.4550
   34MPD2    C4  531   2.643   0.117  10.967 -0.3062 -0.2791  0.6105
   34MPD2    C5  532   2.746   0.037  11.018  0.1122  0.6195 -0.1991
   34MPD2     H  533   2.389   4.650  11.001 -0.1186 -0.3354 -0.1511
   34MPD2    H1  534   2.680   0.214  10.937 -1.5452  0.0045 -0.0048
   34MPD2    H2  535   2.798   4.593  11.103 -0.6190 -1.9224 -1.1527
   34MPD2    H3  536   2.849   0.068  11.030  0.5477 -1.3382  1.2165
   34MPD2     N  537   2.406   0.164  10.928  0.0349  0.9186  0.6036
   34MPD2    H5  538   2.441   0.257  10.908 -1.8140  1.0290 -1.9989
   34MPD2    N1  539   2.569   4.485  11.125  0.3766 -0.2720  0.0984
   34MPD2    H7  540   2.654   4.441  11.158  0.4972  1.2466  1.7823
   35TMC2    C1  541   3.628   1.186  11.849 -0.0010 -0.2381 -0.9961
   35TMC2    C2  542   3.514   1.215  11.783 -0.2886  0.1597  0.0803
   35TMC2    C3  543   3.408   1.130  11.786  0.6465 -0.3726 -0.8331
   35TMC2    C4  544   3.637   1.072  11.929  0.7673  0.2013 -0.3425
   35TMC2    C5  545   3.529   0.989  11.927  0.6003 -0.0247 -0.6516
   35TMC2    C6  546   3.414   1.016  11.859 -0.1066 -0.4132  0.3985
   35TMC2     C  547   3.742   1.267  11.826  0.6633 -0.3015 -0.0031
   35TMC2     O  548   3.750   1.324  11.718  0.1732  0.0201 -0.2206
   35TMC2     H  549   3.510   1.301  11.717 -2.2296 -1.1123 -1.4547
   35TMC2    H1  550   3.724   1.054  11.991  0.0133  1.5893  1.1180
   35TMC2    H2  551   3.338   0.939  11.845  0.5520 -0.8482 -0.8095
   35TMC2    C7  552   3.542   0.851  11.965  0.5466  0.0469 -0.4770
   35TMC2    C8  553   3.314   1.148  11.679 -0.8486  0.1050  0.0685
   35TMC2    O1  554   3.439   0.784  11.979  0.1303  0.2305 -0.0626
   35TMC2    O2  555   3.289   1.063  11.591 -0.6596 -0.3965 -0.2256
   35TMC2    O5  556   3.214   1.222  11.732 -0.5395 -0.0105 -0.0550
   35TMC2    H5  557   3.241   1.254  11.821  0.6386 -2.2362  0.3866
   36MPD2     C  558   4.150   1.511  12.039 -0.0846  0.0311 -0.1232
   36MPD2    C1  559   4.123   1.393  12.107  0.3646 -0.0385  0.8400
   36MPD2    C2  560   4.011   1.319  12.071  0.4489 -0.5339  0.1406
   36MPD2    C3  561   3.937   1.338  11.956  0.0992 -0.3468  0.0834
   36MPD2    C4  562   3.985   1.440  11.868 -0.3213  0.9095  0.2515
   36MPD2    C5  563   4.084   1.529  11.921 -0.3254  0.0520  0.2615
   36MPD2     H  564   3.974   1.241  12.137 -1.5273 -2.5957 -3.4026
   36MPD2    H1  565   3.939   1.458  11.772 -0.2236 -1.2251 -0.2013
   36MPD2    H2  566   4.203   1.593  12.085  1.0225  0.3493 -1.9859
   36MPD2    H3  567   4.109   1.623  11.872 -1.6774 -0.6567 -1.7774
   36MPD2     N  568   3.817   1.266  11.937  0.3773 -0.4275  0.4625
   36MPD2    H5  569   3.780   1.222  12.021  2.1584 -2.5430  0.1509
   36MPD2    N1  570   4.195   1.357  12.220  0.2223 -0.5431  0.1707
   36MPD2    H7  571   4.266   1.420  12.257  1.5176 -1.8364 -0.0877
   37TMC2    C1  572   1.326   1.011  12.223  0.5872 -0.7148 -0.0600
   37TMC2    C2  573   1.420   0.908  12.225  0.3180 -0.2769  0.2384
   37TMC2    C3  574   1.531   0.919  12.144 -0.0441 -0.3826 -0.0405
   37TMC2    C4  575   1.354   1.126  12.149  0.5200  0.1367  0.3317
   37TMC2    C5  576   1.466   1.137  12.067 -0.2706  0.0130  0.3286
   37TMC2    C6  577   1.552   1.033  12.065  0.4747  1.0054 -0.9060
   37TMC2     C  578   1.235   1.022  12.338 -0.6393  0.0355 -0.2423
   37TMC2     O  579   1.152   1.108  12.314  0.2184  0.0730  0.1675
   37TMC2     H  580   1.388   0.812  12.266  1.6765 -0.6793  0.3506
   37TMC2    H1  581   1.288   1.211  12.158 -1.3214 -1.3810  1.0259
   37TMC2    H2  582   1.635   1.039  11.995  0.6576  1.5919 -0.6412
   37TMC2    C7  583   1.477   1.243  11.978  0.1148 -0.5072  0.2164
   37TMC2    C8  584   1.616   0.802  12.143 -0.5478 -0.1051  0.2590
   37TMC2    O1  585   1.417   1.343  12.010  0.4418 -0.3662 -0.7488
   37TMC2    O2  586   1.564   0.695  12.112  0.1852  0.0433  0.2702
   37TMC2    O5  587   1.738   0.839  12.107  0.5324 -0.7602  0.5385
   37TMC2    H5  588   1.745   0.937  12.113  2.0318 -0.8885  1.0528
   38MPD2     C  589   0.998   0.904  12.778 -0.0761  0.0080  0.1440
   38MPD2    C1  590   1.122   0.853  12.780  0.2974  0.0393 -0.2994
   38MPD2    C2  591   1.200   0.864  12.668 -0.1298  0.3022  0.0773
   38MPD2    C3  592   1.155   0.929  12.557 -0.1955  0.2986  0.3076
   38MPD2    C4  593   1.033   0.993  12.565 -0.1763 -0.2929 -0.4843
   38MPD2    C5  594   0.956   0.972  12.672 -0.2029  0.4819 -0.0610
   38MPD2     H  595   1.298   0.818  12.666  0.6401  1.8432  1.9262
   38MPD2    H1  596   0.997   1.043  12.476  1.0136 -0.8262 -1.2828
   38MPD2    H2  597   0.932   0.907  12.864 -0.0580 -0.6017  0.1791
   38MPD2    H3  598   0.857   1.017  12.673 -0.5803 -0.3645  0.0777
   38MPD2     N  599   1.243   0.931  12.442  0.0379  0.5738 -0.4025
   38MPD2    H5  600   1.330   0.879  12.438 -0.6184 -0.4421 -1.4546
   38MPD2    N1  601   1.167   0.783  12.889  0.2129  0.0333 -0.1685
   38MPD2    H7  602   1.266   0.761  12.895 -0.0890 -1.3744 -0.2492
   39TMC2    C1  603   4.729   2.960   1.657 -0.5621 -0.3380  0.0484
   39TMC2    C2  604   4.723   2.853   1.750  0.3451  0.3111  0.1652
   39TMC2    C3  605   0.104   2.827   1.814  0.3153 -0.2262 -0.6112
   39TMC2    C4  606   0.099   3.041   1.634  0.5940 -0.3772  0.0566
   39TMC2    C5  607   0.214   3.013   1.708 -0.1860  1.0425  0.3228
   39TMC2    C6  608   0.217   2.908   1.796  0.0391  0.0405 -0.1826
   39TMC2     C  609   4.615   2.971   1.556 -0.2675 -0.3731  0.2171
   39TMC2     O  610   4.599   3.077   1.501  0.2752  0.6793  0.1997
   39TMC2     H  611   4.631   2.803   1.777  0.3906 -0.2842 -0.7979
   39TMC2    H1  612   0.110   3.113   1.554  0.9871 -0.5047 -0.0088
   39TMC2    H2  613   0.309   2.890   1.850 -0.2985 -2.3609 -0.4060
   39TMC2    C7  614   0.350   3.037   1.648 -0.0582 -1.1595 -0.3511
   39TMC2    C8  615   0.101   2.750   1.936  0.0490  0.6990  0.7405
   39TMC2    O1  616   0.433   2.949   1.675 -0.2920  0.2246 -0.6484
   39TMC2    O2  617   0.004   2.680   1.959 -0.3137  0.3373 -0.1872
   39TMC2    O5  618   0.148   2.842   2.025  0.5910 -0.6265 -0.3014
   39TMC2    H5  619   0.187   2.915   1.972  0.4801 -1.3545 -1.4026
   40MPD2     C  620   4.384   2.714   1.449 -0.6571 -0.5427  0.0336
   40MPD2    C1  621   4.425   2.840   1.478  0.2598  0.4057  0.5955
   40MPD2    C2  622   4.345   2.952   1.446  0.5787  0.0975 -0.4315
   40MPD2    C3  623   4.228   2.940   1.374  0.1841  0.2767  0.5808
   40MPD2    C4  624   4.194   2.811   1.340 -0.1189 -0.6331  0.2066
   40MPD2    C5  625   4.271   2.699   1.379  0.0434 -0.1044 -0.1273
   40MPD2     H  626   4.378   3.052   1.471  1.6245 -0.2972 -0.2508
   40MPD2    H1  627   4.101   2.797   1.284 -0.1663 -4.4813  1.2811
   40MPD2    H2  628   4.436   2.624   1.479  1.3044  0.7511  0.5366
   40MPD2    H3  629   4.237   2.599   1.355 -0.9878  1.0087 -3.2822
   40MPD2     N  630   4.136   3.047   1.336  0.3130  0.3131 -0.3027
   40MPD2    H5  631   4.053   3.034   1.279 -0.5809 -0.7298  1.2430
   40MPD2    N1  632   4.548   2.851   1.541  0.3491  0.2671  0.0890
   40MPD2    H7  633   4.597   2.766   1.566  0.7617 -0.4086 -3.0014
   41TMC2    C1  634   3.305   1.428  13.656 -0.3125  0.4920 -0.6691
   41TMC2    C2  635   3.192   1.466  13.593 -0.0865 -0.5822  0.6382
   41TMC2    C3  636   3.180   1.421  13.464 -0.3532 -0.4233  1.0204
   41TMC2    C4  637   3.399   1.344  13.605  0.2609 -0.1399 -0.0340
   41TMC2    C5  638   3.371   1.291  13.487  0.5987 -0.2275  0.4052
   41TMC2    C6  639   3.262   1.332  13.412 -0.0499  0.7879 -0.2680
   41TMC2     C  640   3.334   1.480  13.791  0.0870  0.6336  0.5647
   41TMC2     O  641   3.437   1.443  13.839 -0.4740  0.3667 -0.1352
   41TMC2     H  642   3.133   1.550  13.628  1.1806 -0.2646  1.9780
   41TMC2    H1  643   3.491   1.321  13.658  0.5298  0.3133 -0.3073
   41TMC2    H2  644   3.241   1.300  13.310  0.7285 -1.1515  0.1734
   41TMC2    C7  645   3.473   1.203  13.431 -0.1632  1.0490  0.7303
   41TMC2    C8  646   3.052   1.443  13.397  0.5576 -0.3753  0.3252
   41TMC2    O1  647   3.570   1.186  13.499  0.4654 -0.3259 -0.3165
   41TMC2    O2  648   3.033   1.397  13.287  0.4577 -0.4939  0.2759
   41TMC2    O5  649   2.960   1.443  13.494 -0.0795  0.0653 -0.2644
   41TMC2    H5  650   2.996   1.460  13.583 -0.7956 -1.3483  0.2857
   42MPD2     C  651   3.361   1.646  14.034  0.3738  0.0072 -0.0198
   42MPD2    C1  652   3.243   1.592  13.986  0.0059  0.7430  0.1882
   42MPD2    C2  653   3.132   1.602  14.066  0.3149  0.5073 -0.4939
   42MPD2    C3  654   3.137   1.659  14.195  0.2954 -0.4314 -0.2367
   42MPD2    C4  655   3.255   1.705  14.240  0.3448  0.7493  0.5418
   42MPD2    C5  656   3.361   1.699  14.163  0.0329 -0.3385 -0.1372
   42MPD2     H  657   3.047   1.567  14.009 -0.4626  2.3917 -0.4899
   42MPD2    H1  658   3.270   1.763  14.330 -0.9634  1.5265  0.2570
   42MPD2    H2  659   3.458   1.632  13.986  0.1192 -0.8042 -0.3105
   42MPD2    H3  660   3.453   1.737  14.207 -0.2767 -0.5233  0.6690
   42MPD2     N  661   3.016   1.666  14.280  0.1313 -0.0915  0.2331
   42MPD2    H5  662   3.034   1.701  14.374 -2.3471 -0.5679  0.8858
   42MPD2    N1  663   3.229   1.524  13.859  0.0175  0.8005 -0.2053
   42MPD2    H7  664   3.135   1.513  13.823 -0.9083  1.7868  1.8912
   43TMC2    C1  665   0.373   4.549   1.168  0.1311 -0.1171  0.2468
   43TMC2    C2  666   0.285   4.632   1.238 -0.2141  0.1622 -0.2460
   43TMC2    C3  667   0.329   4.684   1.356  0.1893  0.8246  0.6612
   43TMC2    C4  668   0.494   4.508   1.226  0.1736 -0.3154  0.0990
   43TMC2    C5  669   0.529   4.563   1.348  0.3137 -0.7816 -0.2123
   43TMC2    C6  670   0.449   4.654   1.412 -0.2229 -0.2953  0.2490
   43TMC2     C  671   0.324   4.465   1.058 -0.0184  0.5775 -0.5339
   43TMC2     O  672   0.409   4.406   1.002  0.2601  0.4803 -0.4280
   43TMC2     H  673   0.209   4.688   1.183  0.5952  1.4241 -0.0623
   43TMC2    H1  674   0.554   4.433   1.177  1.1085  1.2886 -1.2405
   43TMC2    H2  675   0.496   4.718   1.486 -1.2176  0.8394 -0.1028
   43TMC2    C7  676   0.668   4.554   1.384 -0.0978  0.0541 -0.0150
   43TMC2    C8  677   0.258   0.060   1.408 -0.0855  0.4906 -0.8006
   43TMC2    O1  678   0.736   4.483   1.308 -0.5453  0.5401  0.0247
   43TMC2    O2  679   0.309   0.117   1.505  0.3194  0.0831  0.2743
   43TMC2    O5  680   0.126   0.028   1.406  0.0171 -0.1456 -0.0980
   43TMC2    H5  681   0.087   4.698   1.347  0.2487  1.0175 -1.6206
   44MPD2     C  682   4.695   4.269   0.769 -0.6489  0.0764 -0.1502
   44MPD2    C1  683   0.091   4.245   0.769 -0.6114  0.4029 -0.3269
   44MPD2    C2  684   0.170   4.301   0.867  0.2572 -0.2489 -0.2803
   44MPD2    C3  685   0.117   4.402   0.949 -0.5329  0.2036  0.6030
   44MPD2    C4  686   4.717   4.415   0.945 -0.1208  0.6504 -0.2884
   44MPD2    C5  687   4.632   4.352   0.858  0.0731 -0.1669  0.0296
   44MPD2     H  688   0.277   4.285   0.871  0.1404 -0.2722  3.0132
   44MPD2    H1  689   4.671   4.487   1.011  1.3781 -0.1232  1.6168
   44MPD2    H2  690   4.633   4.217   0.697 -0.4719 -2.6301  1.6307
   44MPD2    H3  691   4.529   4.383   0.851  0.1497 -0.2059 -1.3969
   44MPD2     N  692   0.186   4.473   1.046 -0.3204 -0.0214 -0.5132
   44MPD2    H5  693   0.129   4.526   1.111 -2.1449 -1.3699 -1.0317
   44MPD2    N1  694   0.151   4.156   0.679  0.3201 -0.3625 -0.1626
   44MPD2    H7  695   0.246   4.133   0.706  0.7340  1.1271 -0.3509
   45TMC2    C1  696   0.641   1.433   9.891  0.3704  0.1865  0.0713
   45TMC2    C2  697   0.585   1.414   9.765 -0.1598  0.2951 -0.0473
   45TMC2    C3  698   0.579   1.522   9.687 -0.5940  0.3891 -0.1741
   45TMC2    C4  699   0.685   1.553   9.934 -0.0489 -0.6758 -0.1317
   45TMC2    C5  700   0.691   1.657   9.842 -0.6456 -0.6302 -0.0136
   45TMC2    C6  701   0.632   1.642   9.727 -0.0849  0.0601 -0.3481
   45TMC2     C  702   0.601   1.344   9.992  0.1836 -0.2870  0.3532
   45TMC2     O  703   0.640   1.355  10.109 -0.0772  0.3317  0.2803
   45TMC2     H  704   0.539   1.322   9.730  0.5975 -0.4755  0.9864
   45TMC2    H1  705   0.728   1.578  10.030 -0.9072  0.7178 -0.1004
   45TMC2    H2  706   0.628   1.709   9.642 -0.7486  0.7967  0.2605
   45TMC2    C7  707   0.741   1.787   9.885 -0.5256 -0.7750 -0.7731
   45TMC2    C8  708   0.498   1.523   9.570 -0.8021  0.7646  0.4329
   45TMC2    O1  709   0.805   1.797   9.991 -0.1859 -0.3371  0.3255
   45TMC2    O2  710   0.437   1.624   9.529 -0.1713 -0.7199 -0.6036
   45TMC2    O5  711   0.570   1.452   9.479 -0.2631 -0.1935  0.7342
   45TMC2    H5  712   0.628   1.380   9.513  0.7162 -0.5738 -1.7489
   46MPD2     C  713   0.507   1.099  10.129  0.2821  0.0738  0.2891
   46MPD2    C1  714   0.443   1.167  10.034 -0.1417  0.2539  0.2977
   46MPD2    C2  715   0.314   1.125   9.993 -0.7345  0.6180  0.6444
   46MPD2    C3  716   0.255   1.010  10.045 -0.5794  0.2681 -0.3744
   46MPD2    C4  717   0.327   0.937  10.135  0.1937  0.1520 -0.3376
   46MPD2    C5  718   0.452   0.979  10.169  0.0412 -0.1235 -0.2523
   46MPD2     H  719   0.268   1.179   9.911 -0.6176  1.0889  0.8927
   46MPD2    H1  720   0.286   0.848  10.182  0.2365  0.2329 -0.1494
   46MPD2    H2  721   0.612   1.118  10.147  0.6071 -1.8610  0.4059
   46MPD2    H3  722   0.502   0.918  10.243 -2.0382 -0.3720  0.9123
   46MPD2     N  723   0.130   0.972   9.998 -0.1408  0.3333  0.2473
   46MPD2    H5  724   0.095   1.035   9.927  1.9474  0.2307 -0.8667
   46MPD2    N1  725   0.493   1.267   9.957  0.0627 -0.1990 -0.3128
   46MPD2    H7  726   0.442   1.283   9.870  0.2533  2.6136  0.0740
   47TMC2    C1  727   2.665   1.600   9.564 -0.4613 -0.0700 -0.0928
   47TMC2    C2  728   2.733   1.517   9.480 -0.6242 -0.2254  0.2137
   47TMC2    C3  729   2.665   1.456   9.378  0.1323 -0.5799 -0.1529
   47TMC2    C4  730   2.531   1.630   9.550 -0.2854 -0.1744 -0.1929
   47TMC2    C5  731   2.466   1.579   9.442  0.2685  0.3416  0.0644
   47TMC2    C6  732   2.533   1.496   9.355  0.0473  0.7917 -0.4679
   47TMC2     C  733   2.734   1.656   9.677 -0.0220  0.5461  0.3211
   47TMC2     O  734   2.685   1.746   9.746  0.0043 -0.3992 -0.0069
   47TMC2     H  735   2.841   1.512   9.489 -0.6346 -0.8083  0.0175
   47TMC2    H1  736   2.476   1.680   9.629  1.5089  0.2198  0.8158
   47TMC2    H2  737   2.480   1.451   9.272 -1.1590 -0.7884  1.1580
   47TMC2    C7  738   2.355   1.657   9.393  0.5601  0.4364  0.2127
   47TMC2    C8  739   2.724   1.363   9.287  0.4798 -0.2850  0.9026
   47TMC2    O1  740   2.266   1.692   9.468 -0.0194 -0.0457  0.0147
   47TMC2    O2  741   2.682   1.343   9.176 -0.0628 -0.3224 -0.4119
   47TMC2    O5  742   2.784   1.270   9.367 -0.2618 -0.0388  0.0429
   47TMC2    H5  743   2.814   1.307   9.453 -0.7315 -0.7724  0.5213
   48MPD2     C  744   2.926   1.704   9.903 -0.4839 -0.5365 -1.0012
   48MPD2    C1  745   2.948   1.604   9.813 -0.5629  0.0192 -0.0284
   48MPD2    C2  746   3.063   1.531   9.830  0.5153  0.5669  0.3908
   48MPD2    C3  747   3.158   1.567   9.921 -0.0564 -0.3308 -0.0675
   48MPD2    C4  748   3.135   1.670  10.013 -0.4726  0.4009  0.1310
   48MPD2    C5  749   3.017   1.738   9.999  0.1267 -0.0834 -0.6037
   48MPD2     H  750   3.079   1.437   9.778  0.3831  0.9120 -0.2766
   48MPD2    H1  751   3.207   1.699  10.089 -1.2438  1.0323  0.6215
   48MPD2    H2  752   2.855   1.786   9.892 -0.4990 -0.2108  1.6586
   48MPD2    H3  753   2.987   1.815  10.070 -3.1144  1.3823 -3.5508
   48MPD2     N  754   3.262   1.480   9.928  0.4671  0.0723  0.0478
   48MPD2    H5  755   3.242   1.397   9.873  0.9495  0.4766 -0.7310
   48MPD2    N1  756   2.850   1.583   9.711  0.1472  0.3476  1.2307
   48MPD2    H7  757   2.868   1.509   9.644 -1.6891 -1.8805  3.2083
   49TMC2    C1  758   1.508   4.365  10.667  0.1218  0.7234  0.1498
   49TMC2    C2  759   1.530   4.431  10.547 -1.1174  0.1508  0.1183
   49TMC2    C3  760   1.451   4.390  10.438 -0.3721 -0.4964 -0.3695
   49TMC2    C4  761   1.402   4.284  10.684  0.1387  0.4975  0.6785
   49TMC2    C5  762   1.330   4.235  10.575  0.6762 -0.2083  0.4168
   49TMC2    C6  763   1.352   4.296  10.454  0.3804 -1.0044 -0.4839
   49TMC2     C  764   1.567   4.428  10.782  0.2251  1.1106  0.6475
   49TMC2     O  765   1.674   4.488  10.764  0.1017 -0.0354  0.0737
   49TMC2     H  766   1.597   4.514  10.532 -0.3870 -0.6242 -0.8682
   49TMC2    H1  767   1.390   4.235  10.780 -1.3911  0.7066  0.5937
   49TMC2    H2  768   1.292   4.264  10.370 -0.9593 -0.0623  0.1134
   49TMC2    C7  769   1.217   4.143  10.583 -0.1469 -0.5209 -0.8643
   49TMC2    C8  770   1.475   4.453  10.316  0.2796 -1.0425 -0.5018
   49TMC2    O1  771   1.131   4.143  10.499  0.3357  0.4119 -0.4404
   49TMC2    O2  772   1.589   4.475  10.278 -0.2075 -0.7915  0.5611
   49TMC2    O5  773   1.361   4.514  10.285  0.4332  0.8090 -0.0718
   49TMC2    H5  774   1.293   4.511  10.356 -1.0184 -0.8423 -1.5063
   50MPD2     C  775   1.656   4.494  11.058  0.1112 -0.5036  0.5911
   50MPD2    C1  776   1.523   4.479  11.016  0.4244 -0.2660  0.9039
   50MPD2    C2  777   1.421   4.513  11.107  0.3854  0.2047 -0.1054
   50MPD2    C3  778   1.451   4.551  11.237  0.4622 -0.4726  0.5013
   50MPD2    C4  779   1.577   4.565  11.277 -0.0587 -0.5633  0.1337
   50MPD2    C5  780   1.679   4.523  11.195  0.3221  0.2711  0.3519
   50MPD2     H  781   1.319   4.513  11.071 -0.3476  1.3892  2.0208
   50MPD2    H1  782   1.590   4.594  11.381  1.9072 -0.1759 -0.2197
   50MPD2    H2  783   1.742   4.459  11.002  0.0370 -2.7801  1.9040
   50MPD2    H3  784   1.780   4.530  11.235  0.9497 -0.5044 -1.1121
   50MPD2     N  785   1.353   4.578  11.334 -0.2272  0.2336  0.0325
   50MPD2    H5  786   1.376   4.623  11.423  0.7454 -0.8063  0.3134
   50MPD2    N1  787   1.477   4.444  10.887  0.3070 -0.4874  0.5703
   50MPD2    H7  788   1.378   4.437  10.865  0.6470 -1.0941 -0.7663
   51TMC2    C1  789   1.565   2.938   1.318  0.0531  0.5406 -0.2146
   51TMC2    C2  790   1.440   2.927   1.373 -0.0913 -0.1437 -0.7049
   51TMC2    C3  791   1.372   3.038   1.402  0.0430  0.5418  0.5902
   51TMC2    C4  792   1.605   3.063   1.271 -0.0725 -0.6006 -0.1020
   51TMC2    C5  793   1.533   3.174   1.296  0.0651  0.3272  0.7877
   51TMC2    C6  794   1.415   3.167   1.366  0.3965  0.0817  0.0760
   51TMC2     C  795   1.655   2.827   1.309  0.1376  0.4383 -0.1298
   51TMC2     O  796   1.761   2.843   1.250 -0.1952 -0.6101 -0.1822
   51TMC2     H  797   1.381   2.836   1.374 -1.0963  0.5163 -0.1335
   51TMC2    H1  798   1.685   3.066   1.198  1.1383 -1.2649  1.1909
   51TMC2    H2  799   1.360   3.254   1.400 -0.6407 -0.5418 -0.0319
   51TMC2    C7  800   1.580   3.303   1.257  0.1801 -0.2102  0.3289
   51TMC2    C8  801   1.257   3.037   1.491  0.6973  0.5766  0.2485
   51TMC2    O1  802   1.507   3.400   1.264 -0.1018  0.4947 -0.0443
   51TMC2    O2  803   1.172   2.952   1.481  0.4839  0.0484 -0.4464
   51TMC2    O5  804   1.256   3.147   1.569 -0.4265 -0.5044  0.7131
   51TMC2    H5  805   1.347   3.182   1.581 -0.3474  0.0827 -1.6071
   52MPD2     C  806   1.856   2.382   1.489 -0.2378 -0.2389  1.0357
   52MPD2    C1  807   1.898   2.471   1.389  0.2576  0.3462  0.3493
   52MPD2    C2  808   1.830   2.585   1.359 -0.2179 -0.5067 -0.2209
   52MPD2    C3  809   1.706   2.608   1.419  0.2712  0.5189  0.3021
   52MPD2    C4  810   1.654   2.514   1.512  0.1025  0.4335  0.2637
   52MPD2    C5  811   1.742   2.414   1.555 -0.2388  0.0144  0.4517
   52MPD2     H  812   1.861   2.644   1.274 -0.0400  1.7105  1.3680
   52MPD2    H1  813   1.556   2.533   1.555 -0.3030  0.9976 -0.9188
   52MPD2    H2  814   1.910   2.301   1.537  1.2213 -0.0957 -0.3544
   52MPD2    H3  815   1.714   2.342   1.631 -1.2755 -1.0323 -0.9099
   52MPD2     N  816   1.619   2.719   1.391 -0.5578  0.1377  0.2910
   52MPD2    H5  817   1.539   2.721   1.453  2.3033  0.2184  3.9978
   52MPD2    N1  818   2.020   2.453   1.321 -0.5936  0.8236  0.8796
   52MPD2    H7  819   2.044   2.520   1.248  0.6518 -1.2523 -0.5978
   53TMC2    C1  820   1.682   1.909  11.742 -0.4425  0.5509  0.1829
   53TMC2    C2  821   1.719   2.022  11.669  0.0669 -0.1442  0.0499
   53TMC2    C3  822   1.721   2.144  11.734 -0.3964  0.3476 -0.8571
   53TMC2    C4  823   1.646   1.918  11.876 -0.2401  1.0990 -0.2063
   53TMC2    C5  824   1.638   2.042  11.931 -0.5983 -0.1865  0.4613
   53TMC2    C6  825   1.684   2.160  11.865 -0.5148  0.8955 -0.3067
   53TMC2     C  826   1.703   1.779  11.682  0.2795  0.4903 -0.2761
   53TMC2     O  827   1.788   1.771  11.591 -0.6231 -0.2019 -0.1401
   53TMC2     H  828   1.744   2.010  11.564 -3.7453 -0.2841 -0.8319
   53TMC2    H1  829   1.599   1.833  11.923  1.5004 -1.0948 -2.4420
   53TMC2    H2  830   1.675   2.260  11.905 -2.0043  1.2554 -1.5141
   53TMC2    C7  831   1.616   2.059  12.068  0.0176  0.0303  0.2437
   53TMC2    C8  832   1.790   2.256  11.673  0.2269 -0.5303 -0.4564
   53TMC2    O1  833   1.572   2.168  12.105  0.0227  0.0562 -0.4932
   53TMC2    O2  834   1.753   2.373  11.681  0.3246  0.4636 -0.0299
   53TMC2    O5  835   1.919   2.223  11.684 -0.4304  0.7004  0.7077
   53TMC2    H5  836   1.934   2.128  11.700 -2.0466  0.2281 -0.5758
   54MPD2     C  837   1.737   1.491  11.617  0.0361  0.9791  0.3244
   54MPD2    C1  838   1.665   1.537  11.723  0.7004 -0.2828 -0.1259
   54MPD2    C2  839   1.608   1.449  11.816  0.0412 -0.3803  0.3289
   54MPD2    C3  840   1.616   1.317  11.780 -0.5137 -0.6486  0.2084
   54MPD2    C4  841   1.696   1.266  11.677  0.5285  0.0706  0.6490
   54MPD2    C5  842   1.752   1.360  11.592  0.4137  0.4223 -0.6190
   54MPD2     H  843   1.544   1.486  11.895  1.4155  0.1854  1.1824
   54MPD2    H1  844   1.725   1.163  11.658 -0.0657 -0.4565  2.6411
   54MPD2    H2  845   1.787   1.553  11.544  0.6875 -1.5480 -1.3570
   54MPD2    H3  846   1.808   1.336  11.502  1.7536 -0.7258  0.5306
   54MPD2     N  847   1.558   1.214  11.867  0.2950  0.4730  0.2240
   54MPD2    H5  848   1.581   1.117  11.845  0.4752  0.6311 -0.2954
   54MPD2    N1  849   1.643   1.673  11.750  0.3214 -0.2186  0.7858
   54MPD2    H7  850   1.566   1.700  11.811 -0.8307  0.9110 -1.1784
   55TMC2    C1  851   2.958   4.262   0.218  0.1807  0.3287 -0.1785
   55TMC2    C2  852   3.027   4.243   0.099  0.7814 -0.4305  0.0207
   55TMC2    C3  853   3.072   4.110   0.077  0.4179  0.3119  0.4088
   55TMC2    C4  854   2.948   4.166   0.315 -0.5692 -0.5562 -0.7617
   55TMC2    C5  855   2.973   4.039   0.276  0.0848 -0.6522 -0.2450
   55TMC2    C6  856   3.037   4.003   0.159 -0.2936 -0.0335 -1.0581
   55TMC2     C  857   2.924   4.396   0.256  0.9384 -0.0989  0.1694
   55TMC2     O  858   2.847   4.410   0.350 -0.0168 -0.2990 -0.6375
   55TMC2     H  859   3.043   4.317   0.022 -2.7934 -1.0134 -1.2726
   55TMC2    H1  860   2.893   4.195   0.403  0.6428 -1.9396  0.4375
   55TMC2    H2  861   3.061   3.900   0.133 -2.3630 -1.0844  1.2108
   55TMC2    C7  862   2.953   3.930   0.374  0.3664  0.6172  0.4661
   55TMC2    C8  863   3.144   4.085  17.709  0.0004 -0.6186 -0.6083
   55TMC2    O1  864   2.970   3.816   0.330  0.3127  0.0042  0.5796
   55TMC2    O2  865   3.142   4.161  17.611 -0.5280 -0.0372 -0.5810
   55TMC2    O5  866   3.262   4.045   0.004  0.4026 -0.4218  0.4014
   55TMC2    H5  867   3.254   4.013   0.097  1.8998  0.5558  0.8636
   56MPD2     C  868   3.061   4.715   0.118  0.3324 -0.0160  0.5299
   56MPD2    C1  869   2.980   4.632   0.195 -0.5132 -0.6754  0.2913
   56MPD2    C2  870   2.892   4.689   0.285 -1.0022 -0.3726  0.5244
   56MPD2    C3  871   2.892   0.088   0.302 -0.1917 -0.2044  0.5360
   56MPD2    C4  872   2.974   0.173   0.224 -0.4959  0.6604  0.3827
   56MPD2    C5  873   3.059   0.119   0.130  0.3952 -0.4152  0.1584
   56MPD2     H  874   2.836   4.637   0.362  0.2666  0.2759  1.8958
   56MPD2    H1  875   2.973   0.281   0.234 -0.9860  0.7934 -1.0337
   56MPD2    H2  876   3.148   4.675   0.067  1.7430  3.1017  0.4708
   56MPD2    H3  877   3.123   0.185   0.074  1.1903  0.6946  2.3460
   56MPD2     N  878   2.804   0.145   0.402  0.6078  0.3835  0.3922
   56MPD2    H5  879   2.751   0.077   0.455 -2.0277 -0.3465 -3.1759
   56MPD2    N1  880   2.993   4.490   0.183  0.2731 -0.1080 -0.5167
   56MPD2    H7  881   3.072   4.461   0.125 -0.4658  0.4669 -1.8180
   57TMC2    C1  882   1.656   0.238  13.363  0.5572  0.4989 -0.9920
   57TMC2    C2  883   1.619   0.141  13.273 -0.3768  0.3177  0.4032
   57TMC2    C3  884   1.724   0.075  13.214  0.1271  0.3096 -0.1137
   57TMC2    C4  885   1.785   0.268  13.385  0.4847  0.3260  0.1278
   57TMC2    C5  886   1.880   0.186  13.331 -0.5048 -0.1785  0.0989
   57TMC2    C6  887   1.848   0.080  13.253  0.1654 -0.8851 -0.5410
   57TMC2     C  888   1.560   0.317  13.442  0.2949  0.2248 -0.4817
   57TMC2     O  889   1.588   0.432  13.480 -0.2482  0.0585  0.8318
   57TMC2     H  890   1.522   0.144  13.225  0.2716 -0.7709 -0.9823
   57TMC2    H1  891   1.812   0.341  13.461 -3.6996  1.1307  0.8344
   57TMC2    H2  892   1.918   0.020  13.196  0.6125 -2.0183  1.2187
   57TMC2    C7  893   2.016   0.201  13.388 -0.7195 -0.6941 -0.0021
   57TMC2    C8  894   1.690   4.702  13.131  0.1862 -0.6070  0.2213
   57TMC2    O1  895   2.042   0.303  13.450  0.1588 -0.0773  0.0968
   57TMC2    O2  896   1.763   4.637  13.059 -0.5443  0.2497 -0.6240
   57TMC2    O5  897   1.588   4.647  13.201  0.2751 -0.0425  0.2391
   57TMC2    H5  898   1.527   4.703  13.254 -1.3515  0.2130 -1.9043
   58MPD2     C  899   1.159   0.318  13.770  0.0414 -0.1681 -0.3801
   58MPD2    C1  900   1.270   0.402  13.760  0.2142  0.4740 -0.6752
   58MPD2    C2  901   1.361   0.379  13.665  0.3185 -0.2151  0.3365
   58MPD2    C3  902   1.353   0.269  13.578  0.2389  1.3787  0.7388
   58MPD2    C4  903   1.255   0.179  13.600 -0.1259 -0.0081 -0.7978
   58MPD2    C5  904   1.153   0.208  13.689  0.1627  0.6552  0.7962
   58MPD2     H  905   1.449   0.441  13.656 -1.7268  2.4272 -1.3120
   58MPD2    H1  906   1.261   0.082  13.552  0.0409  0.0170 -0.8266
   58MPD2    H2  907   1.070   0.334  13.830  0.5904 -2.4428  1.0081
   58MPD2    H3  908   1.083   0.127  13.707 -0.9666  1.5057  0.2373
   58MPD2     N  909   1.452   0.235  13.477 -0.6437  0.0815  0.3773
   58MPD2    H5  910   1.447   0.143  13.436 -3.7784  0.6355 -0.5176
   58MPD2    N1  911   1.295   0.514  13.842 -0.3001 -0.2903  0.0311
   58MPD2    H7  912   1.380   0.567  13.827  0.8994 -2.6870 -1.6354
   59TMC2    C1  913   4.178   0.215  13.174  0.1466  0.5968  0.3506
   59TMC2    C2  914   4.139   0.091  13.139 -0.2753  0.7356 -0.2064
   59TMC2    C3  915   4.161   0.038  13.015  1.1230 -0.2115  0.3506
   59TMC2    C4  916   4.234   0.298  13.085  0.6396 -0.5828  0.2702
   59TMC2    C5  917   4.257   0.245  12.959 -0.3097 -0.5253  0.7645
   59TMC2    C6  918   4.225   0.117  12.922 -0.3418 -0.5160  0.2060
   59TMC2     C  919   4.137   0.261  13.303 -0.2046 -0.3737  0.3855
   59TMC2     O  920   4.047   0.197  13.353  0.1338  0.1738  0.1003
   59TMC2     H  921   4.114   0.017  13.215 -0.6423  0.7686 -0.2942
   59TMC2    H1  922   4.241   0.404  13.104  0.4826 -0.5661  0.2313
   59TMC2    H2  923   4.252   0.083  12.823  3.1322 -0.0341  0.9844
   59TMC2    C7  924   4.338   0.312  12.855 -0.2670 -0.2437 -0.8569
   59TMC2    C8  925   4.096   4.665  12.957 -0.1741 -0.9217  0.3349
   59TMC2    O1  926   4.430   0.250  12.806 -0.6249 -0.0836  0.5400
   59TMC2    O2  927   4.128   4.624  12.850 -0.8852  0.2606  0.1873
   59TMC2    O5  928   3.967   4.665  12.999 -0.4530  0.2435  0.1488
   59TMC2    H5  929   3.933   4.726  13.068  0.2215 -1.2864  1.8350
   60MPD2     C  930   4.160   0.348  13.592 -0.0805 -0.3086 -0.2819
   60MPD2    C1  931   4.248   0.387  13.494  0.2005  0.0091  0.0990
   60MPD2    C2  932   4.350   0.476  13.527 -0.2413 -0.0003 -0.0770
   60MPD2    C3  933   4.365   0.525  13.657  0.1358 -0.2545 -0.1563
   60MPD2    C4  934   4.271   0.484  13.754  0.1238  0.0129  0.0485
   60MPD2    C5  935   4.174   0.395  13.717 -0.3054 -0.0019  0.3312
   60MPD2     H  936   4.417   0.509  13.448  1.6371 -2.0069  0.7014
   60MPD2    H1  937   4.268   0.531  13.852 -0.5616  0.7057 -0.3082
   60MPD2    H2  938   4.088   0.270  13.570 -0.7677 -0.0578  1.0532
   60MPD2    H3  939   4.105   0.358  13.792 -0.2011  0.6838  0.7616
   60MPD2     N  940   4.478   0.601  13.708  0.0220  0.0842  0.5253
   60MPD2    H5  941   4.482   0.621  13.808  3.0374  1.0095  0.2226
   60MPD2    N1  942   4.235   0.349  13.360 -0.5545 -0.0763  0.1061
   60MPD2    H7  943   4.306   0.380  13.294 -1.2603  0.4349 -0.4114
   61TMC2    C1  944   3.596   1.730  15.904 -0.4309  0.2810 -0.2458
   61TMC2    C2  945   3.567   1.686  16.034 -0.1544 -0.4222  0.4617
   61TMC2    C3  946   3.493   1.776  16.107 -0.5190  0.3776 -0.1360
   61TMC2    C4  947   3.560   1.851  15.853 -1.0239 -0.4453  0.6557
   61TMC2    C5  948   3.483   1.936  15.931  0.2548 -0.0384  1.0963
   61TMC2    C6  949   3.445   1.898  16.058 -0.0108  0.3994  0.2814
   61TMC2     C  950   3.660   1.639  15.817 -0.6843 -0.2342  0.2700
   61TMC2     O  951   3.725   1.559  15.874  0.1918  0.6692 -0.0836
   61TMC2     H  952   3.594   1.590  16.076 -0.0016 -0.0149  1.2897
   61TMC2    H1  953   3.624   1.899  15.780  1.4524  0.0035  3.1231
   61TMC2    H2  954   3.380   1.966  16.112 -1.4211 -0.8153  0.0964
   61TMC2    C7  955   3.453   2.062  15.864 -0.3622 -0.2305  0.4716
   61TMC2    C8  956   3.441   1.749  16.243  0.1793 -0.0484 -0.0322
   61TMC2    O1  957   3.518   2.098  15.767  0.0778  0.1018  0.6673
   61TMC2    O2  958   3.333   1.794  16.269 -0.1244 -0.0859 -0.6710
   61TMC2    O5  959   3.489   1.629  16.290  0.2025 -0.1140  0.9144
   61TMC2    H5  960   3.585   1.627  16.272 -0.3161 -0.3804 -1.7603
   62MPD2     C  961   3.725   1.434  15.604  0.7452  0.0454  0.1232
   62MPD2    C1  962   3.685   1.565  15.579  0.1479  0.1141 -0.1229
   62MPD2    C2  963   3.700   1.619  15.455 -0.9201  0.5893  0.3861
   62MPD2    C3  964   3.742   1.538  15.350  0.1522 -0.0469  0.3598
   62MPD2    C4  965   3.790   1.412  15.374 -0.0291  0.1827  0.1380
   62MPD2    C5  966   3.772   1.357  15.501  0.6313 -0.7531 -0.1433
   62MPD2     H  967   3.686   1.725  15.439 -2.2044  0.3025 -0.3627
   62MPD2    H1  968   3.836   1.356  15.293 -2.4064  0.2192 -1.2497
   62MPD2    H2  969   3.725   1.392  15.703  2.3102  0.9251  0.5006
   62MPD2    H3  970   3.811   1.257  15.519 -0.8988 -1.4896 -0.9729
   62MPD2     N  971   3.756   1.593  15.214 -0.4672  0.5693  0.0110
   62MPD2    H5  972   3.809   1.540  15.144 -0.5250  0.7152 -0.1424
   62MPD2    N1  973   3.633   1.654  15.680  0.2223 -0.0014 -0.3330
   62MPD2    H7  974   3.589   1.741  15.652 -0.5597 -0.4188 -0.3878
   63TMC2    C1  975   3.013   1.851  10.515 -0.1670  0.2000 -0.1331
   63TMC2    C2  976   3.135   1.814  10.571  0.2073 -0.0230 -0.3646
   63TMC2    C3  977   3.250   1.840  10.497  0.2055  0.5232 -0.7597
   63TMC2    C4  978   3.004   1.908  10.395  0.2677  0.4767 -0.0393
   63TMC2    C5  979   3.122   1.954  10.339  0.0081  0.5394  0.2671
   63TMC2    C6  980   3.247   1.913  10.382 -0.3018 -1.1759 -0.3976
   63TMC2     C  981   2.894   1.852  10.588  0.3965 -0.6536  1.1426
   63TMC2     O  982   2.807   1.921  10.539 -0.2242  0.0169  0.7270
   63TMC2     H  983   3.145   1.772  10.670  0.5460  0.5336 -0.1594
   63TMC2    H1  984   2.915   1.958  10.358 -1.0816 -0.5002  1.8694
   63TMC2    H2  985   3.336   1.939  10.326 -0.7271  1.3093  0.1119
   63TMC2    C7  986   3.117   2.056  10.241 -0.4664 -0.3691 -0.6414
   63TMC2    C8  987   3.367   1.798  10.569  0.5042 -0.2606  0.1237
   63TMC2    O1  988   3.011   2.073  10.185  0.2024  0.3922  0.1326
   63TMC2    O2  989   3.372   1.765  10.685 -0.2695  0.3967  0.0336
   63TMC2    O5  990   3.445   1.737  10.480 -0.1953 -0.0748  0.1253
   63TMC2    H5  991   3.437   1.765  10.386 -0.9557 -0.4094  0.0866
   64MPD2     C  992   2.604   1.781  11.008 -0.1275  0.3249  0.2093
   64MPD2    C1  993   2.709   1.694  11.015 -0.1927  0.4302 -0.1986
   64MPD2    C2  994   2.815   1.711  10.928  0.2971  0.4939 -0.1303
   64MPD2    C3  995   2.801   1.785  10.811 -0.4754  0.3843 -0.0556
   64MPD2    C4  996   2.686   1.865  10.803  0.0204 -0.1842 -0.3560
   64MPD2    C5  997   2.597   1.872  10.903 -0.7938 -0.2070  0.2282
   64MPD2     H  998   2.911   1.665  10.950  0.8120  1.6125 -0.0206
   64MPD2    H1  999   2.672   1.935  10.721  0.1443 -1.0768 -1.1377
   64MPD2    H2 1000   2.520   1.774  11.077  0.7153  0.0733  1.2085
   64MPD2    H3 1001   2.515   1.942  10.898  2.1222  3.1977  0.3499
   64MPD2     N 1002   2.903   1.792  10.712  0.5147  0.0395  0.4276
   64MPD2    H5 1003   2.985   1.741  10.743 -0.5256 -0.3726  2.5608
   64MPD2    N1 1004   2.724   1.592  11.118 -0.1375 -0.3654 -0.0460
   64MPD2    H7 1005   2.797   1.524  11.103 -0.2495 -0.0034 -2.1791
   65TMC2    C1 1006   4.372   1.388  15.969  0.4782 -0.9373 -0.4025
   65TMC2    C2 1007   4.426   1.328  15.856 -0.0383 -0.5598  0.2277
   65TMC2    C3 1008   4.445   1.398  15.747  0.3387 -0.7437  0.0559
   65TMC2    C4 1009   4.348   1.521  15.971 -0.1409 -0.7378 -0.4763
   65TMC2    C5 1010   4.370   1.594  15.853  0.1419 -0.4287  0.1230
   65TMC2    C6 1011   4.415   1.533  15.739  0.1650 -0.2707  0.1883
   65TMC2     C 1012   4.356   1.298  16.078 -0.5295  0.3572 -0.7360
   65TMC2     O 1013   4.421   1.340  16.178 -0.2806  0.1753  0.1080
   65TMC2     H 1014   4.458   1.224  15.865  1.1057 -0.5404 -3.6154
   65TMC2    H1 1015   4.289   1.556  16.054 -0.2611 -0.5727 -0.6299
   65TMC2    H2 1016   4.449   1.594  15.656  1.3650  2.0010  2.3860
   65TMC2    C7 1017   4.351   1.737  15.853  0.4127  0.9018  0.6683
   65TMC2    C8 1018   4.511   1.345  15.632 -0.8168 -0.4912  0.8833
   65TMC2    O1 1019   4.379   1.789  15.748 -0.5931  0.0255  0.2347
   65TMC2    O2 1020   4.572   1.417  15.554  0.0827  0.2005 -0.2824
   65TMC2    O5 1021   4.525   1.211  15.630 -0.1269 -0.2200  0.1532
   65TMC2    H5 1022   4.455   1.167  15.683  0.5780 -1.5353 -0.0114
   66MPD2     C 1023   4.326   1.059  16.260 -0.7290 -0.4394 -0.7391
   66MPD2    C1 1024   4.307   1.056  16.123 -0.4506  0.4010 -0.5754
   66MPD2    C2 1025   4.284   0.939  16.059  0.7065  0.5157  0.4815
   66MPD2    C3 1026   4.270   0.821  16.120  0.2111  0.0966  0.6632
   66MPD2    C4 1027   4.284   0.821  16.255  0.1555 -0.0817 -0.1662
   66MPD2    C5 1028   4.311   0.941  16.323  0.6136 -1.2844  0.4374
   66MPD2     H 1029   4.294   0.950  15.952  2.2613 -4.1143  0.1319
   66MPD2    H1 1030   4.272   0.731  16.315  0.2278 -0.9329 -1.4313
   66MPD2    H2 1031   4.319   1.152  16.314  0.8748 -0.6501 -0.1782
   66MPD2    H3 1032   4.306   0.941  16.431 -0.9379  4.2657  0.3667
   66MPD2     N 1033   4.231   0.699  16.053 -0.3115  0.0036 -0.4235
   66MPD2    H5 1034   4.206   0.624  16.116  1.4944 -0.2491  0.0074
   66MPD2    N1 1035   4.316   1.172  16.044  0.1341  0.2813 -0.5197
   66MPD2    H7 1036   4.293   1.161  15.946 -1.2456  1.4334 -0.3121
   67TMC2    C1 1037   4.598   0.581  14.630  0.7779 -0.0630  0.2231
   67TMC2    C2 1038   4.592   0.721  14.642 -0.4478 -0.0732  0.0754
   67TMC2    C3 1039   4.684   0.777  14.729  0.1603  0.8834 -0.5941
   67TMC2    C4 1040   4.695   0.508  14.698 -0.2796  0.1336  0.1656
   67TMC2    C5 1041   0.049   0.575  14.771 -0.7766  0.7500 -0.1307
   67TMC2    C6 1042   0.038   0.702  14.791  0.0227  0.6395 -0.5672
   67TMC2     C 1043   4.480   0.502  14.595 -0.3459 -0.1540  0.3033
   67TMC2     O 1044   4.477   0.378  14.592  0.0585  0.1431  0.7023
   67TMC2     H 1045   4.510   0.778  14.600 -1.2004  0.1115  1.8029
   67TMC2    H1 1046   4.707   0.402  14.678  1.8943  0.2194  0.9893
   67TMC2    H2 1047   0.122   0.756  14.832 -0.6943  1.0162  0.3859
   67TMC2    C7 1048   0.121   0.496  14.870  0.4285  0.6753  0.1372
   67TMC2    C8 1049   4.698   0.918  14.748 -0.0014  0.5272  0.6727
   67TMC2    O1 1050   0.188   0.404  14.819 -0.0204  0.2198  0.6333
   67TMC2    O2 1051   4.708   0.997  14.655 -0.1134 -0.3229 -0.6506
   67TMC2    O5 1052   4.674   0.951  14.876 -0.6048 -0.1549  0.8315
   67TMC2    H5 1053   4.647   0.864  14.912  2.5713 -0.8078  1.6073
   68MPD2     C 1054   4.199   0.419  14.497 -0.8628  0.4260  0.1300
   68MPD2    C1 1055   4.237   0.545  14.538 -0.3311 -0.1085  0.0927
   68MPD2    C2 1056   4.150   0.656  14.525 -0.1048  0.3570  0.5685
   68MPD2    C3 1057   4.018   0.635  14.482 -0.8815  0.8490 -0.0547
   68MPD2    C4 1058   3.988   0.513  14.431  0.1263  0.5201 -0.0605
   68MPD2    C5 1059   4.071   0.402  14.440  0.6145 -0.6118 -0.0048
   68MPD2     H 1060   4.175   0.754  14.564 -0.2108 -0.1129  1.8236
   68MPD2    H1 1061   3.891   0.490  14.388 -0.7127  2.0971  1.0112
   68MPD2    H2 1062   4.264   0.333  14.495  1.1964  1.9163  1.9972
   68MPD2    H3 1063   4.046   0.299  14.416 -0.2077 -0.4196  0.0570
   68MPD2     N 1064   3.931   0.744  14.450  0.1097 -0.1901 -0.2291
   68MPD2    H5 1065   3.849   0.720  14.395 -0.5431  2.0589 -0.2307
   68MPD2    N1 1066   4.369   0.584  14.583 -0.0773 -0.4939  0.3589
   68MPD2    H7 1067   4.379   0.685  14.597 -0.2223 -0.4329  0.0058
   69TMC2    C1 1068   1.931   1.875  12.502 -0.1107 -0.1138 -0.2585
   69TMC2    C2 1069   1.899   1.974  12.595 -0.1985  0.3878  0.4277
   69TMC2    C3 1070   1.909   2.099  12.555  0.6274  0.3605  0.4457
   69TMC2    C4 1071   1.972   1.904  12.374  0.1236  0.3876 -0.3513
   69TMC2    C5 1072   1.980   2.033  12.347 -0.2195 -0.2093  0.0121
   69TMC2    C6 1073   1.958   2.131  12.437  0.0122 -0.4485 -0.2893
   69TMC2     C 1074   1.915   1.738  12.540  0.1112 -0.4585 -0.1762
   69TMC2     O 1075   1.847   1.710  12.637  0.4374 -0.1498 -0.8456
   69TMC2     H 1076   1.845   1.949  12.686 -2.4632  1.7108 -0.5698
   69TMC2    H1 1077   1.987   1.836  12.291  0.2273  2.4266 -1.9853
   69TMC2    H2 1078   1.961   2.237  12.414 -0.0594  0.1490  2.4583
   69TMC2    C7 1079   2.056   2.052  12.224 -0.6733  0.1599  0.0356
   69TMC2    C8 1080   1.864   2.206  12.645  0.3761 -0.2669  0.2169
   69TMC2    O1 1081   2.126   1.963  12.182 -0.0729  0.3844  0.4936
   69TMC2    O2 1082   1.808   2.311  12.615 -0.5395  0.0016  0.0314
   69TMC2    O5 1083   1.916   2.183  12.768 -0.3178  0.5758 -0.2185
   69TMC2    H5 1084   1.969   2.100  12.772  0.5086  1.1425  0.4952
   70MPD2     C 1085   2.123   1.438  12.487 -0.0708 -0.4170 -0.1596
   70MPD2    C1 1086   2.002   1.506  12.501  0.1804  0.3979 -0.4257
   70MPD2    C2 1087   1.884   1.434  12.538 -0.5412 -0.2771  0.0882
   70MPD2    C3 1088   1.893   1.300  12.563 -0.6100 -0.4005  1.2061
   70MPD2    C4 1089   2.014   1.236  12.550  0.2320 -0.2662 -0.1633
   70MPD2    C5 1090   2.123   1.303  12.503  0.3532 -0.1538  0.3403
   70MPD2     H 1091   1.787   1.484  12.537 -0.6418 -0.5564 -2.5300
   70MPD2    H1 1092   2.029   1.129  12.544 -5.6458 -1.2109  2.5044
   70MPD2    H2 1093   2.207   1.492  12.445  1.0351 -2.5880 -0.7295
   70MPD2    H3 1094   2.208   1.242  12.474 -0.7921 -0.9558 -1.2948
   70MPD2     N 1095   1.781   1.213  12.590 -0.2258  0.5556  0.2295
   70MPD2    H5 1096   1.803   1.116  12.610 -0.6851  0.2380 -0.8281
   70MPD2    N1 1097   2.006   1.650  12.481  0.4296  0.0901 -0.1669
   70MPD2    H7 1098   2.088   1.686  12.435  2.4778 -2.4223  1.5377
   71TMC2    C1 1099   4.117   2.169   1.928 -0.2805  0.3053  0.2858
   71TMC2    C2 1100   4.238   2.116   1.966 -1.1747  0.4513  0.2010
   71TMC2    C3 1101   4.322   2.193   2.044 -0.7026 -0.4615 -0.2013
   71TMC2    C4 1102   4.090   2.299   1.956 -0.0613 -0.7068 -0.8670
   71TMC2    C5 1103   4.172   2.377   2.032  0.3448  0.3824 -0.0855
   71TMC2    C6 1104   4.288   2.319   2.082 -0.5331  0.6368 -0.0585
   71TMC2     C 1105   4.046   2.114   1.812  0.3396  1.0167 -0.1352
   71TMC2     O 1106   4.010   2.194   1.724 -0.0181 -0.0040 -0.5265
   71TMC2     H 1107   4.267   2.017   1.934  0.0355  1.0814 -0.6588
   71TMC2    H1 1108   3.990   2.325   1.923  0.3080  1.2265 -0.4753
   71TMC2    H2 1109   4.351   2.371   2.153 -0.5343  1.4841 -0.6760
   71TMC2    C7 1110   4.143   2.505   2.081 -0.0051 -0.1584 -0.4980
   71TMC2    C8 1111   4.417   2.122   2.123 -0.4568 -0.1698  0.1711
   71TMC2    O1 1112   4.207   2.548   2.176 -0.2700 -0.0485  0.6642
   71TMC2    O2 1113   4.404   2.003   2.143  0.0134 -0.4876  0.3081
   71TMC2    O5 1114   4.529   2.195   2.161  0.6228 -0.7065  0.2510
   71TMC2    H5 1115   4.539   2.286   2.124 -0.4873 -1.0683 -0.9351
   72MPD2     C 1116   3.787   1.732   1.558 -0.3738  0.2049  0.4530
   72MPD2    C1 1117   3.823   1.863   1.520  0.7101  0.3845  0.2857
   72MPD2    C2 1118   3.900   1.940   1.605  0.2061  0.4136  0.2663
   72MPD2    C3 1119   3.941   1.898   1.729 -0.2024  0.9024 -0.2925
   72MPD2    C4 1120   3.912   1.769   1.759  0.2280 -1.0390 -0.6915
   72MPD2    C5 1121   3.831   1.692   1.681 -0.0003 -0.2539 -0.1149
   72MPD2     H 1122   3.922   2.043   1.580 -2.1367  0.6905 -0.6641
   72MPD2    H1 1123   3.946   1.725   1.852  0.2973 -1.6660 -1.0157
   72MPD2    H2 1124   3.714   1.673   1.503 -2.7143  2.6546  0.9369
   72MPD2    H3 1125   3.827   1.590   1.718  0.3694 -0.6842 -1.2712
   72MPD2     N 1126   4.017   1.976   1.826 -0.4261 -0.0534  0.2921
   72MPD2    H5 1127   4.048   1.936   1.914 -1.5093 -1.6732 -0.0739
   72MPD2    N1 1128   3.767   1.918   1.403 -0.2900 -1.2224 -0.6354
   72MPD2    H7 1129   3.767   2.019   1.394 -2.3600 -1.4219 -2.9490
   73TMC2    C1 1130   3.839   4.538  13.976 -0.0035  0.1981 -0.9765
   73TMC2    C2 1131   3.740   4.535  14.070 -0.2398  0.0122 -0.2064
   73TMC2    C3 1132   3.718   4.418  14.143  0.2808 -0.4337 -0.3581
   73TMC2    C4 1133   3.929   4.436  13.969 -1.4069  0.1827 -0.0888
   73TMC2    C5 1134   3.920   4.329  14.054  0.0443 -0.5981 -0.1352
   73TMC2    C6 1135   3.814   4.320  14.142 -1.0123  0.0196  0.5303
   73TMC2     C 1136   3.903   4.671  13.952 -0.0773  0.0396  0.5510
   73TMC2     O 1137   4.025   4.666  13.947 -0.3633 -0.5556 -0.2560
   73TMC2     H 1138   3.668   4.615  14.083  0.1364  0.4392 -0.7982
   73TMC2    H1 1139   4.009   4.432  13.895 -0.9647 -1.1061  0.4658
   73TMC2    H2 1140   3.805   4.247  14.222 -3.1412 -0.6289 -0.3129
   73TMC2    C7 1141   4.040   4.311  14.128  0.3306  0.0065  0.1850
   73TMC2    C8 1142   3.602   4.403  14.238  0.7721  0.0007 -0.2953
   73TMC2    O1 1143   4.041   4.219  14.208 -0.5333  0.3796  0.0256
   73TMC2    O2 1144   3.531   4.495  14.277  0.4872  1.3210 -0.2772
   73TMC2    O5 1145   3.572   4.269  14.248 -0.0776  0.1383 -0.9019
   73TMC2    H5 1146   3.620   4.216  14.180 -0.4522  1.5132 -2.2376
   74MPD2     C 1147   3.965   0.429  14.064 -0.5427  0.2209 -0.0604
   74MPD2    C1 1148   4.054   0.335  14.037  0.3481 -0.4178  0.6127
   74MPD2    C2 1149   4.002   0.212  13.997 -0.7061 -0.6927 -0.5642
   74MPD2    C3 1150   3.869   0.177  14.000  0.0147  0.4584  0.1613
   74MPD2    C4 1151   3.781   0.277  14.041  0.3159  0.3382  0.7137
   74MPD2    C5 1152   3.833   0.400  14.067  0.0096 -0.2191 -0.5743
   74MPD2     H 1153   4.081   0.139  13.983 -1.0590 -0.9133 -1.3987
   74MPD2    H1 1154   3.675   0.264  14.059  0.2570  0.5795  0.5420
   74MPD2    H2 1155   3.993   0.529  14.097  2.9102 -0.4589 -0.8786
   74MPD2    H3 1156   3.763   0.480  14.091 -1.2367 -1.3859 -0.2976
   74MPD2     N 1157   3.828   0.047  13.972  0.3348  0.3470 -0.1558
   74MPD2    H5 1158   3.727   0.038  13.983  0.4549 -1.3389 -0.4095
   74MPD2    N1 1159   4.185   0.362  14.078 -0.0325  0.2790 -0.2810
   74MPD2    H7 1160   4.203   0.456  14.112 -0.1182  0.2930 -0.2736
   75TMC2    C1 1161   3.856   0.972  14.441  0.0751  0.0202 -0.0352
   75TMC2    C2 1162   3.860   1.099  14.496  0.2260 -0.1037 -0.2594
   75TMC2    C3 1163   3.776   1.192  14.450  0.1854  0.0944 -0.5305
   75TMC2    C4 1164   3.789   0.944  14.331 -0.2927  0.0562 -0.7276
   75TMC2    C5 1165   3.703   1.041  14.281  0.8682 -0.6004  0.3235
   75TMC2    C6 1166   3.700   1.174  14.333 -0.2761  0.7284 -0.0111
   75TMC2     C 1167   3.953   0.872  14.490  0.5422 -0.3926  0.0830
   75TMC2     O 1168   4.024   0.908  14.582  0.2437  0.3396  0.7066
   75TMC2     H 1169   3.922   1.115  14.584 -2.8952  1.4137  1.6442
   75TMC2    H1 1170   3.782   0.851  14.276  1.7068 -0.6459  0.2138
   75TMC2    H2 1171   3.641   1.257  14.296  1.1866  1.9509  0.4524
   75TMC2    C7 1172   3.605   1.006  14.180  0.3556  0.3787  0.5375
   75TMC2    C8 1173   3.793   1.326  14.508  0.5017 -0.5726  0.1317
   75TMC2    O1 1174   3.648   0.943  14.085 -0.8007  0.0107 -0.4843
   75TMC2    O2 1175   3.894   1.355  14.569  0.3022 -0.0001  0.0944
   75TMC2    O5 1176   3.673   1.382  14.528  0.2686 -0.2076 -0.4414
   75TMC2    H5 1177   3.605   1.326  14.484  0.3137  0.9337 -1.9676
   76TMC2    C1 1178   2.535   1.105  12.111 -0.8989  0.4456 -0.0950
   76TMC2    C2 1179   2.403   1.088  12.153  0.1778  0.3551  0.4400
   76TMC2    C3 1180   2.378   0.973  12.231 -1.5728  0.8349  0.6012
   76TMC2    C4 1181   2.638   1.013  12.134 -0.1995 -0.9434 -0.1719
   76TMC2    C5 1182   2.601   0.898  12.201  0.0754 -0.2174 -0.6571
   76TMC2    C6 1183   2.477   0.879  12.253 -0.2082  0.3189  0.7104
   76TMC2     C 1184   2.559   1.217  12.025 -0.3543  0.3656 -0.1520
   76TMC2     O 1185   2.486   1.318  12.034 -0.8390 -0.0413 -0.0584
   76TMC2     H 1186   2.320   1.155  12.130 -1.9237 -1.2315  3.4552
   76TMC2    H1 1187   2.741   1.041  12.113 -0.9866 -0.2967 -3.1294
   76TMC2    H2 1188   2.454   0.801  12.326  0.5867  0.6409  1.3083
   76TMC2    C7 1189   2.711   0.810  12.242 -0.1820  0.4104 -0.0954
   76TMC2    C8 1190   2.277   0.985  12.332  0.2260  0.8924  0.0317
   76TMC2    O1 1191   2.828   0.850  12.229 -0.0836 -0.0100  0.4885
   76TMC2    O2 1192   2.304   0.982  12.453 -0.0227 -0.4417  0.2040
   76TMC2    O5 1193   2.151   0.984  12.279  0.3308 -1.1242 -0.0111
   76TMC2    H5 1194   2.153   0.967  12.182  1.7253 -1.8595  0.1460
   77MPD2     C 1195   2.840   1.451  11.667  0.0133 -0.4081 -0.4175
   77MPD2    C1 1196   2.721   1.482  11.724 -0.5551  0.1958  0.3428
   77MPD2    C2 1197   2.658   1.393  11.813 -0.2500  0.4562  0.3379
   77MPD2    C3 1198   2.728   1.276  11.847 -0.2123 -0.4803 -0.4029
   77MPD2    C4 1199   2.852   1.243  11.792  0.4121 -0.7720 -0.4171
   77MPD2    C5 1200   2.909   1.338  11.708  1.1034 -0.1259  0.5310
   77MPD2     H 1201   2.564   1.422  11.859 -1.5131  2.2530 -3.3680
   77MPD2    H1 1202   2.911   1.155  11.810 -0.9833 -1.7033 -0.4239
   77MPD2    H2 1203   2.901   1.518  11.607 -0.9401  1.4133  0.6385
   77MPD2    H3 1204   3.011   1.316  11.681  1.4225  1.1742  0.6816
   77MPD2     N 1205   2.665   1.182  11.940 -0.4100 -0.5778  0.0266
   77MPD2    H5 1206   2.723   1.101  11.959  1.8389  0.8850 -0.4751
   77MPD2    N1 1207   2.651   1.606  11.699  0.2481 -0.0577 -0.6155
   77MPD2    H7 1208   2.577   1.618  11.767  2.5948 -1.6752  2.2600
   78TMC2    C1 1209   4.374   1.062   1.577 -0.2528 -0.5820 -0.6400
   78TMC2    C2 1210   4.389   1.007   1.698 -0.6178  0.8759  0.2817
   78TMC2    C3 1211   4.517   0.997   1.746 -0.3045  0.4542  0.3316
   78TMC2    C4 1212   4.482   1.101   1.497 -0.3056 -0.2272 -0.1204
   78TMC2    C5 1213   4.606   1.089   1.559 -0.7175 -0.1842  0.4517
   78TMC2    C6 1214   4.625   1.052   1.685  0.0680 -0.0167  0.0840
   78TMC2     C 1215   4.257   1.026   1.501  0.0181  0.8720  0.2719
   78TMC2     O 1216   4.194   0.935   1.550 -0.4921 -0.1931 -0.5684
   78TMC2     H 1217   4.307   0.972   1.759  0.4991  0.0438  1.3106
   78TMC2    H1 1218   4.467   1.127   1.392  1.7559  1.5501  0.0137
   78TMC2    H2 1219   4.727   1.046   1.722 -0.8010  1.6313  2.7071
   78TMC2    C7 1220   4.715   1.144   1.485  0.8835 -0.1195  0.2019
   78TMC2    C8 1221   4.525   0.960   1.890  0.0086 -0.2184 -0.1644
   78TMC2    O1 1222   0.054   1.225   1.543  0.3565 -0.4554 -0.5943
   78TMC2    O2 1223   4.437   0.997   1.971 -0.1107  0.0743 -0.0336
   78TMC2    O5 1224   4.653   0.932   1.922  0.3890  0.0233 -0.2874
   78TMC2    H5 1225   4.697   0.913   1.836 -1.3683  0.5145 -1.2886
   79MPD1     C 1226   3.897   1.126   1.153  0.4434 -0.0845  0.3644
   79MPD1    C1 1227   3.892   1.045   1.265  0.1509  0.4863 -0.5249
   79MPD1    C2 1228   4.011   1.010   1.337  0.3633 -0.2687  0.5446
   79MPD1    C3 1229   4.123   1.093   1.312  0.6755 -0.4880 -0.5777
   79MPD1    C4 1230   4.116   1.174   1.205  0.9286  0.2168 -0.4679
   79MPD1    C5 1231   4.010   1.193   1.127  0.1328 -0.1534  0.0583
   79MPD1     H 1232   4.006   0.943   1.422  0.2838 -1.3336 -0.2985
   79MPD1    H1 1233   4.204   1.230   1.173  1.8608 -0.2892  1.2225
   79MPD1    H2 1234   3.814   1.141   1.085  2.8216  0.2111 -2.4283
   79MPD1    H3 1235   4.013   1.260   1.042 -2.1930 -1.0566 -0.7186
   79MPD1     N 1236   4.238   1.103   1.388  0.0565 -0.2949 -0.6914
   79MPD1    H5 1237   4.300   1.182   1.376 -0.3107  0.4781  2.4069
   79MPD1    N1 1238   3.779   0.971   1.291 -0.0673  0.4547  0.5804
   79MPD1    H6 1239   3.774   0.921   1.380  0.8876 -1.4032 -0.4103
   79MPD1    H7 1240   3.690   1.012   1.264 -0.5648  0.0257  1.5759
   80TMC2    C1 1241   2.181   0.718  12.879  0.4783 -0.0722 -0.3729
   80TMC2    C2 1242   2.315   0.740  12.849 -0.1623  0.1141  0.4670
   80TMC2    C3 1243   2.353   0.743  12.717  0.1150 -0.2669  0.8108
   80TMC2    C4 1244   2.085   0.705  12.783 -0.2613  0.6958 -0.0050
   80TMC2    C5 1245   2.126   0.714  12.655  0.5298  0.0016  0.4377
   80TMC2    C6 1246   2.260   0.735  12.616  0.2999 -0.6096  0.0155
   80TMC2     C 1247   2.151   0.703  13.023  0.0739 -0.3801 -0.1782
   80TMC2     O 1248   2.245   0.685  13.098 -0.1800 -0.4543  0.1329
   80TMC2     H 1249   2.396   0.737  12.920  0.3726  3.9684  0.0126
   80TMC2    H1 1250   1.979   0.690  12.802  0.0472 -1.6702 -0.1648
   80TMC2    H2 1251   2.277   0.737  12.509  0.5682  2.0419  0.1064
   80TMC2    C7 1252   2.029   0.656  12.563 -0.4100 -0.9677 -0.5629
   80TMC2    C8 1253   2.488   0.800  12.699  0.9008  0.4516 -0.2885
   80TMC2    O1 1254   2.036   0.686  12.444  0.7574  0.7175  0.2253
   80TMC2    O2 1255   2.585   0.781  12.774  0.7353  0.7810  0.4051
   80TMC2    O5 1256   2.492   0.838  12.571  0.2232  0.3802 -0.0927
   80TMC2    H5 1257   2.402   0.854  12.536  0.4132  0.8833 -0.3673
   81MPD2     C 1258   2.028   0.654  13.287 -0.4292 -0.1463 -0.3370
   81MPD2    C1 1259   1.956   0.685  13.174 -0.1097 -0.6092 -0.0004
   81MPD2    C2 1260   1.815   0.698  13.179 -0.1124 -0.4831  1.0304
   81MPD2    C3 1261   1.743   0.662  13.287  0.3409  0.1712  0.7019
   81MPD2    C4 1262   1.812   0.640  13.404  0.3152  0.0282 -0.1448
   81MPD2    C5 1263   1.953   0.630  13.401  0.4439  0.7618 -0.6045
   81MPD2     H 1264   1.763   0.717  13.085  0.4883 -1.6672  0.4744
   81MPD2    H1 1265   1.760   0.617  13.496  0.8904  0.1515  0.2147
   81MPD2    H2 1266   2.136   0.647  13.293 -0.5373 -0.8632  0.7091
   81MPD2    H3 1267   2.007   0.600  13.490 -0.5118 -4.8072 -1.8996
   81MPD2     N 1268   1.601   0.674  13.294  0.8185  0.0065 -0.8289
   81MPD2    H5 1269   1.564   0.638  13.381 -0.3632  0.7979 -0.9948
   81MPD2    N1 1270   2.013   0.703  13.046 -0.4328  0.3803  0.3121
   81MPD2    H7 1271   1.942   0.732  12.980  2.8926  1.0857 -2.9380
   82TMC2    C1 1272   0.235   0.169  11.409 -0.2074 -0.5253  0.1768
   82TMC2    C2 1273   0.359   0.180  11.356  0.9095 -0.2522  0.5942
   82TMC2    C3 1274   0.452   0.098  11.409 -0.3405 -0.5653 -0.2135
   82TMC2    C4 1275   0.203   0.061  11.493  0.7396 -0.6218  0.1805
   82TMC2    C5 1276   0.301   4.716  11.531 -0.3275 -0.7932 -0.1125
   82TMC2    C6 1277   0.431   4.723  11.491 -0.0856  0.0495 -0.0317
   82TMC2     C 1278   0.120   0.256  11.366  0.2442 -0.4351  0.0445
   82TMC2     O 1279   4.737   0.231  11.385  0.1486 -0.1172 -0.0494
   82TMC2     H 1280   0.383   0.253  11.279  0.5978 -0.9863 -0.1936
   82TMC2    H1 1281   0.108   0.062  11.545  0.9914  1.3649  0.5850
   82TMC2    H2 1282   0.515   4.660  11.519 -0.7552 -0.2168  1.4119
   82TMC2    C7 1283   0.264   4.603  11.614 -0.2973  0.5635  0.4764
   82TMC2    C8 1284   0.589   0.125  11.359  0.0929  0.0147 -0.0429
   82TMC2    O1 1285   0.145   4.570  11.614  0.1128 -0.7032 -0.3635
   82TMC2    O2 1286   0.603   0.202  11.269  0.1034  0.3098 -0.1741
   82TMC2    O5 1287   0.680   0.094  11.451  0.4323  0.0811  0.4015
   82TMC2    H5 1288   0.639   0.093  11.540 -0.2260  0.5910  0.1097
   83MPD2     C 1289   4.729   0.729  11.205  0.3873 -0.1764  0.1133
   83MPD2    C1 1290   4.645   0.622  11.224 -0.5526 -0.1833 -0.2601
   83MPD2    C2 1291   4.715   0.500  11.258 -0.5466  0.4560 -1.0461
   83MPD2    C3 1292   0.107   0.497  11.283  0.3849  0.3233  0.0307
   83MPD2    C4 1293   0.176   0.613  11.283  0.0614  0.5328 -0.0989
   83MPD2    C5 1294   0.121   0.730  11.237 -0.5624  0.4827  0.2161
   83MPD2     H 1295   4.654   0.413  11.281  2.6235 -1.7792 -1.2135
   83MPD2    H1 1296   0.281   0.605  11.310 -0.2826  0.4249  1.1941
   83MPD2    H2 1297   4.686   0.825  11.177  0.7477 -0.0005  0.1656
   83MPD2    H3 1298   0.187   0.815  11.225 -2.0213  1.6142  0.2930
   83MPD2     N 1299   0.172   0.378  11.328  0.3880  0.5892 -1.1797
   83MPD2    H5 1300   0.273   0.386  11.332  0.1016  2.1864  2.6171
   83MPD2    N1 1301   4.506   0.629  11.199  0.1111 -0.4416  0.2118
   83MPD2    H7 1302   4.467   0.717  11.167  1.5251  1.0972  2.7409
   84TMC2    C1 1303   1.059   0.053  11.544  0.2239 -0.6889 -0.2837
   84TMC2    C2 1304   0.941   4.721  11.580  0.7321 -0.1090  0.6801
   84TMC2    C3 1305   0.923   4.597  11.532 -0.5396 -0.3415 -0.2267
   84TMC2    C4 1306   1.157   4.731  11.474  0.0942  0.6994  0.3911
   84TMC2    C5 1307   1.134   4.605  11.428 -0.3936 -0.3415 -0.0447
   84TMC2    C6 1308   1.015   4.543  11.451  0.3601 -0.0754  0.2673
   84TMC2     C 1309   1.053   0.195  11.574  0.0092 -0.1476  0.0856
   84TMC2     O 1310   0.949   0.236  11.633 -0.2339 -0.1394  0.5517
   84TMC2     H 1311   0.863   0.026  11.642  1.7896  0.1207  1.8249
   84TMC2    H1 1312   1.241   0.040  11.426 -1.2339 -0.4001 -3.0824
   84TMC2    H2 1313   0.993   4.443  11.414  1.7006 -0.4010  0.3552
   84TMC2    C7 1314   1.217   4.553  11.323 -0.0338  0.7252  0.4313
   84TMC2    C8 1315   0.835   4.508  11.605  0.1777  0.7201  0.2537
   84TMC2    O1 1316   1.155   4.507  11.228 -0.0112 -0.4803  0.0089
   84TMC2    O2 1317   0.717   4.540  11.623  0.1472 -0.3515  0.0365
   84TMC2    O5 1318   0.875   4.384  11.582 -0.4737 -0.0154  0.3642
   84TMC2    H5 1319   0.968   4.357  11.603  0.0238  1.2102 -0.2866
   85TMC2    C1 1320   1.875   2.552  16.109  0.2846  0.1352 -0.9356
   85TMC2    C2 1321   1.754   2.551  16.050  0.1629 -0.4143 -0.2983
   85TMC2    C3 1322   1.739   2.635  15.946  0.0898 -0.7085  0.2332
   85TMC2    C4 1323   1.978   2.633  16.074 -0.3887  0.4806  0.0528
   85TMC2    C5 1324   1.954   2.720  15.971  0.1015  0.2698  0.9400
   85TMC2    C6 1325   1.838   2.718  15.893  0.2947  0.4992  0.2883
   85TMC2     C 1326   1.901   2.466  16.230 -0.2404 -0.2224 -0.6477
   85TMC2     O 1327   2.015   2.447  16.266 -0.5450 -0.8702 -0.0426
   85TMC2     H 1328   1.678   2.478  16.077  1.3878 -2.3115 -1.9892
   85TMC2    H1 1329   2.073   2.644  16.125  0.1486 -0.4676 -0.7378
   85TMC2    H2 1330   1.819   2.775  15.803 -1.1867 -0.9258 -0.3139
   85TMC2    C7 1331   2.073   2.796  15.918  0.4012  0.3167  0.0527
   85TMC2    C8 1332   1.612   2.632  15.872  0.2289  0.1158 -0.7908
   85TMC2    O1 1333   2.177   2.743  15.956 -0.5626 -0.2728 -0.3799
   85TMC2    O2 1334   1.566   2.727  15.811 -0.4525 -0.6345 -0.6314
   85TMC2    O5 1335   1.574   2.503  15.856 -0.0586 -0.5341  0.0209
   85TMC2    H5 1336   1.644   2.436  15.872  0.8638  0.5539  0.5658
   86MPD2     C 1337   1.707   2.192  16.619  0.7117  0.5179  0.2187
   86MPD2    C1 1338   1.624   2.180  16.506 -0.2121  0.3164 -0.4721
   86MPD2    C2 1339   1.666   2.243  16.394  0.7119  0.5678  0.3878
   86MPD2    C3 1340   1.782   2.313  16.386  0.1979  0.7892 -0.5615
   86MPD2    C4 1341   1.869   2.314  16.489  0.1616 -0.6470  0.4264
   86MPD2    C5 1342   1.832   2.255  16.607 -0.2008  0.1722  0.5900
   86MPD2     H 1343   1.596   2.239  16.311  0.3532  1.7266  0.6264
   86MPD2    H1 1344   1.957   2.377  16.480  0.1390 -0.5515  0.8620
   86MPD2    H2 1345   1.674   2.148  16.713  0.0726  0.0642 -0.2135
   86MPD2    H3 1346   1.898   2.273  16.691 -1.0239  0.9502  1.0622
   86MPD2     N 1347   1.786   2.397  16.275 -0.4161  0.1579  0.2059
   86MPD2    H5 1348   1.705   2.399  16.215 -1.2013  0.6830  1.2755
   86MPD2    N1 1349   1.509   2.099  16.496 -0.7573  0.1346  0.4492
   86MPD2    H7 1350   1.463   2.089  16.407 -0.5627 -0.1319  0.3784
   87TMC2    C1 1351   4.359   0.667   1.661  0.0223 -0.4878 -0.0987
   87TMC2    C2 1352   4.457   0.621   1.754  0.0388 -0.6828  0.0164
   87TMC2    C3 1353   4.416   0.606   1.883  0.4501  0.3565  0.1845
   87TMC2    C4 1354   4.233   0.689   1.696  0.8135  0.3066  0.5975
   87TMC2    C5 1355   4.203   0.686   1.826  0.2180 -0.1929 -0.1462
   87TMC2    C6 1356   4.285   0.637   1.918  0.6439 -0.3846  0.2833
   87TMC2     C 1357   4.392   0.627   1.528 -0.6044 -0.2786  0.8171
   87TMC2     O 1358   4.503   0.584   1.504 -0.2446  0.2509  0.3357
   87TMC2     H 1359   4.558   0.603   1.720  0.8567 -0.8633  2.5539
   87TMC2    H1 1360   4.154   0.724   1.630 -0.0989 -0.7722  1.0969
   87TMC2    H2 1361   4.250   0.621   2.019 -0.2422 -1.2009 -0.1519
   87TMC2    C7 1362   4.075   0.751   1.860 -0.3576 -0.2964  0.3479
   87TMC2    C8 1363   4.518   0.611   1.986  0.4904 -0.7851 -0.3822
   87TMC2    O1 1364   4.015   0.703   1.955 -0.0003 -0.8194  0.6652
   87TMC2    O2 1365   4.494   0.665   2.091 -0.4069  0.1339  0.0722
   87TMC2    O5 1366   4.637   0.565   1.948  0.3816  0.4014  0.0076
   87TMC2    H5 1367   4.625   0.508   1.869  0.5451  1.6624 -0.9365
   88MPD2     C 1368   3.833   0.904   1.883  0.3504 -0.3260 -0.1166
   88MPD2    C1 1369   3.933   0.935   1.795 -0.1633 -0.1206 -0.2465
   88MPD2    C2 1370   3.903   1.035   1.700  0.2581  0.1233  0.1676
   88MPD2    C3 1371   3.779   1.106   1.702 -0.8622 -0.3757  0.0185
   88MPD2    C4 1372   3.691   1.076   1.798  0.3494 -0.0459 -0.8860
   88MPD2    C5 1373   3.716   0.978   1.888  0.3724 -1.1062  0.7736
   88MPD2     H 1374   3.974   1.049   1.619  0.2334  1.1718  0.3314
   88MPD2    H1 1375   3.601   1.132   1.819  0.9119  1.0802 -1.4641
   88MPD2    H2 1376   3.830   0.821   1.953 -0.5208  1.5046  2.0080
   88MPD2    H3 1377   3.642   0.954   1.963 -1.2086  1.3448 -0.0437
   88MPD2     N 1378   3.753   1.212   1.613  0.5379  0.8234 -0.4249
   88MPD2    H5 1379   3.653   1.222   1.599  1.0111  2.4627 -2.6465
   88MPD2    N1 1380   4.049   0.862   1.782 -1.0445 -0.1815  0.0828
   88MPD2    H7 1381   4.110   0.884   1.705 -1.8695  1.1745 -0.1908
   89TMC2    C1 1382   0.664   3.643   1.172  0.6985  0.6695 -0.2864
   89TMC2    C2 1383   0.544   3.636   1.106  0.1066 -0.6421 -0.2549
   89TMC2    C3 1384   0.522   3.729   1.005 -0.0919  0.4144 -0.2071
   89TMC2    C4 1385   0.759   3.735   1.144 -0.7239  0.0052 -0.2227
   89TMC2    C5 1386   0.718   3.840   1.072 -0.1171 -0.0447 -0.2085
   89TMC2    C6 1387   0.598   3.844   1.002 -0.1222  0.2089  0.5925
   89TMC2     C 1388   0.703   3.524   1.237 -0.1075 -0.0963  0.4058
   89TMC2     O 1389   0.816   3.488   1.257  0.5007  0.6059  0.2201
   89TMC2     H 1390   0.481   3.549   1.113  0.9591 -1.2015  0.4812
   89TMC2    H1 1391   0.849   3.738   1.204 -0.4775  1.2046 -0.6334
   89TMC2    H2 1392   0.570   3.923   0.933 -1.5617 -1.0314 -0.2728
   89TMC2    C7 1393   0.800   3.955   1.065 -0.4549  0.1140  0.0964
   89TMC2    C8 1394   0.399   3.730   0.931 -0.4738 -0.0879 -0.0176
   89TMC2    O1 1395   0.915   3.952   1.109  0.5128 -0.1231  0.1875
   89TMC2    O2 1396   0.333   3.833   0.924  0.5123  0.2678 -0.3228
   89TMC2    O5 1397   0.340   3.607   0.931  0.1412 -0.2588 -0.2558
   89TMC2    H5 1398   0.410   3.540   0.946 -0.4348 -0.2169  2.6459
   90MPD2     C 1399   0.588   3.085   1.469 -0.2777 -0.0057  0.0405
   90MPD2    C1 1400   0.477   3.173   1.482  0.1781  0.4249 -0.5025
   90MPD2    C2 1401   0.485   3.292   1.422 -0.5375 -0.5009 -0.1741
   90MPD2    C3 1402   0.601   3.331   1.352  0.1101 -0.1450  0.7881
   90MPD2    C4 1403   0.703   3.246   1.341 -0.6056  0.2279  0.6111
   90MPD2    C5 1404   0.699   3.124   1.394  0.5091  0.2850 -0.0066
   90MPD2     H 1405   0.403   3.362   1.423  1.1014  1.4209 -0.2135
   90MPD2    H1 1406   0.794   3.260   1.285 -0.9603  2.3550  0.5463
   90MPD2    H2 1407   0.588   2.984   1.508  0.9849  0.1298  0.4009
   90MPD2    H3 1408   0.780   3.058   1.364  0.8728  0.0547  1.4949
   90MPD2     N 1409   0.598   3.455   1.288  0.5532  0.1378  0.5818
   90MPD2    H5 1410   0.506   3.497   1.279 -0.3094 -2.6703 -3.7845
   90MPD2    N1 1411   0.360   3.135   1.556  0.0151 -0.5840  0.2061
   90MPD2    H7 1412   0.287   3.206   1.565 -2.2567 -2.7889 -0.9181
   91TMC2    C1 1413   1.869   3.420  17.162  0.4020  0.2228  0.0639
   91TMC2    C2 1414   1.892   3.498  17.268 -0.0185 -0.0175  0.1191
   91TMC2    C3 1415   1.797   3.594  17.291  0.1932 -0.6802  0.3347
   91TMC2    C4 1416   1.758   3.405  17.091 -0.0217  0.0413 -0.1372
   91TMC2    C5 1417   1.656   3.492  17.131  0.6272 -0.0978 -0.1515
   91TMC2    C6 1418   1.678   3.594  17.217 -0.0506 -0.0833  0.0071
   91TMC2     C 1419   1.963   3.315  17.156 -0.1744 -0.3141  0.3719
   91TMC2     O 1420   1.916   3.205  17.122  0.8281 -0.0627 -0.0461
   91TMC2     H 1421   1.986   3.510  17.321  0.8933 -2.8206 -0.8734
   91TMC2    H1 1422   1.746   3.318  17.028 -1.4775  0.2560 -0.1536
   91TMC2    H2 1423   1.596   3.661  17.241  0.2930  0.0120  0.9032
   91TMC2    C7 1424   1.519   3.463  17.111 -0.1470  0.4587 -0.3780
   91TMC2    C8 1425   1.821   3.686  17.398  0.3234  0.6877  0.8791
   91TMC2    O1 1426   1.439   3.497  17.195 -0.1396  1.3063 -0.5032
   91TMC2    O2 1427   1.864   3.647  17.504  0.0133  0.3559  0.6496
   91TMC2    O5 1428   1.850   3.802  17.340  0.3276  0.2284 -0.2093
   91TMC2    H5 1429   1.810   3.807  17.250  0.4851 -0.0635 -0.2961
   92MPD2     C 1430   2.215   3.153  17.122  0.0780 -0.1702 -0.2236
   92MPD2    C1 1431   2.212   3.289  17.129 -0.0362  0.1802  0.2140
   92MPD2    C2 1432   2.334   3.363  17.120  0.0233 -0.5091 -0.2990
   92MPD2    C3 1433   2.448   3.293  17.097 -0.2568 -0.3694  0.0302
   92MPD2    C4 1434   2.443   3.156  17.079 -0.3973  0.6998  1.1890
   92MPD2    C5 1435   2.328   3.083  17.107 -0.0776 -0.5320 -0.1218
   92MPD2     H 1436   2.328   3.470  17.138 -1.1788 -0.4060 -1.2651
   92MPD2    H1 1437   2.527   3.099  17.043 -1.5053  0.8932 -1.7549
   92MPD2    H2 1438   2.125   3.094  17.127 -0.4622  0.7081  0.3235
   92MPD2    H3 1439   2.332   2.976  17.093 -3.8939 -0.5085 -1.3577
   92MPD2     N 1440   2.558   3.370  17.072 -0.7678 -0.5114  0.0275
   92MPD2    H5 1441   2.547   3.470  17.060 -1.8664 -0.6033  0.2907
   92MPD2    N1 1442   2.091   3.365  17.166  0.2508 -0.0695 -0.3174
   92MPD2    H7 1443   2.111   3.462  17.188  2.7927 -0.2023 -1.9565
   93TMC2    C1 1444   3.302   3.552  13.984 -0.1257  0.0971  0.6471
   93TMC2    C2 1445   3.216   3.654  14.015 -0.2568  0.0971 -0.2492
   93TMC2    C3 1446   3.284   3.778  14.020  0.7658  0.3003 -0.6831
   93TMC2    C4 1447   3.429   3.569  13.943  0.2754  0.4736  0.1349
   93TMC2    C5 1448   3.487   3.688  13.960 -0.2438 -0.8216 -0.2249
   93TMC2    C6 1449   3.416   3.797  13.997 -0.5374 -0.6063 -0.0009
   93TMC2     C 1450   3.253   3.416  13.958 -0.1013  0.0134 -0.1257
   93TMC2     O 1451   3.320   3.335  13.892  0.1352 -0.3597 -0.2634
   93TMC2     H 1452   3.110   3.642  14.038 -0.2271  0.3352  0.0085
   93TMC2    H1 1453   3.489   3.480  13.922  0.9248  1.1499 -0.8689
   93TMC2    H2 1454   3.461   3.895  14.009 -0.2576 -0.5970 -1.1128
   93TMC2    C7 1455   3.602   3.716  13.880 -0.7717 -0.1534  0.2297
   93TMC2    C8 1456   3.220   3.904  14.053  0.0798  0.5917 -0.3634
   93TMC2    O1 1457   3.655   3.822  13.901  0.8695  0.0791 -1.1013
   93TMC2    O2 1458   3.268   4.014  14.035  0.5725  0.1942  0.0843
   93TMC2    O5 1459   3.103   3.876  14.106 -0.0699 -0.4863  0.2749
   93TMC2    H5 1460   3.100   3.794  14.161 -3.0634  0.7242  1.9462
   94MPD2     C 1461   3.125   3.150  13.979  0.2098 -0.0759  0.4612
   94MPD2    C1 1462   3.071   3.265  14.032 -0.3389 -0.2604 -0.2781
   94MPD2    C2 1463   2.948   3.263  14.097 -0.2538 -0.7378  0.1286
   94MPD2    C3 1464   2.875   3.146  14.103 -0.4410 -0.0619 -0.5452
   94MPD2    C4 1465   2.930   3.029  14.042 -0.3887 -0.6767 -0.7447
   94MPD2    C5 1466   3.056   3.034  13.980 -0.1309  0.0906 -0.1710
   94MPD2     H 1467   2.909   3.354  14.142  1.4759  0.5597 -0.9947
   94MPD2    H1 1468   2.869   2.940  14.035  1.0988 -1.4638 -3.5671
   94MPD2    H2 1469   3.218   3.147  13.923 -0.8334 -1.0126 -1.2211
   94MPD2    H3 1470   3.093   2.939  13.942  1.7590  0.2084  1.3776
   94MPD2     N 1471   2.750   3.143  14.162  0.2801 -0.1780 -0.2376
   94MPD2    H5 1472   2.716   3.047  14.158  1.7937 -0.5246 -4.1366
   94MPD2    N1 1473   3.139   3.386  14.030 -0.1088  0.7423 -0.1041
   94MPD2    H7 1474   3.092   3.468  14.068  0.2018  0.5428  0.7140
   95TMC2    C1 1475   3.491   4.695  16.326 -0.4686  0.1436  0.1039
   95TMC2    C2 1476   3.550   4.572  16.312  0.5459 -0.2016  0.1556
   95TMC2    C3 1477   3.579   4.503  16.426  0.0526 -0.5682  0.3661
   95TMC2    C4 1478   3.470   0.005  16.453 -0.6790  0.8470  0.9443
   95TMC2    C5 1479   3.474   4.651  16.554 -0.1946  1.2437  0.0667
   95TMC2    C6 1480   3.534   4.528  16.551 -0.4024 -0.3032  0.0897
   95TMC2     C 1481   3.526   0.051  16.226  0.0182 -0.7875 -0.4000
   95TMC2     O 1482   3.582   0.155  16.263 -0.5071 -0.6247  0.3262
   95TMC2     H 1483   3.600   4.546  16.219 -0.6185  0.3793 -0.6345
   95TMC2    H1 1484   3.432   0.105  16.466 -1.6238  0.8344 -1.8025
   95TMC2    H2 1485   3.519   4.450  16.625 -2.9304 -0.7988 -0.9602
   95TMC2    C7 1486   3.423   4.683  16.684 -0.0703 -0.3157 -0.2384
   95TMC2    C8 1487   3.668   4.389  16.413  0.2156  0.4646 -0.8907
   95TMC2    O1 1488   3.464   4.612  16.773 -0.2146  0.3348  0.3903
   95TMC2    O2 1489   3.660   4.316  16.317 -0.3734 -0.2424 -0.4592
   95TMC2    O5 1490   3.720   4.373  16.531  0.2072  0.4494  0.3408
   95TMC2    H5 1491   3.725   4.461  16.574  2.3089  0.7748 -0.5311
   96MPD2     C 1492   3.674   0.113  15.733  0.5640  0.3408 -0.3487
   96MPD2    C1 1493   3.722   0.168  15.850  0.0948  0.0728 -0.4192
   96MPD2    C2 1494   3.664   0.144  15.972  0.5308  0.0228 -1.3364
   96MPD2    C3 1495   3.546   0.061  15.975 -0.1311 -0.2039 -0.1439
   96MPD2    C4 1496   3.498   0.011  15.859  0.3321 -0.3875  0.2823
   96MPD2    C5 1497   3.566   0.029  15.744 -0.5508 -0.0062  0.0073
   96MPD2     H 1498   3.694   0.189  16.066  0.3728 -0.7297 -0.9325
   96MPD2    H1 1499   3.413   4.681  15.860  0.2424 -0.2843 -0.4470
   96MPD2    H2 1500   3.722   0.126  15.637  1.1373 -1.8382 -0.3424
   96MPD2    H3 1501   3.526   4.734  15.649  0.7704 -1.7099  0.0340
   96MPD2     N 1502   3.496   0.009  16.098  0.2000 -0.7401 -0.2023
   96MPD2    H5 1503   3.426   4.674  16.095  0.7238 -1.2118 -0.8019
   96MPD2    N1 1504   3.837   0.253  15.841  0.8340 -0.2907 -0.5107
   96MPD2    H7 1505   3.876   0.265  15.748 -1.9772  2.0637 -1.3883
   97TMC2    C1 1506   0.872   3.624   0.416 -0.6147  0.1808 -0.3395
   97TMC2    C2 1507   0.772   3.628   0.316 -0.6128 -0.7491 -0.3181
   97TMC2    C3 1508   0.749   3.737   0.239  0.9100 -0.3836  0.7273
   97TMC2    C4 1509   0.954   3.730   0.437  0.0197  0.5193 -0.4738
   97TMC2    C5 1510   0.922   3.840   0.358 -0.2448 -0.3548  0.7672
   97TMC2    C6 1511   0.829   3.851   0.259 -0.4963 -0.0842  0.6729
   97TMC2     C 1512   0.921   3.504   0.475  0.2147  0.8407 -0.0239
   97TMC2     O 1513   1.041   3.503   0.490  0.3151 -0.2462 -0.3030
   97TMC2     H 1514   0.704   3.543   0.312 -1.5354 -0.0125 -0.4590
   97TMC2    H1 1515   1.032   3.733   0.511 -0.3913 -1.2686  0.0259
   97TMC2    H2 1516   0.805   3.942   0.206 -0.5561  0.2367  1.2540
   97TMC2    C7 1517   0.988   3.960   0.404  0.0811  0.3567 -0.1921
   97TMC2    C8 1518   0.624   3.754   0.170  0.1170  0.0175 -0.1452
   97TMC2    O1 1519   1.065   3.953   0.496 -0.4198 -0.7953  0.6014
   97TMC2    O2 1520   0.588   3.871   0.152 -0.5976  0.3430 -0.3028
   97TMC2    O5 1521   0.534   3.655   0.193 -0.2443 -0.0034  0.5474
   97TMC2    H5 1522   0.574   3.566   0.186 -2.9598 -1.3014  1.8149
   98MPD2     C 1523   0.883   3.020   0.626 -0.2445 -0.3818 -0.1573
   98MPD2    C1 1524   0.991   3.079   0.568 -0.4155  0.0297 -0.1860
   98MPD2    C2 1525   0.979   3.215   0.536 -0.3767 -0.2593 -0.1449
   98MPD2    C3 1526   0.854   3.277   0.535 -0.4773  0.1909  0.1431
   98MPD2    C4 1527   0.743   3.198   0.566  0.1188  0.2395  0.2409
   98MPD2    C5 1528   0.761   3.073   0.613  0.0469  0.4975 -0.5070
   98MPD2     H 1529   1.057   3.275   0.490 -1.1402  0.8217  0.0032
   98MPD2    H1 1530   0.639   3.226   0.555  0.3221 -0.0651 -2.3019
   98MPD2    H2 1531   0.879   2.918   0.663  3.3014  0.1265  1.7225
   98MPD2    H3 1532   0.675   3.019   0.650  0.5048 -1.8788 -2.8722
   98MPD2     N 1533   0.826   3.408   0.494  0.1448 -0.0037  0.0107
   98MPD2    H5 1534   0.728   3.430   0.478  0.4751  1.0316 -0.5989
   98MPD2    N1 1535   1.103   3.002   0.561  0.8775  0.1577 -0.1012
   98MPD2    H7 1536   1.096   2.903   0.585  1.8286  0.0353 -0.3358
   99TMC2    C1 1537   1.067   0.237   2.005  0.6678 -0.3209  0.2003
   99TMC2    C2 1538   1.171   0.312   2.052  0.4060  0.2552 -0.3336
   99TMC2    C3 1539   1.143   0.422   2.127  0.4636  0.2718  0.3073
   99TMC2    C4 1540   0.933   0.267   2.035 -0.2180  0.3533  0.1208
   99TMC2    C5 1541   0.910   0.376   2.115  0.0789 -0.5652  0.3593
   99TMC2    C6 1542   1.014   0.452   2.158  0.7679  0.4223  0.1733
   99TMC2     C 1543   1.089   0.143   1.895  0.1192  0.1988  1.0871
   99TMC2     O 1544   1.208   0.121   1.877  0.0022  0.0169  0.3232
   99TMC2     H 1545   1.273   0.283   2.029  0.3463 -0.1841 -0.0257
   99TMC2    H1 1546   0.854   0.196   2.013  0.2104 -0.1631  0.2538
   99TMC2    H2 1547   0.997   0.550   2.201  1.5494 -0.1472  1.7972
   99TMC2    C7 1548   0.779   0.426   2.150 -0.3208 -0.3112 -0.0779
   99TMC2    C8 1549   1.246   0.515   2.174  0.4280 -0.4546 -0.5588
   99TMC2    O1 1550   0.782   0.500   2.248  0.0286  0.7911 -0.1165
   99TMC2    O2 1551   1.356   0.516   2.121 -0.0725  0.2729 -0.1479
   99TMC2    O5 1552   1.235   0.528   2.306  0.6806  0.3746  0.2532
   99TMC2    H5 1553   1.156   0.485   2.345 -0.8805  2.5025 -0.5811
  100MPD2     C 1554   1.081   4.702   1.655  0.0676  0.0437 -0.5000
  100MPD2    C1 1555   0.968   0.011   1.720  0.4280 -0.2680  0.0684
  100MPD2    C2 1556   0.849   4.712   1.671 -0.0261 -0.0803 -0.0568
  100MPD2    C3 1557   0.833   4.639   1.550  0.0151 -0.8316  0.4920
  100MPD2    C4 1558   0.948   4.590   1.491 -0.3495 -0.8616 -0.5276
  100MPD2    C5 1559   1.068   4.621   1.549 -0.6961 -0.5368  0.6282
  100MPD2     H 1560   0.762   0.007   1.727  0.9987  0.1551  1.3988
  100MPD2    H1 1561   0.947   4.548   1.391  0.8933  2.1835 -1.8515
  100MPD2    H2 1562   1.183   4.737   1.667  1.0486 -2.0558 -2.5784
  100MPD2    H3 1563   1.152   4.596   1.485 -1.2997 -1.4993  0.2010
  100MPD2     N 1564   0.704   4.614   1.505  0.3505  0.6550 -0.1278
  100MPD2    H5 1565   0.632   4.655   1.565  1.0634 -0.6397  1.6218
  100MPD2    N1 1566   0.974   0.090   1.838  0.3702  0.1731 -0.3985
  100MPD2    H7 1567   0.880   0.116   1.863  0.8433  0.3125  1.2203
  101TMC2    C1 1568   0.387   1.584  13.312  0.0987  0.4885 -0.0734
  101TMC2    C2 1569   0.277   1.664  13.317 -0.1625 -0.7544  0.0586
  101TMC2    C3 1570   0.282   1.792  13.267 -0.0035  0.4595 -0.4701
  101TMC2    C4 1571   0.504   1.634  13.258  0.3340 -0.1603  0.1126
  101TMC2    C5 1572   0.510   1.764  13.210 -0.2012  0.1032  0.2586
  101TMC2    C6 1573   0.401   1.844  13.212 -0.2710 -0.4570 -0.1039
  101TMC2     C 1574   0.370   1.446  13.355 -0.7121 -0.8188 -0.2197
  101TMC2     O 1575   0.261   1.416  13.404 -0.2719  0.4791  0.2889
  101TMC2     H 1576   0.197   1.632  13.383  0.5083  1.0938  1.7581
  101TMC2    H1 1577   0.578   1.564  13.221 -0.7539 -1.1837 -0.1418
  101TMC2    H2 1578   0.390   1.944  13.171 -1.2958 -1.1686 -1.5363
  101TMC2    C7 1579   0.635   1.824  13.175  0.3534 -0.5430  0.1475
  101TMC2    C8 1580   0.174   1.889  13.297 -0.0414  0.3361 -0.1741
  101TMC2    O1 1581   0.628   1.922  13.101  0.3459  0.2703  0.7800
  101TMC2    O2 1582   0.193   2.011  13.299  0.1867 -0.5181  0.4801
  101TMC2    O5 1583   0.051   1.839  13.269 -0.3072  0.7794 -0.2442
  101TMC2    H5 1584   0.054   1.743  13.249 -2.0490  0.3967  1.2845
  102MPD2     C 1585   0.575   1.158  13.283  0.0837 -0.1761 -0.7382
  102MPD2    C1 1586   0.485   1.235  13.356 -0.1646 -0.7118  0.8248
  102MPD2    C2 1587   0.407   1.172  13.450 -0.4652 -0.3073  0.1521
  102MPD2    C3 1588   0.407   1.036  13.466  0.4842  0.1155 -1.2636
  102MPD2    C4 1589   0.499   0.961  13.394 -0.2559  0.4325 -0.4453
  102MPD2    C5 1590   0.584   1.023  13.314  0.1011  0.2555 -0.8982
  102MPD2     H 1591   0.338   1.232  13.507 -0.7862 -0.9675  0.4647
  102MPD2    H1 1592   0.517   0.855  13.407 -1.0030  0.3441 -0.1489
  102MPD2    H2 1593   0.640   1.210  13.215 -0.4045  1.4454  0.0432
  102MPD2    H3 1594   0.670   0.968  13.276 -1.2923 -1.6560 -1.2943
  102MPD2     N 1595   0.319   0.979  13.557 -0.2893 -0.7097 -0.2022
  102MPD2    H5 1596   0.270   1.048  13.613 -0.1700 -1.3708  0.7187
  102MPD2    N1 1597   0.480   1.371  13.334  0.1339  0.1778  0.2064
  102MPD2    H7 1598   0.553   1.415  13.278  1.2772 -1.1228  0.6933
  103TMC2    C1 1599   3.277   0.669  12.606  0.1492  0.4308  0.1128
  103TMC2    C2 1600   3.343   0.542  12.618  0.8123 -1.1758  0.2776
  103TMC2    C3 1601   3.422   0.531  12.729  0.0063 -0.0698 -0.6487
  103TMC2    C4 1602   3.305   0.774  12.687 -0.4337  0.1532  0.4683
  103TMC2    C5 1603   3.386   0.753  12.795 -0.8100 -1.0219 -0.3625
  103TMC2    C6 1604   3.444   0.633  12.819  0.0824  0.1828 -0.2306
  103TMC2     C 1605   3.155   0.680  12.524  0.2817 -0.6247 -0.8841
  103TMC2     O 1606   3.122   0.795  12.493 -0.0219 -0.5272 -0.3216
  103TMC2     H 1607   3.317   0.457  12.556 -1.2419 -0.6778  0.4369
  103TMC2    H1 1608   3.251   0.867  12.675 -0.5007  0.3040  1.9222
  103TMC2    H2 1609   3.503   0.615  12.907 -0.2681 -0.0892 -0.0495
  103TMC2    C7 1610   3.410   0.865  12.875 -0.1647  0.3937  0.3787
  103TMC2    C8 1611   3.490   0.408  12.752 -0.2218  0.5762  0.2611
  103TMC2    O1 1612   3.322   0.954  12.878  0.0308  0.0421 -0.1066
  103TMC2    O2 1613   3.500   0.360  12.866 -0.0882  0.0714 -0.4511
  103TMC2    O5 1614   3.566   0.387  12.642  0.4173 -0.3980  0.9379
  103TMC2    H5 1615   3.550   0.461  12.580  3.3391  1.1368  1.9580
  104MPD2     C 1616   2.916   0.406  12.479 -0.6801 -0.2380  0.3477
  104MPD2    C1 1617   2.955   0.539  12.482  0.4695 -0.5833 -0.4663
  104MPD2    C2 1618   2.875   0.635  12.415 -0.1654  0.5202  0.1801
  104MPD2    C3 1619   2.759   0.596  12.360 -0.1462  0.5605 -0.2877
  104MPD2    C4 1620   2.708   0.470  12.383 -0.3287  0.4455 -1.0797
  104MPD2    C5 1621   2.784   0.374  12.450  0.4678 -0.2055 -0.0034
  104MPD2     H 1622   2.914   0.736  12.411 -2.3736  1.3807  0.9271
  104MPD2    H1 1623   2.609   0.436  12.352 -1.4326  1.8399  0.9577
  104MPD2    H2 1624   2.974   0.317  12.504  1.2005  1.1551  0.9609
  104MPD2    H3 1625   2.743   0.274  12.457  0.2001 -0.1628 -1.0360
  104MPD2     N 1626   2.678   0.687  12.288  0.2387  0.3085  0.2842
  104MPD2    H5 1627   2.581   0.662  12.274  0.2389  0.0313  0.7815
  104MPD2    N1 1628   3.082   0.566  12.532 -0.1276 -0.0735  0.1607
  104MPD2    H7 1629   3.141   0.491  12.569  0.8752  0.0160 -1.2487
  105TMC2    C1 1630   0.108   0.408   0.720 -0.4560  0.4363 -0.1278
  105TMC2    C2 1631   0.145   0.292   0.780  0.4516  0.6006  0.3930
  105TMC2    C3 1632   0.065   0.246   0.881  0.1309  0.2957 -0.0097
  105TMC2    C4 1633   0.002   0.485   0.758  0.6158  0.0759 -0.1873
  105TMC2    C5 1634   4.659   0.435   0.856  0.2518 -0.0128 -1.1935
  105TMC2    C6 1635   4.690   0.317   0.926  0.1377  0.2233  0.2321
  105TMC2     C 1636   0.203   0.449   0.615  0.5973 -0.5975 -0.3236
  105TMC2     O 1637   0.308   0.391   0.624 -0.7704 -0.1818 -0.1163
  105TMC2     H 1638   0.240   0.242   0.767 -0.5414 -1.2412  0.2241
  105TMC2    H1 1639   4.728   0.586   0.720  1.5935  0.5469  0.7457
  105TMC2    H2 1640   4.633   0.273   1.008  0.8449 -0.7525  0.1993
  105TMC2    C7 1641   4.548   0.520   0.891  0.3810  0.5472  0.2318
  105TMC2    C8 1642   0.104   0.142   0.972 -0.5998  0.6516  0.5599
  105TMC2    O1 1643   4.507   0.599   0.809 -0.1048 -0.0160  0.2363
  105TMC2    O2 1644   0.073   0.133   1.089  0.0167  0.0457 -0.1727
  105TMC2    O5 1645   0.169   0.050   0.903 -0.0601  0.0138 -0.3225
  105TMC2    H5 1646   0.179   0.063   0.807 -0.6928  0.2888 -0.3483
  106MPD2     C 1647   0.353   0.526   0.147  0.4185  0.0440  0.0896
  106MPD2    C1 1648   0.217   0.560   0.151  0.3609 -0.5478  0.2978
  106MPD2    C2 1649   0.143   0.562   0.269 -0.4994 -0.5460 -1.1770
  106MPD2    C3 1650   0.212   0.535   0.387  0.1895 -1.1390  0.3809
  106MPD2    C4 1651   0.352   0.532   0.385 -0.2484  0.3472 -0.4246
  106MPD2    C5 1652   0.423   0.534   0.267 -0.1079 -0.6907  0.2265
  106MPD2     H 1653   0.037   0.585   0.277  0.2171  2.9468 -1.6265
  106MPD2    H1 1654   0.413   0.526   0.475  2.2995  3.2294 -1.9551
  106MPD2    H2 1655   0.409   0.525   0.055 -0.4072  0.5594 -0.4184
  106MPD2    H3 1656   0.529   0.521   0.284 -0.3182 -1.8073  0.7097
  106MPD2     N 1657   0.149   0.515   0.510  0.3839  0.3249  0.3424
  106MPD2    H5 1658   0.049   0.532   0.503  0.2085 -0.1970  1.6347
  106MPD2    N1 1659   0.150   0.579   0.029 -0.0549  0.1885  0.4791
  106MPD2    H7 1660   0.058   0.622   0.032 -0.8280 -1.6020  2.1883
  107TMC2    C1 1661   0.594   0.898  11.528  0.2987 -0.1583 -0.5604
  107TMC2    C2 1662   0.581   1.027  11.550  0.6438  0.7726 -0.5877
  107TMC2    C3 1663   0.695   1.103  11.558  0.0526 -1.2209  0.7573
  107TMC2    C4 1664   0.713   0.838  11.536 -0.0007 -0.2726  0.4470
  107TMC2    C5 1665   0.823   0.911  11.553  0.0088 -0.5020  0.1463
  107TMC2    C6 1666   0.822   1.049  11.566 -0.2849  0.5688  0.1390
  107TMC2     C 1667   0.482   0.822  11.581  0.0108  0.4486 -0.1576
  107TMC2     O 1668   0.503   0.724  11.649 -0.0284 -0.3132  0.1341
  107TMC2     H 1669   0.484   1.067  11.579  0.0568 -0.3732 -0.9472
  107TMC2    H1 1670   0.713   0.733  11.508  1.3253 -0.0210 -0.4989
  107TMC2    H2 1671   0.912   1.110  11.573  0.6554 -0.7285 -0.7162
  107TMC2    C7 1672   0.956   0.850  11.542  0.2996  0.5786  0.5650
  107TMC2    C8 1673   0.698   1.240  11.606  0.3649  0.1846 -0.3112
  107TMC2    O1 1674   1.046   0.932  11.513  0.0844  0.0990  0.1920
  107TMC2    O2 1675   0.799   1.306  11.585 -0.4994  0.1932 -0.4070
  107TMC2    O5 1676   0.583   1.287  11.643  0.4195  0.1398  1.0496
  107TMC2    H5 1677   0.513   1.223  11.670 -0.6276  0.9563  0.2415
  108MPD2     C 1678   0.120   0.877  11.529  1.0135  0.7223  0.7837
  108MPD2    C1 1679   0.235   0.837  11.592 -0.2583  0.5054 -0.3065
  108MPD2    C2 1680   0.221   0.762  11.708  0.0511  0.2041  0.0917
  108MPD2    C3 1681   0.098   0.717  11.758  0.4699 -0.8156 -0.0896
  108MPD2    C4 1682   4.728   0.765  11.690  0.3910  0.0409  0.3457
  108MPD2    C5 1683   4.733   0.839  11.577  0.4664  0.0038 -0.2614
  108MPD2     H 1684   0.310   0.731  11.761  1.1060  1.4228 -0.9710
  108MPD2    H1 1685   4.633   0.757  11.743  0.8069 -0.8066  0.9640
  108MPD2    H2 1686   0.130   0.933  11.436  1.3125  0.8679  0.9035
  108MPD2    H3 1687   4.643   0.868  11.525  0.6231 -1.5118 -1.3724
  108MPD2     N 1688   0.075   0.652  11.882  0.3315 -0.4094  0.3140
  108MPD2    H5 1689   4.716   0.635  11.903  0.3163 -0.6021  0.0794
  108MPD2    N1 1690   0.359   0.875  11.542  0.2033 -0.1875  0.5537
  108MPD2    H7 1691   0.352   0.953  11.478 -0.8556 -1.3558 -0.7298
  109TMC2    C1 1692   0.667   2.010   0.312  0.4766  0.0190 -0.2571
  109TMC2    C2 1693   0.625   2.059   0.185  1.0474  0.7820  0.0184
  109TMC2    C3 1694   0.641   2.190   0.163  0.4672 -0.0377  0.0149
  109TMC2    C4 1695   0.721   2.094   0.403 -0.1652 -0.2404  0.4673
  109TMC2    C5 1696   0.745   2.221   0.367  0.0946 -0.2105  0.2756
  109TMC2    C6 1697   0.706   2.275   0.245  0.0798  0.6784 -0.0687
  109TMC2     C 1698   0.634   1.882   0.345 -0.1200  0.2937  0.1248
  109TMC2     O 1699   0.555   1.830   0.263  0.1513  0.2163 -0.4428
  109TMC2     H 1700   0.568   1.998   0.115  0.4115  0.0278  1.1816
  109TMC2    H1 1701   0.762   2.064   0.499 -1.4936 -1.9691  0.4910
  109TMC2    H2 1702   0.710   2.381   0.227 -1.2133  0.3715 -2.1411
  109TMC2    C7 1703   0.824   2.303   0.451  0.3395  0.1885 -0.1134
  109TMC2    C8 1704   0.598   2.256   0.043 -0.1202  0.2557  0.5666
  109TMC2    O1 1705   0.887   2.393   0.398  0.0783 -0.2198 -0.3781
  109TMC2    O2 1706   0.659   2.348  17.739 -0.4076  0.1243 -0.0709
  109TMC2    O5 1707   0.497   2.183  17.742 -0.1098 -0.4027 -0.6083
  109TMC2    H5 1708   0.448   2.140   0.063 -0.5183 -1.7796 -1.6956
  110MPD2     C 1709   0.519   1.492   0.654  0.0373  0.3388 -0.4180
  110MPD2    C1 1710   0.587   1.589   0.728 -0.7767  0.3367 -0.3323
  110MPD2    C2 1711   0.639   1.699   0.660  0.0249 -0.3070 -0.4806
  110MPD2    C3 1712   0.634   1.714   0.525  0.4772 -0.1480  1.0426
  110MPD2    C4 1713   0.581   1.605   0.459 -0.3145  0.9551  0.8479
  110MPD2    C5 1714   0.517   1.501   0.517 -0.1140  0.0495 -0.4367
  110MPD2     H 1715   0.676   1.786   0.714 -0.1724 -1.0714  0.8921
  110MPD2    H1 1716   0.572   1.597   0.352  1.7400 -2.1337  0.8970
  110MPD2    H2 1717   0.472   1.402   0.692 -0.2485  1.5378  2.0672
  110MPD2    H3 1718   0.458   1.423   0.470 -1.3139  0.4824  0.3511
  110MPD2     N 1719   0.668   1.840   0.469 -0.2264 -0.1564  0.2193
  110MPD2    H5 1720   0.718   1.906   0.527 -2.5967  1.3978  0.5132
  110MPD2    N1 1721   0.587   1.583   0.868  0.6257  0.7002 -0.4836
  110MPD2    H7 1722   0.545   1.498   0.905  2.7178 -0.2946 -0.3677
  111TMC2    C1 1723   0.914   2.568  11.803 -0.4726 -0.1764  0.3298
  111TMC2    C2 1724   0.898   2.690  11.745 -0.0786  0.3190  0.1769
  111TMC2    C3 1725   0.905   2.804  11.822 -0.0182  0.4254 -0.2603
  111TMC2    C4 1726   0.949   2.560  11.939  0.3369  0.4896 -0.2176
  111TMC2    C5 1727   0.957   2.677  12.006 -0.7793 -0.2720  0.0058
  111TMC2    C6 1728   0.943   2.801  11.952  0.1147 -0.3410  0.3645
  111TMC2     C 1729   0.855   2.459  11.742 -0.2223  0.0804  0.3310
  111TMC2     O 1730   0.848   2.453  11.621 -0.1874 -0.3996 -0.3229
  111TMC2     H 1731   0.872   2.691  11.640 -0.8953 -1.5006  0.3610
  111TMC2    H1 1732   0.961   2.467  11.994  1.4038  0.5640 -0.3198
  111TMC2    H2 1733   0.937   2.884  12.022 -0.0536 -1.0903  1.2495
  111TMC2    C7 1734   1.004   2.667  12.140 -0.6934  0.3763 -0.2376
  111TMC2    C8 1735   0.877   2.928  11.747 -0.5312  0.2921  0.1808
  111TMC2    O1 1736   1.093   2.583  12.153 -0.1155 -0.2522  0.0095
  111TMC2    O2 1737   0.907   2.945  11.633 -0.0058 -0.1221 -0.0132
  111TMC2    O5 1738   0.776   2.994  11.806  0.7147  0.4329 -0.0672
  111TMC2    H5 1739   0.765   2.961  11.898 -2.9955  1.0499 -0.2955
  112MPD2     C 1740   0.523   2.066  11.804  0.8852 -0.0094  0.0073
  112MPD2    C1 1741   0.553   2.136  11.693  0.4295  0.0960  0.5916
  112MPD2    C2 1742   0.652   2.235  11.696  0.1322  0.6369 -0.6869
  112MPD2    C3 1743   0.713   2.269  11.811  0.2546 -0.1318 -0.2314
  112MPD2    C4 1744   0.674   2.202  11.927 -0.4973  0.2108  0.4898
  112MPD2    C5 1745   0.582   2.103  11.922 -0.5051 -0.4320 -0.1291
  112MPD2     H 1746   0.682   2.281  11.603 -0.9815  2.2210 -0.2673
  112MPD2    H1 1747   0.719   2.223  12.024  1.4962 -1.3387 -0.0992
  112MPD2    H2 1748   0.451   1.985  11.809  0.0409  0.7026 -0.6866
  112MPD2    H3 1749   0.567   2.043  12.011 -0.7702  0.9514  0.7505
  112MPD2     N 1750   0.800   2.378  11.834  0.0194  1.0122  0.0118
  112MPD2    H5 1751   0.816   2.402  11.931  1.6909  0.0652 -0.0372
  112MPD2    N1 1752   0.499   2.097  11.569 -0.3134 -0.3704 -0.1233
  112MPD2    H7 1753   0.550   2.137  11.490 -2.2759  2.3441  0.0087
  113TMC2    C1 1754   3.899   4.533   0.806 -0.2533  0.0311  0.5643
  113TMC2    C2 1755   3.932   4.421   0.732  0.1904 -0.5588  0.0008
  113TMC2    C3 1756   3.828   4.352   0.676  0.4628 -0.0516  0.2214
  113TMC2    C4 1757   3.773   4.582   0.832  0.1163 -0.3061  0.4258
  113TMC2    C5 1758   3.672   4.495   0.785  0.2553  0.1824 -0.8285
  113TMC2    C6 1759   3.700   4.376   0.718  0.2176 -0.3782  0.9456
  113TMC2     C 1760   4.002   4.598   0.880  0.4435  0.1080  0.2951
  113TMC2     O 1761   3.959   4.675   0.964  0.3499 -0.8665 -0.0793
  113TMC2     H 1762   4.032   4.397   0.698  0.5039 -0.6047  0.9577
  113TMC2    H1 1763   3.741   4.676   0.876 -0.6245 -0.2400 -0.2576
  113TMC2    H2 1764   3.614   4.328   0.671 -1.3291  2.4889  0.8633
  113TMC2    C7 1765   3.537   4.524   0.832 -0.8546 -0.3805  0.0122
  113TMC2    C8 1766   3.853   4.222   0.605  0.2537  0.3283 -0.2856
  113TMC2    O1 1767   3.498   4.629   0.791  0.3198  0.0184  0.3484
  113TMC2    O2 1768   3.919   4.131   0.654 -0.1069  0.3565  0.5381
  113TMC2    O5 1769   3.752   4.217   0.512 -0.1110  0.8093  0.7453
  113TMC2    H5 1770   3.717   4.304   0.482  0.7905  0.3717 -1.5556
  114MPD2     C 1771   4.479   4.738   0.998  0.2719  0.1008 -0.5593
  114MPD2    C1 1772   4.362   0.010   1.073 -0.5546 -0.3905  0.3944
  114MPD2    C2 1773   4.246   4.697   1.021  0.2029  0.1065  0.0960
  114MPD2    C3 1774   4.251   4.626   0.902 -1.0873 -0.9720  0.0572
  114MPD2    C4 1775   4.372   4.618   0.833  0.8216  0.1222 -0.1115
  114MPD2    C5 1776   4.486   4.673   0.880 -0.3872 -0.4525  0.0333
  114MPD2     H 1777   4.149   4.692   1.070  0.3211 -0.7356  0.2533
  114MPD2    H1 1778   4.376   4.561   0.741 -0.5159  0.0132 -0.0971
  114MPD2    H2 1779   4.570   0.052   1.023 -1.1994  1.5883  1.6558
  114MPD2    H3 1780   4.573   4.680   0.815  0.6760 -0.7925  1.4298
  114MPD2     N 1781   4.141   4.569   0.841 -0.2528 -0.1829 -0.0807
  114MPD2    H5 1782   4.159   4.500   0.770  1.0739 -1.3919  1.4485
  114MPD2    N1 1783   4.351   0.070   1.197 -0.1885 -0.8830 -0.5906
  114MPD2    H7 1784   4.261   0.065   1.244  0.8056 -0.5570  1.3458
  115TMC2    C1 1785   4.055   2.239   0.001 -0.9335  0.1553 -0.2860
  115TMC2    C2 1786   4.194   2.239  17.736 -0.2273  0.3858  0.2413
  115TMC2    C3 1787   4.253   2.362  17.719 -0.0859  0.3489  0.3947
  115TMC2    C4 1788   3.985   2.360   0.004  0.2182  0.3181 -0.3114
  115TMC2    C5 1789   4.046   2.480  17.727  0.2592  0.1169 -0.2184
  115TMC2    C6 1790   4.186   2.475  17.715 -0.2630 -0.6431  0.4106
  115TMC2     C 1791   3.977   2.114  17.742  0.5658  0.7826  0.0267
  115TMC2     O 1792   4.033   2.019  17.687 -0.7361 -0.1060  0.0762
  115TMC2     H 1793   4.259   2.154  17.751 -0.7762 -0.3187 -1.3982
  115TMC2    H1 1794   3.877   2.357   0.014  0.0970  2.1114 -1.0102
  115TMC2    H2 1795   4.250   2.561  17.705  0.4079 -1.4580 -2.5010
  115TMC2    C7 1796   3.966   2.610  17.720  0.2295 -0.5102  0.1344
  115TMC2    C8 1797   4.389   2.375   0.008  0.0438  0.3160  0.0397
  115TMC2    O1 1798   3.851   2.601  17.742 -0.5606 -0.0180 -0.2243
  115TMC2    O2 1799   4.415   2.451   0.099  0.2516 -0.0725 -0.1482
  115TMC2    O5 1800   4.456   2.269  17.719 -0.1732 -0.0129 -0.3541
  115TMC2    H5 1801   4.408   2.222  17.649 -0.0761 -1.0806  0.2933
  116MPD2     C 1802   3.545   1.844  17.750  0.0169  0.9221  0.3201
  116MPD2    C1 1803   3.664   1.824  17.683 -0.5052  0.5394 -0.3447
  116MPD2    C2 1804   3.769   1.914  17.697 -0.1385  0.0642  1.2318
  116MPD2    C3 1805   3.757   2.018   0.040  1.0322 -0.1241  0.2154
  116MPD2    C4 1806   3.644   2.027   0.117 -0.2561  0.1256  0.1178
  116MPD2    C5 1807   3.537   1.946   0.084  0.5161  0.1360 -0.4355
  116MPD2     H 1808   3.850   1.902  17.626 -1.4037  1.3960 -0.4403
  116MPD2    H1 1809   3.632   2.106   0.191  2.2925  1.5108 -0.9466
  116MPD2    H2 1810   3.463   1.777  17.728  0.5339  0.3766  0.0565
  116MPD2    H3 1811   3.450   1.968   0.144  2.2998  2.2180  1.3828
  116MPD2     N 1812   3.859   2.118   0.050  0.2806  0.1630  0.0701
  116MPD2    H5 1813   3.841   2.198   0.110  0.2100  0.0994  0.1338
  116MPD2    N1 1814   3.673   1.737  17.568 -0.0070 -0.1546  0.6158
  116MPD2    H7 1815   3.587   1.699  17.529  1.0375 -1.9529  0.0791
  117TMC2    C1 1816   2.770   3.926  14.248  0.2074 -0.5144  0.4478
  117TMC2    C2 1817   2.803   3.875  14.372  0.8206  0.0036 -0.4921
  117TMC2    C3 1818   2.881   3.946  14.452 -0.2102 -0.3607  0.5773
  117TMC2    C4 1819   2.811   4.046  14.201 -0.1425  0.5036  0.3369
  117TMC2    C5 1820   2.889   4.119  14.284  0.2604  0.6748  0.0653
  117TMC2    C6 1821   2.931   4.065  14.410 -0.4133 -0.5562 -0.0554
  117TMC2     C 1822   2.688   3.837  14.174  0.5751  0.8396 -0.7506
  117TMC2     O 1823   2.670   3.725  14.215 -0.2252  0.3602 -0.2886
  117TMC2     H 1824   2.739   3.792  14.402  3.2787 -1.7591 -0.1852
  117TMC2    H1 1825   2.785   4.083  14.103 -1.5664 -0.8335  0.2107
  117TMC2    H2 1826   2.974   4.136  14.479 -1.9955  0.2771  0.0876
  117TMC2    C7 1827   2.915   4.262  14.272 -0.2753 -0.4331 -0.0114
  117TMC2    C8 1828   2.847   3.928  14.590  0.0364 -0.7104  0.5352
  117TMC2    O1 1829   3.016   4.302  14.329  0.8500  0.2280  0.1411
  117TMC2    O2 1830   2.736   3.896  14.636  0.2779 -0.0143 -0.3890
  117TMC2    O5 1831   2.952   3.972  14.659 -0.1678  0.2343 -0.1240
  117TMC2    H5 1832   3.027   3.994  14.599 -0.0431  0.0015 -0.0561
  118MPD2     C 1833   2.700   4.504  14.091  0.2191  0.7153  0.5410
  118MPD2    C1 1834   2.810   4.461  14.165  0.2225  0.1215 -0.0403
  118MPD2    C2 1835   2.917   4.544  14.195  0.0666 -0.2352 -0.3295
  118MPD2    C3 1836   2.907   4.677  14.163  0.4141 -0.0854 -0.1600
  118MPD2    C4 1837   2.793   4.732  14.105  0.7306  0.0817 -0.2907
  118MPD2    C5 1838   2.690   4.640  14.069  0.2834 -0.4940 -0.2949
  118MPD2     H 1839   3.008   4.510  14.242 -0.5650  1.5318  2.1896
  118MPD2    H1 1840   2.787   0.094  14.068  1.5766  0.1901 -0.1269
  118MPD2    H2 1841   2.633   4.436  14.040  1.4452 -0.1279  0.0604
  118MPD2    H3 1842   2.605   4.680  14.014 -0.7365 -2.6166 -0.2469
  118MPD2     N 1843   3.010   0.027  14.192  0.5862  0.0162 -0.5747
  118MPD2    H5 1844   2.979   0.124  14.198  0.9501  0.0996 -0.0271
  118MPD2    N1 1845   2.812   4.322  14.201 -0.6287 -0.6663 -0.1419
  118MPD2    H7 1846   2.735   4.268  14.162 -0.3192  0.3055 -2.0890
  119TMC2    C1 1847   0.769   0.686  13.292  0.4061  0.1963  0.1147
  119TMC2    C2 1848   0.736   0.724  13.164 -0.3312  0.3044 -0.5193
  119TMC2    C3 1849   0.706   0.623  13.080 -0.4750  0.3298  0.7018
  119TMC2    C4 1850   0.756   0.558  13.333  0.2636  0.0170 -0.0336
  119TMC2    C5 1851   0.712   0.466  13.245  0.4882 -0.0794  0.0664
  119TMC2    C6 1852   0.685   0.494  13.113 -0.4652 -0.1661  0.9231
  119TMC2     C 1853   0.825   0.778  13.385 -0.2673 -0.9900 -0.1948
  119TMC2     O 1854   0.805   0.762  13.506  0.4854  0.4906 -0.4336
  119TMC2     H 1855   0.762   0.823  13.128 -0.7291  0.6259  0.0673
  119TMC2    H1 1856   0.790   0.532  13.432 -1.8217 -1.2231  0.3524
  119TMC2    H2 1857   0.644   0.421  13.044  1.2866  1.2595 -1.6122
  119TMC2    C7 1858   0.713   0.322  13.280 -0.3499 -1.0524  0.1423
  119TMC2    C8 1859   0.685   0.665  12.942 -1.1619  0.2369 -0.1343
  119TMC2    O1 1860   0.706   0.242  13.187 -0.2206 -0.1204  0.1616
  119TMC2    O2 1861   0.624   0.771  12.923  0.1199  0.1067 -0.0314
  119TMC2    O5 1862   0.753   0.587  12.859  0.2660 -0.5238 -0.0239
  119TMC2    H5 1863   0.817   0.544  12.920 -2.6443 -2.0553  1.9687
  120MPD2     C 1864   1.256   1.023  13.477 -0.1327 -0.6354  0.7436
  120MPD2    C1 1865   1.165   0.971  13.569 -0.1327  0.6735  0.5284
  120MPD2    C2 1866   1.039   0.933  13.521  0.1958  0.3788  0.4179
  120MPD2    C3 1867   1.021   0.931  13.384 -0.1076  0.7002  0.3663
  120MPD2    C4 1868   1.107   0.994  13.301  0.7585  0.2261 -0.4629
  120MPD2    C5 1869   1.223   1.038  13.341  0.0040 -0.1295  0.6966
  120MPD2     H 1870   0.961   0.895  13.587 -0.4875  0.9538 -0.0569
  120MPD2    H1 1871   1.082   1.002  13.196 -0.6819  1.1794 -0.0529
  120MPD2    H2 1872   1.354   1.059  13.506 -0.0544 -0.8620  0.7587
  120MPD2    H3 1873   1.291   1.081  13.268  0.1067 -1.2253  0.1491
  120MPD2     N 1874   0.914   0.860  13.321 -0.1963  0.2451  0.1645
  120MPD2    H5 1875   0.920   0.853  13.220  0.3341  0.4506  0.1798
  120MPD2    N1 1876   1.208   0.945  13.702  0.3655  0.0927  1.0227
  120MPD2    H7 1877   1.307   0.959  13.722  0.5459 -2.0180  1.5639
  121TMC2    C1 1878   2.715   2.090  14.452 -0.3425 -0.6139  0.5858
  121TMC2    C2 1879   2.715   2.043  14.579  0.0055 -0.6926  0.3683
  121TMC2    C3 1880   2.613   2.078  14.655  0.2174 -0.4049 -0.7268
  121TMC2    C4 1881   2.607   2.149  14.404 -0.4872 -0.4060  0.0470
  121TMC2    C5 1882   2.502   2.181  14.485 -0.9348 -0.5168  0.3915
  121TMC2    C6 1883   2.505   2.149  14.614  0.0942  0.1874  0.2137
  121TMC2     C 1884   2.831   2.062  14.371 -0.3188  0.2184  0.1687
  121TMC2     O 1885   2.890   1.956  14.402  0.3050  0.4853 -0.4546
  121TMC2     H 1886   2.801   1.992  14.622 -0.7357 -1.7251  0.6301
  121TMC2    H1 1887   2.594   2.160  14.297 -0.3610 -2.1098 -0.1551
  121TMC2    H2 1888   2.436   2.191  14.687  0.1569 -0.8057  0.8546
  121TMC2    C7 1889   2.376   2.233  14.441  0.0638 -0.2236  0.1922
  121TMC2    C8 1890   2.614   2.053  14.798 -0.2274 -0.8344 -0.7400
  121TMC2    O1 1891   2.376   2.321  14.359  0.1025 -0.0205 -0.3929
  121TMC2    O2 1892   2.515   2.064  14.864  0.2896 -0.0482 -0.3140
  121TMC2    O5 1893   2.732   2.103  14.841 -0.6478  0.0407  0.2229
  121TMC2    H5 1894   2.801   2.091  14.772 -0.8164 -0.0397  0.0678
  122MPD2     C 1895   3.052   2.010  14.176  0.0923 -0.6855  0.1256
  122MPD2    C1 1896   2.959   2.114  14.171  0.1242  0.0169  0.9186
  122MPD2    C2 1897   2.966   2.208  14.070  1.0353 -0.1963 -0.1660
  122MPD2    C3 1898   3.074   2.206  13.981  0.3037 -0.8109 -0.3525
  122MPD2    C4 1899   3.171   2.114  13.994  0.5193 -0.4789 -0.0772
  122MPD2    C5 1900   3.159   2.007  14.087  0.0008  0.8056 -0.3651
  122MPD2     H 1901   2.890   2.286  14.069  0.2157 -1.0208 -4.0548
  122MPD2    H1 1902   3.247   2.095  13.920  0.8537 -3.0621  0.9351
  122MPD2    H2 1903   3.055   1.940  14.258 -1.7456 -0.6100  0.2581
  122MPD2    H3 1904   3.230   1.927  14.106 -0.9211  0.3479  1.1501
  122MPD2     N 1905   3.081   2.306  13.883  0.3000 -0.2202  0.0641
  122MPD2    H5 1906   3.162   2.296  13.823  1.1492  0.7915  1.0420
  122MPD2    N1 1907   2.847   2.129  14.255 -0.6594 -0.7975  0.4825
  122MPD2    H7 1908   2.786   2.209  14.246  0.7534  0.2696  0.4196
  123TMC2    C1 1909   2.854   0.863  10.114  0.2604  0.4486 -0.7702
  123TMC2    C2 1910   2.961   0.948  10.092 -0.0948  0.7083 -0.2450
  123TMC2    C3 1911   2.940   1.075  10.059  0.0292 -0.1400 -0.5166
  123TMC2    C4 1912   2.726   0.910  10.115  0.1701  0.4741 -0.0659
  123TMC2    C5 1913   2.709   1.046  10.109  0.1365 -0.4755  0.1814
  123TMC2    C6 1914   2.817   1.132  10.072  0.6796 -0.0349  0.2634
  123TMC2     C 1915   2.883   0.729  10.163  0.1073  0.1661 -0.8262
  123TMC2     O 1916   2.996   0.707  10.201 -0.7079  0.0629  0.1432
  123TMC2     H 1917   3.061   0.908  10.105 -1.0430 -1.1713  1.2289
  123TMC2    H1 1918   2.636   0.850  10.114  0.8124 -0.4713 -0.9452
  123TMC2    H2 1919   2.798   1.239  10.074 -0.2139 -0.1870  0.1482
  123TMC2    C7 1920   2.576   1.089  10.056  0.4199  0.0388 -0.2693
  123TMC2    C8 1921   3.052   1.166  10.074 -0.3952 -0.1189 -0.2122
  123TMC2    O1 1922   2.573   1.098   9.938 -0.0589  0.1315 -0.1587
  123TMC2    O2 1923   3.161   1.122  10.105  0.0488 -0.2883  0.6087
  123TMC2    O5 1924   3.036   1.245   9.966  0.1888  0.2454  0.3448
  123TMC2    H5 1925   2.946   1.235   9.927  0.1240  0.6674  0.3861
  124MPD2     C 1926   2.726   0.275  10.340 -0.3068 -0.1854  0.1417
  124MPD2    C1 1927   2.620   0.333  10.269 -0.1685  0.5785 -0.3522
  124MPD2    C2 1928   2.641   0.462  10.210  0.5662  0.5144 -0.2743
  124MPD2    C3 1929   2.760   0.532  10.223  0.6801 -0.0965  1.0507
  124MPD2    C4 1930   2.856   0.473  10.306  0.3859  0.2763 -0.2863
  124MPD2    C5 1931   2.843   0.349  10.356  0.4622  0.6791  0.0213
  124MPD2     H 1932   2.566   0.505  10.144 -3.5960 -0.9004  3.5700
  124MPD2    H1 1933   2.953   0.521  10.318 -0.8372  2.0618  2.4562
  124MPD2    H2 1934   2.723   0.179  10.388 -0.8064  0.2788  1.0408
  124MPD2    H3 1935   2.919   0.305  10.420  0.3813  1.2904  0.5356
  124MPD2     N 1936   2.774   0.651  10.155 -0.0852  0.3503 -0.6244
  124MPD2    H5 1937   2.688   0.671  10.103 -0.2557  2.9459  0.6524
  124MPD2    N1 1938   2.510   0.254  10.245 -0.1032 -1.1287  0.2698
  124MPD2    H7 1939   2.520   0.162  10.286  0.9115 -0.7321  0.9096
  125TMC2    C1 1940   1.629   2.138   9.299 -0.1042 -0.0957 -0.9663
  125TMC2    C2 1941   1.606   2.274   9.282  0.3072  0.2879 -0.0364
  125TMC2    C3 1942   1.711   2.364   9.246  0.8776  0.3123  0.4276
  125TMC2    C4 1943   1.749   2.085   9.270 -0.4523 -0.7683  0.8276
  125TMC2    C5 1944   1.848   2.171   9.237 -0.3889  0.2929  0.7506
  125TMC2    C6 1945   1.840   2.309   9.232 -0.0671  0.7276  0.7719
  125TMC2     C 1946   1.515   2.053   9.341  0.3166 -0.0690  0.2763
  125TMC2     O 1947   1.533   1.931   9.324 -0.3075 -0.0336 -0.1759
  125TMC2     H 1948   1.515   2.323   9.314 -0.6345 -1.7453  0.3821
  125TMC2    H1 1949   1.755   1.976   9.267 -0.6947 -0.6586 -3.8599
  125TMC2    H2 1950   1.932   2.365   9.233  0.4397 -0.0585 -1.1090
  125TMC2    C7 1951   1.961   2.126   9.162 -0.0274  0.1421  0.8081
  125TMC2    C8 1952   1.695   2.508   9.263  0.4441 -0.3841 -0.4846
  125TMC2    O1 1953   2.013   2.203   9.086  0.8304  0.5695 -0.5573
  125TMC2    O2 1954   1.593   2.552   9.317 -0.9094  0.2812 -0.6361
  125TMC2    O5 1955   1.771   2.569   9.172 -0.2333  0.2112 -0.1951
  125TMC2    H5 1956   1.835   2.509   9.129  0.9875  2.4076 -1.4106
  126MPD1     C 1957   1.073   1.923   9.584 -0.3189 -0.2594  0.0347
  126MPD1    C1 1958   1.075   2.061   9.583 -0.0061  0.1967  0.4826
  126MPD1    C2 1959   1.190   2.122   9.526  0.1528  0.7042 -0.3921
  126MPD1    C3 1960   1.289   2.047   9.456  0.7333 -0.3543  0.0686
  126MPD1    C4 1961   1.271   1.913   9.449 -0.4949  0.1555  0.0150
  126MPD1    C5 1962   1.158   1.855   9.504 -0.2054  0.1003 -0.0839
  126MPD1     H 1963   1.207   2.228   9.540  0.8128  0.4110  1.1413
  126MPD1    H1 1964   1.339   1.850   9.393 -2.6863 -1.0506 -1.3037
  126MPD1    H2 1965   1.009   1.865   9.649  2.0913 -1.6970  1.1314
  126MPD1    H3 1966   1.153   1.747   9.501 -1.2892  0.0799  2.0389
  126MPD1     N 1967   1.408   2.115   9.400 -0.2397  0.5666  0.5449
  126MPD1    H5 1968   1.415   2.215   9.415 -0.9299  0.7029 -0.0499
  126MPD1    N1 1969   0.994   2.130   9.670 -0.2396 -0.1548 -0.3677
  126MPD1    H6 1970   0.989   2.230   9.649  1.6624 -0.2515 -1.3313
  126MPD1    H7 1971   0.901   2.090   9.673  0.0120 -0.7140 -0.0747
  127TMC2    C1 1972   2.886   1.206  10.597  0.1924 -0.7757 -0.0512
  127TMC2    C2 1973   2.905   1.248  10.728  0.3370 -0.1924  0.0039
  127TMC2    C3 1974   2.792   1.254  10.808 -0.6088  0.2017  0.4495
  127TMC2    C4 1975   2.761   1.163  10.553 -0.2530  0.0194  0.8003
  127TMC2    C5 1976   2.653   1.171  10.639  0.0740 -0.3857 -0.3121
  127TMC2    C6 1977   2.666   1.219  10.763  0.0977 -0.1207 -0.3450
  127TMC2     C 1978   2.999   1.165  10.509  0.2878  0.8284  0.0547
  127TMC2     O 1979   2.975   1.161  10.390 -0.7609 -0.5853 -0.0377
  127TMC2     H 1980   3.000   1.285  10.763  1.7321 -4.6600  0.8673
  127TMC2    H1 1981   2.733   1.128  10.454 -1.5339 -1.9475  1.8433
  127TMC2    H2 1982   2.582   1.229  10.831  1.0025  0.7929  0.6445
  127TMC2    C7 1983   2.531   1.130  10.586  0.0549  0.5538  0.5613
  127TMC2    C8 1984   2.809   1.292  10.943 -0.0679  0.3122  0.0945
  127TMC2    O1 1985   2.503   1.147  10.467 -0.3684  0.1280  0.2455
  127TMC2    O2 1986   2.889   1.374  10.984 -0.0178  0.1660 -0.1344
  127TMC2    O5 1987   2.734   1.220  11.028 -0.1714  0.0709  0.1905
  127TMC2    H5 1988   2.681   1.151  10.984  0.3465  0.3664 -0.9042
  128MPD2     C 1989   3.329   1.025  10.607 -0.0009  0.6385 -0.8594
  128MPD2    C1 1990   3.232   1.083  10.529 -0.7575 -0.0944 -0.1394
  128MPD2    C2 1991   3.271   1.110  10.406  0.4375  0.3571  0.7918
  128MPD2    C3 1992   3.397   1.090  10.353 -0.7360 -0.5025  0.3032
  128MPD2    C4 1993   3.490   1.029  10.434  0.1989  0.1930 -0.5342
  128MPD2    C5 1994   3.454   1.001  10.564  0.7137 -0.7631 -0.0147
  128MPD2     H 1995   3.198   1.161  10.344  0.4343 -0.3382  0.2088
  128MPD2    H1 1996   3.593   1.009  10.408 -0.4222 -3.8331  0.0453
  128MPD2    H2 1997   3.305   1.010  10.712 -2.0763  2.4932 -1.0568
  128MPD2    H3 1998   3.529   0.962  10.632  0.5589 -1.4592 -0.2423
  128MPD2     N 1999   3.419   1.126  10.211 -0.3758  0.0836  0.4527
  128MPD2    H5 2000   3.341   1.169  10.163 -0.6700 -0.2839  0.6047
  128MPD2    N1 2001   3.112   1.133  10.583  0.3035 -0.2336  0.2080
  128MPD2    H7 2002   3.101   1.124  10.683 -1.7661  0.5944  0.0527
  129TMC2    C1 2003   2.342   1.417   1.568  0.1535  0.3922  0.0512
  129TMC2    C2 2004   2.252   1.494   1.641  0.0485 -0.3902  0.2749
  129TMC2    C3 2005   2.137   1.439   1.688  0.7579  0.1338 -0.5772
  129TMC2    C4 2006   2.314   1.291   1.528 -0.3701  0.2884 -0.1764
  129TMC2    C5 2007   2.194   1.246   1.567  0.0153  0.3529 -0.3600
  129TMC2    C6 2008   2.105   1.316   1.645  0.1040  0.4776  0.6415
  129TMC2     C 2009   2.438   1.478   1.471 -0.0014 -0.2894 -0.8212
  129TMC2     O 2010   2.518   1.398   1.416  0.0823 -0.3141 -0.7514
  129TMC2     H 2011   2.258   1.600   1.662  2.9399 -0.5689  0.3481
  129TMC2    H1 2012   2.384   1.229   1.473 -1.2188 -0.8221 -0.0126
  129TMC2    H2 2013   2.011   1.271   1.675 -0.9021  1.2387 -1.3471
  129TMC2    C7 2014   2.151   1.108   1.524 -0.2094 -0.0094  0.0401
  129TMC2    C8 2015   2.046   1.520   1.765  0.5104  0.0684  0.0995
  129TMC2    O1 2016   2.032   1.093   1.523  0.2238  0.8774 -0.7778
  129TMC2    O2 2017   2.034   1.641   1.761 -0.0672 -0.2676 -0.8003
  129TMC2    O5 2018   2.028   1.435   1.871 -0.3612 -0.0633 -0.5331
  129TMC2    H5 2019   2.060   1.343   1.864  0.9639  0.3464 -0.0425
  130MPD2     C 2020   2.556   1.635   1.239 -0.3923 -0.5625 -0.8105
  130MPD2    C1 2021   2.449   1.670   1.318 -0.5906  0.3465 -0.2108
  130MPD2    C2 2022   2.390   1.789   1.293  0.2250  0.0192 -0.2574
  130MPD2    C3 2023   2.436   1.875   1.192 -0.3481  0.1516  0.0909
  130MPD2    C4 2024   2.527   1.820   1.098 -0.5953 -0.1928 -0.0374
  130MPD2    C5 2025   2.591   1.705   1.132  0.4388  0.2355 -0.0859
  130MPD2     H 2026   2.315   1.833   1.359  1.7269  0.2993  1.2458
  130MPD2    H1 2027   2.560   1.875   1.011 -0.1884  1.3144  1.0579
  130MPD2    H2 2028   2.625   1.554   1.259  0.7882  0.3512 -1.2107
  130MPD2    H3 2029   2.665   1.671   1.061  1.5768  1.6554  0.4149
  130MPD2     N 2030   2.370   1.996   1.168 -0.3128 -0.2331 -0.2743
  130MPD2    H5 2031   2.283   2.013   1.217  0.5784  0.7094  0.9717
  130MPD2    N1 2032   2.398   1.599   1.433  0.3231 -0.0969 -0.5860
  130MPD2    H7 2033   2.321   1.644   1.483 -1.5834 -1.8651 -1.9458
  131TMC2    C1 2034   1.549   0.742  10.291 -0.4722  0.6563 -0.6777
  131TMC2    C2 2035   1.637   0.833  10.354  0.3115 -0.0943  0.1550
  131TMC2    C3 2036   1.588   0.956  10.395 -1.0228 -1.1943  0.2937
  131TMC2    C4 2037   1.418   0.775  10.274 -0.2554  0.5309 -0.3666
  131TMC2    C5 2038   1.381   0.902  10.311 -0.2669 -0.0434 -0.3278
  131TMC2    C6 2039   1.461   0.988  10.377  0.3165 -0.0650  0.1376
  131TMC2     C 2040   1.607   0.618  10.257  0.4507 -0.0436 -0.9928
  131TMC2     O 2041   1.732   0.622  10.259 -0.2833  0.0633  0.1875
  131TMC2     H 2042   1.730   0.792  10.392 -0.1558 -0.6182  0.7477
  131TMC2    H1 2043   1.349   0.709  10.223  1.4423 -1.9589  0.6035
  131TMC2    H2 2044   1.418   1.075  10.425  1.5317  0.3137  0.5232
  131TMC2    C7 2045   1.260   0.951  10.253 -0.0533  0.4361  0.2299
  131TMC2    C8 2046   1.658   1.039  10.493 -0.3993 -0.1935  0.5608
  131TMC2    O1 2047   1.176   0.866  10.219  0.2082  0.0390 -0.2310
  131TMC2    O2 2048   1.596   1.095  10.580  0.1169  0.0106  0.1351
  131TMC2    O5 2049   1.781   0.986  10.513 -0.3660  0.0763 -0.7763
  131TMC2    H5 2050   1.823   0.954  10.431 -0.5507 -0.1997 -0.7637
  132MPD2     C 2051   1.480   0.277  10.296  1.4101  0.5685 -0.0360
  132MPD2    C1 2052   1.574   0.378  10.267 -0.6775 -0.2855 -0.3948
  132MPD2    C2 2053   1.704   0.342  10.226 -1.0929 -0.0369 -0.3006
  132MPD2    C3 2054   1.743   0.214  10.221 -0.7956 -0.9604 -0.0402
  132MPD2    C4 2055   1.646   0.119  10.241  0.0119 -0.5518 -0.0037
  132MPD2    C5 2056   1.523   0.147  10.281 -0.1799  0.0572  0.0359
  132MPD2     H 2057   1.772   0.418  10.192 -0.4629  0.2705  1.6213
  132MPD2    H1 2058   1.665   0.013  10.243  2.3424 -0.1242 -0.2796
  132MPD2    H2 2059   1.376   0.292  10.320  0.9578 -0.9082 -1.0432
  132MPD2    H3 2060   1.453   0.068  10.305 -1.7272  0.4395 -3.0929
  132MPD2     N 2061   1.885   0.190  10.200 -0.5351 -0.6552  0.3320
  132MPD2    H5 2062   1.949   0.267  10.183 -1.5458  0.1987  0.3748
  132MPD2    N1 2063   1.524   0.509  10.269 -0.2171  0.7031  0.6528
  132MPD2    H7 2064   1.425   0.520  10.292 -0.4885 -0.9018  0.2761
  133TMC2    C1 2065   0.057   1.817   9.499 -0.1863 -0.4432  0.5912
  133TMC2    C2 2066   0.079   1.908   9.397  0.1333 -0.7534 -0.0242
  133TMC2    C3 2067   0.197   1.973   9.405  1.0506  0.1688  0.3746
  133TMC2    C4 2068   0.142   1.789   9.597 -0.1139 -0.2577 -0.3119
  133TMC2    C5 2069   0.266   1.848   9.588  0.2823  0.3110 -0.3900
  133TMC2    C6 2070   0.302   1.934   9.489  0.1586 -0.6039  0.7644
  133TMC2     C 2071   4.669   1.753   9.488  0.0058 -0.0005 -0.0592
  133TMC2     O 2072   4.581   1.801   9.415  0.0442 -0.4192  0.2492
  133TMC2     H 2073   0.003   1.949   9.331  0.4638 -0.3300 -0.1446
  133TMC2    H1 2074   0.114   1.739   9.688 -0.0208 -0.8960 -0.6341
  133TMC2    H2 2075   0.401   1.976   9.486  0.1359 -0.7623 -2.1425
  133TMC2    C7 2076   0.345   1.850   9.714  0.3281 -0.8853  0.4672
  133TMC2    C8 2077   0.240   2.064   9.296 -1.0553  0.2681 -0.3310
  133TMC2    O1 2078   0.421   1.942   9.730 -0.0469  0.0758  0.7561
  133TMC2    O2 2079   0.350   2.067   9.244  0.1683  0.0457 -0.9034
  133TMC2    O5 2080   0.131   2.145   9.268  1.0230  0.0174  0.4532
  133TMC2    H5 2081   0.060   2.152   9.336 -0.5247 -0.7095 -1.0944
  134MPD2     C 2082   4.429   1.590   9.526 -0.1764 -0.4568  0.0913
  134MPD2    C1 2083   4.557   1.546   9.560 -0.2957 -0.1046 -0.1142
  134MPD2    C2 2084   4.575   1.421   9.612 -0.3243 -0.2963  0.1869
  134MPD2    C3 2085   4.467   1.336   9.631  0.0870 -0.0331 -0.7961
  134MPD2    C4 2086   4.343   1.368   9.588  0.2896 -0.5546 -1.4159
  134MPD2    C5 2087   4.326   1.498   9.545 -0.2788  0.6291  0.2118
  134MPD2     H 2088   4.675   1.392   9.642 -0.5663 -1.5342 -0.1904
  134MPD2    H1 2089   4.261   1.297   9.586  1.1866 -1.6275 -0.2048
  134MPD2    H2 2090   4.400   1.691   9.499  1.7578  0.2117  0.5182
  134MPD2    H3 2091   4.231   1.524   9.499  0.3939 -0.7728 -1.9650
  134MPD2     N 2092   4.485   1.211   9.696 -0.3234 -0.3648  0.3095
  134MPD2    H5 2093   4.402   1.154   9.707 -1.2012  0.5332 -1.7087
  134MPD2    N1 2094   4.666   1.631   9.553  0.1071  0.4991 -0.5746
  134MPD2    H7 2095   0.011   1.593   9.596 -1.2861 -0.7442  1.0652
  135TMC2    C1 2096   2.160   2.387  10.117  0.0284 -0.1355  0.2187
  135TMC2    C2 2097   2.159   2.258  10.160 -0.8484  0.1163 -0.0830
  135TMC2    C3 2098   2.082   2.237  10.268  0.3711 -0.4454 -0.3715
  135TMC2    C4 2099   2.085   2.489  10.164 -0.2140 -0.2857  0.4653
  135TMC2    C5 2100   2.007   2.462  10.276  0.7203  0.3884  0.4628
  135TMC2    C6 2101   1.998   2.333  10.322 -0.3730  0.2784  0.2203
  135TMC2     C 2102   2.221   2.415   9.987 -0.0034  0.7108 -0.3580
  135TMC2     O 2103   2.170   2.503   9.915  0.2037 -0.1971 -0.2345
  135TMC2     H 2104   2.218   2.184  10.109  0.9128  0.5815  1.2895
  135TMC2    H1 2105   2.075   2.585  10.114 -0.1948 -0.6633 -0.2602
  135TMC2    H2 2106   1.938   2.312  10.409  0.7433 -0.3357  0.8437
  135TMC2    C7 2107   1.929   2.561  10.337  0.2117 -0.4791  0.4273
  135TMC2    C8 2108   2.101   2.107  10.334 -0.1876  0.2388 -0.1222
  135TMC2    O1 2109   1.933   2.671  10.284 -0.1606 -0.2191 -0.3667
  135TMC2    O2 2110   2.216   2.066  10.345 -0.3539  0.5768  0.5018
  135TMC2    O5 2111   1.987   2.053  10.383  0.1449  0.0817 -0.3739
  135TMC2    H5 2112   1.910   2.088  10.333 -0.5796  1.4896  1.7018
  136MPD2     C 2113   2.412   2.484   9.766 -0.2774 -0.4829 -0.1289
  136MPD2    C1 2114   2.421   2.374   9.851 -0.0588 -0.0156 -0.3002
  136MPD2    C2 2115   2.542   2.306   9.852  0.0398 -0.6369 -0.4072
  136MPD2    C3 2116   2.658   2.342   9.776 -0.2627 -0.3383  0.9201
  136MPD2    C4 2117   2.634   2.445   9.688  0.5812  1.7764 -0.6469
  136MPD2    C5 2118   2.512   2.508   9.680  0.7502  1.0662  0.1102
  136MPD2     H 2119   2.553   2.219   9.916  0.4876 -0.7751 -0.6695
  136MPD2    H1 2120   2.705   2.483   9.617  1.4605  1.3580  0.0112
  136MPD2    H2 2121   2.329   2.553   9.767  0.2827  0.1568  1.0995
  136MPD2    H3 2122   2.495   2.586   9.606 -0.6561  1.4483  0.8411
  136MPD2     N 2123   2.784   2.270   9.772 -0.0965 -0.1599  0.0389
  136MPD2    H5 2124   2.861   2.311   9.721  0.0367 -0.6814 -0.1853
  136MPD2    N1 2125   2.333   2.342   9.955  0.1055  0.2452  0.1433
  136MPD2    H7 2126   2.364   2.271  10.021 -0.6066 -0.7710 -0.6216
  137TMC2    C1 2127   2.330   1.979   9.768 -0.5288 -0.1001  0.0727
  137TMC2    C2 2128   2.444   1.969   9.691 -0.3129  0.1488 -0.2188
  137TMC2    C3 2129   2.427   2.018   9.562  0.1021  0.1213  0.1235
  137TMC2    C4 2130   2.216   2.035   9.726 -0.0014 -0.5572  0.2482
  137TMC2    C5 2131   2.205   2.075   9.597 -0.1252 -0.1638  0.2113
  137TMC2    C6 2132   2.311   2.071   9.511 -0.3613  0.0582  0.2266
  137TMC2     C 2133   2.336   1.959   9.908  0.2553  0.1995 -0.0030
  137TMC2     O 2134   2.230   1.977   9.977 -0.4596 -0.2816  0.3189
  137TMC2     H 2135   2.539   1.922   9.715  0.0376 -0.6322 -3.1707
  137TMC2    H1 2136   2.133   2.032   9.796  1.4792  0.8263  2.0843
  137TMC2    H2 2137   2.304   2.107   9.409 -1.1659 -0.6565  0.0261
  137TMC2    C7 2138   2.085   2.132   9.544 -0.0976  0.3654  0.6907
  137TMC2    C8 2139   2.545   2.034   9.479  0.6265  0.3414  0.1977
  137TMC2    O1 2140   2.092   2.208   9.448  0.6219 -0.2361 -0.1339
  137TMC2    O2 2141   2.535   2.038   9.359  0.6265  0.7750 -0.4322
  137TMC2    O5 2142   2.658   2.041   9.555 -0.9949  0.4980  0.2117
  137TMC2    H5 2143   2.647   2.047   9.652  0.3098 -1.1263  0.4577
  138MPD2     C 2144   2.650   1.877  10.081  0.0887  0.3442  0.0948
  138MPD2    C1 2145   2.515   1.906  10.066  0.1017  0.4879  0.5136
  138MPD2    C2 2146   2.435   1.898  10.179  0.0341  0.0858  0.7152
  138MPD2    C3 2147   2.493   1.849  10.299  0.4410  0.1950 -0.1095
  138MPD2    C4 2148   2.628   1.834  10.314  0.2738  0.4455  0.0334
  138MPD2    C5 2149   2.697   1.829  10.198  0.7889  0.2722 -0.6999
  138MPD2     H 2150   2.332   1.930  10.171  0.5415  1.8970  1.4142
  138MPD2    H1 2151   2.670   1.787  10.402 -0.1694  0.0162  0.0199
  138MPD2    H2 2152   2.717   1.886   9.995 -0.3031  2.0011 -0.0329
  138MPD2    H3 2153   2.798   1.789  10.204  0.4442 -0.4193  0.7304
  138MPD2     N 2154   2.405   1.859  10.409  0.1602 -0.1389 -0.1326
  138MPD2    H5 2155   2.316   1.906  10.396  0.4539 -0.2688 -2.5993
  138MPD2    N1 2156   2.463   1.936   9.941 -0.1912 -0.3180  0.0760
  138MPD2    H7 2157   2.523   1.916   9.861  0.7015  2.5597  0.0322
  139TMC2    C1 2158   3.043   0.127  13.829  0.1015  0.0052  0.5278
  139TMC2    C2 2159   3.163   0.169  13.879 -0.0529 -0.5853 -0.1676
  139TMC2    C3 2160   3.185   0.303  13.895 -0.8517  0.0607  0.0459
  139TMC2    C4 2161   2.942   0.220  13.807 -0.2806 -0.0348 -0.4585
  139TMC2    C5 2162   2.976   0.354  13.826 -0.1166  0.1770 -0.0243
  139TMC2    C6 2163   3.088   0.401  13.877  0.4965 -0.1145 -0.6119
  139TMC2     C 2164   3.027   4.727  13.797 -0.7309 -0.0154 -0.1205
  139TMC2     O 2165   3.128   4.658  13.784  0.6056 -0.3766  0.3599
  139TMC2     H 2166   3.246   0.102  13.899  0.4429  0.3964  1.0690
  139TMC2    H1 2167   2.855   0.192  13.749  0.7845 -2.0667 -1.0700
  139TMC2    H2 2168   3.108   0.506  13.892  1.3691 -0.3412 -0.1401
  139TMC2    C7 2169   2.866   0.447  13.815  0.6342 -0.4616 -0.2669
  139TMC2    C8 2170   3.316   0.334  13.949 -0.1624 -0.2977 -0.4494
  139TMC2    O1 2171   2.753   0.406  13.833 -1.0356 -0.7334  0.5977
  139TMC2    O2 2172   3.409   0.251  13.958  0.2829 -0.2503 -0.1137
  139TMC2    O5 2173   3.284   0.434  14.034 -0.3356  0.1625 -0.5327
  139TMC2    H5 2174   3.190   0.465  14.032 -0.1119  0.8005 -1.3572
  140MPD2     C 2175   2.701   4.540  13.749 -0.3271 -0.5762  0.0967
  140MPD2    C1 2176   2.841   4.563  13.760 -0.1826  0.0909 -0.4946
  140MPD2    C2 2177   2.918   4.448  13.771 -0.5787 -0.1471  1.0254
  140MPD2    C3 2178   2.863   4.325  13.783 -0.4161  0.5684 -0.3189
  140MPD2    C4 2179   2.729   4.305  13.763  0.4221 -0.1730 -0.6988
  140MPD2    C5 2180   2.650   4.411  13.742  0.3831 -0.1167 -0.4802
  140MPD2     H 2181   3.026   4.448  13.778 -0.6634  0.1294  2.3516
  140MPD2    H1 2182   2.683   4.207  13.769  1.6709 -0.8434 -2.0602
  140MPD2    H2 2183   2.626   4.619  13.755 -0.4040 -0.6992  0.7536
  140MPD2    H3 2184   2.543   4.401  13.729  0.6236 -1.9302 -1.1134
  140MPD2     N 2185   2.953   4.222  13.806 -0.3600 -0.0391 -0.3529
  140MPD2    H5 2186   3.046   4.259  13.819 -1.0984  1.8537 -0.3581
  140MPD2    N1 2187   2.895   4.690  13.778  0.0840  0.4000  0.0136
  140MPD2    H7 2188   2.824   0.024  13.779  0.1031  0.3974  0.8911
  141TMC2    C1 2189   2.801   1.619  14.369  0.2778 -0.0003  0.1112
  141TMC2    C2 2190   2.672   1.646  14.336  0.1149  1.0141  0.1008
  141TMC2    C3 2191   2.601   1.711  14.428  0.3933 -0.3915  0.2780
  141TMC2    C4 2192   2.856   1.629  14.497  0.0324 -0.5081 -0.5459
  141TMC2    C5 2193   2.770   1.683  14.590 -0.1022  1.1019 -0.8879
  141TMC2    C6 2194   2.646   1.726  14.555 -0.4283  0.0345  0.2139
  141TMC2     C 2195   2.891   1.631  14.248  0.2331  0.0539 -0.7741
  141TMC2     O 2196   2.842   1.623  14.135 -0.2577 -0.5948 -0.6017
  141TMC2     H 2197   2.643   1.619  14.235 -1.5419  1.1675  0.5492
  141TMC2    H1 2198   2.957   1.603  14.526  0.4887  0.5378 -1.1889
  141TMC2    H2 2199   2.575   1.762  14.630 -1.7817 -0.0051 -1.0462
  141TMC2    C7 2200   2.809   1.739  14.719  0.1166 -0.1169  0.4853
  141TMC2    C8 2201   2.460   1.742  14.399  0.1053  0.2422 -0.1697
  141TMC2    O1 2202   2.720   1.792  14.792  0.1436  0.5852  0.4655
  141TMC2    O2 2203   2.369   1.725  14.479  0.3104  0.1752  0.3464
  141TMC2    O5 2204   2.436   1.805  14.280  0.0955  0.4455 -0.3366
  141TMC2    H5 2205   2.524   1.825  14.241  0.3698  1.0066  0.5676
  142TMC2    C1 2206   1.854   1.413   9.612 -0.1828  0.5825  0.0774
  142TMC2    C2 2207   1.890   1.449   9.487  0.2121 -0.0124 -0.1722
  142TMC2    C3 2208   2.026   1.449   9.458 -0.2738 -0.5243 -0.0654
  142TMC2    C4 2209   1.948   1.364   9.704  1.0508  0.1019 -0.3709
  142TMC2    C5 2210   2.075   1.373   9.664  0.5693 -0.0691 -0.1316
  142TMC2    C6 2211   2.121   1.415   9.542  0.6384  0.1675  0.1463
  142TMC2     C 2212   1.708   1.406   9.647  0.2133 -0.5694  0.4435
  142TMC2     O 2213   1.687   1.347   9.752 -0.1298 -0.0280 -0.0458
  142TMC2     H 2214   1.813   1.471   9.413  0.2367  1.5867  0.2888
  142TMC2    H1 2215   1.910   1.320   9.796 -0.1168 -1.8659 -1.7736
  142TMC2    H2 2216   2.226   1.427   9.521  0.2552  1.8825 -0.8622
  142TMC2    C7 2217   2.176   1.348   9.767  0.2399 -0.1541 -0.2057
  142TMC2    C8 2218   2.056   1.472   9.323  0.5079  0.2661  0.6380
  142TMC2    O1 2219   2.281   1.300   9.732 -0.4521  0.5322 -0.5339
  142TMC2    O2 2220   1.985   1.541   9.246 -0.5972 -0.2961  0.5172
  142TMC2    O5 2221   2.129   1.368   9.284 -0.9287 -0.1261  0.2014
  142TMC2    H5 2222   2.185   1.330   9.355  0.7167  2.5678  0.3337
  143MPD2     C 2223   1.212   1.390   9.522 -0.7247 -0.3419  0.1827
  143MPD2    C1 2224   1.287   1.315   9.610  0.3523  0.2060 -0.4029
  143MPD2    C2 2225   1.422   1.330   9.625  0.2679 -0.3757 -0.2166
  143MPD2    C3 2226   1.486   1.420   9.541  0.5707  0.3547  0.0507
  143MPD2    C4 2227   1.413   1.486   9.443 -0.2665  0.2290 -0.3243
  143MPD2    C5 2228   1.276   1.479   9.443 -0.4038 -0.2612 -0.9404
  143MPD2     H 2229   1.479   1.264   9.689  0.8094  0.8252  0.5387
  143MPD2    H1 2230   1.466   1.550   9.374  0.1098  1.6170  1.2572
  143MPD2    H2 2231   1.104   1.391   9.518 -0.6809 -1.6078 -1.6616
  143MPD2    H3 2232   1.214   1.542   9.379  1.1524  0.5312 -1.6736
  143MPD2     N 2233   1.621   1.444   9.548 -0.3180  0.4649  0.3455
  143MPD2    H5 2234   1.662   1.503   9.477 -0.2040  0.2079  0.1963
  143MPD2    N1 2235   1.228   1.215   9.693 -0.3976  0.1014  0.6023
  143MPD2    H7 2236   1.287   1.173   9.764 -0.3611 -2.5840 -0.9895
  144TMC2    C1 2237   4.500   4.027   0.978 -0.9575 -0.1877 -0.3454
  144TMC2    C2 2238   4.539   3.945   0.882  0.5096  0.1203 -0.0031
  144TMC2    C3 2239   4.666   3.896   0.889 -0.2065  0.1991  0.1022
  144TMC2    C4 2240   4.583   4.061   1.078  0.5364  0.8027 -0.1542
  144TMC2    C5 2241   4.708   4.007   1.086  0.2073 -0.5825 -0.9809
  144TMC2    C6 2242   0.016   3.919   0.993  0.2039  0.2821 -0.6677
  144TMC2     C 2243   4.355   4.061   0.978  0.3638 -0.0844  0.0774
  144TMC2     O 2244   4.282   3.967   0.932 -0.3267  0.2072  0.0889
  144TMC2     H 2245   4.471   3.921   0.802  1.5590 -1.9159 -0.2835
  144TMC2    H1 2246   4.554   4.132   1.154 -0.2890  0.1667  0.1257
  144TMC2    H2 2247   0.109   3.866   1.010 -0.6167 -1.2622 -1.0039
  144TMC2    C7 2248   0.073   4.068   1.163 -0.0714  0.0317 -0.1145
  144TMC2    C8 2249   4.714   3.816   0.776  0.6348  0.0972 -0.4048
  144TMC2    O1 2250   0.185   4.042   1.116 -0.2585 -0.0434  0.3481
  144TMC2    O2 2251   4.647   3.797   0.673 -0.7435 -0.3511  0.3046
  144TMC2    O5 2252   0.110   3.780   0.786 -0.1834  0.1793  0.0461
  144TMC2    H5 2253   0.158   3.801   0.869  0.6630  1.5856 -0.7976
  145MPD2     C 2254   3.888   4.284   1.086 -0.2264  0.6994 -0.1935
  145MPD2    C1 2255   3.922   4.174   1.008 -0.3330 -0.2829 -0.3911
  145MPD2    C2 2256   4.054   4.139   0.996  1.1594 -0.2795 -0.0233
  145MPD2    C3 2257   4.164   4.213   1.049 -0.3611  0.0441  0.0403
  145MPD2    C4 2258   4.122   4.321   1.131  0.1204  0.0422  0.4456
  145MPD2    C5 2259   3.987   4.355   1.143  0.7331  0.7345 -1.3376
  145MPD2     H 2260   4.079   4.046   0.946 -0.0017 -0.1663 -0.7928
  145MPD2    H1 2261   4.190   4.383   1.189  1.2861 -0.6201 -0.2018
  145MPD2    H2 2262   3.787   4.318   1.107 -0.3088  1.3132 -1.5540
  145MPD2    H3 2263   3.961   4.431   1.215 -1.3292 -2.0035  0.7444
  145MPD2     N 2264   4.306   4.177   1.041 -0.8824  0.1136 -0.6102
  145MPD2    H5 2265   4.371   4.232   1.097 -0.0006 -2.4688  0.8861
  145MPD2    N1 2266   3.829   4.091   0.944 -0.2883 -0.1958  0.0097
  145MPD2    H7 2267   3.865   4.010   0.895  2.4286  0.3582  1.0746
  146TMC2    C1 2268   0.100   2.710  13.192  0.2632 -0.3294 -0.2434
  146TMC2    C2 2269   0.058   2.836  13.152  0.2174  1.0481  0.1550
  146TMC2    C3 2270   0.067   2.870  13.021  0.2505 -0.0469  0.5171
  146TMC2    C4 2271   0.188   2.633  13.118  0.2306  0.0768  0.5363
  146TMC2    C5 2272   0.201   2.683  12.990  0.2298 -0.1914 -0.3097
  146TMC2    C6 2273   0.136   2.787  12.932  0.6595 -0.1710 -0.1591
  146TMC2     C 2274   0.099   2.692  13.335  0.3742 -0.2213 -0.3844
  146TMC2     O 2275   0.006   2.752  13.392 -0.4130 -0.1828  0.7120
  146TMC2     H 2276   4.738   2.904  13.213 -1.7956 -1.2378  0.7981
  146TMC2    H1 2277   0.212   2.530  13.137 -0.2933 -0.4484 -1.6900
  146TMC2    H2 2278   0.153   2.824  12.832  0.6822  2.1944  0.7182
  146TMC2    C7 2279   0.288   2.607  12.907  0.5484  0.1086  0.0350
  146TMC2    C8 2280   4.722   2.979  12.978  0.2787 -0.2646  0.2454
  146TMC2    O1 2281   0.276   2.626  12.787  0.1965  0.6659 -0.2592
  146TMC2    O2 2282   0.002   3.099  12.991  0.5375 -0.0125 -0.8405
  146TMC2    O5 2283   4.648   2.924  12.890  0.5976  0.1863  0.3232
  146TMC2    H5 2284   4.664   2.827  12.893 -0.7669 -0.0128  1.1972
  147MPD2     C 2285   0.726   2.333  12.823  0.5449  0.0635 -0.0200
  147MPD2    C1 2286   0.709   2.349  12.955 -0.5136 -0.0749 -0.4312
  147MPD2    C2 2287   0.598   2.424  12.998 -0.0360  0.1137  0.2246
  147MPD2    C3 2288   0.511   2.485  12.905 -0.3965 -0.1590  0.4980
  147MPD2    C4 2289   0.530   2.466  12.772  0.0145 -0.5810  0.2486
  147MPD2    C5 2290   0.643   2.393  12.729  0.1102 -0.1399  0.0539
  147MPD2     H 2291   0.586   2.430  13.105  2.6614 -1.8475  0.6549
  147MPD2    H1 2292   0.461   2.495  12.693 -0.0582 -0.1248  0.4857
  147MPD2    H2 2293   0.804   2.266  12.789  0.8582  0.0023  0.8096
  147MPD2    H3 2294   0.642   2.360  12.626  4.2826  1.4135 -0.4852
  147MPD2     N 2295   0.403   2.549  12.967 -0.4489 -0.3192  1.0152
  147MPD2    H5 2296   0.398   2.567  13.067  0.2230  2.0398  0.6363
  147MPD2    N1 2297   0.796   2.295  13.049 -0.5507 -0.2143 -0.5163
  147MPD2    H7 2298   0.868   2.242  13.003 -0.8464 -1.5019  0.5048
  148TMC2    C1 2299   1.515   0.845  10.804  0.4989  0.3883 -0.0811
  148TMC2    C2 2300   1.616   0.800  10.882 -0.6295 -0.5259 -0.2943
  148TMC2    C3 2301   1.686   0.694  10.834  0.1992  0.7368  0.3207
  148TMC2    C4 2302   1.472   0.779  10.689 -0.7883 -0.6428 -0.4525
  148TMC2    C5 2303   1.542   0.667  10.657  0.4111  0.9364  0.0900
  148TMC2    C6 2304   1.657   0.632  10.718  0.0317  0.5896 -0.0835
  148TMC2     C 2305   1.421   0.935  10.869  0.0702 -0.0618 -0.2448
  148TMC2     O 2306   1.462   1.023  10.942  0.0622  0.1338  0.2775
  148TMC2     H 2307   1.642   0.868  10.962  0.0069 -2.2872  0.9974
  148TMC2    H1 2308   1.385   0.808  10.632 -0.2893 -0.7980 -1.2938
  148TMC2    H2 2309   1.715   0.544  10.692 -0.8998 -0.2298  0.6162
  148TMC2    C7 2310   1.443   0.567  10.632 -0.0560 -0.3715  0.3516
  148TMC2    C8 2311   1.815   0.661  10.887  0.2706 -0.4735  0.2785
  148TMC2    O1 2312   1.340   0.612  10.584  0.2017  0.0588  0.3471
  148TMC2    O2 2313   1.915   0.624  10.821  0.1598 -0.2608  0.4329
  148TMC2    O5 2314   1.829   0.720  11.005  0.2570  0.0416 -0.1220
  148TMC2    H5 2315   1.741   0.745  11.040  1.3859  0.8640  2.0821
  149MPD2     C 2316   1.183   1.116  10.879 -0.1762  0.2697 -0.1255
  149MPD2    C1 2317   1.170   0.977  10.850 -0.1873 -0.0831  0.6560
  149MPD2    C2 2318   1.046   0.921  10.834  0.3045 -0.5047 -0.1571
  149MPD2    C3 2319   0.929   0.999  10.841 -0.4146  0.0667 -0.2174
  149MPD2    C4 2320   0.951   1.130  10.866 -0.1119 -0.0726 -0.2389
  149MPD2    C5 2321   1.075   1.190  10.885  0.2324 -0.0473 -0.4719
  149MPD2     H 2322   1.040   0.815  10.814 -1.8359 -0.4468  0.1958
  149MPD2    H1 2323   0.865   1.196  10.867 -0.5462 -0.6358 -0.0944
  149MPD2    H2 2324   1.278   1.164  10.902 -0.6569  1.9259 -1.6086
  149MPD2    H3 2325   1.081   1.296  10.907 -2.5875  0.4910 -2.2392
  149MPD2     N 2326   0.803   0.940  10.815  0.1960 -0.7574  0.2891
  149MPD2    H5 2327   0.725   1.005  10.808  0.2578 -0.6648  0.4533
  149MPD2    N1 2328   1.286   0.898  10.840  0.7907 -0.0738  0.3032
  149MPD2    H7 2329   1.284   0.805  10.800 -1.0761 -0.0567  0.3288
  150TMC2    C1 2330   2.819   0.548  12.823  0.4670  0.0716  0.2387
  150TMC2    C2 2331   2.832   0.666  12.758  0.0669 -0.1884  0.4529
  150TMC2    C3 2332   2.939   0.743  12.784  0.1468  0.1033  0.5213
  150TMC2    C4 2333   2.910   0.507  12.911  0.1730  0.3343  0.6845
  150TMC2    C5 2334   3.031   0.574  12.921 -0.1857 -0.2681 -0.6282
  150TMC2    C6 2335   3.044   0.687  12.855  0.6714  0.1072 -0.0699
  150TMC2     C 2336   2.711   0.457  12.786 -0.6219 -0.7333 -0.4648
  150TMC2     O 2337   2.724   0.345  12.831  0.0023  0.1673  0.1535
  150TMC2     H 2338   2.753   0.699  12.693  2.5975  3.3818 -0.8435
  150TMC2    H1 2339   2.904   0.409  12.957 -0.5335  0.3910  0.7214
  150TMC2    H2 2340   3.123   0.754  12.886  1.8743 -1.3457 -0.0360
  150TMC2    C7 2341   3.139   0.543  13.014  0.8113 -1.3307  0.4570
  150TMC2    C8 2342   2.938   0.884  12.762 -0.0008  0.0122 -0.7483
  150TMC2    O1 2343   3.216   0.636  13.039 -0.1647  0.1034  0.4045
  150TMC2    O2 2344   3.040   0.945  12.784 -0.6643 -0.0241  0.3421
  150TMC2    O5 2345   2.812   0.929  12.766 -0.1005 -0.4378 -0.2205
  150TMC2    H5 2346   2.733   0.872  12.774  0.9298 -1.5725  2.1249
  151MPD2     C 2347   2.275   0.274  12.600 -0.3390 -0.3540  0.0924
  151MPD2    C1 2348   2.313   0.377  12.521  0.0140  0.1208 -0.2375
  151MPD2    C2 2349   2.420   0.456  12.564 -0.1720 -0.1761 -0.4191
  151MPD2    C3 2350   2.495   0.425  12.672 -0.3509  0.6044 -0.0569
  151MPD2    C4 2351   2.449   0.322  12.757  0.0265 -0.8200  0.4001
  151MPD2    C5 2352   2.336   0.251  12.720 -0.4158  0.1256  0.1185
  151MPD2     H 2353   2.446   0.542  12.504  0.3607 -0.2811 -0.3446
  151MPD2    H1 2354   2.498   0.298  12.851  0.4084  0.8649  0.6365
  151MPD2    H2 2355   2.187   0.219  12.571 -1.1293  0.3217  1.2356
  151MPD2    H3 2356   2.311   0.165  12.781 -0.9548 -0.6952 -1.2779
  151MPD2     N 2357   2.612   0.501  12.699  0.2042 -0.4573 -0.0951
  151MPD2    H5 2358   2.633   0.584  12.645 -0.9196  0.0781  0.3040
  151MPD2    N1 2359   2.246   0.402  12.396 -0.1042  0.2432  0.0674
  151MPD2    H7 2360   2.169   0.339  12.377  1.1636 -0.9847 -1.0896
  152TMC2    C1 2361   2.507   0.029  13.102 -0.2997  0.7951 -1.0384
  152TMC2    C2 2362   2.614   4.697  13.154  0.3935  0.0932  0.2653
  152TMC2    C3 2363   2.721   0.033  13.194 -0.6055 -0.2203  0.1646
  152TMC2    C4 2364   2.504   0.161  13.106  0.8460  0.2350  0.2098
  152TMC2    C5 2365   2.615   0.236  13.151 -0.1408  0.1693  0.8171
  152TMC2    C6 2366   2.729   0.169  13.175  0.0956 -0.1130  0.3405
  152TMC2     C 2367   2.389   4.701  13.048 -0.1533  0.0945  0.7400
  152TMC2     O 2368   2.308   0.033  12.991 -0.4112  0.7837 -0.3164
  152TMC2     H 2369   2.623   4.590  13.158 -2.2910 -0.1688 -0.6325
  152TMC2    H1 2370   2.420   0.220  13.070  0.9846  0.3922  0.1425
  152TMC2    H2 2371   2.816   0.231  13.193 -0.6350  0.0846  3.2185
  152TMC2    C7 2372   2.606   0.383  13.140  0.0909  0.5334  0.2679
  152TMC2    C8 2373   2.798   4.712  13.299 -0.8101 -0.4113  0.0544
  152TMC2    O1 2374   2.519   0.420  13.066 -0.1596  0.1213 -0.6290
  152TMC2    O2 2375   2.802   4.594  13.321  0.1134 -0.4439  0.7147
  152TMC2    O5 2376   2.807   0.067  13.400  0.1729  0.2687 -0.1968
  152TMC2    H5 2377   2.815   0.159  13.367  2.4401  0.5344  1.0683
  153MPD2     C 2378   2.295   4.345  13.026  0.1481 -0.8129 -0.6774
  153MPD2    C1 2379   2.286   4.480  13.003 -0.2892 -0.6324 -0.3547
  153MPD2    C2 2380   2.174   4.520  12.934  0.6188  0.0385  0.0135
  153MPD2    C3 2381   2.074   4.431  12.906 -0.2028 -0.3093  0.4511
  153MPD2    C4 2382   2.087   4.299  12.936  0.0845 -0.3361  0.3468
  153MPD2    C5 2383   2.198   4.253  12.996 -0.0940  0.6714  0.0441
  153MPD2     H 2384   2.157   4.627  12.929  2.8379  0.3516 -0.4250
  153MPD2    H1 2385   2.018   4.225  12.895 -0.6102  1.0181 -0.9170
  153MPD2    H2 2386   2.374   4.304  13.087  2.2436  3.2536 -0.6630
  153MPD2    H3 2387   2.211   4.148  13.020  1.9041  0.8091 -0.4596
  153MPD2     N 2388   1.953   4.482  12.847 -0.4458  0.1831 -0.5139
  153MPD2    H5 2389   1.948   4.580  12.820 -1.2671  0.8870  2.1981
  153MPD2    N1 2390   2.389   4.565  13.051  0.2927 -0.0313 -0.2779
  153MPD2    H7 2391   2.479   4.528  13.079  0.0287  0.0121  0.6225
  154TMC2    C1 2392   4.293   0.736   0.167  0.3648  0.1777 -0.0480
  154TMC2    C2 2393   4.275   0.870   0.173  0.3526 -0.5866 -0.7852
  154TMC2    C3 2394   4.296   0.946   0.061 -0.3707 -0.2356 -0.1499
  154TMC2    C4 2395   4.327   0.680   0.049 -0.0488  0.3957  0.2574
  154TMC2    C5 2396   4.352   0.759  17.690  0.8418 -0.2113  0.4163
  154TMC2    C6 2397   4.330   0.894  17.692  0.2271 -0.2455  0.4202
  154TMC2     C 2398   4.222   0.656   0.267  0.1552  0.4549  0.2287
  154TMC2     O 2399   4.176   0.713   0.364 -0.3865 -0.2735 -0.2315
  154TMC2     H 2400   4.250   0.912   0.269  0.7391  0.5094 -1.1647
  154TMC2    H1 2401   4.343   0.573   0.040  1.6065  0.4612  2.5207
  154TMC2    H2 2402   4.342   0.968  17.614  1.9212 -0.8330  0.1431
  154TMC2    C7 2403   4.400   0.696  17.567 -0.2393 -0.2164  0.4677
  154TMC2    C8 2404   4.268   1.086   0.069  0.4558 -0.2766 -0.6870
  154TMC2    O1 2405   4.451   0.586  17.584 -0.1990  0.4351 -0.6074
  154TMC2    O2 2406   4.223   1.145  17.728 -0.3343 -0.8677  0.0152
  154TMC2    O5 2407   4.323   1.136   0.185  0.2006 -0.2097 -0.2892
  154TMC2    H5 2408   4.372   1.078   0.248 -1.2096 -1.5654 -0.4605
  155MPD2     C 2409   4.114   0.315   0.242  0.2023  0.7471  0.6497
  155MPD2    C1 2410   4.123   0.438   0.295 -0.3574  0.5288 -0.2505
  155MPD2    C2 2411   4.042   0.468   0.407  0.0326  0.0447  0.1831
  155MPD2    C3 2412   3.957   0.369   0.463 -0.6256  0.7917 -0.2770
  155MPD2    C4 2413   3.957   0.243   0.406 -0.5472 -0.3162  0.6027
  155MPD2    C5 2414   4.036   0.222   0.296  0.1607  0.1950  0.2570
  155MPD2     H 2415   4.050   0.558   0.468 -0.7431  0.5870 -0.5242
  155MPD2    H1 2416   3.896   0.158   0.434 -2.1781  0.7598  0.3852
  155MPD2    H2 2417   4.180   0.285   0.161 -1.6966  0.0192 -0.6179
  155MPD2    H3 2418   4.041   0.121   0.256  0.2690  0.4834 -0.4601
  155MPD2     N 2419   3.864   0.406   0.563 -0.2510 -0.2809 -0.2486
  155MPD2    H5 2420   3.845   0.505   0.577 -0.5773 -0.4752  0.6720
  155MPD2    N1 2421   4.207   0.529   0.229 -0.3351  0.2109  0.7522
  155MPD2    H7 2422   4.258   0.494   0.149 -2.5851  0.8327 -0.9209
  156TMC2    C1 2423   2.342   2.405  12.291 -0.2868 -0.0730 -0.6713
  156TMC2    C2 2424   2.401   2.296  12.236  0.0166 -0.0324 -0.2180
  156TMC2    C3 2425   2.489   2.308  12.133  0.6270  0.7282  0.4542
  156TMC2    C4 2426   2.362   2.524  12.235 -0.4125  0.3637 -0.0825
  156TMC2    C5 2427   2.434   2.535  12.122  0.4198  1.1035 -0.4264
  156TMC2    C6 2428   2.493   2.423  12.065  0.5568 -0.8803  0.2942
  156TMC2     C 2429   2.277   2.398  12.422  0.5705  0.3523  0.1803
  156TMC2     O 2430   2.195   2.308  12.442 -0.3650 -0.8392 -0.1753
  156TMC2     H 2431   2.378   2.198  12.275 -0.1633 -0.0293 -0.3168
  156TMC2    H1 2432   2.318   2.615  12.275  1.5804  1.1686  0.2919
  156TMC2    H2 2433   2.535   2.429  11.966  1.0577 -1.3610  0.4778
  156TMC2    C7 2434   2.432   2.666  12.059  0.0940  0.4547  0.0070
  156TMC2    C8 2435   2.558   2.189  12.086 -0.1673  0.3709  0.2021
  156TMC2    O1 2436   2.405   2.756  12.132  0.1301  0.2240  0.0789
  156TMC2    O2 2437   2.549   2.082  12.146 -0.0076 -0.7223  0.6685
  156TMC2    O5 2438   2.665   2.216  12.010  0.3464 -0.1221 -0.5601
  156TMC2    H5 2439   2.681   2.310  11.989  2.3204 -0.5619 -1.0322
  157MPD2     C 2440   2.374   2.596  12.721 -0.5771  0.3011  0.3471
  157MPD2    C1 2441   2.307   2.501  12.650 -0.1299 -0.3413 -0.0921
  157MPD2    C2 2442   2.200   2.439  12.714  0.2215  0.1282  0.4339
  157MPD2    C3 2443   2.159   2.483  12.839 -0.4369  0.5565  0.0808
  157MPD2    C4 2444   2.231   2.579  12.904 -0.0068 -0.3195 -0.0765
  157MPD2    C5 2445   2.344   2.638  12.843  0.3325 -0.2508 -0.1208
  157MPD2     H 2446   2.138   2.370  12.659  1.0127 -1.0127  0.9693
  157MPD2    H1 2447   2.195   2.626  12.995 -1.9126 -3.4884  0.8218
  157MPD2    H2 2448   2.450   2.651  12.667 -2.1256  0.2703 -1.8749
  157MPD2    H3 2449   2.402   2.714  12.894 -0.0774 -0.2595  0.3457
  157MPD2     N 2450   2.038   2.436  12.884  0.0309 -0.3976 -0.5393
  157MPD2    H5 2451   1.988   2.377  12.818 -1.8690  0.4669  0.1356
  157MPD2    N1 2452   2.344   2.477  12.519 -0.1583  0.4581  0.3196
  157MPD2    H7 2453   2.419   2.534  12.480  1.0655 -2.6675 -1.8688
  158TMC2    C1 2454   1.811   1.784  13.566 -0.1968  0.2218 -0.0400
  158TMC2    C2 2455   1.712   1.880  13.530  0.1465  0.5778 -0.1515
  158TMC2    C3 2456   1.609   1.840  13.456 -0.4789  0.4921 -0.3375
  158TMC2    C4 2457   1.810   1.656  13.513  0.0879 -0.4753  0.1148
  158TMC2    C5 2458   1.699   1.615  13.442 -0.2119 -0.6095 -0.1606
  158TMC2    C6 2459   1.598   1.707  13.410 -0.0851  0.7216  0.4560
  158TMC2     C 2460   1.913   1.828  13.657  0.0030 -0.0538 -0.3072
  158TMC2     O 2461   1.944   1.944  13.643 -0.0560 -0.8584  0.1857
  158TMC2     H 2462   1.712   1.973  13.586 -2.2505  1.8241 -2.2029
  158TMC2    H1 2463   1.885   1.590  13.555 -1.5808 -0.2975  3.4304
  158TMC2    H2 2464   1.507   1.667  13.367  0.0432 -0.4862  1.3080
  158TMC2    C7 2465   1.679   1.479  13.404  0.3123  0.4935 -0.8943
  158TMC2    C8 2466   1.480   1.913  13.451  0.0380 -0.6044  0.2232
  158TMC2    O1 2467   1.583   1.456  13.329 -0.2234  0.5528  0.4459
  158TMC2    O2 2468   1.448   2.011  13.518  0.5036  1.0491 -0.1323
  158TMC2    O5 2469   1.411   1.860  13.353 -0.0827 -0.2376  0.5808
  158TMC2    H5 2470   1.464   1.819  13.282  1.1407 -0.7287  1.7728
  159MPD2     C 2471   2.284   1.715  14.007 -0.6568  0.4637 -0.4334
  159MPD2    C1 2472   2.170   1.637  14.036  0.4658 -0.4715  0.7228
  159MPD2    C2 2473   2.059   1.645  13.949 -0.2574  0.1599 -0.5204
  159MPD2    C3 2474   2.054   1.741  13.851  0.1561 -1.2580  0.7637
  159MPD2    C4 2475   2.161   1.828  13.832 -0.0115  0.1855  0.0781
  159MPD2    C5 2476   2.272   1.814  13.910  0.2391 -0.5523 -0.4040
  159MPD2     H 2477   1.979   1.572  13.960 -0.6578  0.9265  1.6192
  159MPD2    H1 2478   2.153   1.911  13.763 -1.1144  0.1151  0.1289
  159MPD2    H2 2479   2.372   1.714  14.070 -1.4122  1.6989  0.6423
  159MPD2    H3 2480   2.355   1.882  13.896  0.0098 -0.3326 -0.7025
  159MPD2     N 2481   1.945   1.735  13.757  0.7535  0.2219  0.8096
  159MPD2    H5 2482   1.882   1.656  13.763  0.6334  0.4866  2.9877
  159MPD2    N1 2483   2.186   1.537  14.134 -0.5885 -0.1606  0.4798
  159MPD2    H7 2484   2.275   1.531  14.181  0.6740  0.9587 -1.7540
  160TMC2    C1 2485   2.706   4.417   1.656  0.0813  0.2254 -0.2599
  160TMC2    C2 2486   2.715   4.373   1.782  0.2810  0.2990  0.5922
  160TMC2    C3 2487   2.834   4.385   1.845  0.0937  1.1343 -0.1207
  160TMC2    C4 2488   2.818   4.459   1.584  0.2830  0.1189 -0.0395
  160TMC2    C5 2489   2.935   4.471   1.649 -0.2310  0.0408  1.1418
  160TMC2    C6 2490   2.944   4.431   1.779 -0.6243  0.0528 -0.4449
  160TMC2     C 2491   2.580   4.420   1.590 -0.9415  0.1657  0.1031
  160TMC2     O 2492   2.497   4.342   1.635  0.5792  0.0603 -0.1022
  160TMC2     H 2493   2.630   4.323   1.827  1.1385 -0.3215  1.5385
  160TMC2    H1 2494   2.802   4.469   1.477  0.3263  0.4325 -0.0178
  160TMC2    H2 2495   3.035   4.436   1.837 -0.1004  1.9700 -1.4191
  160TMC2    C7 2496   3.055   4.497   1.569 -0.5132 -0.7432 -0.6256
  160TMC2    C8 2497   2.848   4.366   1.985 -0.9832  0.4914  0.0448
  160TMC2    O1 2498   3.067   4.459   1.453  0.4319  0.1213  0.7328
  160TMC2    O2 2499   2.940   4.297   2.022  0.6196  0.0378  0.1832
  160TMC2    O5 2500   2.734   4.390   2.050 -0.0446  0.0444  0.0733
  160TMC2    H5 2501   2.667   4.443   2.001  0.5555  1.6789  1.0249
  161MPD2     C 2502   2.331   4.514   1.444 -0.0450  0.1485  0.0941
  161MPD2    C1 2503   2.447   4.585   1.450  0.2750 -0.5682  0.3169
  161MPD2    C2 2504   2.446   4.706   1.378  0.7304  0.3163 -0.5214
  161MPD2    C3 2505   2.328   0.022   1.322  0.4092 -0.5941  0.0317
  161MPD2    C4 2506   2.219   4.684   1.329 -0.3220  0.1519  0.4018
  161MPD2    C5 2507   2.220   4.560   1.388  0.1488 -0.8083  0.2838
  161MPD2     H 2508   2.542   0.017   1.371  0.2021  1.3975 -0.1300
  161MPD2    H1 2509   2.124   4.722   1.293 -0.9263 -0.9681  0.8334
  161MPD2    H2 2510   2.318   4.418   1.494 -0.1077 -0.8065 -1.7780
  161MPD2    H3 2511   2.131   4.498   1.384 -0.2926 -0.1457 -0.1740
  161MPD2     N 2512   2.321   0.136   1.240  0.2220  0.2375 -1.0476
  161MPD2    H5 2513   2.238   0.143   1.181  0.0866 -0.0019 -0.8840
  161MPD2    N1 2514   2.567   4.535   1.515 -0.5341 -0.2258 -0.0384
  161MPD2    H7 2515   2.643   4.603   1.518 -1.4544  0.8252 -0.5285
  162TMC2    C1 2516   1.322   1.560   1.610  0.4188 -0.3281 -0.2727
  162TMC2    C2 2517   1.286   1.659   1.693  0.2905  0.4523 -0.2439
  162TMC2    C3 2518   1.196   1.627   1.789 -0.2761 -0.3803  0.3091
  162TMC2    C4 2519   1.285   1.435   1.634  1.1019 -0.3683 -0.1765
  162TMC2    C5 2520   1.201   1.407   1.740  0.2001  0.3425  0.9492
  162TMC2    C6 2521   1.149   1.500   1.823  0.7183 -0.3502  0.0881
  162TMC2     C 2522   1.299   1.594   1.480 -0.1537 -0.4565 -0.1937
  162TMC2     O 2523   1.220   1.521   1.423  0.6289 -0.7370  0.2933
  162TMC2     H 2524   1.297   1.762   1.660  0.5182  1.0999  1.8917
  162TMC2    H1 2525   1.322   1.366   1.560 -0.3671 -1.3211 -0.0069
  162TMC2    H2 2526   1.115   1.469   1.921  1.1719 -2.0678 -0.3014
  162TMC2    C7 2527   1.138   1.276   1.743  0.7341  0.0163  0.0854
  162TMC2    C8 2528   1.172   1.736   1.881  0.7391 -0.3205 -0.5112
  162TMC2    O1 2529   1.030   1.263   1.805  0.1290 -0.0860 -0.1368
  162TMC2    O2 2530   1.235   1.838   1.875 -0.0970 -0.5205 -0.2413
  162TMC2    O5 2531   1.041   1.732   1.920 -0.1440 -0.6007 -0.5002
  162TMC2    H5 2532   0.981   1.677   1.865 -0.9949  0.0423 -0.2252
  163MPD2     C 2533   1.437   1.859   1.056 -0.0226  0.3955 -0.1903
  163MPD2    C1 2534   1.326   1.790   1.083 -0.4504 -0.4887 -1.0604
  163MPD2    C2 2535   1.306   1.729   1.206  0.1257 -0.8182  0.5730
  163MPD2    C3 2536   1.391   1.743   1.306 -0.2548 -0.6353  0.7904
  163MPD2    C4 2537   1.502   1.824   1.283  0.3060  0.4185  0.0043
  163MPD2    C5 2538   1.525   1.878   1.157 -0.0479  0.4584  0.1844
  163MPD2     H 2539   1.229   1.653   1.211 -0.8144  0.0183 -1.0380
  163MPD2    H1 2540   1.564   1.845   1.369 -0.2841  0.5562  0.3989
  163MPD2    H2 2541   1.451   1.901   0.957  0.3559  0.4099 -0.1295
  163MPD2    H3 2542   1.608   1.945   1.142 -1.5138  1.6186 -2.7493
  163MPD2     N 2543   1.386   1.685   1.433  0.8438 -0.2080  0.3575
  163MPD2    H5 2544   1.455   1.714   1.502  0.2897  2.7993 -0.3590
  163MPD2    N1 2545   1.230   1.775   0.984 -0.3887 -0.5067  0.3127
  163MPD2    H7 2546   1.253   1.783   0.886  1.2454 -0.8092  0.6744
  164TMC2    C1 2547   0.717   1.255  11.172 -1.0473 -0.4379 -0.2222
  164TMC2    C2 2548   0.850   1.267  11.204 -0.3449  0.2678 -0.5945
  164TMC2    C3 2549   0.891   1.387  11.258  0.1758 -0.4398  0.1276
  164TMC2    C4 2550   0.624   1.352  11.210  0.0186  0.3327  0.2641
  164TMC2    C5 2551   0.672   1.457  11.288  0.0568 -0.4835  0.2860
  164TMC2    C6 2552   0.809   1.485  11.305 -0.1108  0.1451  0.7647
  164TMC2     C 2553   0.664   1.118  11.144  0.0997  0.6922  0.5208
  164TMC2     O 2554   0.544   1.118  11.141 -0.2693 -0.4966  0.1503
  164TMC2     H 2555   0.919   1.205  11.147  2.6361  2.6693  0.3542
  164TMC2    H1 2556   0.517   1.340  11.202  0.4479 -2.6067 -1.2017
  164TMC2    H2 2557   0.839   1.563  11.374 -0.3325  0.2673  0.7241
  164TMC2    C7 2558   0.568   1.535  11.352 -0.0979  0.2507 -0.1559
  164TMC2    C8 2559   1.037   1.390  11.271  0.2369 -0.4211  0.0420
  164TMC2    O1 2560   0.466   1.563  11.288 -0.2602 -0.2429 -0.7914
  164TMC2    O2 2561   1.104   1.285  11.280 -0.2120 -0.2482 -0.7289
  164TMC2    O5 2562   1.083   1.521  11.267 -0.1954 -0.2891 -0.5393
  164TMC2    H5 2563   1.021   1.590  11.235  0.4412 -0.0496 -1.2456
  165TMC2    C1 2564   2.369   3.432   1.163 -0.0937  0.1610  0.7144
  165TMC2    C2 2565   2.416   3.399   1.042  0.1530 -0.4858  0.0110
  165TMC2    C3 2566   2.537   3.441   1.002  0.7472  0.6727  0.3780
  165TMC2    C4 2567   2.426   3.532   1.238  0.0525  0.4756  0.3974
  165TMC2    C5 2568   2.540   3.585   1.183 -0.3788  0.1961  0.1287
  165TMC2    C6 2569   2.608   3.535   1.075  0.3729 -0.3853  1.2947
  165TMC2     C 2570   2.230   3.399   1.192 -0.2395 -1.1153 -0.6245
  165TMC2     O 2571   2.185   3.288   1.163  0.0443 -0.3578 -0.0184
  165TMC2     H 2572   2.365   3.321   0.987 -1.2606  0.1487  0.4190
  165TMC2    H1 2573   2.397   3.562   1.338  1.8488  1.3921  0.6598
  165TMC2    H2 2574   2.708   3.563   1.048  0.0891 -0.9457 -0.3337
  165TMC2    C7 2575   2.607   3.693   1.252  0.2376 -0.4536 -0.0016
  165TMC2    C8 2576   2.608   3.386   0.893 -0.2129  0.8375  0.3156
  165TMC2    O1 2577   2.726   3.703   1.232  0.3900  0.3153  0.1646
  165TMC2    O2 2578   2.731   3.389   0.886 -0.2873  0.3336 -0.3369
  165TMC2    O5 2579   2.527   3.382   0.792  0.0848  0.3510 -0.7072
  165TMC2    H5 2580   2.440   3.420   0.814 -0.4134 -1.1914 -0.0437
  166MPD2     C 2581   1.733   3.555   1.163  0.5723 -1.0832 -0.7494
  166MPD2    C1 2582   1.787   3.429   1.203  0.3452 -0.0091 -0.1002
  166MPD2    C2 2583   1.924   3.417   1.205 -0.2423  0.0117  0.0016
  166MPD2    C3 2584   2.008   3.520   1.175 -0.5005  0.7531 -0.6030
  166MPD2    C4 2585   1.957   3.645   1.136 -0.1068 -0.2113  0.2136
  166MPD2    C5 2586   1.817   3.659   1.142 -0.0159 -0.3006 -0.3430
  166MPD2     H 2587   1.971   3.322   1.226  1.1072  0.4083 -1.1875
  166MPD2    H1 2588   2.025   3.724   1.106  0.4347 -0.5915  0.4490
  166MPD2    H2 2589   1.627   3.570   1.151  0.4885 -2.1489 -1.3560
  166MPD2    H3 2590   1.776   3.753   1.108 -1.0092 -0.6810 -0.1903
  166MPD2     N 2591   2.149   3.514   1.180 -0.1006  0.1819 -0.3710
  166MPD2    H5 2592   2.202   3.594   1.148  0.8632 -1.0143 -1.7743
  166MPD2    N1 2593   1.714   3.311   1.242 -0.2990 -0.9347 -0.7196
  166MPD2    H7 2594   1.771   3.229   1.263  1.0638  0.7399  2.1724
  167TMC2    C1 2595   0.249   1.315  13.071  0.5735  0.2960  0.6624
  167TMC2    C2 2596   0.142   1.394  13.095 -0.2481  0.4695 -0.5251
  167TMC2    C3 2597   0.051   1.347  13.189  0.2760 -0.5520  0.3799
  167TMC2    C4 2598   0.254   1.178  13.115 -0.1885 -0.0134 -0.2508
  167TMC2    C5 2599   0.153   1.137  13.200 -0.6109 -0.6858 -0.1269
  167TMC2    C6 2600   0.052   1.221  13.241  0.3998  0.1775  0.0508
  167TMC2     C 2601   0.355   1.375  12.997  0.4255 -0.7521 -0.2086
  167TMC2     O 2602   0.370   1.495  13.004  0.7993  0.1735 -0.5131
  167TMC2     H 2603   0.141   1.491  13.047  1.6401 -0.0853 -1.6849
  167TMC2    H1 2604   0.344   1.122  13.097 -0.8343 -1.0946 -0.0998
  167TMC2    H2 2605   4.721   1.216  13.324  1.0208  2.2512  0.7055
  167TMC2    C7 2606   0.133   1.000  13.239  0.2392  0.2411  1.1560
  167TMC2    C8 2607   4.708   1.457  13.240  0.3298  0.8642  1.2809
  167TMC2    O1 2608   0.047   0.974  13.322 -0.3889 -0.3382 -0.2554
  167TMC2    O2 2609   0.002   1.573  13.256  0.3353 -0.8585 -0.1222
  167TMC2    O5 2610   4.588   1.404  13.284  0.2219  0.0638 -0.2081
  167TMC2    H5 2611   4.581   1.318  13.238  1.0970  0.6422 -1.4384
  168MPD2     C 2612   0.518   1.471  12.759  0.2369 -0.4829 -0.5743
  168MPD2    C1 2613   0.478   1.335  12.787  0.4996  0.0659  0.2295
  168MPD2    C2 2614   0.508   1.234  12.696 -0.1912  0.0307  0.0043
  168MPD2    C3 2615   0.567   1.269  12.576  0.0477  0.0249 -0.2068
  168MPD2    C4 2616   0.602   1.396  12.545  0.6259  0.4013  0.1773
  168MPD2    C5 2617   0.584   1.494  12.637  0.7340  0.2633 -0.7378
  168MPD2     H 2618   0.487   1.130  12.720  1.4273  0.5564  3.6430
  168MPD2    H1 2619   0.639   1.430  12.449  2.5990 -1.0864  0.4211
  168MPD2    H2 2620   0.507   1.558  12.823  1.4205  0.7722 -2.0914
  168MPD2    H3 2621   0.616   1.591  12.602  0.4705  0.3334 -0.7796
  168MPD2     N 2622   0.577   1.179  12.464  0.1674 -0.1498 -0.4302
  168MPD2    H5 2623   0.583   1.224  12.373  2.0388 -1.0505 -0.7558
  168MPD2    N1 2624   0.405   1.289  12.899  0.6122 -0.0702 -0.1221
  168MPD2    H7 2625   0.363   1.197  12.908 -1.1456  0.7218 -0.1488
  169MPD1     C 2626   1.880   1.047   9.791  0.2626 -0.5536  0.1015
  169MPD1    C1 2627   1.997   0.968   9.776 -0.3558  0.1586  0.0605
  169MPD1    C2 2628   2.046   0.907   9.891  0.2456 -0.0918 -0.6917
  169MPD1    C3 2629   2.009   0.946  10.021 -0.8243  0.3237 -0.2010
  169MPD1    C4 2630   1.905   1.037  10.039 -0.2301  0.0780 -0.2548
  169MPD1    C5 2631   1.844   1.078   9.922 -0.3384 -0.1080 -0.4251
  169MPD1     H 2632   2.119   0.827   9.886  0.5440  0.2677 -2.2676
  169MPD1    H1 2633   1.859   1.066  10.133  0.1454  0.0810 -0.0695
  169MPD1    H2 2634   1.829   1.084   9.703  1.5871  2.8976  0.8093
  169MPD1    H3 2635   1.756   1.140   9.935 -1.8578 -1.8106 -2.6905
  169MPD1     N 2636   2.066   0.871  10.123 -0.3816 -1.1639 -0.3695
  169MPD1    H5 2637   2.154   0.825  10.102  0.3190  0.9732 -2.1443
  169MPD1    N1 2638   2.044   0.936   9.647 -0.2428 -0.1533 -0.3672
  169MPD1    H6 2639   2.143   0.915   9.645 -0.2531 -0.3183  0.7392
  169MPD1    H7 2640   2.024   1.018   9.590  0.2431 -0.7601 -1.4196
  170MPD1     C 2641   0.215   3.453  13.673 -1.0750 -0.0941  0.7032
  170MPD1    C1 2642   0.304   3.354  13.721  0.4700  0.0060 -0.0734
  170MPD1    C2 2643   0.416   3.325  13.651 -0.8045  0.3459  0.2404
  170MPD1    C3 2644   0.460   3.411  13.554 -0.1151 -0.3865  0.3977
  170MPD1    C4 2645   0.377   3.513  13.510  0.0716 -0.1657  0.1096
  170MPD1    C5 2646   0.257   3.533  13.566 -0.6148  0.4547 -0.1153
  170MPD1     H 2647   0.482   3.246  13.686 -0.3888  1.1295  1.2113
  170MPD1    H1 2648   0.416   3.581  13.435  0.9160  2.8339  3.3169
  170MPD1    H2 2649   0.116   3.463  13.716 -1.5326 -0.3651 -0.2896
  170MPD1    H3 2650   0.195   3.610  13.522 -0.1045  0.1430 -1.3721
  170MPD1     N 2651   0.584   3.373  13.504 -0.6293  0.0432 -1.1244
  170MPD1    H5 2652   0.634   3.317  13.571  1.2053  0.0031 -2.5257
  170MPD1    N1 2653   0.271   3.273  13.827 -0.2877 -0.2564  0.3395
  170MPD1    H6 2654   0.214   3.328  13.890 -3.4229  0.2132 -2.8802
  170MPD1    H7 2655   0.352   3.252  13.884  0.8035 -0.7684 -1.4064
  171MPD1     C 2656   4.657   4.340  15.173  0.4336 -0.6649  0.4438
  171MPD1    C1 2657   4.588   4.392  15.278 -0.1385 -0.1130  0.4823
  171MPD1    C2 2658   4.611   4.349  15.403 -0.4375  1.0358  0.4088
  171MPD1    C3 2659   4.697   4.244  15.420 -0.6626 -0.4798 -0.4255
  171MPD1    C4 2660   0.035   4.193  15.317 -0.1013  0.3973  0.2163
  171MPD1    C5 2661   0.024   4.249  15.191 -0.2912  0.2333  0.7016
  171MPD1     H 2662   4.549   4.379  15.487  0.6095  2.4762  0.6756
  171MPD1    H1 2663   0.103   4.109  15.322  0.4466  0.8432  0.2507
  171MPD1    H2 2664   4.630   4.359  15.070 -1.7483  1.4187  1.3934
  171MPD1    H3 2665   0.080   4.210  15.107 -0.1891  0.9838  0.4255
  171MPD1     N 2666   4.710   4.176  15.537  0.3458  0.8543  0.0234
  171MPD1    H5 2667   0.044   4.105  15.542  1.5870  2.3508  2.9361
  171MPD1    N1 2668   4.473   4.475  15.249 -0.1050 -0.3296 -0.2903
  171MPD1    H6 2669   4.470   4.511  15.154 -0.5082 -0.5592 -0.3656
  171MPD1    H7 2670   4.486   4.556  15.308 -1.5251 -0.8551  0.7483
  172MPD1     C 2671   3.800   3.630   0.963 -0.6330  0.4813 -0.0879
  172MPD1    C1 2672   3.833   3.596   0.837  0.0991  0.3073 -0.1704
  172MPD1    C2 2673   3.942   3.661   0.772 -0.6066  0.1059 -0.6383
  172MPD1    C3 2674   4.030   3.736   0.843 -0.1235  0.2368 -0.1361
  172MPD1    C4 2675   3.999   3.764   0.974 -0.2652 -0.3746  0.2225
  172MPD1    C5 2676   3.882   3.720   1.030  0.3596  0.0038  0.6823
  172MPD1     H 2677   3.970   3.638   0.670 -1.9800  0.9816 -1.2057
  172MPD1    H1 2678   4.059   3.837   1.028 -0.3096  1.1068 -1.7366
  172MPD1    H2 2679   3.714   3.584   1.011  0.5474 -1.8609 -0.2048
  172MPD1    H3 2680   3.863   3.739   1.134 -0.9783 -0.4763  0.5279
  172MPD1     N 2681   4.127   3.817   0.777  0.2321 -0.4126 -0.0190
  172MPD1    H5 2682   4.171   3.891   0.831 -0.5002  0.4471 -0.5969
  172MPD1    N1 2683   3.755   3.505   0.762  0.0606 -0.0101  0.2001
  172MPD1    H6 2684   3.739   3.425   0.822 -1.4165  0.4356  0.3868
  172MPD1    H7 2685   3.815   3.465   0.690 -0.1511  0.3475 -0.1786
  173MPD1     C 2686   0.027   3.802  14.120  0.4358 -0.0177 -0.0258
  173MPD1    C1 2687   4.671   3.722  14.187 -0.5161 -0.3232  0.2166
  173MPD1    C2 2688   4.720   3.650  14.301  0.5557 -0.6447  0.1351
  173MPD1    C3 2689   0.117   3.636  14.335  0.6653 -0.2300 -0.1591
  173MPD1    C4 2690   0.208   3.714  14.265  0.4394 -0.8677 -0.0610
  173MPD1    C5 2691   0.156   3.793  14.164  0.1614 -0.4198 -0.3914
  173MPD1     H 2692   4.652   3.590  14.361 -0.5381  0.2414 -0.2223
  173MPD1    H1 2693   0.315   3.724  14.279  0.7045 -1.7536 -1.4937
  173MPD1    H2 2694   4.736   3.872  14.042 -0.8178 -0.7699 -0.2214
  173MPD1    H3 2695   0.224   3.849  14.101 -2.2368  2.1112 -0.7103
  173MPD1     N 2696   0.159   3.541  14.433 -0.3182  0.2245 -0.8019
  173MPD1    H5 2697   0.088   3.483  14.477 -3.6638  0.5832 -5.7696
  173MPD1    N1 2698   4.532   3.732  14.169 -0.4375  1.5034  0.3128
  173MPD1    H6 2699   4.491   3.641  14.183  2.0533  0.2023 -0.8136
  173MPD1    H7 2700   4.514   3.771  14.076 -0.5520  0.3364 -0.1501
  174MPD1     C 2701   1.075   3.266  14.756  0.5706  0.3001  0.5271
  174MPD1    C1 2702   0.988   3.193  14.831  0.3847  0.0589 -1.2811
  174MPD1    C2 2703   0.856   3.216  14.805  0.2564 -0.2857  0.1441
  174MPD1    C3 2704   0.818   3.280  14.696  0.2171  0.4442  0.0246
  174MPD1    C4 2705   0.906   3.334  14.607 -0.1618  0.2843 -0.3410
  174MPD1    C5 2706   1.041   3.324  14.643  0.4352  0.4638  0.1582
  174MPD1     H 2707   0.775   3.189  14.871  0.4585 -0.1532  0.4442
  174MPD1    H1 2708   0.872   3.392  14.522 -2.8303 -0.9227 -0.1178
  174MPD1    H2 2709   1.179   3.274  14.785  0.2994 -0.6932  1.7698
  174MPD1    H3 2710   1.120   3.371  14.586 -0.3320  0.5243 -0.8572
  174MPD1     N 2711   0.679   3.301  14.670 -0.5563  0.0933 -0.1112
  174MPD1    H5 2712   0.668   3.374  14.599  0.6196  0.3408 -0.0400
  174MPD1    N1 2713   1.022   3.140  14.952  0.3634 -0.0697  0.3679
  174MPD1    H6 2714   0.967   3.059  14.980 -0.9224  0.7519  0.2021
  174MPD1    H7 2715   1.117   3.103  14.950  0.5681  0.5444 -0.8138
  175MPD1     C 2716   3.893   4.122  15.702  0.6503  0.7831  0.4678
  175MPD1    C1 2717   3.756   4.141  15.716  0.0465  0.4783  0.5903
  175MPD1    C2 2718   3.704   4.101  15.840 -0.4723 -0.3277  0.1972
  175MPD1    C3 2719   3.777   4.035  15.936 -0.2431  0.0544 -0.6843
  175MPD1    C4 2720   3.913   4.007  15.904  0.2036  0.4927  0.1701
  175MPD1    C5 2721   3.969   4.044  15.785 -0.0153  0.0389 -0.0039
  175MPD1     H 2722   3.599   4.123  15.850 -0.3699  1.0043 -1.4969
  175MPD1    H1 2723   3.973   3.949  15.973 -1.3889 -0.9052  0.3744
  175MPD1    H2 2724   3.936   4.161  15.610  1.5082 -1.2493  0.0084
  175MPD1    H3 2725   4.066   4.004  15.758 -0.0834 -0.4749  0.5206
  175MPD1     N 2726   3.722   3.995  16.064  0.1458  0.3482 -0.9478
  175MPD1    H5 2727   3.796   3.969  16.128 -2.5952 -0.4266  1.8654
  175MPD1    N1 2728   3.682   4.238  15.634  0.2869 -0.2276  0.1219
  175MPD1    H6 2729   3.716   4.260  15.541  0.8625 -0.6364  0.2343
  175MPD1    H7 2730   3.587   4.200  15.630  0.2232 -0.3476  2.6797
  176MPD1     C 2731   0.637   1.539  17.283  0.2699 -0.7570 -0.7349
  176MPD1    C1 2732   0.574   1.550  17.401  0.3239 -0.0481 -0.0848
  176MPD1    C2 2733   0.519   1.677  17.426 -0.1674 -0.8737  0.3308
  176MPD1    C3 2734   0.539   1.787  17.343 -0.7247 -0.2062 -1.5508
  176MPD1    C4 2735   0.624   1.776  17.238  0.8006  0.7896 -0.0851
  176MPD1    C5 2736   0.673   1.651  17.205  0.9023  0.1755 -0.0446
  176MPD1     H 2737   0.449   1.682  17.509  1.7393 -0.6958  1.9276
  176MPD1    H1 2738   0.659   1.850  17.167 -2.3164  1.5673 -0.8184
  176MPD1    H2 2739   0.660   1.440  17.245 -0.7523 -2.2364  2.5350
  176MPD1    H3 2740   0.739   1.649  17.119  2.4585  1.1499  1.1461
  176MPD1     N 2741   0.470   1.907  17.373 -0.0805 -0.2869  0.2077
  176MPD1    H5 2742   0.411   1.913  17.456 -0.4410 -0.1060 -0.0582
  176MPD1    N1 2743   0.524   1.438  17.468 -0.0800 -0.1724 -0.4430
  176MPD1    H6 2744   0.507   1.456  17.567  1.7804  1.3385 -0.4129
  176MPD1    H7 2745   0.583   1.355  17.456 -0.6546 -0.8373  1.3122
  177MPD1     C 2746   4.253   1.671   9.979 -0.0492  0.1935 -0.0258
  177MPD1    C1 2747   4.145   1.740   9.938 -0.0461  0.3794 -0.1140
  177MPD1    C2 2748   4.026   1.675   9.922  0.0668  0.2116 -0.2280
  177MPD1    C3 2749   4.010   1.538   9.951 -1.3042  1.1670  0.7437
  177MPD1    C4 2750   4.121   1.470   9.995  0.1838  0.0697 -0.3547
  177MPD1    C5 2751   4.242   1.536  10.010  0.8752  0.3953  0.0880
  177MPD1     H 2752   3.948   1.734   9.875  0.1400 -0.4110 -1.1311
  177MPD1    H1 2753   4.138   1.364  10.011 -1.5321  0.1636  2.1008
  177MPD1    H2 2754   4.355   1.706   9.980 -1.5217  4.5479 -1.8479
  177MPD1    H3 2755   4.322   1.481  10.059 -1.2367 -1.6096  1.2872
  177MPD1     N 2756   3.883   1.482   9.930 -0.0583  0.1544  0.2124
  177MPD1    H5 2757   3.810   1.541   9.891 -0.3491 -1.0678 -1.1079
  177MPD1    N1 2758   4.167   1.872   9.889  0.0925  0.6930 -0.0216
  177MPD1    H6 2759   4.096   1.939   9.914  0.0867  1.0528 -1.0190
  177MPD1    H7 2760   4.253   1.915   9.925  0.3357 -0.1509  0.4185
  178MPD1     C 2761   1.088   3.085   0.152  0.7101  0.4707  0.7061
  178MPD1    C1 2762   1.022   2.983   0.093 -0.1207  0.5318  0.4683
  178MPD1    C2 2763   1.094   2.914  17.749  0.2009 -0.4139 -0.2338
  178MPD1    C3 2764   1.220   2.948  17.707  0.9171 -0.5390 -0.2500
  178MPD1    C4 2765   1.279   3.060   0.004  0.0471 -1.3001  0.0965
  178MPD1    C5 2766   1.217   3.120   0.114  0.0979  0.0986  0.1567
  178MPD1     H 2767   1.027   2.846  17.695 -1.9016  0.4610  1.2699
  178MPD1    H1 2768   1.379   3.093  17.731 -0.3052 -0.2030  0.1266
  178MPD1    H2 2769   1.041   3.151   0.225 -2.6662  0.3770 -1.4007
  178MPD1    H3 2770   1.262   3.206   0.161 -0.3502  0.5822 -0.2992
  178MPD1     N 2771   1.284   2.880  17.592  0.5236 -0.4632  0.1483
  178MPD1    H5 2772   1.356   2.926  17.538 -0.9249  0.3308 -1.1106
  178MPD1    N1 2773   0.902   2.942   0.143  0.1585  0.2255  0.1611
  178MPD1    H6 2774   0.853   3.026   0.174 -1.7625 -0.6078 -0.6313
  178MPD1    H7 2775   0.844   2.889   0.078 -0.8874  0.9123  0.5351
  179MPD1     C 2776   0.429   0.788  15.536  0.4673  0.9033  1.0972
  179MPD1    C1 2777   0.436   0.774  15.672  0.2603  0.1345  0.1785
  179MPD1    C2 2778   0.472   0.651  15.732  0.3853  0.3016 -0.3304
  179MPD1    C3 2779   0.492   0.543  15.649 -0.4841  0.0022  0.3740
  179MPD1    C4 2780   0.474   0.554  15.515 -1.4238  0.5858  0.0896
  179MPD1    C5 2781   0.442   0.678  15.459  1.0132  0.2198 -0.2817
  179MPD1     H 2782   0.477   0.656  15.840  0.0293 -1.1218 -0.2524
  179MPD1    H1 2783   0.490   0.468  15.452  1.1263 -0.2543  1.8576
  179MPD1    H2 2784   0.409   0.876  15.477  0.9052 -0.5074 -1.1306
  179MPD1    H3 2785   0.435   0.681  15.351  1.7005 -2.8566 -0.4119
  179MPD1     N 2786   0.523   0.415  15.702  0.4282 -0.0143  0.2896
  179MPD1    H5 2787   0.536   0.336  15.640 -3.8522  0.5216 -1.3481
  179MPD1    N1 2788   0.391   0.889  15.750  0.0525  0.2181  0.4828
  179MPD1    H6 2789   0.363   0.862  15.844 -2.1457 -0.3362 -0.3374
  179MPD1    H7 2790   0.314   0.923  15.694 -1.6308 -2.4523  1.1695
  180MPD1     C 2791   0.002   1.838  15.666  0.1349  0.3229 -0.7031
  180MPD1    C1 2792   4.688   1.851  15.544  0.1131  0.3390 -0.2546
  180MPD1    C2 2793   0.033   1.863  15.428 -0.0762  0.6686  0.4219
  180MPD1    C3 2794   0.172   1.873  15.451 -0.3100 -0.4604  0.8014
  180MPD1    C4 2795   0.217   1.881  15.582 -0.8179 -0.1443 -0.1904
  180MPD1    C5 2796   0.135   1.855  15.689  0.0633 -0.1735 -0.2327
  180MPD1     H 2797   4.732   1.870  15.327  0.3901 -0.9835  0.1215
  180MPD1    H1 2798   0.320   1.901  15.611 -0.8706 -1.1858  0.7204
  180MPD1    H2 2799   4.670   1.827  15.747  1.4458  2.1863  0.6731
  180MPD1    H3 2800   0.175   1.869  15.789  1.2906  0.5281 -0.8182
  180MPD1     N 2801   0.263   1.886  15.343  0.1405 -0.5883  1.1429
  180MPD1    H5 2802   0.217   1.896  15.253  0.3434  0.5116  1.1632
  180MPD1    N1 2803   4.553   1.810  15.523  0.6507 -0.0066  0.0196
  180MPD1    H6 2804   4.494   1.806  15.607  4.9365 -0.5771  2.9879
  180MPD1    H7 2805   4.505   1.873  15.459 -1.7483 -1.1710  0.6617
  181MPD1     C 2806   1.711   3.702  10.888 -0.3622 -0.0032  0.1826
  181MPD1    C1 2807   1.758   3.627  10.779  0.5196 -0.3063  0.5297
  181MPD1    C2 2808   1.880   3.664  10.714  0.1835 -0.0085 -0.1457
  181MPD1    C3 2809   1.956   3.761  10.768  0.6111 -0.2122 -0.8114
  181MPD1    C4 2810   1.917   3.820  10.887 -0.3448  0.2303 -0.1346
  181MPD1    C5 2811   1.795   3.792  10.942  0.2213 -0.5899 -0.3280
  181MPD1     H 2812   1.909   3.622  10.618 -3.1900 -1.7651 -0.4209
  181MPD1    H1 2813   1.971   3.903  10.930  0.4807  1.0941 -2.8541
  181MPD1    H2 2814   1.616   3.677  10.934 -0.6837 -1.0206 -1.0218
  181MPD1    H3 2815   1.757   3.856  11.020 -0.2357 -1.9529  0.5516
  181MPD1     N 2816   2.080   3.801  10.715  0.0350 -0.4354 -0.0364
  181MPD1    H5 2817   2.119   3.890  10.746  3.9461 -2.2128  0.1805
  181MPD1    N1 2818   1.690   3.510  10.746  0.1401  0.1015 -0.6878
  181MPD1    H6 2819   1.591   3.502  10.770  0.3745 -1.5350 -0.2741
  181MPD1    H7 2820   1.698   3.479  10.649 -0.9984 -2.7292  0.1100
  182MPD1     C 2821   3.742   3.067   1.448  0.7950 -0.4134 -0.1289
  182MPD1    C1 2822   3.753   2.998   1.328  0.2114 -0.2860 -0.1104
  182MPD1    C2 2823   3.657   3.029   1.233 -0.1590 -0.3847 -0.0046
  182MPD1    C3 2824   3.545   3.106   1.267 -0.1561  0.2968  0.7867
  182MPD1    C4 2825   3.543   3.173   1.391  0.3159  0.1582  0.2956
  182MPD1    C5 2826   3.634   3.141   1.488 -0.0845  0.4035  0.2283
  182MPD1     H 2827   3.653   2.979   1.137  1.2160  0.7029 -0.6137
  182MPD1    H1 2828   3.473   3.250   1.421  1.2223  0.8066  0.7551
  182MPD1    H2 2829   3.816   3.055   1.527  1.2145  1.5703 -0.2191
  182MPD1    H3 2830   3.634   3.188   1.585  0.6773 -0.7471  0.7741
  182MPD1     N 2831   3.432   3.117   1.185 -0.2216  0.5778  0.3229
  182MPD1    H5 2832   3.356   3.181   1.207 -0.7782 -0.5622  1.7345
  182MPD1    N1 2833   3.869   2.917   1.311 -0.5510 -0.0564  0.6312
  182MPD1    H6 2834   3.856   2.840   1.245  2.3093  1.8622 -2.1761
  182MPD1    H7 2835   3.893   2.872   1.399 -0.2921  0.4115  0.7997
  183MPD1     C 2836   2.539   2.519   9.264  0.2143 -0.0312  0.6860
  183MPD1    C1 2837   2.492   2.647   9.245 -0.3916  0.1726 -0.7158
  183MPD1    C2 2838   2.583   2.752   9.257 -0.4091 -0.3682  0.2020
  183MPD1    C3 2839   2.714   2.732   9.304  0.0704  0.2507 -0.2466
  183MPD1    C4 2840   2.754   2.601   9.334 -0.2271 -0.2226  0.4126
  183MPD1    C5 2841   2.665   2.499   9.303  0.6379 -0.3312  0.3813
  183MPD1     H 2842   2.544   2.851   9.237 -1.4518 -0.9822 -0.7858
  183MPD1    H1 2843   2.849   2.573   9.377  1.1258  2.0509 -1.0382
  183MPD1    H2 2844   2.477   2.434   9.238 -0.6096  0.6798  0.2971
  183MPD1    H3 2845   2.693   2.397   9.326  0.8227  0.0977  2.0261
  183MPD1     N 2846   2.801   2.842   9.315 -0.9737 -0.5790  0.6532
  183MPD1    H5 2847   2.762   2.933   9.293 -1.2519 -0.9382 -0.3448
  183MPD1    N1 2848   2.361   2.669   9.190 -0.6502  0.2006  0.0633
  183MPD1    H6 2849   2.301   2.588   9.201  0.6715 -0.5212  1.9983
  183MPD1    H7 2850   2.316   2.753   9.227  1.8638 -0.0011  3.5837
  184MPD1     C 2851   2.295   1.353  10.978  0.2158 -0.0537 -0.3613
  184MPD1    C1 2852   2.212   1.312  10.874 -0.1764 -0.3566  0.5007
  184MPD1    C2 2853   2.246   1.355  10.745 -0.3514 -0.7035 -0.1489
  184MPD1    C3 2854   2.366   1.429  10.723  0.1171  0.0025 -0.2581
  184MPD1    C4 2855   2.454   1.453  10.826 -0.8853  0.1846  0.3273
  184MPD1    C5 2856   2.414   1.417  10.950  0.2424  0.0065  0.0884
  184MPD1     H 2857   2.177   1.348  10.662  0.8675  1.1558 -1.3188
  184MPD1    H1 2858   2.541   1.515  10.810  0.1262 -1.2921  0.1386
  184MPD1    H2 2859   2.276   1.338  11.084 -2.2216  1.9214 -0.5087
  184MPD1    H3 2860   2.469   1.451  11.038  0.5382  3.7711 -1.5646
  184MPD1     N 2861   2.396   1.482  10.593 -0.3912  0.5233 -0.1182
  184MPD1    H5 2862   2.490   1.515  10.577 -0.1986  1.0292  2.0317
  184MPD1    N1 2863   2.098   1.237  10.894 -0.0335  0.2497  0.4702
  184MPD1    H6 2864   2.109   1.158  10.831 -1.9144  0.4938 -0.1790
  184MPD1    H7 2865   2.082   1.208  10.990 -0.8655  1.0601  0.5837
  185MPD1     C 2866   1.889   1.702   9.796  0.4866  0.1683  0.4380
  185MPD1    C1 2867   2.016   1.713   9.750  0.2995 -0.0199 -0.6495
  185MPD1    C2 2868   2.120   1.684   9.840 -0.8442  0.0215  0.2184
  185MPD1    C3 2869   2.092   1.649   9.968 -0.5975 -0.2001  0.0606
  185MPD1    C4 2870   1.962   1.628  10.018 -0.4672  0.0975 -0.5836
  185MPD1    C5 2871   1.864   1.662   9.928  0.5435  0.4735  0.2428
  185MPD1     H 2872   2.223   1.710   9.819 -0.3902 -1.9620  0.0076
  185MPD1    H1 2873   1.928   1.608  10.119 -1.8463 -2.1668 -1.5029
  185MPD1    H2 2874   1.804   1.726   9.733  0.7948  2.6747  0.9647
  185MPD1    H3 2875   1.765   1.667   9.972 -0.2043  1.2061 -1.5503
  185MPD1     N 2876   2.194   1.644  10.066  1.8050  1.0890 -0.0310
  185MPD1    H5 2877   2.170   1.631  10.164  1.0718 -0.5462 -0.4294
  185MPD1    N1 2878   2.041   1.792   9.637  0.3888  0.3867 -0.0531
  185MPD1    H6 2879   2.129   1.768   9.591 -0.6698 -0.0318 -1.8675
  185MPD1    H7 2880   1.973   1.795   9.561  0.9411 -1.7926 -0.6486
  186MPD1     C 2881   0.762   0.495  16.225  0.1172  0.0263  1.0153
  186MPD1    C1 2882   0.800   0.613  16.167  0.7288  0.1230 -0.3701
  186MPD1    C2 2883   0.897   0.683  16.236 -0.1422  0.0487  0.1150
  186MPD1    C3 2884   0.942   0.648  16.364 -0.2842  0.3068  0.5003
  186MPD1    C4 2885   0.894   0.533  16.417  0.5510  0.6620 -0.2550
  186MPD1    C5 2886   0.800   0.454  16.348 -0.2875 -0.1240  0.5720
  186MPD1     H 2887   0.936   0.773  16.189 -2.5262  0.1728 -1.6045
  186MPD1    H1 2888   0.919   0.506  16.519 -0.3498  1.1838  0.1060
  186MPD1    H2 2889   0.698   0.427  16.169  1.2502 -1.9946  2.1451
  186MPD1    H3 2890   0.767   0.358  16.386 -1.4126  0.4761  1.1085
  186MPD1     N 2891   1.040   0.718  16.439  0.1730  0.2396 -0.2358
  186MPD1    H5 2892   1.036   0.695  16.538  3.3504  0.1345 -0.1372
  186MPD1    N1 2893   0.752   0.648  16.038 -0.5527 -0.0077  0.1004
  186MPD1    H6 2894   0.672   0.589  16.014 -0.7558 -0.5865  2.2499
  186MPD1    H7 2895   0.724   0.745  16.052  0.8446  0.0556  2.4540
  187MPD1     C 2896   0.496   2.530   0.453  0.3491  0.1265  0.2366
  187MPD1    C1 2897   0.377   2.504   0.390  0.3410 -0.3890 -0.3278
  187MPD1    C2 2898   0.361   2.569   0.266 -0.2636 -0.1702 -0.6518
  187MPD1    C3 2899   0.469   2.622   0.197 -1.4663  0.0188  0.3866
  187MPD1    C4 2900   0.588   2.636   0.260  0.4788  0.3926  0.0994
  187MPD1    C5 2901   0.598   2.601   0.393  0.1500  0.1497 -0.1602
  187MPD1     H 2902   0.258   2.570   0.231 -1.3523 -0.1470  2.5311
  187MPD1    H1 2903   0.674   2.676   0.209  0.0688  0.6104 -0.4137
  187MPD1    H2 2904   0.508   2.503   0.558 -0.0237 -0.4083  0.1417
  187MPD1    H3 2905   0.692   2.617   0.444  1.1832  0.2316 -2.0963
  187MPD1     N 2906   0.457   2.678   0.064  0.5547 -0.2685  0.3821
  187MPD1    H5 2907   0.525   2.744   0.027  0.6541 -0.6046 -0.0421
  187MPD1    N1 2908   0.266   2.453   0.465 -0.2567  0.7300 -0.3594
  187MPD1    H6 2909   0.301   2.387   0.534  1.6912  0.9252 -1.1622
  187MPD1    H7 2910   0.198   2.409   0.403 -0.8131  1.5686 -0.3450
  188MPD1     C 2911   0.373   2.739   9.848 -0.2364 -0.1039  0.1267
  188MPD1    C1 2912   0.371   2.733   9.986  0.5260  0.1440 -0.1518
  188MPD1    C2 2913   0.361   2.612  10.045  0.7195 -0.7833  0.3423
  188MPD1    C3 2914   0.362   2.496   9.969 -0.3562 -0.3658 -0.0282
  188MPD1    C4 2915   0.369   2.504   9.830 -0.7725  0.6570 -0.1217
  188MPD1    C5 2916   0.383   2.624   9.773  0.2165  1.1316 -0.5433
  188MPD1     H 2917   0.363   2.601  10.153 -0.8104  1.2341  0.5854
  188MPD1    H1 2918   0.390   2.412   9.776  1.2285  1.2990 -0.4302
  188MPD1    H2 2919   0.412   2.830   9.802 -2.6760 -0.5539 -2.8286
  188MPD1    H3 2920   0.409   2.631   9.668 -5.0094  1.6656 -1.7789
  188MPD1     N 2921   0.355   2.368  10.024  0.6895  0.2104  0.8638
  188MPD1    H5 2922   0.342   2.294   9.956  0.7284  1.9222 -1.0162
  188MPD1    N1 2923   0.408   2.848  10.064  0.1935  0.1606  0.3917
  188MPD1    H6 2924   0.359   2.856  10.153 -1.2611 -0.7252 -0.3433
  188MPD1    H7 2925   0.389   2.937  10.018 -1.3645 -0.3179  0.1385
  189MPD1     C 2926   1.756   4.009   1.277  0.2538  0.7552 -0.3369
  189MPD1    C1 2927   1.639   4.085   1.289  0.2292 -0.1442 -0.2621
  189MPD1    C2 2928   1.605   4.156   1.180 -0.0648 -0.0662 -0.3877
  189MPD1    C3 2929   1.695   4.168   1.077 -0.3484 -0.1506  1.0047
  189MPD1    C4 2930   1.799   4.079   1.058  0.3908 -1.0875  0.1300
  189MPD1    C5 2931   1.837   4.010   1.166  0.6553 -0.2755  0.9116
  189MPD1     H 2932   1.507   4.203   1.179 -0.4160 -0.7810  0.5789
  189MPD1    H1 2933   1.856   4.077   0.966 -0.7229  0.7009 -0.5872
  189MPD1    H2 2934   1.792   3.950   1.361 -1.0285 -0.7591 -0.8619
  189MPD1    H3 2935   1.925   3.947   1.172  2.1071  1.9161  2.3776
  189MPD1     N 2936   1.654   4.248   0.967 -0.5459 -0.2763 -0.1439
  189MPD1    H5 2937   1.561   4.288   0.966 -0.7442 -0.7220  1.3888
  189MPD1    N1 2938   1.554   4.078   1.397 -0.6964 -0.0622  0.2393
  189MPD1    H6 2939   1.511   4.170   1.409  0.5285  0.8443 -2.2820
  189MPD1    H7 2940   1.608   4.071   1.483 -4.0686 -0.0652  2.3599
  190MPD1     C 2941   0.311   2.286  15.380 -0.5965 -0.3113  0.2808
  190MPD1    C1 2942   0.438   2.329  15.389  0.6814  0.7024  0.7585
  190MPD1    C2 2943   0.501   2.309  15.510  0.6608  0.9523 -0.5064
  190MPD1    C3 2944   0.446   2.212  15.600 -0.2664 -0.0541  0.3092
  190MPD1    C4 2945   0.313   2.179  15.597  0.0217 -0.1987 -0.8618
  190MPD1    C5 2946   0.247   2.215  15.479  0.1210  0.8295  0.3952
  190MPD1     H 2947   0.601   2.347  15.525  0.3518  1.1866  0.9410
  190MPD1    H1 2948   0.263   2.131  15.681  1.3446  1.1897  0.7338
  190MPD1    H2 2949   0.254   2.319  15.294 -0.0709  0.3903  0.1980
  190MPD1    H3 2950   0.142   2.192  15.466 -0.3394  2.4893  1.1347
  190MPD1     N 2951   0.528   2.176  15.707  0.1914  0.3951  0.0725
  190MPD1    H5 2952   0.627   2.198  15.701  0.4820 -1.0614 -0.4578
  190MPD1    N1 2953   0.495   2.402  15.283  0.3458  0.6140  0.0695
  190MPD1    H6 2954   0.594   2.380  15.288  0.2488 -0.0327 -0.7527
  190MPD1    H7 2955   0.452   2.384  15.192 -1.0965 -3.0762  1.4697
  191MPD1     C 2956   4.514   4.578  12.813  0.7628 -1.2999  0.5091
  191MPD1    C1 2957   4.463   4.572  12.688  0.3118 -0.6543  0.1905
  191MPD1    C2 2958   4.548   4.578  12.584 -0.6040  0.4674 -0.0653
  191MPD1    C3 2959   4.687   4.559  12.603  0.4349 -0.6578 -1.5637
  191MPD1    C4 2960   0.001   4.539  12.737  0.1075  0.0056 -0.2614
  191MPD1    C5 2961   4.651   4.567  12.841  0.1478  0.6477 -0.2988
  191MPD1     H 2962   4.512   4.592  12.482 -0.1086  1.2971 -0.1313
  191MPD1    H1 2963   0.107   4.518  12.751  0.3209 -0.0473 -1.9652
  191MPD1    H2 2964   4.452   4.585  12.901  0.3564 -1.3660  0.2247
  191MPD1    H3 2965   4.681   4.559  12.945  1.0583  1.1181 -0.5290
  191MPD1     N 2966   0.029   4.559  12.485 -1.0205  0.5989  0.3242
  191MPD1    H5 2967   4.713   4.552  12.399 -0.8570  0.3236  0.2406
  191MPD1    N1 2968   4.326   4.605  12.664 -0.3131  0.9293 -0.3475
  191MPD1    H6 2969   4.285   4.542  12.595  0.6301 -0.4186  0.3210
  191MPD1    H7 2970   4.272   4.582  12.748 -0.8829 -0.6518 -1.1496
  192MPD1     C 2971   0.060   0.363  11.701 -0.0339 -0.1311  0.1317
  192MPD1    C1 2972   4.716   0.298  11.782  0.4327 -0.1687  0.0877
  192MPD1    C2 2973   0.024   0.195  11.867  0.7065  0.5501  0.1647
  192MPD1    C3 2974   0.156   0.144  11.853 -0.2968 -0.3253  0.2060
  192MPD1    C4 2975   0.238   0.215  11.772 -0.6059  0.5880 -0.1345
  192MPD1    C5 2976   0.190   0.323  11.705 -0.0824 -0.1419 -0.0639
  192MPD1     H 2977   4.697   0.165  11.948 -0.7877  1.8504 -0.5574
  192MPD1    H1 2978   0.345   0.199  11.762 -0.7277 -1.0564  1.3315
  192MPD1    H2 2979   0.035   0.444  11.634  1.9356 -0.6164 -1.1829
  192MPD1    H3 2980   0.257   0.383  11.644  0.6106 -2.6141 -1.6991
  192MPD1     N 2981   0.212   0.043  11.937 -0.1316 -0.2383  0.4429
  192MPD1    H5 2982   0.290   4.728  11.902  1.2822  1.0977  1.5290
  192MPD1    N1 2983   4.578   0.344  11.788  0.1706 -0.5782 -0.1841
  192MPD1    H6 2984   4.538   0.353  11.695 -0.9039 -1.6642  0.1695
  192MPD1    H7 2985   4.520   0.273  11.831  0.0152 -0.2493  0.1460
  193MPD1     C 2986   4.333   4.165  16.184  0.2317 -0.3972  0.5924
  193MPD1    C1 2987   4.354   4.045  16.251  0.3476  0.2078  0.1690
  193MPD1    C2 2988   4.408   4.048  16.375  0.5405  0.1561 -0.3960
  193MPD1    C3 2989   4.466   4.171  16.424 -0.0009 -0.4991 -0.0673
  193MPD1    C4 2990   4.448   4.293  16.355  0.8271  0.1269  0.0315
  193MPD1    C5 2991   4.378   4.279  16.240 -0.5591 -0.1488  0.2445
  193MPD1     H 2992   4.422   3.954  16.427  1.4864  1.7911  2.3113
  193MPD1    H1 2993   4.482   4.391  16.386  0.9739  0.5470 -1.4552
  193MPD1    H2 2994   4.269   4.164  16.096  1.1148 -2.1371 -0.0248
  193MPD1    H3 2995   4.344   4.368  16.189 -0.1180 -0.6647 -0.9596
  193MPD1     N 2996   4.529   4.181  16.548  0.2461  0.3411  0.4157
  193MPD1    H5 2997   4.563   4.274  16.568 -1.6546  1.1258  0.0246
  193MPD1    N1 2998   4.285   3.932  16.208 -0.2585  0.5717  0.2664
  193MPD1    H6 2999   4.269   3.926  16.108 -0.3941  0.5588  0.2893
  193MPD1    H7 3000   4.328   3.845  16.238  0.8408  1.2212  0.5985
  194MPD1     C 3001   2.530   1.321  17.550 -0.1513 -0.0310 -0.0095
  194MPD1    C1 3002   2.641   1.310  17.625  0.5266 -1.0123  0.8839
  194MPD1    C2 3003   2.698   1.188  17.640 -0.8272 -0.8116  0.0436
  194MPD1    C3 3004   2.666   1.085  17.553 -0.1033  0.5569  0.6751
  194MPD1    C4 3005   2.564   1.102  17.459  0.2281 -0.9485  0.5225
  194MPD1    C5 3006   2.495   1.221  17.468  0.7900  0.0556  0.2971
  194MPD1     H 3007   2.784   1.183  17.707 -1.1893 -0.1294  0.5565
  194MPD1    H1 3008   2.538   1.027  17.386 -2.6687 -0.3775  0.9830
  194MPD1    H2 3009   2.468   1.409  17.560 -1.1638 -0.6787 -0.6095
  194MPD1    H3 3010   2.416   1.234  17.394  0.0583  1.0317  1.2596
  194MPD1     N 3011   2.704   0.948  17.560  0.0825 -0.0024 -0.9463
  194MPD1    H5 3012   2.665   0.881  17.496 -2.4019  1.3618 -0.8680
  194MPD1    N1 3013   2.670   1.413  17.719 -0.0987  0.2331  0.1699
  194MPD1    H6 3014   2.769   1.411  17.741 -0.1018 -0.6765  0.1303
  194MPD1    H7 3015   2.655   1.507  17.683  0.7606  0.2902 -0.0236
  195MPD1     C 3016   3.912   3.534  17.698  0.1239 -0.0886  0.1502
  195MPD1    C1 3017   3.879   3.416  17.742 -0.0491  0.2689  0.2560
  195MPD1    C2 3018   3.977   3.328   0.028  0.1698  0.1327 -0.2219
  195MPD1    C3 3019   4.112   3.349   0.007  0.6898 -0.3844  0.1781
  195MPD1    C4 3020   4.144   3.469  17.693  0.3485 -0.2521 -0.3215
  195MPD1    C5 3021   4.041   3.560  17.663  0.0754  0.0642 -0.4182
  195MPD1     H 3022   3.941   3.238   0.077 -1.4826  1.7019  1.4512
  195MPD1    H1 3023   4.247   3.496  17.669  0.8148 -1.1431  0.6893
  195MPD1    H2 3024   3.835   3.608  17.680  0.9583  0.0210 -2.9134
  195MPD1    H3 3025   4.068   3.661  17.634 -0.2583  0.5215  0.8604
  195MPD1     N 3026   4.212   3.255   0.041 -0.0692  0.4584 -0.2224
  195MPD1    H5 3027   4.308   3.285   0.025 -0.1578  0.3068 -1.0396
  195MPD1    N1 3028   3.748   3.397   0.032 -0.5854  0.6456 -0.2639
  195MPD1    H6 3029   3.717   3.300   0.034  0.7232  0.2052 -1.4520
  195MPD1    H7 3030   3.684   3.451  17.727  0.6885  1.5796 -0.8104
  196MPD1     C 3031   3.498   1.419   0.566  0.5040  0.6083  0.3463
  196MPD1    C1 3032   3.476   1.551   0.540  0.2584  0.5206  0.4385
  196MPD1    C2 3033   3.533   1.643   0.628 -0.7421 -0.0822 -0.3688
  196MPD1    C3 3034   3.623   1.604   0.729  0.4199 -0.2816  0.2274
  196MPD1    C4 3035   3.647   1.471   0.742 -0.5852  0.2798  0.1293
  196MPD1    C5 3036   3.593   1.380   0.664  0.0907  0.0033  0.2721
  196MPD1     H 3037   3.506   1.746   0.611 -0.6232  0.1765  0.9999
  196MPD1    H1 3038   3.726   1.434   0.807 -0.4535  2.9160  1.4729
  196MPD1    H2 3039   3.458   1.339   0.505  1.4249 -0.3457  0.9922
  196MPD1    H3 3040   3.607   1.274   0.682 -0.0614  0.0005  0.3770
  196MPD1     N 3041   3.678   1.695   0.821 -0.8390  0.2233 -0.8134
  196MPD1    H5 3042   3.718   1.653   0.905  0.1143 -1.2766 -2.0250
  196MPD1    N1 3043   3.371   1.584   0.458 -0.2064 -0.2224  0.2625
  196MPD1    H6 3044   3.368   1.521   0.378 -2.1607 -0.6788  0.7009
  196MPD1    H7 3045   3.386   1.676   0.417  3.5962 -0.7671  0.4025
  197MPD1     C 3046   3.401   4.722   0.455 -0.1002 -0.4711  0.1296
  197MPD1    C1 3047   3.521   0.047   0.473  0.0731 -0.1274  0.4155
  197MPD1    C2 3048   3.584   0.098   0.361 -0.1723  0.4164  0.9181
  197MPD1    C3 3049   3.539   0.063   0.230 -0.4719 -0.2887 -0.9514
  197MPD1    C4 3050   3.433   4.712   0.223 -0.1660 -0.4109 -0.2250
  197MPD1    C5 3051   3.364   4.677   0.332 -0.0881 -0.4218  0.6137
  197MPD1     H 3052   3.672   0.161   0.375  0.7291 -0.5074 -0.5489
  197MPD1    H1 3053   3.399   4.672   0.128  0.6834  0.4598 -0.8976
  197MPD1    H2 3054   3.340   4.683   0.535 -1.6415 -1.2325 -1.4133
  197MPD1    H3 3055   3.271   4.622   0.321 -1.0931  1.8332 -2.3319
  197MPD1     N 3056   3.587   0.110   0.107  0.6245 -0.0918 -0.6219
  197MPD1    H5 3057   3.553   0.072   0.020  0.8500  0.6609 -1.0369
  197MPD1    N1 3058   3.555   0.104   0.599  0.7696  0.2352  0.2812
  197MPD1    H6 3059   3.651   0.134   0.608  0.7131  0.4734  0.0774
  197MPD1    H7 3060   3.532   0.036   0.671 -1.5882  0.0318 -0.6520
  198MPD1     C 3061   0.869   2.820  15.701  0.0534 -0.0559  0.3508
  198MPD1    C1 3062   0.835   2.950  15.723  0.1050  0.0756 -0.1725
  198MPD1    C2 3063   0.887   3.006  15.832 -1.0785 -0.4589 -0.2653
  198MPD1    C3 3064   0.940   2.931  15.939 -0.0448  0.0385 -0.0052
  198MPD1    C4 3065   0.947   2.793  15.927 -0.4644  0.1590  0.3322
  198MPD1    C5 3066   0.923   2.741  15.799  0.6156  0.6181 -0.2482
  198MPD1     H 3067   0.868   3.111  15.848  1.2666 -0.0124 -0.4128
  198MPD1    H1 3068   0.995   2.734  16.005 -2.0392  0.6093  1.6390
  198MPD1    H2 3069   0.854   2.762  15.611 -1.2493  1.2989 -0.3098
  198MPD1    H3 3070   0.952   2.640  15.776 -0.9671  0.5056 -1.7323
  198MPD1     N 3071   1.001   3.006  16.047 -0.2865  0.8191 -0.9188
  198MPD1    H5 3072   1.023   3.104  16.031 -0.0882  1.1120  1.1732
  198MPD1    N1 3073   0.772   3.027  15.628  0.4563 -0.6000  0.0058
  198MPD1    H6 3074   0.700   2.970  15.582  1.8895 -0.1797 -2.7882
  198MPD1    H7 3075   0.721   3.111  15.657  2.3076  0.1747  1.0002
  199MPD1     C 3076   3.417   4.400  10.244  0.1174  0.1435  0.7990
  199MPD1    C1 3077   3.363   4.512  10.294 -0.2428 -0.4969  0.5812
  199MPD1    C2 3078   3.225   4.514  10.322 -0.2939  0.1957 -0.3925
  199MPD1    C3 3079   3.146   4.397  10.307 -0.5816 -0.0556 -0.2704
  199MPD1    C4 3080   3.205   4.287  10.249  0.0200  0.5441 -0.5924
  199MPD1    C5 3081   3.341   4.287  10.222  0.8618  0.2641  0.0193
  199MPD1     H 3082   3.191   4.612  10.354 -0.7136  0.6970 -2.3538
  199MPD1    H1 3083   3.153   4.195  10.225 -0.7614  0.9095 -0.2602
  199MPD1    H2 3084   3.524   4.389  10.233  0.5484  4.7386  0.4934
  199MPD1    H3 3085   3.392   4.203  10.176  2.2768  1.6603 -0.9406
  199MPD1     N 3086   3.008   4.386  10.335 -0.4189 -0.2206  0.5896
  199MPD1    H5 3087   2.971   4.291  10.331  1.8160 -1.0692 -0.2951
  199MPD1    N1 3088   3.443   4.620  10.319 -0.2547 -0.7356  0.1566
  199MPD1    H6 3089   3.411   4.709  10.281  1.5596 -1.6030 -3.3858
  199MPD1    H7 3090   3.529   4.610  10.265  1.0227 -0.6587  2.1771
  200MPD1     C 3091   1.254   0.121  15.565  0.0006 -0.3387 -0.5668
  200MPD1    C1 3092   1.246   0.254  15.520  0.2783 -0.1754  0.7166
  200MPD1    C2 3093   1.342   0.308  15.437 -0.4023 -0.2472  0.3886
  200MPD1    C3 3094   1.452   0.228  15.395  0.0171 -0.1786 -0.1821
  200MPD1    C4 3095   1.465   0.098  15.441  1.0315 -0.0047  0.2942
  200MPD1    C5 3096   1.360   0.049  15.517  0.0818 -0.2244  0.7079
  200MPD1     H 3097   1.344   0.414  15.414 -1.0406 -0.3143  0.0404
  200MPD1    H1 3098   1.552   0.033  15.431  1.0040 -0.2772  1.8798
  200MPD1    H2 3099   1.179   0.056  15.609  0.9329 -0.2377  1.1833
  200MPD1    H3 3100   1.367   4.686  15.553  1.3190 -0.7541 -1.0094
  200MPD1     N 3101   1.557   0.300  15.331 -0.0206  0.2602  0.4427
  200MPD1    H5 3102   1.539   0.399  15.320 -1.5115 -0.2580 -2.0211
  200MPD1    N1 3103   1.143   0.345  15.566  0.0984 -0.0572  0.1534
  200MPD1    H6 3104   1.066   0.302  15.618 -0.4288  1.2046  0.4277
  200MPD1    H7 3105   1.187   0.411  15.629 -1.3399 -0.9480  2.0983
  201MPD1     C 3106   0.209   2.195  14.535  0.0762 -0.1169  0.4968
  201MPD1    C1 3107   0.088   2.166  14.481  0.1723  0.2910  0.1665
  201MPD1    C2 3108   0.012   2.269  14.424  0.2786  0.0189 -0.1424
  201MPD1    C3 3109   0.059   2.398  14.413 -0.3089 -0.3916 -0.2792
  201MPD1    C4 3110   0.182   2.424  14.470  0.0398 -0.3217  0.1762
  201MPD1    C5 3111   0.253   2.326  14.532 -0.7436 -0.0210  0.1183
  201MPD1     H 3112   4.651   2.244  14.389  1.1168 -3.2202 -0.1774
  201MPD1    H1 3113   0.228   2.521  14.463 -1.6032  0.3569 -1.3190
  201MPD1    H2 3114   0.268   2.130  14.597  2.7539  0.6445 -1.2574
  201MPD1    H3 3115   0.353   2.341  14.570 -0.1187 -1.8660 -0.7799
  201MPD1     N 3116   4.713   2.490  14.348 -0.3944  0.3831  0.3130
  201MPD1    H5 3117   4.635   2.459  14.290  1.7953 -2.7435 -0.9453
  201MPD1    N1 3118   0.038   2.029  14.494 -0.2381  0.2814 -0.0466
  201MPD1    H6 3119   4.696   1.993  14.445  0.4906 -0.1827 -0.9072
  201MPD1    H7 3120   0.109   1.961  14.468 -1.3881 -0.8560 -0.1913
  202MPD1     C 3121   3.229   2.062   9.344 -0.2688  0.1627  0.6371
  202MPD1    C1 3122   3.319   1.970   9.396 -0.2337  0.1740  0.4921
  202MPD1    C2 3123   3.416   2.027   9.486  0.1329 -0.2363  1.1168
  202MPD1    C3 3124   3.416   2.161   9.521  0.1202 -0.3657  0.3897
  202MPD1    C4 3125   3.320   2.242   9.475 -0.5391  0.3761  0.3544
  202MPD1    C5 3126   3.227   2.191   9.387 -0.8586 -0.6322  0.2814
  202MPD1     H 3127   3.491   1.956   9.518  1.0668  0.0010 -0.5481
  202MPD1    H1 3128   3.320   2.349   9.494 -0.0794  0.7000 -1.4464
  202MPD1    H2 3129   3.154   2.031   9.272  0.7520  1.0479 -0.7904
  202MPD1    H3 3130   3.157   2.265   9.349 -2.3711 -0.2783  3.7248
  202MPD1     N 3131   3.520   2.217   9.596  0.4308 -0.1442 -0.2200
  202MPD1    H5 3132   3.509   2.316   9.616 -2.2202  0.2780 -3.6786
  202MPD1    N1 3133   3.345   1.858   9.325  0.0264 -0.3912  0.8143
  202MPD1    H6 3134   3.384   1.782   9.381  1.4879  0.4850  0.9680
  202MPD1    H7 3135   3.258   1.817   9.291 -0.1537 -0.0172  0.8319
  203MPD1     C 3136   2.621   3.751  12.656 -0.1022 -0.1303  0.3055
  203MPD1    C1 3137   2.596   3.636  12.731  0.0533 -0.7975  0.1290
  203MPD1    C2 3138   2.684   3.529  12.731 -0.2089 -0.2058 -0.2030
  203MPD1    C3 3139   2.810   3.549  12.682  0.2162 -1.0367 -0.0999
  203MPD1    C4 3140   2.851   3.673  12.629 -0.3674  0.5236 -0.0693
  203MPD1    C5 3141   2.748   3.764  12.611 -0.8628 -0.4173 -0.0824
  203MPD1     H 3142   2.645   3.436  12.771 -1.4898 -0.0469 -1.0939
  203MPD1    H1 3143   2.950   3.700  12.594 -1.3472 -0.3175 -3.4751
  203MPD1    H2 3144   2.545   3.826  12.641 -1.3541 -1.2729  0.9418
  203MPD1    H3 3145   2.789   3.858  12.575 -1.4700  1.2446  3.4838
  203MPD1     N 3146   2.894   3.436  12.699  0.0658 -0.0962  0.3497
  203MPD1    H5 3147   2.853   3.370  12.764  1.6426  0.2020  1.6457
  203MPD1    N1 3148   2.466   3.607  12.786  0.0435  0.2213 -0.2773
  203MPD1    H6 3149   2.468   3.539  12.861  0.9879  1.2587  0.6446
  203MPD1    H7 3150   2.413   3.687  12.820  0.1270  1.2453 -2.5535
  204MPD1     C 3151   2.741   0.241  17.631  0.1566 -0.2390  0.9391
  204MPD1    C1 3152   2.675   0.205  17.515 -0.5432  0.6294 -0.4048
  204MPD1    C2 3153   2.596   0.090  17.510 -0.2865  0.6087 -0.3429
  204MPD1    C3 3154   2.583   0.006  17.622  0.6996  0.8469  0.9902
  204MPD1    C4 3155   2.646   0.040  17.738  0.1621  0.4130  0.0325
  204MPD1    C5 3156   2.722   0.153  17.735 -0.7209 -0.0987 -0.5062
  204MPD1     H 3157   2.544   0.067  17.418 -0.0581  1.6426 -0.7257
  204MPD1    H1 3158   2.647   4.717   0.074  0.8560  3.7319  2.2843
  204MPD1    H2 3159   2.799   0.330  17.650 -0.1946  0.7010 -2.5152
  204MPD1    H3 3160   2.767   0.184   0.075  1.7829 -0.3447 -1.6459
  204MPD1     N 3161   2.512   4.627  17.603 -0.8233  0.0203 -0.0852
  204MPD1    H5 3162   2.499   4.598  17.506 -0.9422 -1.2924  0.3252
  204MPD1    N1 3163   2.686   0.285  17.398  0.3744 -0.7238 -0.1347
  204MPD1    H6 3164   2.676   0.220  17.321  0.4280 -1.2293  0.2817
  204MPD1    H7 3165   2.769   0.340  17.375  0.9818 -1.8636 -0.6518
  205MPD1     C 3166   1.489   3.884  17.586  0.2587 -0.3024 -0.0057
  205MPD1    C1 3167   1.602   3.938  17.648 -0.1753  0.4615 -0.2417
  205MPD1    C2 3168   1.650   3.869   0.009 -0.7920 -0.1707 -0.1584
  205MPD1    C3 3169   1.599   3.749   0.059  0.2549 -0.7452  0.3532
  205MPD1    C4 3170   1.501   3.691  17.733  0.5462  0.1276  0.0969
  205MPD1    C5 3171   1.450   3.757  17.624  0.2844  1.0299  0.1804
  205MPD1     H 3172   1.734   3.915   0.060 -2.0344  2.0297 -0.1042
  205MPD1    H1 3173   1.450   3.598   0.005  0.5143  0.2028  0.3108
  205MPD1    H2 3174   1.448   3.927  17.495  1.2561 -1.6631 -1.1085
  205MPD1    H3 3175   1.370   3.708  17.570  0.6426  0.8384 -0.1698
  205MPD1     N 3176   1.655   3.683   0.170 -0.2633 -0.0319 -0.0755
  205MPD1    H5 3177   1.614   3.593   0.191  1.9138 -0.3695  2.6350
  205MPD1    N1 3178   1.634   4.072  17.614 -0.9800  0.1813 -0.8909
  205MPD1    H6 3179   1.612   4.092  17.517 -0.3521 -1.9082 -1.4626
  205MPD1    H7 3180   1.730   4.095  17.638 -1.5052  1.0483  0.3889
  206MPD1     C 3181   2.130   1.160  17.309 -0.8958 -0.7225 -0.3514
  206MPD1    C1 3182   2.080   1.287  17.283 -0.2202  0.1659  0.7356
  206MPD1    C2 3183   2.151   1.366  17.197 -0.3478 -0.0569 -0.0930
  206MPD1    C3 3184   2.250   1.316  17.119 -0.2756 -0.8586 -0.1750
  206MPD1    C4 3185   2.292   1.185  17.138 -0.7451  0.1664 -1.2632
  206MPD1    C5 3186   2.241   1.116  17.240  0.1537  0.0178  0.2051
  206MPD1     H 3187   2.114   1.468  17.192 -1.9018 -0.6771 -1.3648
  206MPD1    H1 3188   2.385   1.146  17.098 -0.7748  0.4865 -1.6492
  206MPD1    H2 3189   2.079   1.087  17.371 -3.0431  0.7246 -0.4132
  206MPD1    H3 3190   2.271   1.016  17.269 -1.0293 -0.2613  0.4333
  206MPD1     N 3191   2.302   1.391  17.015  0.6270  0.4815  0.3062
  206MPD1    H5 3192   2.380   1.344  16.970  0.9473  1.8264 -0.5518
  206MPD1    N1 3193   1.962   1.322  17.346  0.5104 -0.8236  0.3091
  206MPD1    H6 3194   1.920   1.405  17.305  1.8353 -0.0422  0.5434
  206MPD1    H7 3195   1.898   1.243  17.337 -0.0103 -0.3871  0.2055
  207MPD1     C 3196   0.398   0.541  10.035  0.5468 -0.6594  0.3655
  207MPD1    C1 3197   0.397   0.610   9.918 -0.6388 -0.3720 -0.0426
  207MPD1    C2 3198   0.505   0.701   9.895 -0.1389 -0.3412  0.1771
  207MPD1    C3 3199   0.604   0.716   9.989 -0.3073  0.0334 -0.0995
  207MPD1    C4 3200   0.584   0.666  10.117 -0.2915  0.1773 -0.2426
  207MPD1    C5 3201   0.481   0.578  10.138 -0.6305 -0.3775 -0.4477
  207MPD1     H 3202   0.510   0.728   9.791  0.8192 -0.6850  0.1369
  207MPD1    H1 3203   0.659   0.682  10.193 -0.0760 -2.0671 -0.0082
  207MPD1    H2 3204   0.323   0.464  10.053 -0.0317  0.0520  1.0161
  207MPD1    H3 3205   0.460   0.552  10.241 -0.5977  1.3146 -0.0206
  207MPD1     N 3206   0.728   0.784   9.967 -0.5065 -0.0206  0.3949
  207MPD1    H5 3207   0.794   0.779  10.044  0.5476  0.5069 -0.4701
  207MPD1    N1 3208   0.322   0.549   9.813 -0.8554  0.1615 -0.4407
  207MPD1    H6 3209   0.227   0.524   9.840 -0.5440 -0.3785  0.1656
  207MPD1    H7 3210   0.310   0.610   9.732  2.3097  3.1045  1.3431
  208MPD1     C 3211   3.018   2.647  17.255 -1.0529  0.4485  0.3979
  208MPD1    C1 3212   3.004   2.766  17.318  0.2812 -0.1213  0.3235
  208MPD1    C2 3213   2.941   2.773  17.440  0.5835  0.6895 -0.4476
  208MPD1    C3 3214   2.877   2.663  17.490 -0.3521 -0.4994  0.3714
  208MPD1    C4 3215   2.892   2.543  17.426 -0.4970  0.8014 -0.4493
  208MPD1    C5 3216   2.969   2.536  17.313  0.2461 -0.1735 -0.0101
  208MPD1     H 3217   2.937   2.867  17.493 -2.8046 -0.7364  1.8195
  208MPD1    H1 3218   2.863   2.444  17.462  0.9147 -0.0151 -1.5312
  208MPD1    H2 3219   3.077   2.645  17.165 -1.0309  1.7860  0.3833
  208MPD1    H3 3220   2.999   2.441  17.270 -1.3925 -0.3851 -0.7008
  208MPD1     N 3221   2.811   2.680  17.616 -0.2255  0.5129  0.0734
  208MPD1    H5 3222   2.817   2.776  17.649  1.8525  0.6358 -0.6395
  208MPD1    N1 3223   3.045   2.892  17.265 -0.9934 -0.6285  0.3606
  208MPD1    H6 3224   3.054   2.884  17.164 -1.0120 -1.0313  0.3925
  208MPD1    H7 3225   2.996   2.974  17.302 -0.2547  0.3684 -0.8574
  209MPD1     C 3226   1.269   4.103  10.122 -0.2064 -0.5880 -0.1475
  209MPD1    C1 3227   1.388   4.101  10.050  0.1715  0.1558 -0.8828
  209MPD1    C2 3228   1.421   4.218   9.989 -0.2793  0.2143 -0.4062
  209MPD1    C3 3229   1.344   4.333   9.986  0.1074 -0.1820  0.3946
  209MPD1    C4 3230   1.221   4.329  10.050 -0.1085  0.6821 -0.4276
  209MPD1    C5 3231   1.187   4.213  10.112 -0.0224 -0.0991  0.0051
  209MPD1     H 3232   1.527   4.226   9.967  0.1847 -2.8323  0.6944
  209MPD1    H1 3233   1.159   4.417  10.063 -0.7387  0.0948  0.4835
  209MPD1    H2 3234   1.237   4.019  10.183 -0.2111  1.7590  3.1266
  209MPD1    H3 3235   1.090   4.206  10.159 -1.4813  0.3458 -2.9271
  209MPD1     N 3236   1.415   4.455   9.952  0.3730  0.3546  0.0667
  209MPD1    H5 3237   1.508   4.437   9.916  0.6158  0.8004  0.4709
  209MPD1    N1 3238   1.487   4.013  10.088  0.1716  0.3952 -0.3957
  209MPD1    H6 3239   1.461   3.920  10.118 -0.5480  1.8605  3.5294
  209MPD1    H7 3240   1.564   3.998  10.023 -0.4074 -0.2272 -0.9416
  210MPD1     C 3241   2.329   4.669   9.746  0.1908 -0.0153  0.2684
  210MPD1    C1 3242   2.251   4.558   9.766  0.3713  0.0607  0.0326
  210MPD1    C2 3243   2.113   4.582   9.774  0.7042 -0.1392  0.1507
  210MPD1    C3 3244   2.061   4.712   9.793 -0.0718 -0.2441 -0.6645
  210MPD1    C4 3245   2.149   0.082   9.791  0.0389  0.1481 -0.9194
  210MPD1    C5 3246   2.280   0.059   9.766 -0.3050  0.4469 -0.1170
  210MPD1     H 3247   2.051   4.495   9.756  3.5050 -1.8987 -1.0177
  210MPD1    H1 3248   2.120   0.185   9.810 -1.9781 -0.8190  1.2671
  210MPD1    H2 3249   2.431   4.641   9.723  0.0073  1.0633 -1.9024
  210MPD1    H3 3250   2.342   0.146   9.749 -0.2956  0.3043 -0.8549
  210MPD1     N 3251   1.924   0.006   9.820  0.0723  0.9433  0.4930
  210MPD1    H5 3252   1.909   0.105   9.837  0.5097  1.1707 -0.4372
  210MPD1    N1 3253   2.315   4.433   9.742 -0.3569 -1.0893 -0.0584
  210MPD1    H6 3254   2.278   4.345   9.778  0.0741  0.5568  4.3834
  210MPD1    H7 3255   2.415   4.445   9.758 -0.0382 -2.8899 -0.6756
  211MPD1     C 3256   3.531   3.817  17.168  0.3158 -0.1467 -0.4699
  211MPD1    C1 3257   3.481   3.857  17.041 -0.0451  0.1602 -0.6517
  211MPD1    C2 3258   3.364   3.791  17.002  0.4115  0.1025  0.2135
  211MPD1    C3 3259   3.313   3.683  17.063 -0.1272 -0.1526  0.5250
  211MPD1    C4 3260   3.374   3.641  17.179  0.3179 -0.3462  0.5062
  211MPD1    C5 3261   3.482   3.710  17.233 -0.0227  0.1473 -1.1942
  211MPD1     H 3262   3.326   3.820  16.905 -0.4307  2.6541  1.3096
  211MPD1    H1 3263   3.330   3.567  17.245 -0.6975 -0.4226 -0.2502
  211MPD1    H2 3264   3.611   3.870  17.219 -1.2242 -0.7475  2.5657
  211MPD1    H3 3265   3.524   3.674  17.326  1.1844  2.4839 -0.8279
  211MPD1     N 3266   3.194   3.622  17.012 -0.0830 -0.1066 -0.0209
  211MPD1    H5 3267   3.161   3.672  16.930  0.1310  0.3663  0.1822
  211MPD1    N1 3268   3.526   3.972  16.985  0.2284  0.3268  0.8083
  211MPD1    H6 3269   3.531   3.962  16.884  0.9556 -1.2958  0.9962
  211MPD1    H7 3270   3.623   3.991  17.009  1.4059 -1.9032 -2.1316
  212MPD1     C 3271   2.101   1.920  16.399  0.1471  0.5055  0.2013
  212MPD1    C1 3272   2.133   1.790  16.405  0.1467  0.4288  0.2865
  212MPD1    C2 3273   2.075   1.722  16.512 -0.3362 -0.1841 -0.5092
  212MPD1    C3 3274   1.996   1.787  16.610 -0.3518  0.0301 -0.0498
  212MPD1    C4 3275   1.959   1.915  16.586 -0.0363 -0.6596  0.0923
  212MPD1    C5 3276   2.019   1.984  16.490  0.4052 -0.0413 -0.3273
  212MPD1     H 3277   2.107   1.619  16.520  0.0734 -0.1174 -1.2555
  212MPD1    H1 3278   1.914   1.977  16.662  0.2581 -2.5423  1.8170
  212MPD1    H2 3279   2.149   1.984  16.326  0.7797 -1.7137 -1.3271
  212MPD1    H3 3280   1.988   2.087  16.477 -0.5992 -0.5672 -2.2032
  212MPD1     N 3281   1.949   1.725  16.730  0.1013  0.0297  0.5714
  212MPD1    H5 3282   1.895   1.777  16.799  0.3887  0.7742  0.2429
  212MPD1    N1 3283   2.228   1.726  16.333 -0.1259 -0.2760  0.0976
  212MPD1    H6 3284   2.210   1.626  16.337  0.5685 -0.4058 -0.1698
  212MPD1    H7 3285   2.235   1.764  16.239 -1.0747 -1.5730 -0.4994
  213MPD1     C 3286   0.239   2.174  16.302 -0.3577 -0.0806  0.1654
  213MPD1    C1 3287   0.145   2.113  16.220  0.0299  0.1244 -0.6480
  213MPD1    C2 3288   0.140   2.177  16.097 -0.3836 -0.2854 -0.5247
  213MPD1    C3 3289   0.185   2.305  16.066  0.0418 -0.0018 -0.1098
  213MPD1    C4 3290   0.262   2.367  16.161  0.4030  0.6262  0.2444
  213MPD1    C5 3291   0.280   2.307  16.280 -0.3201  0.2888 -0.4549
  213MPD1     H 3292   0.074   2.134  16.022 -0.6903  0.7187 -0.8403
  213MPD1    H1 3293   0.296   2.466  16.135 -0.1512  1.2806  2.0491
  213MPD1    H2 3294   0.266   2.131  16.398 -0.2064 -0.4607 -0.0477
  213MPD1    H3 3295   0.337   2.358  16.357  1.6124 -0.6863 -1.2194
  213MPD1     N 3296   0.163   2.364  15.942  0.0661  0.0605  0.1558
  213MPD1    H5 3297   0.107   2.306  15.880 -0.0563  0.2279  0.1077
  213MPD1    N1 3298   0.116   1.972  16.234 -0.5841 -0.3714 -0.6869
  213MPD1    H6 3299   0.112   1.932  16.328 -2.2333  1.2778 -0.0617
  213MPD1    H7 3300   0.026   1.943  16.196 -1.5226  1.8023 -0.0892
  214MPD1     C 3301   4.239   2.089  15.465  0.3092  0.1787  0.1999
  214MPD1    C1 3302   4.362   2.076  15.410 -0.2699  0.1639 -0.7965
  214MPD1    C2 3303   4.470   2.148  15.460 -0.1869  0.4645 -0.0596
  214MPD1    C3 3304   4.450   2.245  15.559 -1.0154 -0.0147 -0.4039
  214MPD1    C4 3305   4.326   2.250  15.618 -0.4338 -0.6192  0.5533
  214MPD1    C5 3306   4.222   2.177  15.574  0.5293  0.4296 -0.6052
  214MPD1     H 3307   4.568   2.139  15.414 -1.0482 -0.6084 -1.6971
  214MPD1    H1 3308   4.318   2.314  15.705  1.8136  1.1869 -0.5523
  214MPD1    H2 3309   4.161   2.031  15.416 -0.2655 -1.4029  3.0237
  214MPD1    H3 3310   4.127   2.197  15.621  0.7179 -1.2726  0.5014
  214MPD1     N 3311   4.549   2.336  15.604 -0.0570 -0.4711  0.0538
  214MPD1    H5 3312   4.536   2.383  15.693  0.5799 -1.5731  0.7322
  214MPD1    N1 3313   4.380   1.978  15.309 -0.6301 -0.3820  0.1451
  214MPD1    H6 3314   4.460   1.991  15.248 -1.7699 -1.4394 -1.5540
  214MPD1    H7 3315   4.300   1.953  15.252 -2.7083  3.5039  1.3652
  215MPD1     C 3316   0.409   2.474  10.621 -0.1295  0.0293 -0.0370
  215MPD1    C1 3317   0.365   2.599  10.574 -0.9776 -0.7886 -0.0818
  215MPD1    C2 3318   0.340   2.699  10.660 -0.0554 -0.0723 -0.1720
  215MPD1    C3 3319   0.361   2.694  10.796  0.0403 -0.0297 -0.2287
  215MPD1    C4 3320   0.415   2.569  10.840  0.3118  0.2858  0.6015
  215MPD1    C5 3321   0.436   2.466  10.750  0.1597 -0.5110  0.3848
  215MPD1     H 3322   0.291   2.787  10.620  0.7440  0.9804  1.1432
  215MPD1    H1 3323   0.433   2.554  10.946 -0.6868  0.1144  0.7451
  215MPD1    H2 3324   0.434   2.396  10.550  0.2142  0.9963 -0.9939
  215MPD1    H3 3325   0.486   2.376  10.784 -2.4996 -2.2388 -0.2654
  215MPD1     N 3326   0.340   2.798  10.884  0.1619 -0.1759  0.1214
  215MPD1    H5 3327   0.311   2.883  10.835 -1.1710 -1.6350 -1.6350
  215MPD1    N1 3328   0.342   2.609  10.441 -0.2397 -0.0463  0.6594
  215MPD1    H6 3329   0.362   2.703  10.406  0.9286  0.1948  2.0030
  215MPD1    H7 3330   0.389   2.541  10.382  1.5914 -0.0670  2.1761
  216MPD1     C 3331   1.616   1.117   0.874 -0.0241 -0.0678  0.1645
  216MPD1    C1 3332   1.661   1.021   0.788 -0.0889 -0.3785  0.3449
  216MPD1    C2 3333   1.790   1.022   0.741 -0.4076  0.6038  0.3687
  216MPD1    C3 3334   1.871   1.123   0.774 -0.3318 -0.5401 -0.1283
  216MPD1    C4 3335   1.827   1.230   0.855 -0.2078 -0.5379  0.3487
  216MPD1    C5 3336   1.697   1.221   0.902  0.0285  0.3304 -0.3812
  216MPD1     H 3337   1.826   0.955   0.663 -0.1836  1.0418  0.0960
  216MPD1    H1 3338   1.884   1.317   0.882 -2.0686  1.1012 -0.9934
  216MPD1    H2 3339   1.518   1.109   0.920  0.3177 -2.1207  0.5229
  216MPD1    H3 3340   1.665   1.297   0.972 -0.4006 -0.5781  0.4073
  216MPD1     N 3341   2.002   1.112   0.721  0.4251 -0.7930  0.4279
  216MPD1    H5 3342   2.010   1.048   0.642 -1.0685 -0.7879  0.2693
  216MPD1    N1 3343   1.576   0.909   0.753 -0.0452  1.6013  0.2537
  216MPD1    H6 3344   1.611   0.855   0.674  1.5614  0.9659  1.4113
  216MPD1    H7 3345   1.476   0.929   0.745 -0.4539 -1.0202 -1.2845
  217MPD1     C 3346   3.055   1.489   9.289 -0.5796 -0.4530 -0.2434
  217MPD1    C1 3347   3.138   1.490   9.398 -0.2299  0.2068  0.3099
  217MPD1    C2 3348   3.135   1.603   9.480 -0.0069 -0.2623 -0.1066
  217MPD1    C3 3349   3.059   1.713   9.448 -0.1044  0.1637 -0.3252
  217MPD1    C4 3350   2.984   1.718   9.335 -0.4102  0.3197 -0.3260
  217MPD1    C5 3351   2.985   1.604   9.255 -0.0285 -0.4901  0.5180
  217MPD1     H 3352   3.192   1.596   9.572  1.3976 -0.4774 -0.9960
  217MPD1    H1 3353   2.928   1.803   9.298  0.4215  0.8913 -0.2452
  217MPD1    H2 3354   3.036   1.401   9.229 -1.3552 -0.1296 -0.4754
  217MPD1    H3 3355   2.922   1.608   9.167  0.9887  2.5898 -0.0743
  217MPD1     N 3356   3.055   1.829   9.526  0.0561 -0.1324 -0.0605
  217MPD1    H5 3357   2.993   1.905   9.501 -0.2402 -0.2266  0.3896
  217MPD1    N1 3358   3.185   1.376   9.455 -0.2561 -0.0402 -0.3209
  217MPD1    H6 3359   3.275   1.396   9.496 -1.0178 -1.4040  1.9686
  217MPD1    H7 3360   3.196   1.304   9.383 -0.2351 -0.2562 -0.1028
  218MPD1     C 3361   3.695   4.008  13.282  0.0434  0.6006 -0.0010
  218MPD1    C1 3362   3.757   3.914  13.367 -0.3647  0.3878 -0.2190
  218MPD1    C2 3363   3.886   3.880  13.327  0.3224 -0.2828 -0.3839
  218MPD1    C3 3364   3.949   3.922  13.214  0.2495  0.3508  0.0966
  218MPD1    C4 3365   3.886   4.022  13.141 -0.2562 -0.4745  0.2180
  218MPD1    C5 3366   3.756   4.054  13.169 -0.0828 -0.1100 -0.0055
  218MPD1     H 3367   3.939   3.812  13.394 -0.4042  0.2439  0.7165
  218MPD1    H1 3368   3.920   4.071  13.050  0.2769 -2.0220 -0.4294
  218MPD1    H2 3369   3.601   4.046  13.321 -0.7552  0.4507 -1.8237
  218MPD1    H3 3370   3.704   4.116  13.096  1.2086 -0.2816 -1.0620
  218MPD1     N 3371   4.086   3.886  13.186  0.5305  0.8582  0.2103
  218MPD1    H5 3372   4.131   3.826  13.254  2.7271 -0.7370 -2.6382
  218MPD1    N1 3373   3.713   3.893  13.500  0.4672  0.3674  0.1590
  218MPD1    H6 3374   3.729   3.800  13.539  0.7126 -0.3073 -1.5821
  218MPD1    H7 3375   3.614   3.912  13.514  0.7885  1.7110  0.5730
  219MPD1     C 3376   4.655   3.690  12.375 -0.0219  0.5391 -0.3987
  219MPD1    C1 3377   4.663   3.823  12.422  0.7025  0.9177 -0.0079
  219MPD1    C2 3378   4.682   3.836  12.552 -0.3813  0.1586 -0.4570
  219MPD1    C3 3379   4.651   3.728  12.634  0.4686  0.6018 -1.1758
  219MPD1    C4 3380   4.638   3.602  12.582 -0.3304 -0.2901 -0.2362
  219MPD1    C5 3381   4.632   3.581  12.456  0.2496 -0.4951 -0.1007
  219MPD1     H 3382   4.703   3.932  12.598 -4.2843 -0.7924  3.3290
  219MPD1    H1 3383   4.615   3.516  12.644  3.5101 -1.9986 -1.1644
  219MPD1    H2 3384   4.666   3.683  12.267  0.6911  2.5325 -0.4536
  219MPD1    H3 3385   4.620   3.479  12.421  0.4750 -1.3132  2.1615
  219MPD1     N 3386   4.618   3.744  12.768 -0.2825 -0.1805 -0.1171
  219MPD1    H5 3387   4.622   3.655  12.818  0.1782 -0.9729 -1.5687
  219MPD1    N1 3388   4.671   3.939  12.336 -0.1078 -0.2487 -0.2707
  219MPD1    H6 3389   4.605   3.923  12.260 -0.1401 -0.6902 -0.1475
  219MPD1    H7 3390   4.640   4.021  12.388  1.1732  0.0585  0.0167
  220MPD1     C 3391   4.639   2.504  10.148 -0.0723 -0.4971 -0.1536
  220MPD1    C1 3392   4.523   2.573  10.146 -0.4938  0.4439  0.1700
  220MPD1    C2 3393   4.539   2.713  10.144  0.2717  0.0373 -0.1613
  220MPD1    C3 3394   4.659   2.778  10.131  0.0910  0.3464 -0.4163
  220MPD1    C4 3395   0.032   2.699  10.110 -0.5510  0.6483  0.0218
  220MPD1    C5 3396   0.019   2.565  10.121 -0.4854  0.0749  0.3648
  220MPD1     H 3397   4.453   2.777  10.161  1.6630  2.1448 -1.0248
  220MPD1    H1 3398   0.121   2.746  10.071 -0.7148 -0.0771 -1.2392
  220MPD1    H2 3399   4.649   2.396  10.142 -1.4770 -0.5426 -1.7098
  220MPD1    H3 3400   0.104   2.501  10.102 -0.8107 -0.4985  0.8240
  220MPD1     N 3401   4.656   2.919  10.105  0.1622  0.4782  0.6896
  220MPD1    H5 3402   4.565   2.962  10.094  0.1268 -0.2217 -1.8627
  220MPD1    N1 3403   4.400   2.515  10.168 -0.4771  0.3636 -0.3673
  220MPD1    H6 3404   4.392   2.421  10.131 -0.0082 -0.6553  2.1082
  220MPD1    H7 3405   4.325   2.578  10.141 -0.7665  0.2922  0.2825
  221MPD1     C 3406   1.938   3.808  16.745 -0.3641 -0.4653 -0.0005
  221MPD1    C1 3407   1.903   3.677  16.773  0.6687 -0.0749  0.2259
  221MPD1    C2 3408   2.005   3.587  16.775 -0.5987 -0.2077 -0.5890
  221MPD1    C3 3409   2.137   3.620  16.742  0.9641  0.6567 -0.7793
  221MPD1    C4 3410   2.168   3.746  16.702 -0.3287 -0.7187  0.9483
  221MPD1    C5 3411   2.060   3.840  16.693 -0.3946 -0.1169  0.5579
  221MPD1     H 3412   1.976   3.494  16.823 -1.3921  0.7751  0.8456
  221MPD1    H1 3413   2.269   3.765  16.671 -0.9429  0.4515 -0.3138
  221MPD1    H2 3414   1.870   3.892  16.747 -0.7447 -0.8136  1.2702
  221MPD1    H3 3415   2.084   3.942  16.666  0.9584 -1.2206 -2.3735
  221MPD1     N 3416   2.246   3.524  16.747  0.6894  0.4304 -0.9408
  221MPD1    H5 3417   2.334   3.563  16.717  0.3928  0.5727 -1.6235
  221MPD1    N1 3418   1.778   3.649  16.831  0.8317  0.3421  1.1589
  221MPD1    H6 3419   1.734   3.567  16.791 -1.2824  3.1694 -2.2679
  221MPD1    H7 3420   1.718   3.731  16.820 -1.4339 -1.5337 -0.4685
  222MPD1     C 3421   2.028   1.995  16.984 -0.0975  0.0169  0.2416
  222MPD1    C1 3422   1.926   2.086  17.018  0.4762  0.0375  0.2178
  222MPD1    C2 3423   1.868   2.094  17.139 -0.3205 -0.2175 -0.3630
  222MPD1    C3 3424   1.933   2.029  17.245 -0.1642  0.4244 -0.7779
  222MPD1    C4 3425   2.027   1.933  17.210 -1.2600  0.4121  0.3687
  222MPD1    C5 3426   2.067   1.914  17.084 -0.1523  0.2163 -0.0895
  222MPD1     H 3427   1.802   2.174  17.167 -1.2296 -1.5621  1.3538
  222MPD1    H1 3428   2.070   1.878  17.293  1.3234  3.7444  1.2269
  222MPD1    H2 3429   2.069   1.992  16.884 -0.6431  1.8235 -0.0509
  222MPD1    H3 3430   2.150   1.851  17.056 -0.6374 -1.0024  1.2378
  222MPD1     N 3431   1.907   2.037  17.386 -0.2767 -0.3482 -0.8235
  222MPD1    H5 3432   1.955   1.972  17.446  0.4063 -1.5277 -2.6384
  222MPD1    N1 3433   1.878   2.167  16.914 -0.0159  0.1381 -0.0122
  222MPD1    H6 3434   1.820   2.241  16.952 -0.0110 -0.4833  1.2064
  222MPD1    H7 3435   1.964   2.203  16.875 -0.4094 -0.4207 -1.4142
  223MPD1     C 3436   1.676   1.367   0.027 -0.0117 -0.2182 -0.1275
  223MPD1    C1 3437   1.760   1.404  17.680 -0.1021 -0.0079  0.0216
  223MPD1    C2 3438   1.781   1.542  17.658  0.7116  0.9511 -0.6615
  223MPD1    C3 3439   1.750   1.632   0.012  0.0987 -0.1827 -0.4959
  223MPD1    C4 3440   1.692   1.585   0.130 -0.7447  0.6331  0.5752
  223MPD1    C5 3441   1.661   1.452   0.132  0.3766 -0.2138  0.7754
  223MPD1     H 3442   1.835   1.580  17.572  0.8763  2.3755  0.0716
  223MPD1    H1 3443   1.668   1.647   0.216 -1.1909  0.1491  0.8013
  223MPD1    H2 3444   1.637   1.268   0.044  0.4160 -0.7325 -2.1685
  223MPD1    H3 3445   1.609   1.415   0.219  0.6527 -1.5773  0.3605
  223MPD1     N 3446   1.780   1.770  17.748 -0.1525 -0.5763  0.0484
  223MPD1    H5 3447   1.834   1.784  17.663  0.2107 -0.9562  0.2163
  223MPD1    N1 3448   1.791   1.309  17.579 -0.0043  0.2025 -0.0731
  223MPD1    H6 3449   1.794   1.213  17.613 -1.0040 -0.1330 -0.9341
  223MPD1    H7 3450   1.872   1.334  17.522  1.3456  1.9996  2.6345
  224MPD1     C 3451   2.178   2.863   9.597  0.0865 -0.4674 -0.4537
  224MPD1    C1 3452   2.179   2.985   9.667  0.1014 -0.2135  0.4093
  224MPD1    C2 3453   2.294   3.045   9.702 -0.9043 -0.5546 -0.6444
  224MPD1    C3 3454   2.418   2.989   9.672 -0.0920  0.6666 -0.3894
  224MPD1    C4 3455   2.424   2.866   9.608 -0.4003 -0.5391 -0.3630
  224MPD1    C5 3456   2.299   2.811   9.565  0.1923  0.2247  0.3428
  224MPD1     H 3457   2.298   3.143   9.748 -3.9639 -0.9850  0.4978
  224MPD1    H1 3458   2.517   2.812   9.592  2.4155  3.6058  1.9694
  224MPD1    H2 3459   2.090   2.814   9.557 -0.6612 -0.3335  1.0336
  224MPD1    H3 3460   2.288   2.716   9.515  0.4447  1.3262 -1.8271
  224MPD1     N 3461   2.527   3.065   9.728  0.4911 -0.0593  0.4845
  224MPD1    H5 3462   2.498   3.145   9.783 -0.2914  0.0673 -0.1200
  224MPD1    N1 3463   2.055   3.049   9.701  0.1124  0.7610  0.2754
  224MPD1    H6 3464   2.067   3.088   9.794  1.9690 -2.1988  1.2700
  224MPD1    H7 3465   1.977   2.984   9.702  0.2770  0.5752  0.8562
  225MPD1     C 3466   0.304   4.123  12.508  0.8485  0.2811  0.2371
  225MPD1    C1 3467   0.220   4.190  12.426  0.5836 -0.2643  0.2475
  225MPD1    C2 3468   0.088   4.210  12.472  0.9062 -0.5477 -0.0795
  225MPD1    C3 3469   0.046   4.179  12.601 -0.5560 -0.4612  0.3682
  225MPD1    C4 3470   0.136   4.125  12.686 -0.7541 -0.2505  0.6015
  225MPD1    C5 3471   0.266   4.101  12.640 -0.2668 -0.5096  0.4329
  225MPD1     H 3472   0.014   4.258  12.410  0.4231  0.1546  1.0396
  225MPD1    H1 3473   0.104   4.082  12.780 -0.4533 -1.9323 -0.0640
  225MPD1    H2 3474   0.406   4.093  12.484  1.0116  0.1373  1.0801
  225MPD1    H3 3475   0.334   4.051  12.708 -0.2565 -0.6281  0.3341
  225MPD1     N 3476   4.650   4.198  12.643 -0.0087  0.4263 -0.1204
  225MPD1    H5 3477   4.632   4.168  12.739 -1.9487 -0.3565 -0.7150
  225MPD1    N1 3478   0.256   4.202  12.289 -0.0919  0.4286  0.4804
  225MPD1    H6 3479   0.357   4.210  12.290 -0.1657  1.5296 -0.5919
  225MPD1    H7 3480   0.225   4.284  12.238 -2.5333 -0.7006  0.1373
  226MPD1     C 3481   2.171   3.055  10.053 -0.3658  0.4566 -0.0635
  226MPD1    C1 3482   2.298   3.096  10.067 -0.4931  0.5370 -0.4444
  226MPD1    C2 3483   2.327   3.226  10.024  0.3712 -0.0026  0.5852
  226MPD1    C3 3484   2.228   3.312   9.978  0.0634  0.4496 -0.9900
  226MPD1    C4 3485   2.099   3.260   9.955  0.1978  0.5362  0.1749
  226MPD1    C5 3486   2.074   3.127   9.994 -0.1090  0.4534 -1.0174
  226MPD1     H 3487   2.428   3.266  10.027  0.8679 -1.2820  0.8768
  226MPD1    H1 3488   2.024   3.319   9.904  0.0799 -1.1456 -1.5938
  226MPD1    H2 3489   2.138   2.958  10.089 -0.3574  0.8082  0.9012
  226MPD1    H3 3490   1.972   3.094   9.979  0.1822 -0.1077 -1.7345
  226MPD1     N 3491   2.269   3.443   9.952  0.0167  0.3485 -0.8229
  226MPD1    H5 3492   2.354   3.478   9.993 -1.0088  0.3302  1.3028
  226MPD1    N1 3493   2.383   3.014  10.143 -0.0102  0.3680 -0.4806
  226MPD1    H6 3494   2.375   2.913  10.140 -1.9279  0.5720 -2.8054
  226MPD1    H7 3495   2.477   3.034  10.109 -0.0945  0.3279 -0.7405
  227MPD1     C 3496   1.830   4.346  10.082  0.2701  0.8879  0.8413
  227MPD1    C1 3497   1.790   4.222  10.110 -0.7032 -0.6712 -0.6808
  227MPD1    C2 3498   1.870   4.110  10.071  0.0675  0.1513 -0.5312
  227MPD1    C3 3499   1.980   4.129   9.987 -0.0812 -0.7586 -0.0667
  227MPD1    C4 3500   2.006   4.258   9.945 -0.6193 -0.5287 -0.3598
  227MPD1    C5 3501   1.937   4.362   9.997 -0.1165 -0.3197  0.2415
  227MPD1     H 3502   1.842   4.013  10.110  2.0374 -0.7161 -1.2763
  227MPD1    H1 3503   2.084   4.295   9.879  2.0786 -0.3606  2.9085
  227MPD1    H2 3504   1.766   4.426  10.117 -0.4630 -0.1536  1.8765
  227MPD1    H3 3505   1.970   4.460   9.966 -0.8262 -0.1110  0.1384
  227MPD1     N 3506   2.058   4.021   9.949  0.1373 -0.4921  0.8131
  227MPD1    H5 3507   2.019   3.932   9.978  0.5210 -1.1988 -0.8676
  227MPD1    N1 3508   1.675   4.201  10.192 -0.7166  0.1576  0.9384
  227MPD1    H6 3509   1.621   4.288  10.199 -1.4764 -0.3722  1.8407
  227MPD1    H7 3510   1.608   4.127  10.172 -0.7493  0.5281 -0.2933
  228MPD1     C 3511   1.777   2.199  13.173  0.2873  0.4128 -0.1554
  228MPD1    C1 3512   1.748   2.197  13.307  0.2304  0.0008 -0.4748
  228MPD1    C2 3513   1.617   2.210  13.343  0.6458  0.2045  0.3257
  228MPD1    C3 3514   1.517   2.217  13.245  0.8591  0.1346 -0.9376
  228MPD1    C4 3515   1.552   2.196  13.114  0.4489  0.0605 -0.0210
  228MPD1    C5 3516   1.681   2.184  13.073  0.2199  0.0062  0.3575
  228MPD1     H 3517   1.596   2.205  13.449 -1.0498  0.6791  0.0172
  228MPD1    H1 3518   1.482   2.194  13.031 -1.7600 -1.0314  1.8489
  228MPD1    H2 3519   1.882   2.205  13.147  0.0817  0.6373 -0.9239
  228MPD1    H3 3520   1.716   2.187  12.971  1.7435 -0.6983  0.8628
  228MPD1     N 3521   1.385   2.217  13.293  0.1844 -0.0362  0.3130
  228MPD1    H5 3522   1.375   2.194  13.391  1.4392  0.4523  0.5561
  228MPD1    N1 3523   1.849   2.216  13.404  0.4055  0.0418  0.1144
  228MPD1    H6 3524   1.933   2.168  13.373  0.5627 -0.5090  1.4030
  228MPD1    H7 3525   1.824   2.176  13.495 -1.0091  0.4988 -0.0653
  229MPD1     C 3526   1.723   0.260  14.591  0.1172  0.4094 -0.4099
  229MPD1    C1 3527   1.744   0.186  14.712 -0.1057  0.0938  0.4593
  229MPD1    C2 3528   1.638   0.166  14.798  0.5923  0.1005 -0.6934
  229MPD1    C3 3529   1.522   0.242  14.783  0.3163  0.0901  0.4640
  229MPD1    C4 3530   1.506   0.321  14.671 -0.4599 -0.0534 -0.0241
  229MPD1    C5 3531   1.602   0.322  14.573  0.7623 -0.2639 -0.6692
  229MPD1     H 3532   1.649   0.111  14.891  0.8562 -0.2353 -0.9228
  229MPD1    H1 3533   1.411   0.371  14.661  0.0043  1.6632  4.1952
  229MPD1    H2 3534   1.797   0.273  14.514 -1.9953 -1.2447 -2.7093
  229MPD1    H3 3535   1.576   0.373  14.481 -1.5964  2.3063  1.3801
  229MPD1     N 3536   1.410   0.234  14.869 -0.7507 -0.3214  0.8705
  229MPD1    H5 3537   1.336   0.296  14.839  0.7920  0.7239 -0.7763
  229MPD1    N1 3538   1.871   0.131  14.732 -0.3648  0.1734 -0.1671
  229MPD1    H6 3539   1.884   0.091  14.824  0.0461 -1.3201 -0.8774
  229MPD1    H7 3540   1.948   0.192  14.703 -0.5455  1.5254  2.2097
  230MPD1     C 3541   0.774   0.754  15.454 -0.8077  0.7314 -0.5784
  230MPD1    C1 3542   0.807   0.659  15.539  0.6460  0.1087  0.5940
  230MPD1    C2 3543   0.894   0.563  15.492  0.0307  0.0733  0.1034
  230MPD1    C3 3544   0.944   0.559  15.363  0.6117 -0.5983  0.3030
  230MPD1    C4 3545   0.913   0.661  15.276  0.0832 -0.0408  0.7071
  230MPD1    C5 3546   0.824   0.757  15.328 -0.1300 -0.2917 -0.8002
  230MPD1     H 3547   0.930   0.487  15.560  1.1213 -0.1145 -0.6871
  230MPD1    H1 3548   0.943   0.677  15.173 -2.6298  0.0354 -0.0879
  230MPD1    H2 3549   0.718   0.838  15.494  1.5869  2.1588 -0.2678
  230MPD1    H3 3550   0.776   0.830  15.263 -0.2631 -0.8650 -1.3390
  230MPD1     N 3551   1.018   0.444  15.321 -0.6344 -0.3077  0.6479
  230MPD1    H5 3552   1.031   0.365  15.383  1.4567  1.3574  2.3081
  230MPD1    N1 3553   0.784   0.672  15.679  0.0293  0.0467  0.1719
  230MPD1    H6 3554   0.685   0.696  15.683 -0.3108 -1.4845  0.9518
  230MPD1    H7 3555   0.801   0.590  15.737 -0.3836  1.1870  1.9160
  231MPD1     C 3556   3.850   2.423  15.884  0.4864 -0.6317  0.3023
  231MPD1    C1 3557   3.820   2.410  15.755 -0.1859 -0.1273  0.2045
  231MPD1    C2 3558   3.916   2.455  15.662 -0.1997 -0.6160  0.0331
  231MPD1    C3 3559   4.039   2.489  15.699  0.4456 -0.0547  0.2559
  231MPD1    C4 3560   4.078   2.490  15.831  0.3473 -0.1119  0.1494
  231MPD1    C5 3561   3.975   2.465  15.918  0.0628 -0.3112 -0.1215
  231MPD1     H 3562   3.877   2.457  15.561 -0.0445 -1.1919 -0.0416
  231MPD1    H1 3563   4.179   2.524  15.851 -0.0601  1.5003 -0.5373
  231MPD1    H2 3564   3.786   2.409  15.970 -1.3341 -0.7173 -1.0553
  231MPD1    H3 3565   3.993   2.491  16.022  2.1245  0.1952 -0.6052
  231MPD1     N 3566   4.129   2.515  15.589  0.6923  0.4700  0.2426
  231MPD1    H5 3567   4.103   2.496  15.493 -0.4227 -0.2769  0.6967
  231MPD1    N1 3568   3.687   2.382  15.726 -0.6065 -0.6395  0.3111
  231MPD1    H6 3569   3.670   2.345  15.632 -1.9078 -1.1223  0.7480
  231MPD1    H7 3570   3.641   2.329  15.799  0.3341  1.2938  2.3046
  232MPD1     C 3571   1.367   1.472   0.915 -0.8980 -0.3139 -0.0303
  232MPD1    C1 3572   1.345   1.500   0.779  0.7608 -0.1263 -0.0266
  232MPD1    C2 3573   1.267   1.410   0.708 -0.0676 -0.1744 -0.9003
  232MPD1    C3 3574   1.242   1.279   0.745 -0.0800  0.3027 -0.6954
  232MPD1    C4 3575   1.276   1.250   0.878  0.1829 -1.0254  0.4565
  232MPD1    C5 3576   1.340   1.344   0.957 -0.1924 -0.5083 -0.2352
  232MPD1     H 3577   1.241   1.438   0.607  2.6340 -0.5759 -1.7108
  232MPD1    H1 3578   1.251   1.152   0.917 -2.2189 -0.2869  0.7733
  232MPD1    H2 3579   1.405   1.548   0.982 -2.7123  0.7657 -0.2409
  232MPD1    H3 3580   1.362   1.316   1.060 -2.4984 -0.2271  0.3422
  232MPD1     N 3581   1.202   1.194   0.649  0.0891  0.4379  0.0294
  232MPD1    H5 3582   1.160   1.232   0.565 -1.8710 -3.0327 -0.5537
  232MPD1    N1 3583   1.356   1.627   0.733  0.1817 -0.1832  0.3134
  232MPD1    H6 3584   1.434   1.686   0.761 -0.6784  1.4115 -0.6688
  232MPD1    H7 3585   1.344   1.626   0.632  0.6209 -2.5512  0.2904
  233MPD1     C 3586   2.156   3.945   2.175 -0.6729 -0.4311  0.4074
  233MPD1    C1 3587   2.132   3.852   2.077 -0.5678  0.6833  0.5679
  233MPD1    C2 3588   2.239   3.819   1.988  0.5529 -0.4607  0.3823
  233MPD1    C3 3589   2.358   3.898   1.994  0.2665  0.6768  0.5603
  233MPD1    C4 3590   2.369   4.005   2.082  0.9155  0.5062 -0.4816
  233MPD1    C5 3591   2.275   4.023   2.177  0.6512 -0.6241 -0.2440
  233MPD1     H 3592   2.234   3.730   1.926  1.5534 -1.0266  1.1095
  233MPD1    H1 3593   2.457   4.068   2.086  0.4227  0.9956  2.2155
  233MPD1    H2 3594   2.080   3.958   2.252 -1.6232  2.0107 -0.9669
  233MPD1    H3 3595   2.287   4.107   2.244  1.6615  1.3060 -2.8553
  233MPD1     N 3596   2.476   3.869   1.916 -0.1741  0.2369  0.4892
  233MPD1    H5 3597   2.554   3.933   1.928 -0.4282  0.3679  1.4306
  233MPD1    N1 3598   2.027   3.765   2.099 -0.5192 -0.4764 -0.1194
  233MPD1    H6 3599   2.003   3.717   2.012  0.3248 -1.5515  0.2350
  233MPD1    H7 3600   1.943   3.819   2.121  0.2464  1.3457 -1.7770
  234MPD1     C 3601   4.547   2.794   9.731  0.6858  0.1160  0.6283
  234MPD1    C1 3602   4.500   2.923   9.717 -0.1443  0.3729 -0.3162
  234MPD1    C2 3603   4.376   2.943   9.775  0.3402 -0.0123  0.0685
  234MPD1    C3 3604   4.307   2.840   9.846  0.0190  0.6572  0.2157
  234MPD1    C4 3605   4.362   2.718   9.855 -0.0590 -0.5371 -0.2379
  234MPD1    C5 3606   4.485   2.704   9.799  0.4005  0.1744  0.3538
  234MPD1     H 3607   4.332   3.042   9.772 -2.0655 -1.0462  1.8747
  234MPD1    H1 3608   4.324   2.633   9.910 -0.5271 -0.3184 -0.2219
  234MPD1    H2 3609   4.649   2.771   9.702  1.0523  1.2034  1.0845
  234MPD1    H3 3610   4.528   2.604   9.807  1.0025  0.2447 -2.1064
  234MPD1     N 3611   4.182   2.869   9.906  0.5089 -0.4319 -0.3616
  234MPD1    H5 3612   4.132   2.954   9.885  0.4070 -0.4215 -0.0719
  234MPD1    N1 3613   4.565   3.025   9.642 -0.0515  0.1828  0.0432
  234MPD1    H6 3614   4.667   3.026   9.647  0.0105 -0.3817 -1.0455
  234MPD1    H7 3615   4.532   3.117   9.670 -0.0047  1.0912 -2.8590
  235MPD1     C 3616   2.662   4.238   9.882  0.0011 -1.0569 -0.5265
  235MPD1    C1 3617   2.705   4.368   9.868 -1.0238 -0.4280 -0.3856
  235MPD1    C2 3618   2.646   4.463   9.947 -0.0470 -0.0778 -0.8996
  235MPD1    C3 3619   2.531   4.439  10.018 -0.1155  0.4774 -0.0621
  235MPD1    C4 3620   2.480   4.309  10.025  0.0140 -0.0115 -0.6725
  235MPD1    C5 3621   2.552   4.208   9.961  0.4795 -0.0589 -0.3036
  235MPD1     H 3622   2.700   4.556   9.952 -0.1098 -0.1788  1.7339
  235MPD1    H1 3623   2.387   4.288  10.076  0.6899  0.8121  0.8988
  235MPD1    H2 3624   2.700   4.162   9.815  2.4918  0.4986 -0.8722
  235MPD1    H3 3625   2.514   4.107   9.957  2.1421 -0.6813 -0.7732
  235MPD1     N 3626   2.457   4.549  10.067 -0.1497  0.1360 -0.4514
  235MPD1    H5 3627   2.494   4.641  10.045  2.3188 -0.6479  0.4662
  235MPD1    N1 3628   2.828   4.388   9.806  0.0237 -0.2443 -0.7894
  235MPD1    H6 3629   2.852   4.322   9.733  1.4873 -1.7027  1.0082
  235MPD1    H7 3630   2.842   4.481   9.768  1.5311 -1.0614 -2.2229
  236MPD1     C 3631   0.102   1.383  10.801  0.0166 -0.0005 -0.3505
  236MPD1    C1 3632   0.035   1.260  10.782 -1.3990 -0.4790 -0.2618
  236MPD1    C2 3633   0.100   1.149  10.824 -0.4809 -0.2384 -0.1414
  236MPD1    C3 3634   0.238   1.154  10.871  0.7125  0.6890  0.1849
  236MPD1    C4 3635   0.295   1.279  10.888  0.2890 -0.2208  0.2476
  236MPD1    C5 3636   0.223   1.385  10.869  0.1912  0.5173 -0.1500
  236MPD1     H 3637   0.044   1.056  10.827 -1.7585  0.5833  1.5739
  236MPD1    H1 3638   0.399   1.289  10.917  0.3634  0.7451 -0.3212
  236MPD1    H2 3639   0.056   1.476  10.771  2.5439  1.5420  0.6399
  236MPD1    H3 3640   0.270   1.481  10.887  1.2232 -0.1051  0.4159
  236MPD1     N 3641   0.320   1.040  10.879 -0.5261 -0.1621  0.2456
  236MPD1    H5 3642   0.420   1.054  10.889 -0.3628  1.4065 -3.6315
  236MPD1    N1 3643   4.656   1.258  10.709 -0.6896 -0.3539 -0.4449
  236MPD1    H6 3644   4.597   1.175  10.712 -0.0343 -0.9290 -3.9792
  236MPD1    H7 3645   4.597   1.341  10.709 -0.4282 -0.1651  1.5272
  237MPD1     C 3646   4.301   3.773  15.534  0.3639 -0.3546  0.3323
  237MPD1    C1 3647   4.230   3.692  15.623 -0.1281  0.2020 -0.3273
  237MPD1    C2 3648   4.102   3.653  15.587 -0.2189  0.7725 -0.2139
  237MPD1    C3 3649   4.060   3.673  15.459  0.1219  0.1963  0.2478
  237MPD1    C4 3650   4.142   3.731  15.363  0.9526  1.0283  0.0460
  237MPD1    C5 3651   4.260   3.782  15.401  0.1364  0.0890  0.1114
  237MPD1     H 3652   4.045   3.596  15.659 -0.9740  0.4132 -1.1026
  237MPD1    H1 3653   4.124   3.756  15.259 -2.1136 -1.7220 -0.0715
  237MPD1    H2 3654   4.395   3.825  15.555  0.8673 -0.3486 -1.9059
  237MPD1    H3 3655   4.317   3.841  15.330  1.1634 -1.2228 -0.1485
  237MPD1     N 3656   3.936   3.627  15.405  0.8320  0.1653 -0.2201
  237MPD1    H5 3657   3.915   3.656  15.310  1.4229 -1.2449 -0.7929
  237MPD1    N1 3658   4.275   3.687  15.753  0.3040 -0.2140 -0.3445
  237MPD1    H6 3659   4.227   3.622  15.817 -1.6760  0.1511 -1.4583
  237MPD1    H7 3660   4.374   3.665  15.765 -0.0268 -0.6435  1.7052
  238MPD1     C 3661   1.886   2.435  15.304  0.3917 -0.6644  0.4445
  238MPD1    C1 3662   1.846   2.314  15.355  0.0811 -0.2814  0.2137
  238MPD1    C2 3663   1.709   2.279  15.350 -0.0073  0.5304  0.1787
  238MPD1    C3 3664   1.611   2.371  15.306  0.0130 -0.3657  0.3046
  238MPD1    C4 3665   1.657   2.497  15.269  0.3358 -0.1345  0.1794
  238MPD1    C5 3666   1.791   2.524  15.256 -0.8308  0.3121  0.5355
  238MPD1     H 3667   1.688   2.175  15.371  1.8010  0.2285  0.5165
  238MPD1    H1 3668   1.588   2.577  15.242 -2.2638 -2.5970 -0.4716
  238MPD1    H2 3669   1.990   2.465  15.295  0.2246  0.1186  1.1354
  238MPD1    H3 3670   1.820   2.625  15.232 -0.2697 -0.6840 -2.9570
  238MPD1     N 3671   1.470   2.344  15.306  0.2936  1.0097  0.5299
  238MPD1    H5 3672   1.407   2.413  15.267 -0.4805  0.1424  0.2550
  238MPD1    N1 3673   1.940   2.218  15.392 -0.3362 -0.1547 -0.8761
  238MPD1    H6 3674   1.910   2.142  15.452  0.7508 -1.3740 -1.8708
  238MPD1    H7 3675   2.022   2.262  15.432  1.7698 -2.7332 -2.2747
  239MPD1     C 3676   1.508   4.513  14.847 -0.5231  0.7638  0.4645
  239MPD1    C1 3677   1.449   4.410  14.919 -0.1238 -0.6144  0.0492
  239MPD1    C2 3678   1.404   4.300  14.853  0.0882  0.1103 -0.0676
  239MPD1    C3 3679   1.462   4.272  14.734  0.3477 -0.4150 -0.2045
  239MPD1    C4 3680   1.534   4.368  14.665 -0.3705  0.4851 -0.4837
  239MPD1    C5 3681   1.547   4.498  14.719  0.0863  0.3240 -0.1161
  239MPD1     H 3682   1.339   4.230  14.904  1.2636 -0.6040  0.4526
  239MPD1    H1 3683   1.581   4.345  14.571 -0.7500  0.9334 -0.7844
  239MPD1    H2 3684   1.545   4.601  14.897  1.0739  0.5993 -0.4469
  239MPD1    H3 3685   1.603   4.575  14.667  0.5030 -0.1101 -0.3180
  239MPD1     N 3686   1.433   4.152  14.665 -0.7382 -0.3637 -0.5945
  239MPD1    H5 3687   1.458   4.162  14.567  1.9318 -0.0475  0.1018
  239MPD1    N1 3688   1.396   4.441  15.051  0.1896  0.4496 -0.3245
  239MPD1    H6 3689   1.403   4.359  15.111  0.6135  0.0547 -0.9125
  239MPD1    H7 3690   1.439   4.528  15.082  0.5896 -0.1985  0.9213
  240MPD1     C 3691   0.677   3.280  14.256  0.4710 -0.3458 -0.1104
  240MPD1    C1 3692   0.560   3.226  14.301  0.4269  0.3584  0.2704
  240MPD1    C2 3693   0.576   3.112  14.385  0.1884  0.4703  0.3699
  240MPD1    C3 3694   0.701   3.060  14.415 -0.3239 -0.5170 -0.3162
  240MPD1    C4 3695   0.813   3.125  14.365 -0.3579 -0.1242 -1.0336
  240MPD1    C5 3696   0.803   3.232  14.282  0.5971 -0.0040 -0.5721
  240MPD1     H 3697   0.488   3.066  14.428 -0.0998 -0.0148 -0.7431
  240MPD1    H1 3698   0.912   3.083  14.380  0.3092  1.7307 -0.2890
  240MPD1    H2 3699   0.667   3.370  14.195 -1.2613 -1.0972 -0.9256
  240MPD1    H3 3700   0.894   3.285  14.254 -0.3343  2.1459  0.4630
  240MPD1     N 3701   0.702   2.962  14.517 -0.1624 -0.2357 -0.4704
  240MPD1    H5 3702   0.611   2.929  14.545 -0.5794  2.8280  1.8100
  240MPD1    N1 3703   0.435   3.264  14.254  0.2955 -0.4937  0.5751
  240MPD1    H6 3704   0.428   3.365  14.246 -2.1505 -0.8635 -1.7991
  240MPD1    H7 3705   0.369   3.229  14.322  1.7077  0.0987  2.2385
  241MPD1     C 3706   1.103   2.570  15.458  0.3745 -0.0934  0.2696
  241MPD1    C1 3707   1.087   2.706  15.425  0.8780 -0.0576  0.1126
  241MPD1    C2 3708   1.026   2.734  15.301  0.4274  0.1578 -0.5936
  241MPD1    C3 3709   0.962   2.631  15.235 -0.6203  0.3193 -0.1484
  241MPD1    C4 3710   0.968   2.501  15.283  0.6859 -0.5173  0.7448
  241MPD1    C5 3711   1.046   2.471  15.393  0.6494  0.2008  0.4953
  241MPD1     H 3712   1.022   2.838  15.268 -0.2287  0.4432  0.3947
  241MPD1    H1 3713   0.909   2.430  15.226 -0.6766  1.1897  0.0365
  241MPD1    H2 3714   1.164   2.537  15.542 -0.8135 -0.2916  1.0635
  241MPD1    H3 3715   1.064   2.369  15.426  1.2760  0.4150  0.8262
  241MPD1     N 3716   0.889   2.649  15.114 -0.0757 -0.5505 -0.7476
  241MPD1    H5 3717   0.830   2.576  15.076  1.3682 -2.5882  0.9988
  241MPD1    N1 3718   1.163   2.805  15.491  0.0430 -0.1160 -0.5957
  241MPD1    H6 3719   1.113   2.893  15.499 -0.3198 -0.5340  1.7233
  241MPD1    H7 3720   1.184   2.769  15.584 -1.6495  0.0472 -0.1561
  242MPD1     C 3721   0.939   1.474  16.304 -0.1694  0.0937  0.5492
  242MPD1    C1 3722   0.870   1.513  16.194 -0.1251 -0.5098 -0.9121
  242MPD1    C2 3723   0.890   1.442  16.074 -0.6260  0.5726 -0.0575
  242MPD1    C3 3724   0.991   1.341  16.073  0.2586 -0.5247 -0.5120
  242MPD1    C4 3725   1.062   1.315  16.189 -0.1987  0.0105 -0.4073
  242MPD1    C5 3726   1.036   1.383  16.296 -0.5590 -0.3633  0.1522
  242MPD1     H 3727   0.823   1.460  15.992 -1.1660  0.2256  0.3092
  242MPD1    H1 3728   1.133   1.233  16.192  0.4370  0.5213 -1.5818
  242MPD1    H2 3729   0.916   1.520  16.400 -0.2756 -0.9119  0.9982
  242MPD1    H3 3730   1.085   1.355  16.389  1.0756 -2.8487 -1.4263
  242MPD1     N 3731   1.016   1.266  15.960  0.1493 -0.5143  0.0313
  242MPD1    H5 3732   1.076   1.185  15.969  0.0042 -0.7163 -0.8730
  242MPD1    N1 3733   0.762   1.595  16.204 -0.1296  0.0318 -0.4763
  242MPD1    H6 3734   0.773   1.672  16.269 -0.2304  2.1009 -2.9553
  242MPD1    H7 3735   0.734   1.636  16.115 -0.4105  1.2182  0.1700
  243MPD1     C 3736   2.371   0.811   0.628 -0.2151 -0.7253 -0.0143
  243MPD1    C1 3737   2.295   0.702   0.608  0.0453 -0.7584  0.1147
  243MPD1    C2 3738   2.303   0.640   0.485  0.1059 -0.2503  0.4832
  243MPD1    C3 3739   2.405   0.672   0.400 -0.1121 -0.3781 -0.3126
  243MPD1    C4 3740   2.493   0.773   0.430  0.2864  0.4021  0.8542
  243MPD1    C5 3741   2.477   0.841   0.544  0.0552  0.0385  0.3710
  243MPD1     H 3742   2.239   0.555   0.466 -0.2033  0.7013 -2.7304
  243MPD1    H1 3743   2.584   0.789   0.374  1.4129 -3.1621  1.6868
  243MPD1    H2 3744   2.363   0.881   0.711 -0.7537  1.0820 -1.5872
  243MPD1    H3 3745   2.556   0.913   0.559 -0.8632  1.5640 -2.1479
  243MPD1     N 3746   2.405   0.615   0.271  0.4088 -0.0077 -0.6715
  243MPD1    H5 3747   2.330   0.547   0.261 -0.8853  1.2052  0.8919
  243MPD1    N1 3748   2.175   0.702   0.688 -0.2236  1.0082  0.1201
  243MPD1    H6 3749   2.125   0.614   0.674  1.1299  0.0738  1.0752
  243MPD1    H7 3750   2.194   0.696   0.788  1.9980  1.2620 -0.2839
  244MPD1     C 3751   2.119   4.558   0.128 -0.0972  0.0645 -0.3809
  244MPD1    C1 3752   2.170   4.630   0.226  0.3635  0.1864  0.5200
  244MPD1    C2 3753   2.225   0.013   0.192 -0.3934  0.0292  0.6171
  244MPD1    C3 3754   2.226   0.063   0.065 -0.1230 -0.4771 -0.2530
  244MPD1    C4 3755   2.152   4.732  17.716  0.6949 -0.1171  0.1024
  244MPD1    C5 3756   2.098   4.618   0.005 -0.0911  0.7975  0.3556
  244MPD1     H 3757   2.289   0.065   0.263 -0.2913 -0.0805  0.6076
  244MPD1    H1 3758   2.136   0.029  17.615  0.0668 -3.4750 -0.9813
  244MPD1    H2 3759   2.073   4.462   0.149  0.7276 -0.4300 -0.8360
  244MPD1    H3 3760   2.041   4.562  17.685  0.8279 -0.6651  0.7693
  244MPD1     N 3761   2.310   0.171   0.040 -0.4647  0.4653 -0.1447
  244MPD1    H5 3762   2.353   0.219   0.118 -0.0910 -1.8996  1.0763
  244MPD1    N1 3763   2.174   4.584   0.362  0.1507  0.3920  0.4415
  244MPD1    H6 3764   2.167   4.659   0.430  3.7564  0.7414  0.4213
  244MPD1    H7 3765   2.094   4.525   0.387  0.6467 -0.7126 -0.6080
  245MPD1     C 3766   3.708   0.419  13.576 -0.4806  0.3924 -0.0582
  245MPD1    C1 3767   3.705   0.473  13.700 -0.6416  0.2124 -0.1559
  245MPD1    C2 3768   3.781   0.588  13.722 -0.5691  0.4918  0.3841
  245MPD1    C3 3769   3.881   0.624  13.631  0.6073  0.8519 -0.4667
  245MPD1    C4 3770   3.895   0.550  13.518  0.0381 -0.0042  0.5579
  245MPD1    C5 3771   3.799   0.455  13.483 -1.0473  0.3524 -0.8478
  245MPD1     H 3772   3.770   0.638  13.818 -0.5694  2.2404 -0.5140
  245MPD1    H1 3773   3.971   0.570  13.443 -0.1099 -1.2808  0.0632
  245MPD1    H2 3774   3.645   0.333  13.555  2.3361 -1.7928  0.5526
  245MPD1    H3 3775   3.800   0.401  13.389  2.3145 -0.8358 -0.1442
  245MPD1     N 3776   3.971   0.727  13.664 -0.6287  0.2332  0.7642
  245MPD1    H5 3777   3.969   0.760  13.760  1.5677 -0.4059  1.0060
  245MPD1    N1 3778   3.601   0.432  13.785  0.0292 -0.0460  0.1289
  245MPD1    H6 3779   3.617   0.445  13.885  0.1396  0.3966  0.0546
  245MPD1    H7 3780   3.569   0.336  13.775 -1.3102  0.5557 -1.2977
  246MPD1     C 3781   0.445   1.693  10.189 -0.2243 -0.1645  0.2941
  246MPD1    C1 3782   0.374   1.592  10.117  0.0078  0.7210 -1.2301
  246MPD1    C2 3783   0.318   1.614   9.989 -0.7064 -0.0474 -0.1176
  246MPD1    C3 3784   0.359   1.729   9.925  0.7082  0.0611  0.0645
  246MPD1    C4 3785   0.431   1.833   9.994 -0.4565  0.3780  0.3208
  246MPD1    C5 3786   0.476   1.807  10.118  0.9725  0.1748 -0.7049
  246MPD1     H 3787   0.260   1.532   9.948 -2.3956  1.4438 -0.7102
  246MPD1    H1 3788   0.462   1.928   9.952 -1.6334  1.8535  2.8009
  246MPD1    H2 3789   0.482   1.681  10.291 -0.6460 -1.6984  0.2620
  246MPD1    H3 3790   0.522   1.889  10.172 -1.3927  1.4873 -0.7041
  246MPD1     N 3791   0.313   1.743   9.793  0.1327 -0.4936 -0.4594
  246MPD1    H5 3792   0.259   1.666   9.755  2.0233 -0.4059 -3.3324
  246MPD1    N1 3793   0.343   1.471  10.184 -0.5552  0.4575  0.1671
  246MPD1    H6 3794   0.406   1.453  10.262 -0.5709 -3.3812 -0.6937
  246MPD1    H7 3795   0.359   1.397  10.116  1.6092  1.6946 -0.6856
  247MPD1     C 3796   3.091   0.181  17.007  0.8152 -0.2304  0.9607
  247MPD1    C1 3797   3.195   0.091  17.026  0.5554 -0.3787 -0.2519
  247MPD1    C2 3798   3.275   0.053  16.920  0.1173  0.1820  0.3390
  247MPD1    C3 3799   3.238   0.073  16.792  0.1174 -0.4094 -0.1174
  247MPD1    C4 3800   3.131   0.154  16.769  0.1011 -0.2482  0.4845
  247MPD1    C5 3801   3.064   0.217  16.873  0.3910 -0.2684  0.2802
  247MPD1     H 3802   3.365   4.738  16.946 -0.0984 -0.3223  0.0530
  247MPD1    H1 3803   3.105   0.194  16.671 -0.6736 -1.8372  0.0350
  247MPD1    H2 3804   3.029   0.219  17.088 -0.7357  1.2280 -0.9055
  247MPD1    H3 3805   2.992   0.293  16.848  0.7567 -0.3465 -1.0580
  247MPD1     N 3806   3.317   0.026  16.680 -0.0299 -0.1574  0.0479
  247MPD1    H5 3807   3.279   0.055  16.591 -1.6508 -2.4856 -0.0378
  247MPD1    N1 3808   3.245   0.080  17.157  0.2834 -0.4836 -0.1402
  247MPD1    H6 3809   3.172   0.082  17.228  2.2163 -0.4043  1.8558
  247MPD1    H7 3810   3.295   4.733  17.181  0.8542  0.1531  0.9271
  248MPD1     C 3811   4.558   0.695  17.081 -0.5518  0.5316  0.6151
  248MPD1    C1 3812   4.487   0.803  17.096 -0.0344 -0.1989  0.3568
  248MPD1    C2 3813   4.434   0.832  17.222  0.0205  0.2095 -0.2434
  248MPD1    C3 3814   4.444   0.744  17.324  0.6006 -0.4231  0.6846
  248MPD1    C4 3815   4.508   0.627  17.298  0.0443  0.2175  0.1981
  248MPD1    C5 3816   4.568   0.601  17.180 -0.0472 -0.4593 -0.2177
  248MPD1     H 3817   4.369   0.918  17.232 -0.7130 -0.4832  0.9367
  248MPD1    H1 3818   4.516   0.556  17.379 -1.4669 -1.8116 -1.4311
  248MPD1    H2 3819   4.602   0.660  16.988  0.8405  1.1223  1.0510
  248MPD1    H3 3820   4.619   0.507  17.165  1.7764  0.6223 -0.7391
  248MPD1     N 3821   4.379   0.772  17.452 -0.9783  0.5041  0.2566
  248MPD1    H5 3822   4.310   0.846  17.455 -1.4621  0.0926 -0.7952
  248MPD1    N1 3823   4.469   0.895  16.992  0.8339 -0.2843 -0.5674
  248MPD1    H6 3824   4.477   0.850  16.901 -1.1058 -3.2540  0.7427
  248MPD1    H7 3825   4.379   0.940  17.004  0.3897 -1.4342  0.4040
  249MPD1     C 3826   0.942   3.824  10.876 -0.1618 -0.3519 -0.4368
  249MPD1    C1 3827   1.075   3.811  10.915 -0.2046  0.1855  0.1491
  249MPD1    C2 3828   1.169   3.891  10.849 -0.8400 -0.3539  0.3968
  249MPD1    C3 3829   1.127   3.983  10.751 -0.4597 -0.3855  0.2982
  249MPD1    C4 3830   0.995   4.000  10.711  0.5151  0.1322  0.0566
  249MPD1    C5 3831   0.908   3.918  10.776  0.0563 -0.5494 -0.5885
  249MPD1     H 3832   1.275   3.886  10.874 -0.4669  0.6186 -0.9822
  249MPD1    H1 3833   0.959   4.074  10.640  3.2860  0.8520 -0.6212
  249MPD1    H2 3834   0.866   3.761  10.921 -1.5909  0.4819 -1.6665
  249MPD1    H3 3835   0.803   3.921  10.751 -0.2950 -1.1884  0.7791
  249MPD1     N 3836   1.225   4.063  10.699 -0.3000 -0.7927  0.8249
  249MPD1    H5 3837   1.316   4.059  10.745 -0.9714 -0.5545  2.1793
  249MPD1    N1 3838   1.122   3.692  10.984  0.8504 -0.0254  0.3466
  249MPD1    H6 3839   1.058   3.677  11.062  1.0798  0.0283  0.5421
  249MPD1    H7 3840   1.214   3.711  11.021  1.1008  0.8463 -0.6975
  250MPD2     C 3841   2.550   3.668  13.462  0.1170 -0.0969  0.2020
  250MPD2    C1 3842   2.507   3.746  13.355 -0.4571  0.4713  0.2462
  250MPD2    C2 3843   2.424   3.683  13.261  0.4614 -0.3914 -0.4070
  250MPD2    C3 3844   2.369   3.557  13.279  0.4154  0.5753 -0.3010
  250MPD2    C4 3845   2.411   3.484  13.385  1.0707  0.8464 -0.1064
  250MPD2    C5 3846   2.500   3.540  13.472  0.6755  0.2838  0.0000
  250MPD2     H 3847   2.382   3.753  13.190 -0.0318 -0.3791 -0.0999
  250MPD2    H1 3848   2.384   3.379  13.400 -1.7304  1.7526  1.3109
  250MPD2    H2 3849   2.615   3.711  13.537 -0.0974 -0.0162  0.3393
  250MPD2    H3 3850   2.534   3.476  13.553  1.8807  2.4765  1.2475
  250MPD2     N 3851   2.287   3.487  13.188 -0.2488  0.4027  0.1434
  250MPD2    H5 3852   2.247   3.397  13.214 -0.8481  0.7192  0.3233
  250MPD2    N1 3853   2.558   3.883  13.351 -0.0824 -0.4414 -0.2703
  250MPD2    H7 3854   2.617   3.914  13.427 -0.2809 -1.3226  0.2471
  251TMC3    C1 3855   2.573   4.097  13.282 -0.0944 -0.0557 -0.3403
  251TMC3    C2 3856   2.488   4.204  13.290 -0.2334 -0.3493  0.7647
  251TMC3    C3 3857   2.533   4.314  13.360 -0.3700  0.1170 -0.1786
  251TMC3    C4 3858   2.705   4.116  13.315 -0.2904  0.4860  0.3068
  251TMC3    C5 3859   2.753   4.236  13.361 -0.1618 -0.8918  0.2118
  251TMC3    C6 3860   2.669   4.339  13.389 -0.5377  0.2325  0.8579
  251TMC3     C 3861   2.515   3.970  13.255  0.1706  0.4273 -0.0875
  251TMC3     O 3862   2.437   3.962  13.159  0.0222  0.2262  0.4448
  251TMC3     H 3863   2.383   4.190  13.266 -0.0340 -0.6375  0.0448
  251TMC3    H1 3864   2.768   4.029  13.303 -2.1280 -0.3252 -3.6866
  251TMC3    H2 3865   2.704   4.420  13.452 -0.4939  0.3261  0.7137
  251TMC3    C7 3866   2.877   4.229  13.430  0.5044  0.6355 -0.6470
  251TMC3    C8 3867   2.444   4.429  13.357  0.4973 -0.3392  0.3720
  251TMC3    O1 3868   2.917   4.115  13.456  0.9423 -0.1243  0.8373
  251TMC3    O2 3869   2.328   4.415  13.317 -0.5403 -0.2837  0.8012
  252TMC3    C1 3870   2.116   0.780  10.323  1.0840 -0.3856  0.5161
  252TMC3    C2 3871   2.249   0.819  10.323 -0.8845  0.8916  0.3056
  252TMC3    C3 3872   2.328   0.740  10.404  1.0625 -0.5114  0.3185
  252TMC3    C4 3873   2.058   0.690  10.404 -0.3506 -0.6155 -0.2705
  252TMC3    C5 3874   2.137   0.614  10.482  0.0074 -0.7100  0.9458
  252TMC3    C6 3875   2.274   0.640  10.492  0.0663 -0.3582 -0.4710
  252TMC3     C 3876   2.024   0.866  10.253  0.2905 -0.6866  0.3771
  252TMC3     O 3877   1.926   0.915  10.309 -0.0272 -0.0659  0.2006
  252TMC3     H 3878   2.287   0.904  10.267  0.4531  0.4265  0.4984
  252TMC3    H1 3879   1.954   0.662  10.398 -1.0459  1.8133  0.6074
  252TMC3    H2 3880   2.328   0.576  10.560  0.7855  0.2831 -0.4453
  252TMC3    C7 3881   2.097   0.475  10.512 -0.3206 -0.3997 -0.3463
  252TMC3    C8 3882   2.467   0.778  10.414 -0.1807 -0.1152  0.8292
  252TMC3    O1 3883   1.976   0.461  10.502 -0.4855  0.1035 -0.0637
  252TMC3    O2 3884   2.499   0.855  10.323 -0.5188 -0.1820  0.0370
  253MPD2     C 3885   3.666   3.930  15.236 -0.5145  0.3241 -0.1538
  253MPD2    C1 3886   3.529   3.931  15.257 -0.6504 -0.7293 -0.5609
  253MPD2    C2 3887   3.483   3.878  15.377 -0.0065 -0.1831  0.6204
  253MPD2    C3 3888   3.570   3.846  15.480 -0.4578 -0.1390  0.2644
  253MPD2    C4 3889   3.702   3.862  15.455 -0.2637 -0.7390 -0.0097
  253MPD2    C5 3890   3.757   3.895  15.335 -0.1037  0.0789 -0.2274
  253MPD2     H 3891   3.377   3.882  15.398 -0.4746  1.0788 -1.9797
  253MPD2    H1 3892   3.771   3.848  15.538  1.1778  0.7785 -0.9506
  253MPD2    H2 3893   3.705   3.969  15.142  0.8747 -0.0917  0.2396
  253MPD2    H3 3894   3.864   3.907  15.323 -0.2061 -1.2355 -2.5047
  253MPD2     N 3895   3.529   3.808  15.612 -0.0079 -0.3210 -0.2562
  253MPD2    H5 3896   3.604   3.774  15.672 -0.1313  2.8303  1.7209
  253MPD2    N1 3897   3.431   3.966  15.164 -0.5128 -1.3441 -0.0193
  253MPD2    H7 3898   3.332   3.958  15.184 -0.9157  0.1007 -1.3442
  254TMC3    C1 3899   3.368   3.780  15.790  0.6581  0.5384 -0.2130
  254TMC3    C2 3900   3.255   3.827  15.847 -0.4322  0.3273  0.2189
  254TMC3    C3 3901   3.221   3.784  15.971 -0.2493 -0.1980 -0.3174
  254TMC3    C4 3902   3.461   3.703  15.863 -1.2059 -0.1702  0.3366
  254TMC3    C5 3903   3.423   3.663  15.988 -0.0001  0.3470 -0.4245
  254TMC3    C6 3904   3.295   3.700  16.039 -0.3836 -0.0542  0.1418
  254TMC3     C 3905   3.397   3.836  15.658 -0.4610 -0.0847 -0.3438
  254TMC3     O 3906   3.304   3.895  15.603  0.3888 -0.0953 -0.1593
  254TMC3     H 3907   3.185   3.882  15.786  0.1087  0.3588 -0.3655
  254TMC3    H1 3908   3.550   3.665  15.813 -0.1400  2.6619  0.0856
  254TMC3    H2 3909   3.267   3.669  16.139 -2.0954 -0.3365 -0.4318
  254TMC3    C7 3910   3.524   3.635  16.096  0.6754  0.0279 -0.2435
  254TMC3    C8 3911   3.130   3.863  16.053 -0.0272 -0.2465  0.0725
  254TMC3    O1 3912   3.476   3.605  16.204  0.7387  0.4212 -0.0732
  254TMC3    O2 3913   3.141   3.846  16.175  0.5774 -0.0198  0.2221
  255MPD2     C 3914   1.463   1.721  10.660 -1.0307  0.0651 -0.1493
  255MPD2    C1 3915   1.495   1.844  10.710  0.4368 -0.9825 -0.1346
  255MPD2    C2 3916   1.631   1.882  10.725 -0.4140 -0.3751  0.0371
  255MPD2    C3 3917   1.732   1.791  10.696  0.5444 -0.6449 -0.0834
  255MPD2    C4 3918   1.704   1.666  10.645 -0.1720 -0.0258 -0.0600
  255MPD2    C5 3919   1.569   1.636  10.629 -0.0261  0.0382 -0.0204
  255MPD2     H 3920   1.664   1.976  10.768 -1.3558  1.0693 -2.3792
  255MPD2    H1 3921   1.776   1.585  10.630  0.3830  0.2373  1.2326
  255MPD2    H2 3922   1.363   1.682  10.647 -1.4567  1.6189 -1.6508
  255MPD2    H3 3923   1.533   1.540  10.595 -0.5005  0.5086 -0.8234
  255MPD2     N 3924   1.867   1.836  10.708 -0.6965  0.5166 -0.0503
  255MPD2    H5 3925   1.881   1.923  10.758 -0.0773  0.4597 -0.1202
  255MPD2    N1 3926   1.395   1.929  10.726 -0.3253  0.3696  0.7844
  255MPD2    H7 3927   1.306   1.893  10.694 -0.0682  0.2887  0.1595
  256TMC3    C1 3928   1.290   2.153  10.737 -0.3313 -0.6260 -0.0531
  256TMC3    C2 3929   1.299   2.281  10.788  0.7067  0.3033 -0.0072
  256TMC3    C3 3930   1.219   2.384  10.741 -0.2747  0.3564  0.3485
  256TMC3    C4 3931   1.204   2.127  10.635  0.5247  0.0588 -0.5070
  256TMC3    C5 3932   1.123   2.234  10.585 -0.4582 -0.1205  1.2227
  256TMC3    C6 3933   1.132   2.355  10.636  0.0666  0.0661 -0.5830
  256TMC3     C 3934   1.395   2.059  10.784 -0.2661  0.3753 -0.5181
  256TMC3     O 3935   1.483   2.112  10.852 -0.1475  0.0065 -0.0359
  256TMC3     H 3936   1.374   2.313  10.859  1.2785 -1.1924  0.0495
  256TMC3    H1 3937   1.212   2.035  10.578  0.2499  0.5252 -1.3110
  256TMC3    H2 3938   1.073   2.439  10.603 -0.2143 -0.1371 -0.6021
  256TMC3    C7 3939   1.088   2.211  10.447 -0.1722 -0.4937 -0.1500
  256TMC3    C8 3940   1.288   2.507  10.704 -0.4605 -0.3335  0.4611
  256TMC3    O1 3941   1.068   2.096  10.425 -0.3159  0.1978  0.0997
  256TMC3    O2 3942   1.248   2.621  10.732 -0.0942 -0.3969  0.0899
  257MPD2     C 3943   1.307   3.971  13.182 -0.0647 -0.3748  0.1486
  257MPD2    C1 3944   1.224   3.920  13.082  0.1628  0.7634  0.0984
  257MPD2    C2 3945   1.157   3.804  13.102  0.3502  0.0851 -0.5230
  257MPD2    C3 3946   1.169   3.743  13.223 -0.5012  0.7506  0.3740
  257MPD2    C4 3947   1.260   3.788  13.322  0.2445 -0.4672 -0.3619
  257MPD2    C5 3948   1.327   3.902  13.294 -0.2529  0.1174 -0.4443
  257MPD2     H 3949   1.096   3.755  13.028 -1.0520 -1.5120  1.6938
  257MPD2    H1 3950   1.261   3.754  13.425 -1.5126 -0.6702 -0.3997
  257MPD2    H2 3951   1.363   4.064  13.187  0.7582 -0.7424 -2.0081
  257MPD2    H3 3952   1.389   3.939  13.375 -1.0924  0.7302 -0.0822
  257MPD2     N 3953   1.078   3.635  13.251 -0.1316  0.1239  0.2759
  257MPD2    H5 3954   1.006   3.619  13.182  1.2871 -0.4265 -1.0823
  257MPD2    N1 3955   1.229   3.991  12.954  0.2949  0.5911  0.1938
  257MPD2    H7 3956   1.294   4.068  12.943  0.0263  0.5748 -1.5225
  258TMC3    C1 3957   1.011   3.433  13.355  0.7188  0.3466 -0.0901
  258TMC3    C2 3958   0.877   3.464  13.345 -0.1961 -0.0544 -0.4793
  258TMC3    C3 3959   0.781   3.374  13.392  0.3706 -0.2211  0.3230
  258TMC3    C4 3960   1.047   3.315  13.419  0.3803  0.3303  0.7604
  258TMC3    C5 3961   0.948   3.235  13.466 -0.0977 -0.0043 -0.4692
  258TMC3    C6 3962   0.816   3.258  13.461 -0.7952  0.0901  0.1990
  258TMC3     C 3963   1.110   3.541  13.346  0.7240  0.2368 -0.2131
  258TMC3     O 3964   1.205   3.524  13.423 -0.7260 -0.3470 -0.3742
  258TMC3     H 3965   0.840   3.562  13.316 -0.6879 -0.4838 -1.2765
  258TMC3    H1 3966   1.152   3.288  13.433  0.3799  0.5015  1.1050
  258TMC3    H2 3967   0.746   3.186  13.499  1.1487 -0.2095  3.1915
  258TMC3    C7 3968   0.971   3.111  13.540 -0.2783  0.1903 -0.1179
  258TMC3    C8 3969   0.645   3.431  13.397 -0.1150 -0.0696  0.9050
  258TMC3    O1 3970   0.882   3.033  13.560  0.0419  0.0450  0.2402
  258TMC3    O2 3971   0.597   3.495  13.305 -0.4872 -0.4013  0.3939
  259MPD2     C 3972   0.151   0.828   0.761  0.0692 -0.3935 -0.2359
  259MPD2    C1 3973   0.275   0.778   0.721 -0.3304  0.0260  0.6082
  259MPD2    C2 3974   0.316   0.808   0.596  0.6850  0.3731 -0.2310
  259MPD2    C3 3975   0.235   0.887   0.509  0.4973  0.2134 -0.1772
  259MPD2    C4 3976   0.116   0.935   0.559 -1.0891 -0.2482  0.0748
  259MPD2    C5 3977   0.078   0.911   0.686  0.5083 -0.4650 -0.5404
  259MPD2     H 3978   0.405   0.762   0.554  0.0263 -0.0581 -1.1365
  259MPD2    H1 3979   0.046   0.993   0.501 -0.3610 -0.4280 -0.9844
  259MPD2    H2 3980   0.114   0.807   0.861 -2.0034  0.9001 -0.7234
  259MPD2    H3 3981   4.729   0.956   0.730  2.6160  0.7683  2.4000
  259MPD2     N 3982   0.259   0.909   0.371  0.0609 -0.0315 -0.1767
  259MPD2    H5 3983   0.339   0.860   0.334 -1.5410 -1.2115 -2.0606
  259MPD2    N1 3984   0.348   0.705   0.817  0.1742 -0.2749 -0.0604
  259MPD2    H7 3985   0.305   0.693   0.908 -2.6295  4.1292 -0.8509
  260TMC3    C1 3986   0.239   1.002   0.142 -0.0975  0.2212  0.2417
  260TMC3    C2 3987   0.216   1.116   0.067  0.6128 -0.6317  0.0743
  260TMC3    C3 3988   0.287   1.148  17.709 -0.1748 -0.1847 -0.4806
  260TMC3    C4 3989   0.321   0.909   0.086  0.0507 -0.2884 -0.2042
  260TMC3    C5 3990   0.373   0.933  17.716  0.0069 -0.9435 -0.1959
  260TMC3    C6 3991   0.359   1.049  17.647  0.1672 -0.5295 -0.2121
  260TMC3     C 3992   0.194   1.000   0.285 -0.2884 -0.3352 -0.3793
  260TMC3     O 3993   0.124   1.091   0.321  0.0224  0.5054  0.6047
  260TMC3     H 3994   0.158   1.195   0.113  0.2481 -0.7631 -0.1595
  260TMC3    H1 3995   0.326   0.812   0.135 -3.7179 -0.6920 -0.6456
  260TMC3    H2 3996   0.419   1.070  17.560  0.8785 -3.8491 -0.5462
  260TMC3    C7 3997   0.475   0.841  17.663  0.3099 -0.4660 -0.4468
  260TMC3    C8 3998   0.366   1.267  17.739  0.3461  0.0338  0.2014
  260TMC3    O1 3999   0.489   0.835  17.540  0.4692 -0.4427  0.0575
  260TMC3    O2 4000   0.313   1.373   0.018 -0.2337  0.2490  0.9186
  261MPD2     C 4001   1.781   3.609  12.516 -0.6234  0.3940  0.3882
  261MPD2    C1 4002   1.915   3.618  12.540  0.5768  0.3365 -0.4599
  261MPD2    C2 4003   1.985   3.718  12.474 -0.2959 -0.7020  0.6130
  261MPD2    C3 4004   1.919   3.803  12.380 -0.8102 -0.6372  0.3985
  261MPD2    C4 4005   1.788   3.777  12.345 -0.0372 -0.8304  0.0087
  261MPD2    C5 4006   1.721   3.684  12.421  0.4200  0.1506  0.9078
  261MPD2     H 4007   2.089   3.738  12.494 -0.4573  1.0531 -0.2921
  261MPD2    H1 4008   1.730   3.830  12.271  0.3938 -0.4580 -0.0629
  261MPD2    H2 4009   1.712   3.540  12.563 -0.8118  0.3810  0.0961
  261MPD2    H3 4010   1.619   3.670  12.390  0.2552 -0.2422  1.6358
  261MPD2     N 4011   1.996   3.909  12.325 -0.0635  0.3879 -0.0949
  261MPD2    H5 4012   2.091   3.903  12.360  0.0657 -1.0207 -0.6710
  261MPD2    N1 4013   1.983   3.544  12.640 -0.1335  0.3516 -0.4810
  261MPD2    H7 4014   2.084   3.557  12.650  0.1022 -1.2377 -0.8720
  262TMC3    C1 4015   2.036   4.118  12.220 -0.0871  0.5612 -0.0021
  262TMC3    C2 4016   1.977   4.243  12.207 -1.7785  0.3360 -0.1598
  262TMC3    C3 4017   2.066   4.338  12.180  0.1379 -0.1470  0.4375
  262TMC3    C4 4018   2.169   4.089  12.209 -0.6719 -0.2643  0.0832
  262TMC3    C5 4019   2.248   4.194  12.174  0.7378 -0.3830  0.4742
  262TMC3    C6 4020   2.199   4.324  12.163 -0.5565 -0.4686 -0.9113
  262TMC3     C 4021   1.945   4.006  12.248 -1.1960  0.0994  0.0710
  262TMC3     O 4022   1.830   4.039  12.225 -0.3421 -0.0233  0.4487
  262TMC3     H 4023   1.870   4.258  12.202 -1.9496 -0.5497  0.7964
  262TMC3    H1 4024   2.204   3.987  12.203 -0.7935 -0.3099  0.1459
  262TMC3    H2 4025   2.274   4.403  12.159 -0.8162 -0.2295 -1.0065
  262TMC3    C7 4026   2.374   4.166  12.110  0.3684 -0.2998 -0.0406
  262TMC3    C8 4027   2.027   4.472  12.124  0.5304  0.5080 -0.0019
  262TMC3    O1 4028   2.449   4.084  12.159  0.4068 -0.1499  0.3314
  262TMC3    O2 4029   2.108   4.537  12.059 -0.6577 -0.1187  0.2912
  263MPD2     C 4030   2.684   2.644  11.435  0.5490  0.3493 -0.0643
  263MPD2    C1 4031   2.795   2.721  11.457 -0.1764 -0.1657  0.2364
  263MPD2    C2 4032   2.821   2.827  11.383 -0.0733 -0.0160 -1.2078
  263MPD2    C3 4033   2.747   2.852  11.273 -0.7256  0.2517 -0.0640
  263MPD2    C4 4034   2.631   2.776  11.253  0.2544  1.1782 -0.0785
  263MPD2    C5 4035   2.592   2.681  11.343  0.4419  0.2282  0.0200
  263MPD2     H 4036   2.911   2.886  11.396 -2.3671  3.0555  0.5215
  263MPD2    H1 4037   2.555   2.796  11.179  0.8129 -1.2527 -1.3051
  263MPD2    H2 4038   2.675   2.558  11.500  0.9454 -0.8200 -1.5590
  263MPD2    H3 4039   2.511   2.610  11.328 -0.6658  1.1983  1.4840
  263MPD2     N 4040   2.768   2.977  11.218 -0.7346 -0.0214  0.4287
  263MPD2    H5 4041   2.850   3.028  11.252  1.4555 -2.5963 -1.0238
  263MPD2    N1 4042   2.868   2.684  11.566  0.7393 -0.6229 -0.1457
  263MPD2    H7 4043   2.842   2.603  11.621 -1.5349  0.5914  0.5791
  264TMC3    C1 4044   2.789   3.141  11.055  0.4450 -0.1988 -0.3699
  264TMC3    C2 4045   2.807   3.242  11.145 -0.4950  0.1870 -0.4272
  264TMC3    C3 4046   2.889   3.342  11.104  0.2147 -0.4224  0.0957
  264TMC3    C4 4047   2.839   3.143  10.924 -0.2771  0.2584  0.2025
  264TMC3    C5 4048   2.920   3.244  10.893 -0.4944 -0.0765 -0.0532
  264TMC3    C6 4049   2.943   3.343  10.978  0.5308 -0.5001  0.2124
  264TMC3     C 4050   2.722   3.018  11.102  0.9463  0.9432  0.0808
  264TMC3     O 4051   2.670   2.947  11.016 -0.4688  0.2107  0.1504
  264TMC3     H 4052   2.754   3.244  11.240  1.8508 -1.6103  0.9242
  264TMC3    H1 4053   2.821   3.058  10.859 -1.4073  0.5470  0.1490
  264TMC3    H2 4054   3.029   3.407  10.960  1.4289 -1.7646  0.0105
  264TMC3    C7 4055   2.984   3.243  10.766 -0.0146  0.0731 -0.8187
  264TMC3    C8 4056   2.936   3.447  11.196 -0.2694  0.7855 -0.7961
  264TMC3    O1 4057   3.004   3.139  10.708  0.2547  0.1204  0.0897
  264TMC3    O2 4058   3.000   3.534  11.133 -0.0332 -0.6894 -0.2909
  265MPD2     C 4059   4.594   3.479  15.653  0.1972  0.6228 -0.2999
  265MPD2    C1 4060   4.660   3.589  15.601 -0.4639  0.2456 -0.0110
  265MPD2    C2 4061   0.018   3.576  15.501  0.6567 -0.1402  0.1823
  265MPD2    C3 4062   0.043   3.457  15.442 -0.2643 -0.2343  0.0089
  265MPD2    C4 4063   4.714   3.345  15.481 -0.0473 -0.1009  0.0617
  265MPD2    C5 4064   4.616   3.360  15.580  0.4327  0.6481 -0.3574
  265MPD2     H 4065   0.063   3.667  15.464 -0.9235  0.9220  0.8781
  265MPD2    H1 4066   4.720   3.244  15.441  1.6170 -0.4475  1.1809
  265MPD2    H2 4067   4.512   3.485  15.725  0.5178 -0.6814  0.1758
  265MPD2    H3 4068   4.549   3.277  15.596  0.9047  0.3428  0.0266
  265MPD2     N 4069   0.148   3.442  15.347  0.1355 -0.1705  0.3957
  265MPD2    H5 4070   0.169   3.345  15.322 -1.2016 -0.4927  0.5041
  265MPD2    N1 4071   4.646   3.723  15.654 -0.3460 -0.0160 -0.1016
  265MPD2    H7 4072   4.681   3.797  15.594 -0.9786  0.1667 -0.2450
  266TMC3    C1 4073   4.595   3.901  15.810 -0.0289  0.6012  0.0913
  266TMC3    C2 4074   4.560   3.942  15.934 -0.1698  0.1136  0.1703
  266TMC3    C3 4075   4.598   4.062  15.982 -0.0974  0.2090 -0.1593
  266TMC3    C4 4076   4.646   3.986  15.716  0.6716 -0.7743  0.2515
  266TMC3    C5 4077   4.675   4.113  15.760  0.1611  0.0848  0.1506
  266TMC3    C6 4078   4.649   4.155  15.891  0.0811 -0.1788 -0.0097
  266TMC3     C 4079   4.609   3.755  15.782  0.2069  0.0243  0.0554
  266TMC3     O 4080   4.560   3.682  15.868  0.1914 -0.1482 -0.1581
  266TMC3     H 4081   4.520   3.865  16.000  0.2859  2.1022  2.7810
  266TMC3    H1 4082   4.686   3.943  15.625  0.9849 -1.7501  0.8525
  266TMC3    H2 4083   4.680   4.254  15.922  0.9172 -0.9779  1.7183
  266TMC3    C7 4084   4.661   4.216  15.662 -0.3827  0.0543  0.4495
  266TMC3    C8 4085   4.671   4.036  16.110 -0.1040  0.1650 -0.0262
  266TMC3    O1 4086   4.581   4.305  15.691  0.5118 -0.1447  0.5814
  266TMC3    O2 4087   4.710   3.921  16.132 -0.5584  0.3740  0.2788
  267MPD2     C 4088   2.926   1.240   1.131 -0.3115 -0.6416  0.2670
  267MPD2    C1 4089   2.918   1.156   1.022 -0.9646 -0.4719  0.9541
  267MPD2    C2 4090   2.814   1.178   0.930  0.0176 -0.4083 -0.3659
  267MPD2    C3 4091   2.710   1.265   0.952 -0.5054  0.6505  0.7626
  267MPD2    C4 4092   2.729   1.353   1.051 -0.0078  0.6579 -0.7918
  267MPD2    C5 4093   2.830   1.342   1.139 -0.9027 -0.2376  0.0319
  267MPD2     H 4094   2.800   1.105   0.851 -0.2940  0.6820 -1.3106
  267MPD2    H1 4095   2.654   1.429   1.071  0.2966  0.4002  1.3327
  267MPD2    H2 4096   3.008   1.249   1.202 -0.4967  1.7819  0.1689
  267MPD2    H3 4097   2.834   1.417   1.217  0.6372 -1.5105  1.1758
  267MPD2     N 4098   2.593   1.274   0.865  0.1580 -0.2236 -0.6407
  267MPD2    H5 4099   2.529   1.345   0.896 -0.9155 -0.7920 -1.5521
  267MPD2    N1 4100   3.006   1.044   1.006  0.4288  0.0262 -0.2407
  267MPD2    H7 4101   3.070   1.043   1.085 -1.1929  1.2337  1.0936
  268TMC3    C1 4102   3.119   0.850   0.922  0.2286  0.1653  0.3059
  268TMC3    C2 4103   3.140   0.765   0.815 -0.0241 -0.6589 -0.7217
  268TMC3    C3 4104   3.202   0.644   0.837  1.1246  0.1448  0.2396
  268TMC3    C4 4105   3.175   0.831   1.046 -0.0488  0.1837  0.1754
  268TMC3    C5 4106   3.234   0.710   1.061  0.0459 -0.6502  0.3173
  268TMC3    C6 4107   3.258   0.620   0.962 -0.6385  0.0514  0.5355
  268TMC3     C 4108   3.014   0.952   0.902  0.0698 -0.0023  0.3569
  268TMC3     O 4109   2.946   0.948   0.796  0.4828 -0.5293 -0.0822
  268TMC3     H 4110   3.112   0.790   0.714  1.3014 -3.4353 -1.7833
  268TMC3    H1 4111   3.155   0.903   1.125  3.1979  1.7989 -0.4421
  268TMC3    H2 4112   3.309   0.526   0.973  0.0399  0.4388  0.6783
  268TMC3    C7 4113   3.315   0.694   1.182  0.6259  0.0384 -0.0033
  268TMC3    C8 4114   3.231   0.556   0.726  0.0047  0.2242  0.0223
  268TMC3    O1 4115   3.400   0.607   1.186 -0.8263 -0.0749 -0.6359
  268TMC3    O2 4116   3.330   0.486   0.744  0.0914  0.1771  0.4893
  269MPD2     C 4117   2.501   4.294  15.488  0.3607 -0.4965  0.5333
  269MPD2    C1 4118   2.451   4.303  15.615 -0.0123 -0.0215  0.2071
  269MPD2    C2 4119   2.439   4.424  15.678  0.3096 -0.4936  0.0526
  269MPD2    C3 4120   2.470   4.540  15.610 -0.8742  0.6502  0.0477
  269MPD2    C4 4121   2.519   4.534  15.481  0.0287 -0.1950  0.3187
  269MPD2    C5 4122   2.540   4.412  15.429 -0.2216  0.4921 -0.0160
  269MPD2     H 4123   2.398   4.432  15.778 -0.8885 -0.6087 -0.4329
  269MPD2    H1 4124   2.537   4.620  15.418 -1.3999 -0.7403 -0.8459
  269MPD2    H2 4125   2.521   4.201  15.436 -1.5153 -2.2024  2.8494
  269MPD2    H3 4126   2.571   4.408  15.325  0.9951  1.3744  0.3192
  269MPD2     N 4127   2.440   4.664  15.665 -0.0421  0.1504  0.3639
  269MPD2    H5 4128   2.411   4.669  15.763 -0.2826  0.0024  0.3000
  269MPD2    N1 4129   2.404   4.175  15.673 -0.0281  0.4008 -0.0593
  269MPD2    H7 4130   2.417   4.095  15.611 -0.2209 -1.2660  2.0412
  270TMC3    C1 4131   2.344   4.025  15.844  0.2080  0.3042  0.1884
  270TMC3    C2 4132   2.267   3.952  15.758 -0.5835  0.0332  0.6038
  270TMC3    C3 4133   2.199   3.847  15.814 -0.7459  0.2014  0.1916
  270TMC3    C4 4134   2.360   3.988  15.979 -0.3693 -0.5108 -0.2167
  270TMC3    C5 4135   2.282   3.884  16.030 -0.2618 -0.0952  0.0629
  270TMC3    C6 4136   2.197   3.818  15.946  0.0106 -0.4304  0.0342
  270TMC3     C 4137   2.376   4.160  15.802 -0.1718  0.4887 -0.3054
  270TMC3     O 4138   2.397   4.233  15.894 -0.1450 -0.2818  0.1892
  270TMC3     H 4139   2.239   3.992  15.661 -1.1771 -0.7470  0.4547
  270TMC3    H1 4140   2.432   4.029  16.049  1.1338 -1.4072 -1.2356
  270TMC3    H2 4141   2.144   3.729  15.978 -1.2275 -0.1346 -1.1642
  270TMC3    C7 4142   2.348   3.803  16.124  0.1598 -0.1489 -0.2334
  270TMC3    C8 4143   2.136   3.742  15.725  0.1451 -0.9140 -0.5547
  270TMC3    O1 4144   2.457   3.833  16.168  0.6224 -0.4850 -0.1692
  270TMC3    O2 4145   2.056   3.662  15.770 -0.4925  0.0265 -0.1115
  271MPD2     C 4146   1.790   3.732  13.709 -0.3377  0.4242  0.5081
  271MPD2    C1 4147   1.772   3.737  13.844 -0.6513  0.5864 -0.2948
  271MPD2    C2 4148   1.647   3.763  13.900  0.1632  0.0564  0.0203
  271MPD2    C3 4149   1.543   3.775  13.809  0.0720  0.7605  0.6111
  271MPD2    C4 4150   1.563   3.781  13.675  0.0606  0.8098  0.0212
  271MPD2    C5 4151   1.690   3.763  13.621 -0.0343 -0.4400 -0.1791
  271MPD2     H 4152   1.622   3.753  14.005 -1.7037 -0.9724 -0.5261
  271MPD2    H1 4153   1.484   3.792  13.601  0.7038  1.3828 -0.5778
  271MPD2    H2 4154   1.889   3.720  13.666  0.0902  1.5405  1.1735
  271MPD2    H3 4155   1.710   3.761  13.514  2.9301 -0.2529  0.3575
  271MPD2     N 4156   1.414   3.780  13.854 -0.6851 -0.4220  0.4941
  271MPD2    H5 4157   1.346   3.772  13.779  0.0070  0.7702 -0.2662
  271MPD2    N1 4158   1.878   3.719  13.933 -0.4622  0.2127  0.5031
  271MPD2    H7 4159   1.866   3.747  14.030 -1.1405 -0.0257  0.4924
  272TMC3    C1 4160   2.085   3.666  14.023  0.5223  0.0973  0.0747
  272TMC3    C2 4161   2.139   3.549  14.062 -0.4893 -0.1829  0.3332
  272TMC3    C3 4162   2.167   3.523  14.196  0.0946 -0.1912  0.0819
  272TMC3    C4 4163   2.035   3.752  14.114  0.8498 -0.0685  0.4848
  272TMC3    C5 4164   2.051   3.719  14.251 -0.9412 -1.0225 -0.4329
  272TMC3    C6 4165   2.114   3.605  14.298  0.5000  0.3511 -0.6219
  272TMC3     C 4166   2.006   3.663  13.907 -0.1440 -0.5052 -0.2474
  272TMC3     O 4167   2.052   3.614  13.807  0.3121 -0.2172 -0.1987
  272TMC3     H 4168   2.157   3.471  13.988  1.1655  2.0037 -1.5858
  272TMC3    H1 4169   1.997   3.850  14.087  1.1741  0.1496  0.8139
  272TMC3    H2 4170   2.124   3.585  14.404  0.6540 -1.3538 -0.9644
  272TMC3    C7 4171   1.980   3.807  14.338  0.2971 -0.2121 -0.1383
  272TMC3    C8 4172   2.207   3.388  14.226  0.2677 -0.1858  0.7512
  272TMC3    O1 4173   1.888   3.872  14.285  0.3636 -0.7472 -0.3095
  272TMC3    O2 4174   2.193   3.305  14.138  0.5786 -0.1256 -0.2579
  273MPD2     C 4175   2.964   2.116  11.848  0.1103 -0.6263 -0.4807
  273MPD2    C1 4176   3.098   2.147  11.841  0.5508 -0.8634  0.0094
  273MPD2    C2 4177   3.167   2.094  11.728  0.4274 -0.3448  0.3667
  273MPD2    C3 4178   3.099   2.011  11.638  0.5098  0.2926  0.6478
  273MPD2    C4 4179   2.967   1.963  11.656 -0.0105 -0.0360  0.7365
  273MPD2    C5 4180   2.903   2.021  11.762  0.3469 -0.1842 -0.3791
  273MPD2     H 4181   3.267   2.130  11.705 -0.0020  1.3328  1.1379
  273MPD2    H1 4182   2.937   1.883  11.590  2.5638  0.4829 -1.0896
  273MPD2    H2 4183   2.890   2.160  11.915  0.5298 -0.7600  0.0649
  273MPD2    H3 4184   2.805   1.982  11.786  0.5898 -0.8365 -0.4338
  273MPD2     N 4185   3.174   1.951  11.532 -0.6092  0.1800  0.5002
  273MPD2    H5 4186   3.121   1.888  11.472 -2.4691  0.8586  1.4445
  273MPD2    N1 4187   3.161   2.224  11.937 -0.3577  0.2493 -0.9987
  273MPD2    H7 4188   3.105   2.279  12.001  2.0629  3.3695 -1.5441
  274TMC3    C1 4189   3.352   1.913  11.371 -0.0402  0.0956  0.0082
  274TMC3    C2 4190   3.275   1.921  11.259  0.2575  0.0360  0.4152
  274TMC3    C3 4191   3.326   1.958  11.141 -0.0528  0.5529  0.0143
  274TMC3    C4 4192   3.489   1.932  11.358 -0.1287  0.9174 -0.9272
  274TMC3    C5 4193   3.541   1.989  11.243 -0.3867 -0.2219  0.5419
  274TMC3    C6 4194   3.463   1.988  11.129  0.2641  0.9484  1.1339
  274TMC3     C 4195   3.308   1.965  11.504  0.6686  0.1880  0.4284
  274TMC3     O 4196   3.397   2.009  11.581  0.0209 -0.1141 -0.5413
  274TMC3     H 4197   3.169   1.912  11.276 -0.3975  2.1258 -2.4293
  274TMC3    H1 4198   3.555   1.922  11.443 -1.5199  0.2972  0.0684
  274TMC3    H2 4199   3.497   2.054  11.050  1.5575  1.5411  2.1879
  274TMC3    C7 4200   3.609   2.119  11.270  0.3179  0.7199  0.7092
  274TMC3    C8 4201   3.232   1.973  11.036 -0.4539 -0.8749  0.1092
  274TMC3    O1 4202   3.654   2.187  11.178  0.4230  0.4218  0.3404
  274TMC3    O2 4203   3.116   1.940  11.072 -0.0649 -0.5095 -0.4311
  275MPD2     C 4204   3.399   4.674  14.623 -0.6060  0.4499  0.6379
  275MPD2    C1 4205   3.306   0.016  14.679  0.4846  0.0166 -0.2078
  275MPD2    C2 4206   3.170   4.736  14.659  0.4209  0.0382  0.4043
  275MPD2    C3 4207   3.128   4.642  14.571  0.2896 -0.4163  0.3131
  275MPD2    C4 4208   3.221   4.557  14.517 -0.7723 -0.9114  0.6794
  275MPD2    C5 4209   3.355   4.572  14.540 -0.1132 -0.6787  0.0052
  275MPD2     H 4210   3.101   0.056  14.718 -1.0239 -2.4823  1.2007
  275MPD2    H1 4211   3.196   4.473  14.453 -2.1921  0.9693 -1.2119
  275MPD2    H2 4212   3.503   4.682  14.652 -0.5695 -0.4924  0.7503
  275MPD2    H3 4213   3.426   4.500  14.500 -0.0660 -0.7373  0.1963
  275MPD2     N 4214   2.990   4.630  14.532  0.0879  0.5061  0.0634
  275MPD2    H5 4215   2.966   4.551  14.472 -0.8272  1.6942 -1.1265
  275MPD2    N1 4216   3.339   0.119  14.773  0.0978  0.1367 -0.0459
  275MPD2    H7 4217   3.255   0.161  14.810 -0.1296 -0.3400 -0.0162
  276TMC3    C1 4218   3.483   0.220  14.931  0.2564 -0.9127  0.1507
  276TMC3    C2 4219   3.367   0.222  15.008  0.0900 -0.5701 -0.8163
  276TMC3    C3 4220   3.374   0.176  15.141 -0.3382  0.5883 -0.1895
  276TMC3    C4 4221   3.602   0.197  14.992  0.2177  0.4585  0.0736
  276TMC3    C5 4222   3.607   0.158  15.128  0.2149 -0.5401  0.4244
  276TMC3    C6 4223   3.494   0.143  15.200  0.4462 -0.3977 -0.0373
  276TMC3     C 4224   3.476   0.154  14.803 -0.1471  0.2847 -0.0781
  276TMC3     O 4225   3.579   0.129  14.742 -0.4294 -0.0559 -0.3476
  276TMC3     H 4226   3.276   0.257  14.960  0.7551  0.2109 -1.5130
  276TMC3    H1 4227   3.694   0.216  14.940 -0.6421  4.2215 -0.0627
  276TMC3    H2 4228   3.496   0.102  15.300  2.6087  1.4700  0.6665
  276TMC3    C7 4229   3.728   0.181  15.203 -0.2014  0.0038 -0.3947
  276TMC3    C8 4230   3.268   0.086  15.185 -0.2197 -0.6692  0.5007
  276TMC3    O1 4231   3.705   0.227  15.312 -0.4076 -0.2071 -0.8382
  276TMC3    O2 4232   3.303   4.715  15.232  0.4323  0.3178 -0.1388
  277MPD2     C 4233   0.098   4.090  13.074 -0.5375 -0.3023 -0.1057
  277MPD2    C1 4234   0.036   4.175  13.168 -0.1069 -0.1774  0.3389
  277MPD2    C2 4235   4.687   4.124  13.264 -0.3482  0.2244  0.1777
  277MPD2    C3 4236   4.684   3.987  13.286 -0.0617 -0.2682 -0.0266
  277MPD2    C4 4237   0.003   3.906  13.189 -0.6567 -0.0716 -0.5015
  277MPD2    C5 4238   0.077   3.954  13.085 -0.1931 -0.4621  0.1230
  277MPD2     H 4239   4.641   4.190  13.337 -0.0072 -1.0721  1.5722
  277MPD2    H1 4240   4.738   3.798  13.185  0.1530 -0.0642 -1.3817
  277MPD2    H2 4241   0.150   4.127  12.987  1.0597  1.6694  1.6807
  277MPD2    H3 4242   0.109   3.894  13.001 -1.4502  3.1553 -2.8780
  277MPD2     N 4243   4.603   3.926  13.383 -0.4793  0.0300 -0.0494
  277MPD2    H5 4244   4.541   3.988  13.435  1.2593 -0.6548  2.8656
  277MPD2    N1 4245   0.060   4.312  13.162  0.6715 -0.3652  0.1056
  277MPD2    H7 4246   0.007   4.369  13.228 -0.9205 -0.9768 -0.6396
  278TMC3    C1 4247   4.518   3.757  13.520  0.1033  0.3949 -0.1470
  278TMC3    C2 4248   4.553   3.679  13.625 -0.4559  0.5820 -0.2566
  278TMC3    C3 4249   4.464   3.671  13.732  0.7997 -0.2558 -0.3954
  278TMC3    C4 4250   4.395   3.821  13.516  0.5442 -0.0415  0.4822
  278TMC3    C5 4251   4.307   3.810  13.620  0.3036 -0.1878  0.7278
  278TMC3    C6 4252   4.342   3.736  13.732 -0.3165 -0.1620  0.2494
  278TMC3     C 4253   4.620   3.796  13.423 -0.1264  0.6324  0.4784
  278TMC3     O 4254   4.711   3.715  13.399  0.3407  0.1569  0.5029
  278TMC3     H 4255   4.639   3.614  13.626  0.5746  1.9168 -1.0781
  278TMC3    H1 4256   4.355   3.873  13.431  0.2103 -2.0690 -0.6105
  278TMC3    H2 4257   4.267   3.709  13.806  0.8668 -4.3884 -0.0641
  278TMC3    C7 4258   4.175   3.773  13.555 -0.3482  0.7377 -0.3024
  278TMC3    C8 4259   4.489   3.555  13.820  0.5318 -0.2174  0.3515
  278TMC3    O1 4260   4.173   3.749  13.432  0.0667  0.0948  0.1475
  278TMC3    O2 4261   4.393   3.498  13.872 -0.2160 -0.0020 -0.3754
  279MPD2     C 4262   4.493   3.734   0.116 -0.2154 -0.1299  0.4822
  279MPD2    C1 4263   4.488   3.862   0.155  0.1959 -0.7867 -0.2124
  279MPD2    C2 4264   4.464   3.962   0.060  0.4724  0.0978 -0.6070
  279MPD2    C3 4265   4.452   3.931  17.684  0.3484 -0.5528  0.2732
  279MPD2    C4 4266   4.443   3.797  17.645 -0.4901 -1.0038  0.2224
  279MPD2    C5 4267   4.461   3.702  17.735  0.3401 -0.1227 -0.8660
  279MPD2     H 4268   4.459   4.068   0.085 -1.8498 -0.3318  0.6857
  279MPD2    H1 4269   4.445   3.771  17.540  2.2661  2.6502 -0.6492
  279MPD2    H2 4270   4.510   3.658   0.191  3.0483  2.1482  2.0092
  279MPD2    H3 4271   4.479   3.599  17.706  0.5933  0.0167 -1.1938
  279MPD2     N 4272   4.428   4.022  17.576  0.0799 -0.0691 -0.0412
  279MPD2    H5 4273   4.401   3.983  17.487  0.9643 -0.4680 -0.1338
  279MPD2    N1 4274   4.492   3.877   0.294  0.3824  0.4583 -0.0975
  279MPD2    H7 4275   4.500   3.790   0.345 -4.0869  1.3685  2.0767
  280TMC3    C1 4276   4.425   3.997   0.489  0.3422 -0.0068  0.3699
  280TMC3    C2 4277   4.350   3.883   0.521 -0.1775 -1.1245  0.3365
  280TMC3    C3 4278   4.248   3.907   0.606  0.6215 -0.6215 -0.4317
  280TMC3    C4 4279   4.398   4.119   0.542  0.1061  0.3020  0.0148
  280TMC3    C5 4280   4.296   4.138   0.630 -0.4960  0.3648 -0.7303
  280TMC3    C6 4281   4.205   4.030   0.652  0.1325  0.0355 -0.1212
  280TMC3     C 4282   4.485   4.003   0.353 -0.2453  0.2434 -0.4128
  280TMC3     O 4283   4.519   4.109   0.304  0.2517 -0.2631 -0.2220
  280TMC3     H 4284   4.369   3.784   0.480 -2.1940 -2.6733  3.0915
  280TMC3    H1 4285   4.460   4.202   0.511  3.8876 -2.2514  0.8160
  280TMC3    H2 4286   4.129   4.041   0.729 -0.2687  2.0020 -0.8017
  280TMC3    C7 4287   4.240   4.267   0.604 -0.7873 -0.9635 -0.3351
  280TMC3    C8 4288   4.186   3.791   0.657 -0.1051  0.9360 -0.4976
  280TMC3    O1 4289   4.273   4.363   0.672 -0.3709 -0.3014  0.2521
  280TMC3    O2 4290   4.189   3.686   0.595  0.6641  0.3966 -0.1434
  281TMC3    C1 4291   3.060   4.004  13.792 -0.2967  0.3381 -0.2052
  281TMC3    C2 4292   3.166   4.073  13.736  0.0808 -0.3354  0.3531
  281TMC3    C3 4293   3.250   4.006  13.649 -0.6535 -0.0856 -0.5538
  281TMC3    C4 4294   3.040   3.875  13.764 -0.0284  0.2649 -0.3491
  281TMC3    C5 4295   3.128   3.807  13.688 -0.4181  0.1971 -0.0511
  281TMC3    C6 4296   3.231   3.869  13.621  0.0595  0.6897  0.5239
  281TMC3     C 4297   2.937   4.083  13.805 -0.3979  0.0341 -1.1016
  281TMC3     O 4298   2.828   4.023  13.795 -0.4036  0.4047 -0.2457
  281TMC3     H 4299   3.203   4.170  13.766 -1.0373  0.5720 -1.2221
  281TMC3    H1 4300   2.951   3.821  13.796 -1.6580  2.1026 -1.8149
  281TMC3    H2 4301   3.303   3.809  13.565 -1.9289 -1.7424  0.5852
  281TMC3    C7 4302   3.118   3.666  13.664 -0.0135 -0.0805 -0.4784
  281TMC3    C8 4303   3.376   4.058  13.590 -0.6970 -0.8252  0.1128
  281TMC3    O1 4304   3.216   3.605  13.621 -0.5452  0.0412  0.0530
  281TMC3    O2 4305   3.462   3.980  13.557  0.1612  0.0491 -0.0135
  282MPD2     C 4306   0.272   0.379  15.355  0.3985 -0.1115 -0.0982
  282MPD2    C1 4307   0.169   0.472  15.361 -0.8718  0.5518  0.1517
  282MPD2    C2 4308   0.124   0.530  15.242 -0.4051 -0.2402  0.0577
  282MPD2    C3 4309   0.163   0.483  15.119 -0.0167 -0.1551  0.6308
  282MPD2    C4 4310   0.269   0.397  15.120 -0.3567  0.3468 -0.3900
  282MPD2    C5 4311   0.326   0.354  15.235  0.3524  0.4736  0.5890
  282MPD2     H 4312   0.041   0.600  15.245 -1.3040 -1.3842  1.6145
  282MPD2    H1 4313   0.318   0.355  15.033 -0.6988  0.1932 -0.5118
  282MPD2    H2 4314   0.318   0.333  15.442  0.9638  0.3251 -0.1662
  282MPD2    H3 4315   0.411   0.287  15.230 -1.9255 -2.3264 -0.4214
  282MPD2     N 4316   0.104   0.538  15.002  0.1654  0.3868  0.1236
  282MPD2    H5 4317   0.045   0.618  15.022 -1.5491 -0.6260 -0.9521
  282MPD2    N1 4318   0.123   0.521  15.482  0.4082 -0.1273  0.0635
  282MPD2    H7 4319   0.053   0.593  15.469  0.1782 -0.4523 -0.4910
  283TMC3    C1 4320   0.060   0.534  15.704  0.2584  0.1229 -0.5938
  283TMC3    C2 4321   0.071   0.670  15.697  0.4167  0.2558 -0.2324
  283TMC3    C3 4322   4.734   0.732  15.785 -0.2864 -0.1977  0.1732
  283TMC3    C4 4323   4.723   0.462  15.788  0.2547  0.4797  0.3480
  283TMC3    C5 4324   4.643   0.531  15.869 -0.1618  0.2817  0.2746
  283TMC3    C6 4325   4.655   0.667  15.876 -0.2770  0.1906 -0.3147
  283TMC3     C 4326   0.134   0.457  15.606 -0.0509 -0.5517  0.2283
  283TMC3     O 4327   0.160   0.337  15.632 -0.2802  0.3218 -0.5909
  283TMC3     H 4328   0.150   0.725  15.646 -0.0519  1.0494 -0.0897
  283TMC3    H1 4329   4.721   0.354  15.777  2.6089  0.5354 -0.6277
  283TMC3    H2 4330   4.581   0.713  15.940  1.7661  0.1932  2.0210
  283TMC3    C7 4331   4.554   0.457  15.960  0.1818  0.1199 -0.1666
  283TMC3    C8 4332   0.006   0.876  15.792  0.1326  0.5099  0.1241
  283TMC3    O1 4333   4.507   0.525  16.051  0.0905  0.6142  1.0762
  283TMC3    O2 4334   0.053   0.930  15.690 -0.0976 -0.4890 -0.3147
  284MPD2     C 4335   2.992   4.615  12.413  0.4138 -0.5020  0.0311
  284MPD2    C1 4336   3.122   4.588  12.385  0.1378  0.5474  0.2119
  284MPD2    C2 4337   3.196   4.493  12.460 -0.5190  1.2345 -0.3510
  284MPD2    C3 4338   3.136   4.436  12.564  0.0772 -0.2239 -0.5491
  284MPD2    C4 4339   3.005   4.469  12.596 -0.3124  0.5108  0.1052
  284MPD2    C5 4340   2.930   4.552  12.517  0.6707 -0.4579  0.5922
  284MPD2     H 4341   3.297   4.462  12.435 -0.0983  1.6859  0.7700
  284MPD2    H1 4342   2.962   4.417  12.680 -0.6064  0.3369 -0.1517
  284MPD2    H2 4343   2.943   4.696  12.360  0.6403 -1.0695 -1.0588
  284MPD2    H3 4344   2.826   4.573  12.538  0.1317 -2.7167  0.1225
  284MPD2     N 4345   3.218   4.360  12.650  0.4620  0.3703  0.2328
  284MPD2    H5 4346   3.312   4.346  12.615  0.2023  0.5916 -0.5537
  284MPD2    N1 4347   3.188   4.645  12.271  0.0223  0.3495 -0.5092
  284MPD2    H7 4348   3.280   4.607  12.251  0.2380  0.2444  0.7246
  285TMC3    C1 4349   3.248   0.035  12.085  0.8469 -0.3870 -1.2192
  285TMC3    C2 4350   3.320   4.664  12.037 -0.3594 -0.2680 -0.3969
  285TMC3    C3 4351   3.447   4.697  11.986 -0.2144 -0.0942  0.4699
  285TMC3    C4 4352   3.299   0.164  12.078  0.3335 -0.3583 -0.1468
  285TMC3    C5 4353   3.426   0.184  12.035  0.0146  0.0956 -0.0696
  285TMC3    C6 4354   3.499   0.084  11.981 -0.6173 -0.7341 -0.4787
  285TMC3     C 4355   3.149   0.018  12.193 -0.3046 -0.0753  0.3341
  285TMC3     O 4356   3.064   0.102  12.215 -0.3156  0.0941  0.2458
  285TMC3     H 4357   3.293   4.560  12.043 -1.0522 -0.0594  0.0879
  285TMC3    H1 4358   3.238   0.244  12.119 -0.4811  0.1261 -2.2609
  285TMC3    H2 4359   3.593   0.099  11.929  0.4963  0.1357  1.7799
  285TMC3    C7 4360   3.484   0.317  12.019 -0.2736 -0.1997 -0.0598
  285TMC3    C8 4361   3.489   4.597  11.889 -0.0008  0.2304 -0.4330
  285TMC3    O1 4362   3.402   0.408  12.011 -0.0421  0.0433  0.2258
  285TMC3    O2 4363   3.405   4.514  11.866  0.0929 -0.4083  0.8106
  286MPD2     C 4364   3.580   3.722   1.800 -0.2592 -0.4941  0.2409
  286MPD2    C1 4365   3.549   3.743   1.671  0.1558  0.1200 -0.7298
  286MPD2    C2 4366   3.608   3.656   1.576 -0.0204 -1.1180  0.6995
  286MPD2    C3 4367   3.709   3.569   1.618  0.2811  0.1949  0.9296
  286MPD2    C4 4368   3.744   3.557   1.754  0.2882 -0.0729 -0.2329
  286MPD2    C5 4369   3.679   3.640   1.844  0.5649 -0.3619 -0.4835
  286MPD2     H 4370   3.575   3.665   1.473  0.4491  3.9959  0.9956
  286MPD2    H1 4371   3.817   3.481   1.780  2.5751  1.2045 -2.9148
  286MPD2    H2 4372   3.515   3.763   1.877 -0.3248 -0.1331 -0.0098
  286MPD2    H3 4373   3.706   3.628   1.948 -1.6920  0.0217  0.1536
  286MPD2     N 4374   3.768   3.473   1.531  0.1328 -0.6807  0.4836
  286MPD2    H5 4375   3.807   3.388   1.569  1.0378 -0.4169  0.1535
  286MPD2    N1 4376   3.452   3.827   1.627 -0.1546  0.3407 -0.8223
  286MPD2    H7 4377   3.431   3.822   1.528  0.5673  0.5438 -0.9833
  287TMC3    C1 4378   3.865   3.401   1.328  0.4889 -0.1791  0.6912
  287TMC3    C2 4379   3.844   3.390   1.193  0.9031 -0.5958  0.1586
  287TMC3    C3 4380   3.929   3.314   1.119  0.4067  0.1788 -0.6907
  287TMC3    C4 4381   3.968   3.338   1.389  0.7077  0.3558  0.0355
  287TMC3    C5 4382   4.040   3.253   1.309  0.5751 -0.5473  0.6241
  287TMC3    C6 4383   4.025   3.234   1.175  0.8934  1.2843 -0.1787
  287TMC3     C 4384   3.777   3.500   1.397  0.0150 -0.6448 -1.6891
  287TMC3     O 4385   3.723   3.591   1.332  0.0479  0.1469 -0.0679
  287TMC3     H 4386   3.756   3.436   1.151  0.4480 -0.2642  1.4899
  287TMC3    H1 4387   3.988   3.339   1.495 -0.1158  1.5317  0.1836
  287TMC3    H2 4388   4.083   3.162   1.118 -0.4533 -0.0857  0.1803
  287TMC3    C7 4389   4.144   3.181   1.379 -0.2565  0.8607 -0.2870
  287TMC3    C8 4390   3.858   3.253   1.009  0.0228 -0.1904 -0.1044
  287TMC3    O1 4391   4.210   3.229   1.471 -0.1082  0.3015 -0.5794
  287TMC3    O2 4392   3.739   3.277   0.996  0.1904 -0.2281 -0.4251
  288TMC3    C1 4393   0.429   3.281  14.704  0.2793 -0.7748 -0.1620
  288TMC3    C2 4394   0.326   3.259  14.790  0.2893 -0.2159  0.3327
  288TMC3    C3 4395   0.205   3.324  14.782 -0.3977  0.0567 -0.8326
  288TMC3    C4 4396   0.413   3.363  14.602  0.7844  0.0279  0.0791
  288TMC3    C5 4397   0.292   3.429  14.590  0.2991 -0.0973 -0.5776
  288TMC3    C6 4398   0.192   3.412  14.682  0.0419 -0.0866  0.0785
  288TMC3     C 4399   0.567   3.232  14.728  0.3045  0.6413 -0.2982
  288TMC3     O 4400   0.563   3.150  14.819 -0.2686  0.3260 -0.3373
  288TMC3     H 4401   0.338   3.183  14.866  1.3104 -0.0969  0.2910
  288TMC3    H1 4402   0.492   3.378  14.530  0.8495 -1.2610 -0.1111
  288TMC3    H2 4403   0.111   3.484  14.680 -0.8077 -1.0626 -0.4586
  288TMC3    C7 4404   0.282   3.519  14.479  0.6032 -0.5762 -0.2365
  288TMC3    C8 4405   0.110   3.337  14.893 -0.4992  0.6721 -0.1492
  288TMC3    O1 4406   0.390   3.559  14.438 -0.3018 -0.1967  0.2128
  288TMC3    O2 4407   0.065   3.450  14.906  0.7822 -0.0708 -0.5676
  289MPD2     C 4408   0.383   2.307  14.920  0.8943 -0.0121  0.5552
  289MPD2    C1 4409   0.363   2.434  14.875  0.2061 -0.2866  0.3115
  289MPD2    C2 4410   0.239   2.472  14.836  0.0382 -0.1974  0.9836
  289MPD2    C3 4411   0.133   2.381  14.841  0.6621  0.1762 -0.0051
  289MPD2    C4 4412   0.151   2.257  14.902  0.2129  0.9077  0.0261
  289MPD2    C5 4413   0.278   2.217  14.942 -0.0174  0.2712  0.3842
  289MPD2     H 4414   0.228   2.571  14.793 -1.4947  0.0082  1.8340
  289MPD2    H1 4415   0.072   2.184  14.905  0.1369  0.9427 -1.1204
  289MPD2    H2 4416   0.479   2.266  14.948 -0.1128 -4.4374 -2.4887
  289MPD2    H3 4417   0.303   2.117  14.976  0.0811  0.4747  0.9139
  289MPD2     N 4418   0.001   2.405  14.796 -0.1851 -0.4798 -0.1866
  289MPD2    H5 4419   4.674   2.328  14.791  0.6581 -1.1765 -0.4431
  289MPD2    N1 4420   0.477   2.520  14.871  0.1705 -0.0563 -0.5103
  289MPD2    H7 4421   0.566   2.482  14.905  1.3284  1.2243 -2.1296
  290TMC3    C1 4422   4.565   2.522  14.695  0.6728 -0.5631  1.2376
  290TMC3    C2 4423   4.522   2.637  14.642 -0.9566  0.5744  0.1954
  290TMC3    C3 4424   4.418   2.632  14.559 -0.0155  0.0613 -0.2472
  290TMC3    C4 4425   4.511   2.402  14.656  0.6531  0.0528 -0.0782
  290TMC3    C5 4426   4.424   2.392  14.548  0.2090  0.5063 -0.6787
  290TMC3    C6 4427   4.370   2.514  14.513 -0.1856 -0.5499  0.0364
  290TMC3     C 4428   4.700   2.525  14.750 -0.0972 -0.2662 -0.4861
  290TMC3     O 4429   0.009   2.634  14.767  0.4285  0.6654 -0.8095
  290TMC3     H 4430   4.564   2.733  14.672 -1.9917  1.7346 -2.1239
  290TMC3    H1 4431   4.533   2.314  14.714  1.9457  1.4572  1.5808
  290TMC3    H2 4432   4.320   2.514  14.417 -0.9329  0.0331  0.4281
  290TMC3    C7 4433   4.338   2.283  14.534 -0.0439 -0.0411 -0.0975
  290TMC3    C8 4434   4.349   2.749  14.494 -0.1250  0.6044 -0.8822
  290TMC3    O1 4435   4.227   2.305  14.489 -0.3753 -0.0724 -0.0695
  290TMC3    O2 4436   4.256   2.728  14.413  0.0319 -0.0779 -0.6203
  291MPD2     C 4437   3.885   2.541   0.346 -0.8785 -0.1068 -0.2909
  291MPD2    C1 4438   4.006   2.495   0.396 -0.0011  0.4245 -0.0197
  291MPD2    C2 4439   4.112   2.586   0.398 -0.0969  1.0920  0.2707
  291MPD2    C3 4440   4.089   2.717   0.356  0.9622 -0.2269 -0.0485
  291MPD2    C4 4441   3.965   2.760   0.317  0.3396  0.0778 -0.1484
  291MPD2    C5 4442   3.860   2.669   0.305  0.4683 -0.3508 -0.5562
  291MPD2     H 4443   4.216   2.563   0.418 -0.8199 -0.3695  2.3719
  291MPD2    H1 4444   3.948   2.860   0.280  0.6516  0.2949  0.3034
  291MPD2    H2 4445   3.800   2.473   0.354 -0.2652 -0.7732  0.5670
  291MPD2    H3 4446   3.759   2.695   0.272  0.6451  2.3905  1.0130
  291MPD2     N 4447   4.191   2.811   0.334 -0.2208 -0.3205 -0.3133
  291MPD2    H5 4448   4.166   2.897   0.286 -0.7839 -0.4288 -0.2208
  291MPD2    N1 4449   4.028   2.363   0.440 -0.7790 -0.3753  0.8056
  291MPD2    H7 4450   4.116   2.349   0.489 -0.8261  0.4860  1.1379
  292TMC3    C1 4451   3.996   2.136   0.472 -0.5511  0.0204  0.7080
  292TMC3    C2 4452   4.068   2.139   0.582 -0.0030 -0.0332  0.4501
  292TMC3    C3 4453   4.097   2.013   0.640  0.0659  0.7086 -0.6421
  292TMC3    C4 4454   3.945   2.018   0.421  0.1829  0.1819  0.1726
  292TMC3    C5 4455   3.973   1.900   0.477 -0.2429  0.6559  0.4088
  292TMC3    C6 4456   4.070   1.894   0.577  0.0035  0.6203 -0.5172
  292TMC3     C 4457   3.939   2.261   0.421  0.1365 -0.7553  0.5846
  292TMC3     O 4458   3.847   2.238   0.345  0.0447  0.0720 -0.6854
  292TMC3     H 4459   4.090   2.228   0.639 -0.1221  0.6672 -0.5917
  292TMC3    H1 4460   3.884   2.019   0.331 -0.5476 -2.1217  0.6461
  292TMC3    H2 4461   4.093   1.795   0.614 -0.4377  0.6213 -0.2268
  292TMC3    C7 4462   3.950   1.790   0.383 -0.1199  0.4248 -0.0677
  292TMC3    C8 4463   4.143   2.026   0.775  0.0001 -0.5766 -0.3100
  292TMC3    O1 4464   4.024   1.694   0.394 -0.7003 -0.2368 -0.5265
  292TMC3    O2 4465   4.179   2.136   0.814 -0.9264  0.0285  0.5755
  293MPD2     C 4466   1.128   3.013  13.207 -0.3407 -1.4304  0.3063
  293MPD2    C1 4467   1.204   3.119  13.166  0.1750  0.2027 -0.6178
  293MPD2    C2 4468   1.310   3.156  13.249 -0.1298 -0.3705  0.2918
  293MPD2    C3 4469   1.354   3.082  13.356  0.1432  0.1153  0.7298
  293MPD2    C4 4470   1.283   2.967  13.385 -0.3497 -0.3594 -0.4457
  293MPD2    C5 4471   1.169   2.944  13.318 -0.2281 -0.4311 -0.0996
  293MPD2     H 4472   1.369   3.238  13.210  1.4644 -1.4578  0.4346
  293MPD2    H1 4473   1.317   2.908  13.470 -3.0736 -2.0558 -0.5608
  293MPD2    H2 4474   1.056   2.968  13.140  0.4889 -0.4421 -1.2467
  293MPD2    H3 4475   1.106   2.858  13.339 -0.3773 -0.8247 -2.1830
  293MPD2     N 4476   1.471   3.128  13.420  0.9091 -0.0897  0.2888
  293MPD2    H5 4477   1.498   3.220  13.386 -2.5114  0.1585 -1.6939
  293MPD2    N1 4478   1.173   3.192  13.051  0.2692  0.1080 -0.5099
  293MPD2    H7 4479   1.079   3.181  13.012 -0.4163  2.4595  0.4335
  294TMC3    C1 4480   1.189   3.358  12.889  0.0556  0.4821  0.4808
  294TMC3    C2 4481   1.071   3.421  12.928  1.2713  0.0651  0.4221
  294TMC3    C3 4482   1.023   3.525  12.855  0.0718  0.2290 -0.7861
  294TMC3    C4 4483   1.259   3.408  12.789  0.4108  0.2634  0.3623
  294TMC3    C5 4484   1.209   3.519  12.721 -0.8937  0.4183  0.4936
  294TMC3    C6 4485   1.087   3.573  12.747  0.1285 -0.4618  0.1015
  294TMC3     C 4486   1.255   3.278  12.990 -0.4924  0.2472 -0.2114
  294TMC3     O 4487   1.378   3.274  12.989 -0.5618 -0.0099 -0.7939
  294TMC3     H 4488   1.006   3.396  13.010  0.0597  0.1762 -0.5011
  294TMC3    H1 4489   1.358   3.368  12.771 -0.7623 -1.9320 -1.2938
  294TMC3    H2 4490   1.063   3.673  12.712 -0.3064 -1.4073 -2.2872
  294TMC3    C7 4491   1.289   3.578  12.614  0.3407 -0.4933  0.1862
  294TMC3    C8 4492   0.916   3.599  12.922  0.1800 -0.0628 -0.2117
  294TMC3    O1 4493   1.405   3.549  12.593 -0.5318 -0.2465 -0.2443
  294TMC3    O2 4494   0.907   3.595  13.043  0.1834 -0.6016  0.3713
  295MPD2     C 4495   2.344   2.830   0.536 -0.1165  0.0916 -0.5210
  295MPD2    C1 4496   2.223   2.794   0.588  0.3471 -0.2739 -0.0565
  295MPD2    C2 4497   2.226   2.685   0.675 -0.6014  0.4492 -0.2266
  295MPD2    C3 4498   2.343   2.623   0.719 -0.5754  0.7566  0.5259
  295MPD2    C4 4499   2.464   2.659   0.663 -0.6145 -0.3446 -0.6746
  295MPD2    C5 4500   2.459   2.764   0.574  0.3378  0.1337 -0.3547
  295MPD2     H 4501   2.131   2.664   0.722  0.2317  1.2036  1.8034
  295MPD2    H1 4502   2.556   2.603   0.678  0.0180  1.2906  1.5698
  295MPD2    H2 4503   2.347   2.924   0.482  0.2879 -1.1000 -2.5912
  295MPD2    H3 4504   2.553   2.794   0.529  1.0142 -1.1480  0.2033
  295MPD2     N 4505   2.352   2.530   0.823 -0.0443 -0.0593 -0.1214
  295MPD2    H5 4506   2.449   2.504   0.839 -0.1866  0.0127  0.8455
  295MPD2    N1 4507   2.105   2.858   0.571  0.1494  0.2422  0.2947
  295MPD2    H7 4508   2.030   2.811   0.620 -0.8029 -1.4829 -2.8419
  296TMC3    C1 4509   2.285   2.420   1.014  0.3565  0.0894 -0.1999
  296TMC3    C2 4510   2.202   2.434   1.132 -0.5579  0.3219  0.3936
  296TMC3    C3 4511   2.209   2.342   1.235  0.1053  0.3081  0.1611
  296TMC3    C4 4512   2.354   2.303   0.999  0.5058  0.0437 -1.0178
  296TMC3    C5 4513   2.338   2.206   1.100  0.4408  0.2452  0.0881
  296TMC3    C6 4514   2.279   2.228   1.222 -0.3502  0.4964 -0.0839
  296TMC3     C 4515   2.244   2.496   0.901  0.5719  0.5821 -0.1384
  296TMC3     O 4516   2.129   2.527   0.890 -0.7238 -0.5886 -0.0633
  296TMC3     H 4517   2.140   2.523   1.140  0.5031  0.8485  2.6690
  296TMC3    H1 4518   2.401   2.276   0.905 -0.4046 -0.4333 -1.3324
  296TMC3    H2 4519   2.269   2.150   1.297 -0.4019 -0.5978 -1.2346
  296TMC3    C7 4520   2.416   2.093   1.083 -0.2123 -0.6877  0.3333
  296TMC3    C8 4521   2.104   2.349   1.337 -0.7889  0.9119 -0.4568
  296TMC3    O1 4522   2.516   2.105   1.014  0.0395  0.2360 -0.3738
  296TMC3    O2 4523   2.106   2.257   1.418  0.1061  0.2926 -0.6420
  297MPD2     C 4524   4.054   4.093  16.652  0.3972 -0.0273  0.2411
  297MPD2    C1 4525   3.982   4.161  16.557 -0.2452 -0.4647 -1.0274
  297MPD2    C2 4526   4.021   4.291  16.531 -0.5347 -0.4515 -0.4867
  297MPD2    C3 4527   4.114   4.358  16.608  0.2687  0.5142  0.2216
  297MPD2    C4 4528   4.168   4.292  16.710  0.4212 -0.0432  0.8143
  297MPD2    C5 4529   4.143   4.164  16.725  0.7981 -0.5000 -1.7789
  297MPD2     H 4530   3.977   4.346  16.448 -1.0658  0.1910  0.2257
  297MPD2    H1 4531   4.249   4.337  16.767  0.7392 -0.2489  0.5181
  297MPD2    H2 4532   4.032   3.987  16.659 -0.7674  0.1809 -0.2627
  297MPD2    H3 4533   4.199   4.120  16.807  0.4114  0.2848 -1.0940
  297MPD2     N 4534   4.149   4.485  16.563 -0.7087  0.2357 -0.0434
  297MPD2    H5 4535   4.100   4.517  16.480 -0.2154 -1.1755 -0.8918
  297MPD2    N1 4536   3.868   4.106  16.490  0.3120 -0.5611 -0.1953
  297MPD2    H7 4537   3.822   4.169  16.424 -1.6933 -1.3030  0.5074
  298TMC3    C1 4538   3.679   3.990  16.450  0.0357 -0.9119 -0.3714
  298TMC3    C2 4539   3.681   3.958  16.320  0.8334 -0.1807 -0.5625
  298TMC3    C3 4540   3.566   3.980  16.244  0.3276 -0.1037 -0.8648
  298TMC3    C4 4541   3.576   4.051  16.512  0.2074 -0.3424  0.4036
  298TMC3    C5 4542   3.465   4.075  16.433  0.4363  0.7965 -0.0746
  298TMC3    C6 4543   3.458   4.047  16.299 -0.0162 -0.3776 -0.4806
  298TMC3     C 4544   3.802   3.988  16.520 -0.0033 -0.2037  0.0843
  298TMC3     O 4545   3.816   3.930  16.624 -0.1679  0.2480 -0.2393
  298TMC3     H 4546   3.774   3.925  16.275  0.7536  0.1216 -0.9484
  298TMC3    H1 4547   3.556   4.075  16.616 -1.1456 -0.7937  0.2550
  298TMC3    H2 4548   3.369   4.070  16.241  0.6741  1.2864 -0.8780
  298TMC3    C7 4549   3.362   4.167  16.491  0.2161 -0.1228  0.0795
  298TMC3    C8 4550   3.593   4.000  16.099 -0.5264  0.1665 -0.1832
  298TMC3    O1 4551   3.338   4.162  16.610  0.5822 -0.0450 -0.0706
  298TMC3    O2 4552   3.494   4.032  16.031  0.4673 -0.1781  0.1422
  299MPD2     C 4553   4.619   3.647  10.744  1.0156 -0.5780 -0.2112
  299MPD2    C1 4554   4.654   3.779  10.736 -0.3687 -0.5669  0.7541
  299MPD2    C2 4555   4.554   3.866  10.686 -0.4874  0.0146 -0.2745
  299MPD2    C3 4556   4.425   3.818  10.669  0.0844 -0.6207 -0.0469
  299MPD2    C4 4557   4.395   3.687  10.690  0.7606  0.2784  0.5674
  299MPD2    C5 4558   4.490   3.600  10.739  0.4263 -0.2353 -0.1551
  299MPD2     H 4559   4.562   3.974  10.689  2.5296 -0.2435  0.9493
  299MPD2    H1 4560   4.293   3.653  10.680  1.5469 -2.5046  2.0668
  299MPD2    H2 4561   4.689   3.575  10.784  1.7533  0.4023  0.2566
  299MPD2    H3 4562   4.469   3.495  10.755  0.4188  0.0255  1.4933
  299MPD2     N 4563   4.314   3.901  10.629 -0.1504  0.1540 -0.2484
  299MPD2    H5 4564   4.220   3.864  10.634 -0.8470  1.5881 -3.2461
  299MPD2    N1 4565   0.034   3.826  10.798  0.2690 -0.1185  0.4902
  299MPD2    H7 4566   0.087   3.760  10.853 -1.0760 -0.5818  1.2366
  300TMC3    C1 4567   4.193   4.097  10.570 -0.1867  0.1136  0.4310
  300TMC3    C2 4568   4.195   4.216  10.502 -0.6867 -0.2725 -0.0717
  300TMC3    C3 4569   4.087   4.252  10.426  0.4634  0.2819 -0.0391
  300TMC3    C4 4570   4.086   4.019  10.561 -0.4146  0.1739  0.4587
  300TMC3    C5 4571   3.977   4.065  10.485  0.9126  0.1432 -0.0597
  300TMC3    C6 4572   3.976   4.176  10.414 -0.1977  0.0011  0.5626
  300TMC3     C 4573   4.321   4.034  10.594  0.3163  0.4393 -0.2232
  300TMC3     O 4574   4.420   4.099  10.561  0.4231 -0.0707 -0.1571
  300TMC3     H 4575   4.286   4.276  10.499 -0.6782 -0.2751  0.1061
  300TMC3    H1 4576   4.068   3.928  10.618  2.4689  0.6894  2.1798
  300TMC3    H2 4577   3.881   4.204  10.370  0.1249 -0.7711 -0.6314
  300TMC3    C7 4578   3.847   3.994  10.490  0.2808  0.5191 -0.4326
  300TMC3    C8 4579   4.067   4.392  10.404 -0.8950  0.4029 -0.7927
  300TMC3    O1 4580   3.770   4.000  10.395 -1.0713 -0.4087 -0.3853
  300TMC3    O2 4581   3.998   4.429  10.311 -0.1297 -0.2903  0.3471
  301MPD2     C 4582   2.495   1.094   1.169  0.1226 -0.2652 -0.3233
  301MPD2    C1 4583   2.369   1.047   1.121 -0.0628 -1.1744 -0.0129
  301MPD2    C2 4584   2.351   0.914   1.086  0.7422 -1.1092 -0.2414
  301MPD2    C3 4585   2.457   0.825   1.099  0.9674  0.2544  0.0363
  301MPD2    C4 4586   2.576   0.870   1.144  0.2062 -0.0266 -0.1163
  301MPD2    C5 4587   2.594   0.997   1.182 -0.4326  0.1558  0.3235
  301MPD2     H 4588   2.251   0.883   1.060  0.4065 -1.5332  1.5573
  301MPD2    H1 4589   2.662   0.804   1.151  0.8134  0.6978 -0.7082
  301MPD2    H2 4590   2.511   1.191   1.215 -1.4492  0.9433 -2.3083
  301MPD2    H3 4591   2.696   1.024   1.206  0.0624  1.1935 -2.8890
  301MPD2     N 4592   2.442   0.692   1.082 -0.5037  0.0311  0.8564
  301MPD2    H5 4593   2.512   0.628   1.118 -0.7817  0.0327  1.4170
  301MPD2    N1 4594   2.253   1.133   1.125 -0.1625 -0.3042  0.2508
  301MPD2    H7 4595   2.167   1.081   1.110  0.3798 -1.1169 -0.0114
  302TMC3    C1 4596   2.322   0.498   1.018 -0.1911 -0.0069  0.5733
  302TMC3    C2 4597   2.420   0.418   1.064 -0.0198 -0.2314  0.2180
  302TMC3    C3 4598   2.395   0.281   1.071  0.4992 -0.1791  0.1812
  302TMC3    C4 4599   2.208   0.454   0.954 -0.3114  0.3655 -0.4325
  302TMC3    C5 4600   2.191   0.324   0.945 -0.3895  0.2371 -0.4621
  302TMC3    C6 4601   2.280   0.239   1.006 -0.1961  0.8718 -0.0574
  302TMC3     C 4602   2.334   0.638   1.019 -0.0054  0.3979  0.3174
  302TMC3     O 4603   2.249   0.698   0.950  0.1316  0.6911 -0.2224
  302TMC3     H 4604   2.505   0.464   1.114  0.6747 -1.5627  0.2672
  302TMC3    H1 4605   2.137   0.513   0.897 -2.9254 -2.0461  0.3380
  302TMC3    H2 4606   2.272   0.131   0.996 -0.1150  0.9357 -0.8399
  302TMC3    C7 4607   2.069   0.264   0.902 -0.2195 -0.4019  0.4179
  302TMC3    C8 4608   2.425   0.214   1.197 -0.1713  0.1764  0.7019
  302TMC3    O1 4609   2.076   0.155   0.846 -0.6662  0.2203  0.1510
  302TMC3    O2 4610   2.523   0.248   1.253  0.3156  0.6914  0.0981
  303MPD2     C 4611   1.679   4.172  11.199 -0.0523  0.0133 -0.6198
  303MPD2    C1 4612   1.558   4.156  11.139 -0.6297  0.6111 -0.0138
  303MPD2    C2 4613   1.559   4.126  11.002  0.3207  0.2864  0.7016
  303MPD2    C3 4614   1.683   4.104  10.942 -0.2884  0.2024  0.2172
  303MPD2    C4 4615   1.800   4.126  11.010 -0.6436 -0.4898 -1.0652
  303MPD2    C5 4616   1.800   4.166  11.142 -0.0723 -0.2835 -0.2481
  303MPD2     H 4617   1.467   4.102  10.950  1.0893  2.5330 -1.6751
  303MPD2    H1 4618   1.894   4.111  10.959  0.9311  2.6252  0.9643
  303MPD2    H2 4619   1.684   4.203  11.302 -3.2650  1.4062 -0.8594
  303MPD2    H3 4620   1.883   4.193  11.205  0.6188 -4.5620  0.6655
  303MPD2     N 4621   1.698   4.064  10.805 -0.8765  0.3612 -0.0646
  303MPD2    H5 4622   1.791   4.052  10.767 -1.2617  2.1859 -1.6087
  303MPD2    N1 4623   1.438   4.186  11.202 -0.1608 -0.1186  0.4834
  303MPD2    H7 4624   1.435   4.193  11.304  0.1960  0.6686  0.4453
  304TMC3    C1 4625   1.204   4.187  11.236 -0.3634  0.7925 -0.1132
  304TMC3    C2 4626   1.084   4.229  11.193  1.0212 -0.2964 -0.2478
  304TMC3    C3 4627   0.972   4.192  11.267  0.0412  0.3704 -0.5065
  304TMC3    C4 4628   1.222   4.108  11.345 -0.3119 -0.6713 -0.7402
  304TMC3    C5 4629   1.109   4.063  11.414  0.0662 -0.1764 -0.2717
  304TMC3    C6 4630   0.986   4.114  11.379  0.5312  0.8414 -0.4585
  304TMC3     C 4631   1.314   4.191  11.140  0.1831 -0.2245  0.3601
  304TMC3     O 4632   1.276   4.203  11.027 -0.2555 -0.2337  0.0361
  304TMC3     H 4633   1.082   4.277  11.095  0.3852 -0.8564 -0.5110
  304TMC3    H1 4634   1.313   4.056  11.371  0.4594  0.1574 -1.7738
  304TMC3    H2 4635   0.899   4.071  11.426  0.1460 -1.1072 -2.9917
  304TMC3    C7 4636   1.115   3.914  11.415  0.0905 -0.2053 -0.9213
  304TMC3    C8 4637   0.839   4.183  11.205 -0.2140 -0.5085 -0.2424
  304TMC3    O1 4638   1.217   3.853  11.449  0.0383  0.2804 -0.2400
  304TMC3    O2 4639   0.780   4.086  11.255 -0.0691  0.2042  0.0428
  305MPD2     C 4640   0.219   1.248  14.342  0.9455  0.3510  0.5611
  305MPD2    C1 4641   0.211   1.105  14.350  0.1096 -0.0935  0.3684
  305MPD2    C2 4642   0.164   1.036  14.241  0.0548  0.4485 -0.0567
  305MPD2    C3 4643   0.134   1.099  14.124 -0.2221  0.7802  0.1330
  305MPD2    C4 4644   0.152   1.233  14.108 -0.4478  0.5541  0.6423
  305MPD2    C5 4645   0.178   1.309  14.224 -0.6923  0.1820  0.6185
  305MPD2     H 4646   0.177   0.928  14.246 -2.2162  0.2511  1.7703
  305MPD2    H1 4647   0.137   1.285  14.014 -0.0536  1.4761  1.0883
  305MPD2    H2 4648   0.252   1.308  14.426 -0.9555  2.1697  0.0034
  305MPD2    H3 4649   0.180   1.417  14.217 -0.0633  0.1625  0.4586
  305MPD2     N 4650   0.095   1.036  14.006 -0.2005 -0.1235  0.3792
  305MPD2    H5 4651   0.080   1.095  13.925 -0.3827 -0.1024  0.4297
  305MPD2    N1 4652   0.251   1.048  14.473  0.2942  0.2176  0.2144
  305MPD2    H7 4653   0.285   1.102  14.552  0.5217 -1.2647  1.1344
  306TMC3    C1 4654   0.306   0.898  14.643 -0.2139 -0.6869 -0.5605
  306TMC3    C2 4655   0.378   0.781  14.649  0.2742  0.2775  0.0630
  306TMC3    C3 4656   0.467   0.769  14.756 -0.0634 -0.7778 -0.2618
  306TMC3    C4 4657   0.314   1.001  14.732  0.0278 -0.3113  0.4378
  306TMC3    C5 4658   0.413   0.988  14.822  0.1140  0.2801 -0.0674
  306TMC3    C6 4659   0.492   0.874  14.843  0.0152  0.2224  0.3897
  306TMC3     C 4660   0.243   0.921  14.516 -0.4568 -0.4465  0.5301
  306TMC3     O 4661   0.190   0.825  14.458 -0.1529 -0.4035  0.6774
  306TMC3     H 4662   0.361   0.700  14.578 -0.3328  0.0801  0.4351
  306TMC3    H1 4663   0.245   1.085  14.731  0.0004 -0.3381 -1.2998
  306TMC3    H2 4664   0.570   0.867  14.918  0.4996  0.0696 -0.1293
  306TMC3    C7 4665   0.375   1.054  14.946 -0.4884  0.5202  0.4780
  306TMC3    C8 4666   0.507   0.627  14.783 -0.3553 -0.1444 -0.0086
  306TMC3    O1 4667   0.254   1.069  14.970  0.2243  0.5815  0.1761
  306TMC3    O2 4668   0.511   0.551  14.690  0.1793  0.7311 -0.8479
  307MPD2     C 4669   2.868   3.764   0.605 -0.5867 -0.3834  0.1184
  307MPD2    C1 4670   2.859   3.902   0.599  0.2129 -0.1627 -0.0396
  307MPD2    C2 4671   2.807   3.973   0.702 -0.5171  0.9140  0.2264
  307MPD2    C3 4672   2.731   3.912   0.796 -0.2703  0.1272  0.2186
  307MPD2    C4 4673   2.717   3.766   0.791 -0.1637 -0.3379 -0.1285
  307MPD2    C5 4674   2.802   3.701   0.709 -0.2332  0.7428  0.3218
  307MPD2     H 4675   2.815   4.081   0.706  2.4439  0.6954  0.1431
  307MPD2    H1 4676   2.665   3.699   0.859  0.9051 -2.6822 -1.6254
  307MPD2    H2 4677   2.928   3.708   0.534 -1.4545 -0.7199 -0.3422
  307MPD2    H3 4678   2.807   3.595   0.730  1.1642  0.5543 -1.0056
  307MPD2     N 4679   2.669   3.995   0.893 -0.0880  0.1217 -0.2347
  307MPD2    H5 4680   2.691   4.093   0.906  0.9094 -0.2198  0.6858
  307MPD2    N1 4681   2.904   3.979   0.490  0.2984  0.2258  0.9173
  307MPD2    H7 4682   2.889   4.079   0.498  0.8691  0.2913  1.1681
  308TMC3    C1 4683   2.334   4.120   1.183 -0.0016  0.3344  0.0493
  308TMC3    C2 4684   2.408   4.231   1.232 -0.2668 -0.0828 -0.2629
  308TMC3    C3 4685   2.539   4.239   1.187 -0.1974 -0.0073 -0.5984
  308TMC3    C4 4686   2.384   4.022   1.107  0.1215 -0.1619 -0.2011
  308TMC3    C5 4687   2.514   4.041   1.058 -0.2156 -0.5514 -0.1603
  308TMC3    C6 4688   2.600   4.146   1.106  0.2458 -0.1065  0.0590
  308TMC3     C 4689   2.200   4.106   1.242 -0.3724  0.8993  0.2559
  308TMC3     O 4690   2.173   4.008   1.308 -0.0332  0.1483  0.4701
  308TMC3     H 4691   2.381   4.296   1.315  2.1279 -0.1503  0.5756
  308TMC3    H1 4692   2.331   3.929   1.084  1.3221 -0.9871  0.4035
  308TMC3    H2 4693   2.705   4.164   1.082 -0.2844  0.5162 -1.8008
  308TMC3    C7 4694   2.575   3.939   0.976 -0.0148 -0.2063 -0.4693
  308TMC3    C8 4695   2.632   4.351   1.222  0.5629 -0.5039 -0.8155
  308TMC3    O1 4696   2.510   3.841   0.960 -0.0765  0.6396  0.6292
  308TMC3    O2 4697   2.739   4.317   1.271 -0.0104  0.4364 -0.2992
  309MPD2     C 4698   1.947   4.186  17.674 -0.5167 -0.0037  0.1163
  309MPD2    C1 4699   1.893   4.260  17.578  0.3213  0.1332  0.2196
  309MPD2    C2 4700   1.809   4.361  17.614  0.0107  0.2951  0.4826
  309MPD2    C3 4701   1.799   4.402  17.746 -0.0956 -0.4158  0.1326
  309MPD2    C4 4702   1.828   4.303   0.087 -0.1413 -0.1924  0.7041
  309MPD2    C5 4703   1.913   4.206   0.052 -0.0040 -0.5584  0.4128
  309MPD2     H 4704   1.762   4.426  17.542  0.5749  1.6053  1.2985
  309MPD2    H1 4705   1.803   4.327   0.190  0.1108  2.5381  0.1397
  309MPD2    H2 4706   2.016   4.108  17.645  0.1928  0.1909  1.2784
  309MPD2    H3 4707   1.968   4.144   0.122  1.5630 -1.8477 -1.9427
  309MPD2     N 4708   1.708   4.504   0.027  0.3983  0.5517 -0.5265
  309MPD2    H5 4709   1.650   4.494   0.111  0.2582  1.7023 -0.4955
  309MPD2    N1 4710   1.912   4.224  17.446  0.0343 -0.0911 -0.1551
  309MPD2    H7 4711   1.873   4.283  17.373 -0.8388  0.4657  0.7571
  310TMC3    C1 4712   1.956   4.098  17.256 -0.1869  0.2789 -0.1705
  310TMC3    C2 4713   1.855   4.155  17.180  0.8058 -0.4925 -0.1003
  310TMC3    C3 4714   1.867   4.147  17.042  1.1158 -0.2842 -0.1189
  310TMC3    C4 4715   2.061   4.032  17.199 -0.1700 -0.3905 -0.2988
  310TMC3    C5 4716   2.063   4.035  17.065 -0.9552  0.3763 -0.2781
  310TMC3    C6 4717   1.978   4.094  16.981 -0.1024 -0.1433 -0.0305
  310TMC3     C 4718   1.984   4.115  17.392  0.0872  0.0534  1.1377
  310TMC3     O 4719   2.057   4.034  17.443 -0.3646  0.3277  0.1500
  310TMC3     H 4720   1.760   4.169  17.231  0.4320  1.2045 -1.2717
  310TMC3    H1 4721   2.146   3.985  17.246 -0.0619 -1.1265 -1.2311
  310TMC3    H2 4722   1.978   4.078  16.874 -0.9788 -0.3300  0.0023
  310TMC3    C7 4723   2.183   3.974  17.018 -0.6837 -0.3723  0.4120
  310TMC3    C8 4724   1.782   4.223  16.951 -0.1491  0.3788  0.2943
  310TMC3    O1 4725   2.227   3.884  17.083  1.1063 -0.0282 -0.0753
  310TMC3    O2 4726   1.806   4.216  16.833 -0.0301 -0.5698  0.4899
  311MPD2     C 4727   3.885   0.501  13.111 -0.4294  0.0350 -0.1161
  311MPD2    C1 4728   3.895   0.625  13.174 -0.4693  0.0906 -0.3268
  311MPD2    C2 4729   3.786   0.681  13.237 -0.0443  0.1532 -0.3179
  311MPD2    C3 4730   3.659   0.629  13.211  0.4706  0.0191 -0.5180
  311MPD2    C4 4731   3.646   0.530  13.118 -0.4330 -0.0499 -0.8311
  311MPD2    C5 4732   3.757   0.458  13.083 -0.3298  0.0357  0.2238
  311MPD2     H 4733   3.796   0.773  13.293  0.6580 -0.3765  0.4323
  311MPD2    H1 4734   3.549   0.490  13.093 -1.7372  2.2921  0.5285
  311MPD2    H2 4735   3.975   0.452  13.078  0.8781  0.5326  2.7047
  311MPD2    H3 4736   3.734   0.380  13.011 -0.5190  2.7195 -2.6423
  311MPD2     N 4737   3.548   0.683  13.272 -0.0114  0.0706  0.2447
  311MPD2    H5 4738   3.463   0.652  13.225  0.4218 -0.1896 -0.3546
  311MPD2    N1 4739   4.024   0.696  13.191 -0.6595  0.4626 -0.0102
  311MPD2    H7 4740   4.023   0.759  13.270 -0.3811 -1.7869  1.8004
  312TMC3    C1 4741   3.404   0.813  13.406 -0.2358  0.4818  0.2378
  312TMC3    C2 4742   3.308   0.799  13.309 -0.2813  0.3778  0.0927
  312TMC3    C3 4743   3.191   0.867  13.320  0.0225  0.2212  0.0653
  312TMC3    C4 4744   3.383   0.889  13.517  0.1321  0.2684  0.2854
  312TMC3    C5 4745   3.264   0.954  13.523  0.1616 -0.3058 -0.6043
  312TMC3    C6 4746   3.165   0.942  13.430  0.1595 -0.6466 -0.1746
  312TMC3     C 4747   3.538   0.765  13.378  0.2463 -0.1512 -0.0260
  312TMC3     O 4748   3.626   0.798  13.456  0.6152 -0.1162  0.1248
  312TMC3     H 4749   3.320   0.741  13.218  1.2546 -1.8007  1.6916
  312TMC3    H1 4750   3.470   0.928  13.569 -0.2807  0.4995  0.7955
  312TMC3    H2 4751   3.069   0.983  13.457 -0.0410 -2.3442  1.7339
  312TMC3    C7 4752   3.228   1.034  13.638 -0.4548 -0.3264  0.3308
  312TMC3    C8 4753   3.082   0.782  13.295  0.3598  0.7735  0.2784
  312TMC3    O1 4754   3.131   1.107  13.635 -0.6006 -0.1221  0.2545
  312TMC3    O2 4755   3.114   0.668  13.291  0.4708  0.3915  0.1475
  313MPD2     C 4756   3.092   4.279  11.492  0.4179  0.2471 -0.0828
  313MPD2    C1 4757   3.162   4.396  11.471 -0.2929  0.4835 -0.4228
  313MPD2    C2 4758   3.245   4.402  11.361  0.2803  0.1476  0.0030
  313MPD2    C3 4759   3.266   4.300  11.271  0.2982 -0.4436 -0.2927
  313MPD2    C4 4760   3.200   4.182  11.301  0.5528  0.6326  0.5890
  313MPD2    C5 4761   3.112   4.178  11.408  0.3165 -0.4456  0.0061
  313MPD2     H 4762   3.293   4.497  11.340 -1.6899  1.3662  1.0610
  313MPD2    H1 4763   3.198   4.096  11.235 -1.5838  0.8425  0.3798
  313MPD2    H2 4764   3.019   4.269  11.571  1.9004 -1.0492  1.1350
  313MPD2    H3 4765   3.056   4.088  11.435  0.4388 -0.3437  0.6099
  313MPD2     N 4766   3.332   4.334  11.148  0.1697  0.3693 -0.3167
  313MPD2    H5 4767   3.351   4.433  11.136 -3.2411  1.1443  0.7058
  313MPD2    N1 4768   3.138   4.512  11.547  0.6917 -0.0740 -0.6205
  313MPD2    H7 4769   3.188   4.592  11.509 -0.9578  0.4162 -1.7597
  314TMC3    C1 4770   3.078   4.655  11.719 -0.3011 -1.1643 -0.0181
  314TMC3    C2 4771   3.192   4.733  11.704 -0.4271 -0.1155  0.4341
  314TMC3    C3 4772   3.180   0.127  11.737 -0.6175 -0.4668  0.2544
  314TMC3    C4 4773   2.963   4.708  11.768 -0.0893  0.3349 -0.6303
  314TMC3    C5 4774   2.964   0.104  11.800  1.1874  0.3744 -0.0668
  314TMC3    C6 4775   3.075   0.180  11.801  0.1677  0.2944 -0.6454
  314TMC3     C 4776   3.064   4.520  11.662 -0.1324 -0.1199 -0.1433
  314TMC3     O 4777   2.987   4.441  11.716  0.1840  0.0420 -0.4071
  314TMC3     H 4778   3.280   4.694  11.655 -0.8734 -1.4458  0.6650
  314TMC3    H1 4779   2.871   4.651  11.780  0.3874 -0.0671  1.1754
  314TMC3    H2 4780   3.071   0.277  11.849 -1.7530  1.0236 -2.3052
  314TMC3    C7 4781   2.842   0.175  11.775 -0.1611 -0.6507 -0.5229
  314TMC3    C8 4782   3.277   0.226  11.692  0.1967  0.6880 -0.2285
  314TMC3    O1 4783   2.735   0.121  11.781 -0.6009 -0.1560  0.5286
  314TMC3    O2 4784   3.243   0.344  11.688 -0.8113  0.6446  0.4173
  315MPD2     C 4785   3.219   4.249   0.654  0.2332 -0.4488 -0.1586
  315MPD2    C1 4786   3.298   4.147   0.605 -0.4550 -0.4703 -0.0004
  315MPD2    C2 4787   3.369   4.155   0.484  0.4520  0.3271  0.1753
  315MPD2    C3 4788   3.335   4.261   0.400 -0.3829  0.5678 -0.3305
  315MPD2    C4 4789   3.248   4.360   0.443  0.7775  0.3023 -1.0325
  315MPD2    C5 4790   3.194   4.352   0.567 -0.3062 -0.0215 -0.4591
  315MPD2     H 4791   3.444   4.083   0.455 -1.1097 -0.2843 -2.3650
  315MPD2    H1 4792   3.226   4.444   0.378 -0.4501  0.9034  0.1545
  315MPD2    H2 4793   3.192   4.258   0.759  1.1791  0.0226  0.0481
  315MPD2    H3 4794   3.132   4.438   0.593 -0.3727 -0.2133  0.0180
  315MPD2     N 4795   3.402   4.267   0.278 -0.7442 -0.3252 -0.5404
  315MPD2    H5 4796   3.479   4.203   0.259 -1.4580 -0.9328 -1.3812
  315MPD2    N1 4797   3.339   4.033   0.676  0.4922  0.3970  0.4018
  315MPD2    H7 4798   3.410   3.979   0.628  1.4978  0.0601  2.3009
  316TMC3    C1 4799   3.458   4.333   0.050  0.3316 -0.7803  0.4174
  316TMC3    C2 4800   3.591   4.342   0.072 -0.4285  0.1338 -0.2139
  316TMC3    C3 4801   3.674   4.420  17.747  0.1348 -0.0412 -0.0878
  316TMC3    C4 4802   3.403   4.400  17.694  0.5488  0.2929  0.3406
  316TMC3    C5 4803   3.485   4.482  17.622  0.1579  0.0952  0.9111
  316TMC3    C6 4804   3.618   4.495  17.651 -0.9869 -0.7183 -1.1476
  316TMC3     C 4805   3.368   4.345   0.170  0.0337 -0.3305 -0.6129
  316TMC3     O 4806   3.268   4.415   0.154  0.0542 -0.0929 -0.5041
  316TMC3     H 4807   3.627   4.303   0.167 -0.0318 -0.6715 -0.6866
  316TMC3    H1 4808   3.296   4.392  17.684  0.5350  1.0237 -0.1334
  316TMC3    H2 4809   3.666   4.570  17.590 -1.8712  0.9891  0.2680
  316TMC3    C7 4810   3.416   4.604  17.575 -0.3534  0.6673 -0.3335
  316TMC3    C8 4811   3.786   4.483   0.062  0.1893  0.4377  0.6250
  316TMC3    O1 4812   3.451   4.713  17.618 -0.2921  0.2957 -0.1042
  316TMC3    O2 4813   3.806   4.602   0.034 -0.0466  0.2058  0.0827
  317MPD2     C 4814   0.128   2.620  13.614  0.3680  0.3978 -0.1508
  317MPD2    C1 4815   0.222   2.581  13.521  0.5421 -0.1056  0.1725
  317MPD2    C2 4816   0.337   2.524  13.565 -0.2988 -0.2897 -0.0405
  317MPD2    C3 4817   0.360   2.503  13.696  0.7387 -0.4158 -0.1928
  317MPD2    C4 4818   0.263   2.541  13.791  0.1626 -0.4014  0.9788
  317MPD2    C5 4819   0.146   2.599  13.746  0.1170  0.3130 -0.2268
  317MPD2     H 4820   0.420   2.505  13.498 -0.0572  1.3257 -0.1945
  317MPD2    H1 4821   0.281   2.536  13.898  0.7926  0.7151  0.9242
  317MPD2    H2 4822   0.024   2.645  13.594 -0.0151 -0.2204  1.0967
  317MPD2    H3 4823   0.074   2.643  13.815 -0.6926 -1.0790 -0.1857
  317MPD2     N 4824   0.474   2.434  13.739 -0.4963 -0.5841  0.3648
  317MPD2    H5 4825   0.518   2.386  13.660 -0.7879 -1.0091  0.4610
  317MPD2    N1 4826   0.204   2.619  13.383 -0.0323  0.1773  0.4446
  317MPD2    H7 4827   0.283   2.595  13.324 -0.5549  2.9288 -1.3874
  318TMC3    C1 4828   0.631   2.324  13.885 -0.3975 -0.3052 -0.0355
  318TMC3    C2 4829   0.613   2.205  13.819 -0.2569  0.3802  0.1617
  318TMC3    C3 4830   0.664   2.098  13.877  0.2037  0.3754  0.0629
  318TMC3    C4 4831   0.708   2.329  14.000 -0.9073  0.3217 -0.3542
  318TMC3    C5 4832   0.769   2.212  14.039 -0.3395  0.3912 -0.4691
  318TMC3    C6 4833   0.754   2.097  13.978  0.7691 -0.6573 -0.5821
  318TMC3     C 4834   0.530   2.425  13.866 -0.1369 -0.5698 -0.2328
  318TMC3     O 4835   0.489   2.471  13.969  0.6610  0.0193  0.0849
  318TMC3     H 4836   0.550   2.198  13.731  1.4586 -0.2181 -1.0337
  318TMC3    H1 4837   0.721   2.417  14.062 -0.6081 -0.1309  0.2221
  318TMC3    H2 4838   0.767   2.000  14.025  0.0597 -0.6077 -0.2928
  318TMC3    C7 4839   0.848   2.211  14.168 -0.2709 -0.3697  0.6464
  318TMC3    C8 4840   0.619   1.966  13.833  0.1847  0.0674 -1.0249
  318TMC3    O1 4841   0.853   2.319  14.225  0.6058 -0.0750 -0.1852
  318TMC3    O2 4842   0.689   1.868  13.858  0.7479  0.0118  0.2905
  319MPD2     C 4843   1.417   3.668  16.848 -0.3253 -0.9386 -0.0698
  319MPD2    C1 4844   1.297   3.663  16.922  0.0779  0.2385  0.3414
  319MPD2    C2 4845   1.188   3.600  16.869  0.1478  0.5504 -0.4731
  319MPD2    C3 4846   1.183   3.560  16.741  0.5696 -0.5305 -0.0505
  319MPD2    C4 4847   1.297   3.566  16.662  0.9351  0.7800  0.0016
  319MPD2    C5 4848   1.417   3.606  16.726 -0.5639 -0.0290 -0.1880
  319MPD2     H 4849   1.096   3.605  16.927 -1.6511 -1.4099 -3.1501
  319MPD2    H1 4850   1.308   3.536  16.559  0.0577  2.4129 -0.5593
  319MPD2    H2 4851   1.503   3.722  16.887  0.0120 -2.0638  0.7268
  319MPD2    H3 4852   1.503   3.607  16.660 -0.4837 -0.9802 -0.0971
  319MPD2     N 4853   1.065   3.520  16.675  0.0942  0.5609 -0.4267
  319MPD2    H5 4854   1.072   3.506  16.575  1.9398 -2.4249  0.1064
  319MPD2    N1 4855   1.281   3.727  17.049  0.0707 -0.0078  0.7476
  319MPD2    H7 4856   1.184   3.743  17.076  0.0520  2.2325 -0.6630
  320TMC3    C1 4857   0.852   3.450  16.644 -0.0283 -0.2510 -0.1862
  320TMC3    C2 4858   0.806   3.551  16.564  0.5496  0.1513 -0.4034
  320TMC3    C3 4859   0.739   3.512  16.456 -0.0219 -0.3237  0.3170
  320TMC3    C4 4860   0.836   3.320  16.628  0.6156 -0.2078  0.1782
  320TMC3    C5 4861   0.778   3.281  16.510 -0.2037  0.2592  0.2989
  320TMC3    C6 4862   0.725   3.375  16.423 -0.6474 -0.1726 -0.3216
  320TMC3     C 4863   0.951   3.495  16.741 -0.1057 -0.9276  0.7932
  320TMC3     O 4864   0.936   3.474  16.860 -0.3284 -0.6352  0.1332
  320TMC3     H 4865   0.822   3.654  16.594  0.5421  0.1196 -0.2902
  320TMC3    H1 4866   0.863   3.249  16.705  2.2428 -0.3130 -0.4930
  320TMC3    H2 4867   0.655   3.342  16.347 -0.6920 -0.5472 -0.1129
  320TMC3    C7 4868   0.732   3.142  16.481  0.6264  0.4296  0.3522
  320TMC3    C8 4869   0.666   3.616  16.376 -0.4385 -0.6055  0.4001
  320TMC3    O1 4870   0.694   3.125  16.367  0.0230  0.7707 -0.1561
  320TMC3    O2 4871   0.634   3.722  16.428  0.9373  0.3264 -0.1180
  321TMC3    C1 4872   1.311   3.889  17.213  0.3023  0.0109  0.7761
  321TMC3    C2 4873   1.198   3.843  17.280 -0.9025  0.4764 -0.1400
  321TMC3    C3 4874   1.116   3.931  17.350 -0.4768  0.1804 -0.1939
  321TMC3    C4 4875   1.339   4.022  17.219  0.4923  0.8190 -0.9480
  321TMC3    C5 4876   1.253   4.108  17.285  0.5646 -0.0816 -0.4702
  321TMC3    C6 4877   1.135   4.064  17.342  0.0474  1.4269 -0.1270
  321TMC3     C 4878   1.363   3.821  17.101  0.4471 -0.3124  0.6882
  321TMC3     O 4879   1.471   3.863  17.063  0.1587 -0.2959  0.0634
  321TMC3     H 4880   1.167   3.739  17.281 -0.7582  0.4438  2.3603
  321TMC3    H1 4881   1.420   4.063  17.160 -1.5006  1.5094 -3.2080
  321TMC3    H2 4882   1.065   4.132  17.389 -0.8419  1.4395 -1.4683
  321TMC3    C7 4883   1.315   4.216  17.349 -0.5536  0.4545 -0.2612
  321TMC3    C8 4884   1.077   3.889  17.483 -0.5312  0.3886  0.3038
  321TMC3    O1 4885   1.436   4.217  17.353  0.4013  0.4564 -0.0889
  321TMC3    O2 4886   1.036   3.973  17.562 -0.2389  0.4503  0.4905
  322MPD2     C 4887   0.412   0.097  13.627 -0.9077  0.1710 -0.3650
  322MPD2    C1 4888   0.332   0.044  13.725  0.7508  0.4250 -0.5574
  322MPD2    C2 4889   0.252   4.672  13.693 -0.3640  0.5348  0.7309
  322MPD2    C3 4890   0.275   4.602  13.576 -0.2850  0.7357 -0.3708
  322MPD2    C4 4891   0.364   4.656  13.487  0.3536  0.2035  0.5008
  322MPD2    C5 4892   0.425   0.036  13.508  0.1474  0.4946  0.2651
  322MPD2     H 4893   0.173   4.631  13.755 -0.7077  0.2538  0.1055
  322MPD2    H1 4894   0.374   4.613  13.388  0.2968  1.7903 -0.1963
  322MPD2    H2 4895   0.474   0.183  13.647  0.5444 -1.1381  0.7548
  322MPD2    H3 4896   0.485   0.081  13.430  0.2431 -0.2144 -0.0683
  322MPD2     N 4897   0.224   4.465  13.565 -0.0979 -0.1294 -0.4729
  322MPD2    H5 4898   0.161   4.429  13.636 -0.3917  0.5861 -0.3737
  322MPD2    N1 4899   0.328   0.109  13.854 -0.2586 -0.2582 -0.3898
  322MPD2    H7 4900   0.396   0.181  13.877 -0.7496 -0.1646  0.7771
  323TMC3    C1 4901   0.283   0.170  14.075  0.3835  0.2142 -0.0753
  323TMC3    C2 4902   0.326   0.302  14.055 -0.0546 -0.1296 -0.0881
  323TMC3    C3 4903   0.370   0.362  14.171 -0.0827  0.4244 -0.0705
  323TMC3    C4 4904   0.289   0.115  14.194 -0.5305 -0.5179 -0.1861
  323TMC3    C5 4905   0.336   0.178  14.303 -0.3462 -0.8529 -0.2597
  323TMC3    C6 4906   0.381   0.302  14.298  0.8750 -0.5239 -0.0520
  323TMC3     C 4907   0.248   0.085  13.961  0.1793  0.3538  0.2502
  323TMC3     O 4908   0.172   4.730  13.980 -0.4137 -0.5196 -0.7354
  323TMC3     H 4909   0.300   0.349  13.961 -3.6909 -2.4245 -0.2256
  323TMC3    H1 4910   0.242   0.018  14.207  2.3288 -1.6933  1.2874
  323TMC3    H2 4911   0.435   0.337  14.385  0.9723  0.4123 -0.4855
  323TMC3    C7 4912   0.377   0.097  14.412 -0.2898  0.1188  0.3386
  323TMC3    C8 4913   0.462   0.475  14.155 -0.2852 -0.0382  0.1693
  323TMC3    O1 4914   0.370   4.716  14.391  0.9206 -1.4430  0.4549
  323TMC3    O2 4915   0.557   0.485  14.234  0.0460  0.0600  0.4978
  324MPD2     C 4916   1.796   1.105  14.797 -0.3554 -0.4687 -0.1420
  324MPD2    C1 4917   1.747   1.222  14.845 -0.1527 -0.0646  0.2998
  324MPD2    C2 4918   1.612   1.250  14.819  0.2552  0.4093  0.6542
  324MPD2    C3 4919   1.524   1.162  14.750 -0.2223  1.0485 -0.1894
  324MPD2    C4 4920   1.577   1.040  14.707 -0.5858  0.2429  0.0171
  324MPD2    C5 4921   1.717   1.013  14.722  0.4390  0.1212  0.0595
  324MPD2     H 4922   1.570   1.341  14.862  1.9833  2.3238 -1.7572
  324MPD2    H1 4923   1.510   0.967  14.665  1.3913 -0.3161 -2.1889
  324MPD2    H2 4924   1.901   1.081  14.812 -0.0528 -1.1458 -3.3525
  324MPD2    H3 4925   1.768   0.924  14.686 -0.5561 -0.0690 -0.8533
  324MPD2     N 4926   1.393   1.198  14.724 -0.2891  0.0479 -0.4236
  324MPD2    H5 4927   1.356   1.279  14.772 -0.9482 -0.1337 -0.6194
  324MPD2    N1 4928   1.819   1.320  14.918 -0.4519  0.7599  0.2017
  324MPD2    H7 4929   1.770   1.407  14.941 -1.0647  0.6760 -0.8057
  325TMC3    C1 4930   1.170   1.171  14.621 -0.3877 -0.0586 -0.2869
  325TMC3    C2 4931   1.104   1.139  14.504 -0.0122 -0.4774  0.0009
  325TMC3    C3 4932   0.980   1.197  14.483 -0.3488  0.7175  0.3818
  325TMC3    C4 4933   1.110   1.232  14.723  0.7143  0.2786  0.8812
  325TMC3    C5 4934   0.984   1.279  14.699  0.7449 -0.4492 -0.2861
  325TMC3    C6 4935   0.919   1.266  14.579  0.5122  0.0253 -0.7155
  325TMC3     C 4936   1.309   1.125  14.629  0.0813  0.4156 -0.5848
  325TMC3     O 4937   1.341   1.049  14.538 -0.6073  0.3315 -0.2542
  325TMC3     H 4938   1.148   1.093  14.417 -2.2734 -1.2336 -0.7296
  325TMC3    H1 4939   1.174   1.254  14.808  1.3252  0.9485  0.2490
  325TMC3    H2 4940   0.820   1.310  14.573  0.3788 -0.0949  0.5894
  325TMC3    C7 4941   0.925   1.367  14.800 -0.4301 -0.4123 -0.5581
  325TMC3    C8 4942   0.920   1.176  14.346 -0.4306  0.4487  0.0200
  325TMC3    O1 4943   0.843   1.445  14.749 -0.3107  0.1992  0.0633
  325TMC3    O2 4944   0.996   1.147  14.253 -0.1211  0.5074  0.2626
  326MPD2     C 4945   2.713   2.304  11.425  0.2066  0.4445  0.4671
  326MPD2    C1 4946   2.766   2.295  11.302  0.3729 -0.7826  0.4006
  326MPD2    C2 4947   2.907   2.305  11.297 -1.1146  0.4252 -0.4395
  326MPD2    C3 4948   2.991   2.301  11.409  0.1434  0.2912 -0.4276
  326MPD2    C4 4949   2.933   2.306  11.534 -0.2356 -0.6724 -0.3982
  326MPD2    C5 4950   2.796   2.304  11.538 -0.5610  0.0832  0.0765
  326MPD2     H 4951   2.952   2.330  11.201  0.3459 -0.2787  0.0536
  326MPD2    H1 4952   2.986   2.313  11.628 -0.4678 -1.6980 -0.1896
  326MPD2    H2 4953   2.606   2.292  11.435  0.0680  2.4164  1.3043
  326MPD2    H3 4954   2.751   2.300  11.636  0.2691  2.6812  0.5509
  326MPD2     N 4955   3.128   2.307  11.400 -0.1792  0.1994  0.4851
  326MPD2    H5 4956   3.183   2.340  11.479  0.5806 -0.5583  0.2695
  326MPD2    N1 4957   2.704   2.282  11.174 -0.7240 -0.1760  0.2010
  326MPD2    H7 4958   2.765   2.260  11.096 -1.5980 -0.5288 -0.3868
  327TMC3    C1 4959   2.573   2.352  11.003 -0.4443 -0.1925  0.1749
  327TMC3    C2 4960   2.490   2.456  10.957  0.1309  0.1466  0.5362
  327TMC3    C3 4961   2.491   2.487  10.824  0.1107 -0.4551 -0.6631
  327TMC3    C4 4962   2.644   2.278  10.910  0.0625 -0.3974  0.2185
  327TMC3    C5 4963   2.657   2.323  10.779 -0.4755 -0.2730  0.5756
  327TMC3    C6 4964   2.583   2.427  10.737  0.3143  0.4924  0.1682
  327TMC3     C 4965   2.582   2.341  11.142 -0.3498  0.1385 -0.0437
  327TMC3     O 4966   2.502   2.399  11.214 -0.3959 -0.2581  0.9095
  327TMC3     H 4967   2.435   2.509  11.033 -0.1304  1.0085 -0.2447
  327TMC3    H1 4968   2.691   2.185  10.940  0.9706 -0.5200 -1.5655
  327TMC3    H2 4969   2.589   2.464  10.635  1.1718  0.4941  0.2224
  327TMC3    C7 4970   2.778   2.287  10.701  0.6090  0.3660 -0.2562
  327TMC3    C8 4971   2.445   2.615  10.778  1.0706  0.0049 -0.6861
  327TMC3    O1 4972   2.781   2.333  10.588  0.1156 -0.0878 -0.0941
  327TMC3    O2 4973   2.511   2.671  10.691 -0.1317 -0.1366 -0.1945
  328MPD2     C 4974   0.818   2.698  17.427  0.0676  0.5304 -0.1060
  328MPD2    C1 4975   0.683   2.671  17.404 -0.2584 -0.1064 -0.5716
  328MPD2    C2 4976   0.617   2.768  17.333 -0.9154 -0.3205  0.4817
  328MPD2    C3 4977   0.670   2.895  17.302  0.1544 -0.3028  0.8268
  328MPD2    C4 4978   0.793   2.924  17.363  0.0383  0.0917  0.7632
  328MPD2    C5 4979   0.865   2.824  17.411  0.1122  0.4327 -0.5271
  328MPD2     H 4980   0.518   2.738  17.300 -0.5104  0.5136 -1.5242
  328MPD2    H1 4981   0.849   3.017  17.356 -1.6416  1.0851  0.6230
  328MPD2    H2 4982   0.885   2.625  17.469 -1.0825 -0.1548  0.5292
  328MPD2    H3 4983   0.970   2.840  17.432  0.9362 -1.3861 -3.2822
  328MPD2     N 4984   0.610   2.985  17.210 -0.2245  0.5126  0.0424
  328MPD2    H5 4985   0.657   3.073  17.190  2.0507 -0.2521  2.0589
  328MPD2    N1 4986   0.630   2.536  17.425  0.4010  0.4656  0.5788
  328MPD2    H7 4987   0.694   2.461  17.452  1.0754  1.1704  0.9537
  329TMC3    C1 4988   0.472   2.360  17.465 -1.0947 -0.5159  0.1858
  329TMC3    C2 4989   0.337   2.352  17.493 -0.5807  0.5736 -0.5924
  329TMC3    C3 4990   0.271   2.229  17.477  0.1795  0.1672  1.1257
  329TMC3    C4 4991   0.527   2.254  17.397 -0.3066 -0.6504 -0.0055
  329TMC3    C5 4992   0.458   2.135  17.394 -0.4125 -0.4051  0.2994
  329TMC3    C6 4993   0.328   2.119  17.433  0.1089  0.3792 -0.1033
  329TMC3     C 4994   0.503   2.496  17.407  0.0984  0.2984 -0.0693
  329TMC3     O 4995   0.408   2.568  17.389 -0.1813  0.2699  0.2512
  329TMC3     H 4996   0.280   2.441  17.517 -1.0807 -0.2517  1.2536
  329TMC3    H1 4997   0.631   2.253  17.366  0.1814 -1.1869  1.6492
  329TMC3    H2 4998   0.266   2.036  17.401 -0.1206  0.8083 -0.7752
  329TMC3    C7 4999   0.507   2.028  17.323  0.5907 -0.1818 -0.0990
  329TMC3    C8 5000   0.126   2.234  17.472 -0.0405 -0.8393 -0.1701
  329TMC3    O1 5001   0.583   2.068  17.235 -0.2382 -0.5281  0.4940
  329TMC3    O2 5002   0.083   2.176  17.374 -0.2651  0.3318 -0.0392
  330TMC3    C1 5003   3.483   1.405   9.974 -0.8350  0.7324  0.1625
  330TMC3    C2 5004   3.438   1.280  10.000 -0.5835 -0.2708  0.5142
  330TMC3    C3 5005   3.533   1.184  10.010  0.0971  0.1807  0.0639
  330TMC3    C4 5006   3.613   1.446   9.951  0.4161  0.0348  0.7522
  330TMC3    C5 5007   3.702   1.342   9.965  0.3531 -0.5636 -0.5412
  330TMC3    C6 5008   3.662   1.210   9.987  0.3810  0.3537  0.3856
  330TMC3     C 5009   3.380   1.509   9.985  0.2143  0.3533  0.4634
  330TMC3     O 5010   3.421   1.616  10.025  0.4953 -0.9873  0.5067
  330TMC3     H 5011   3.331   1.269  10.008 -0.6269  0.8701  1.3895
  330TMC3    H1 5012   3.642   1.550   9.939 -0.4684  0.5719  3.2493
  330TMC3    H2 5013   3.730   1.127  10.000 -1.6035 -1.5807 -1.6144
  330TMC3    C7 5014   3.842   1.355   9.954 -0.4716 -0.4833  0.3355
  330TMC3    C8 5015   3.520   1.095  10.127 -0.4138  1.0129 -0.6647
  330TMC3    O1 5016   3.912   1.258   9.967  0.6413  0.1684 -0.5529
  330TMC3    O2 5017   3.620   1.039  10.174  0.0623  0.6989  0.4723
  331MPD2     C 5018   1.075   0.077  13.186  0.7988 -0.4494  1.1254
  331MPD2    C1 5019   1.163   0.173  13.133 -0.0192  0.1866  0.5454
  331MPD2    C2 5020   1.250   0.132  13.031  0.4128 -0.2241  0.3351
  331MPD2    C3 5021   1.248   0.007  12.980 -0.4121  0.3179 -0.7343
  331MPD2    C4 5022   1.157   4.653  13.029  0.3401  0.4952  0.1590
  331MPD2    C5 5023   1.076   4.692  13.133  0.2414 -0.2690 -1.2556
  331MPD2     H 5024   1.320   0.203  12.986 -1.8972  1.4216 -0.6520
  331MPD2    H1 5025   1.154   4.549  12.998  2.9700  0.5408 -0.2519
  331MPD2    H2 5026   1.016   0.090  13.276  0.7032 -0.3576  1.0489
  331MPD2    H3 5027   1.017   4.614  13.180 -0.2226  1.9641  1.8823
  331MPD2     N 5028   1.354   4.708  12.882  0.4948 -0.4376 -0.2552
  331MPD2    H5 5029   1.408   0.045  12.841 -0.9396  0.3453 -0.6746
  331MPD2    N1 5030   1.164   0.299  13.193  0.1329  0.6675  0.3611
  331MPD2    H7 5031   1.093   0.332  13.257 -0.8391 -0.7694  0.0334
  332TMC3    C1 5032   1.523   4.569  12.783  0.5609 -0.0611 -0.6265
  332TMC3    C2 5033   1.557   4.676  12.710 -0.3999 -0.1860  0.2448
  332TMC3    C3 5034   1.684   4.685  12.661  0.3147 -0.1685  0.6201
  332TMC3    C4 5035   1.614   4.473  12.818 -0.3584  0.4323 -0.2111
  332TMC3    C5 5036   1.742   4.490  12.778 -0.5299 -0.3111 -0.5197
  332TMC3    C6 5037   1.777   4.595  12.695  0.2357 -0.2690  0.2403
  332TMC3     C 5038   1.398   4.578  12.853  0.0395 -0.6830  0.4695
  332TMC3     O 5039   1.370   4.479  12.916 -0.2540  0.4536  0.5582
  332TMC3     H 5040   1.485   0.009  12.672 -0.9427 -0.0288  1.5396
  332TMC3    H1 5041   1.578   4.378  12.856 -0.6780  0.4123 -0.5655
  332TMC3    H2 5042   1.872   4.601  12.642  1.9866  1.7296  3.5782
  332TMC3    C7 5043   1.841   4.413  12.843 -0.2018 -0.0030  0.3584
  332TMC3    C8 5044   1.729   0.083  12.656  0.0975 -0.0313 -0.2496
  332TMC3    O1 5045   1.811   4.302  12.884 -0.4127 -0.1596  0.0034
  332TMC3    O2 5046   1.832   0.097  12.726 -0.1723 -0.2189 -0.0790
  333MPD2     C 5047   1.198   1.121  11.802 -0.6863  0.5373 -0.2289
  333MPD2    C1 5048   1.292   1.061  11.718  0.1267  0.0446 -0.9845
  333MPD2    C2 5049   1.334   0.931  11.754 -0.0889  0.1026  0.0423
  333MPD2    C3 5050   1.285   0.867  11.870  0.4137 -0.1266 -0.2437
  333MPD2    C4 5051   1.184   0.926  11.945 -1.0420  0.0924 -0.3414
  333MPD2    C5 5052   1.141   1.057  11.912 -0.0409 -0.1650 -0.2814
  333MPD2     H 5053   1.412   0.883  11.697 -1.7220  0.8234 -2.7795
  333MPD2    H1 5054   1.134   0.873  12.025  0.8726  1.3601  1.6482
  333MPD2    H2 5055   1.164   1.218  11.766 -0.4427  0.2640 -1.1898
  333MPD2    H3 5056   1.063   1.102  11.972  0.2666 -0.0374  0.0203
  333MPD2     N 5057   1.332   0.738  11.893  0.9956  0.3464 -0.5421
  333MPD2    H5 5058   1.403   0.698  11.833 -2.2634 -0.0870 -4.1504
  333MPD2    N1 5059   1.340   1.123  11.599  0.6010  0.0200 -0.2402
  333MPD2    H7 5060   1.328   1.223  11.589  0.8929  0.0787  0.0158
  334TMC3    C1 5061   1.439   1.147  11.385  0.3427  0.3896 -0.3416
  334TMC3    C2 5062   1.543   1.091  11.308  0.3286 -0.1338 -0.3540
  334TMC3    C3 5063   1.634   1.172  11.250  0.6388  0.1134  0.0661
  334TMC3    C4 5064   1.428   1.285  11.388 -0.1061  0.6849  0.8169
  334TMC3    C5 5065   1.521   1.360  11.328  0.5355  0.0465  0.3080
  334TMC3    C6 5066   1.632   1.307  11.265  0.3990 -0.3792  0.5563
  334TMC3     C 5067   1.395   1.054  11.487  0.1694  1.0291 -1.3817
  334TMC3     O 5068   1.426   0.938  11.475  0.7187  0.3730 -0.0387
  334TMC3     H 5069   1.562   0.984  11.304  1.3178  0.0388 -0.2876
  334TMC3    H1 5070   1.343   1.333  11.434 -1.0167  0.7571 -0.9226
  334TMC3    H2 5071   1.703   1.369  11.211  1.4343 -1.0921  1.1057
  334TMC3    C7 5072   1.514   1.508  11.341  0.6051 -0.3508  0.1813
  334TMC3    C8 5073   1.748   1.105  11.196  0.2333  0.0143  0.4545
  334TMC3    O1 5074   1.593   1.567  11.268  0.2624  0.1183  0.2944
  334TMC3    O2 5075   1.730   0.988  11.159  0.1875 -0.6617 -0.5902
  335TMC3    C1 5076   1.327   2.714  17.438  0.3673  0.6074  0.2885
  335TMC3    C2 5077   1.259   2.669  17.332 -1.0790 -0.3691 -0.2152
  335TMC3    C3 5078   1.330   2.635  17.222  0.2814  0.6795 -0.5860
  335TMC3    C4 5079   1.458   2.742  17.444 -0.2165  0.2052 -0.2973
  335TMC3    C5 5080   1.527   2.710  17.335 -0.7758  0.8169  0.0276
  335TMC3    C6 5081   1.468   2.658  17.221  0.4974 -0.4519 -0.0110
  335TMC3     C 5082   1.250   2.752  17.555  0.8379 -0.0367  0.2022
  335TMC3     O 5083   1.160   2.677  17.590  0.5915  0.6123 -0.1003
  335TMC3     H 5084   1.155   2.642  17.349 -0.0875 -2.6310  2.2810
  335TMC3    H1 5085   1.491   2.775  17.542  1.3558  0.9990 -1.1022
  335TMC3    H2 5086   1.519   2.635  17.128 -0.5155 -0.2508 -0.6192
  335TMC3    C7 5087   1.670   2.692  17.336  0.3093  0.1226 -0.2631
  335TMC3    C8 5088   1.287   2.522  17.145  0.0108  0.2452  0.8580
  335TMC3    O1 5089   1.720   2.658  17.229 -0.0496  0.3461 -0.5420
  335TMC3    O2 5090   1.348   2.507  17.043 -0.7886  0.0371 -0.7217
  336MPD2     C 5091   0.871   4.730  16.375  0.0948 -0.1835  0.6353
  336MPD2    C1 5092   0.824   4.644  16.279  0.6509 -0.2599  0.2340
  336MPD2    C2 5093   0.824   4.505  16.305 -0.4681 -0.3813 -0.1117
  336MPD2    C3 5094   0.877   4.456  16.423  0.0435  0.2461 -0.0759
  336MPD2    C4 5095   0.926   4.542  16.521  0.2542 -0.8665 -0.3397
  336MPD2    C5 5096   0.913   4.681  16.498 -0.1111 -0.3181  0.2442
  336MPD2     H 5097   0.785   4.437  16.231 -1.5459 -0.9434  0.9581
  336MPD2    H1 5098   0.978   4.511  16.610  1.4744  1.9582 -0.0803
  336MPD2    H2 5099   0.865   0.099  16.370  0.2868 -0.2436 -0.8459
  336MPD2    H3 5100   0.950   0.007  16.577  1.3405 -0.3176 -0.4452
  336MPD2     N 5101   0.879   4.320  16.459  0.2562  0.1769  0.2274
  336MPD2    H5 5102   0.894   4.293  16.555  0.3784 -1.2834 -0.1959
  336MPD2    N1 5103   0.771   4.695  16.160 -0.0528  0.1110 -0.4506
  336MPD2    H7 5104   0.710   4.636  16.104  1.3992 -1.5092 -0.3455
  337TMC3    C1 5105   0.684   0.103  16.009 -0.2656 -0.1887 -1.2299
  337TMC3    C2 5106   0.595   4.738  15.973  0.0413  0.5936 -0.2625
  337TMC3    C3 5107   0.518   0.041  15.863  0.8336  0.0531  0.1670
  337TMC3    C4 5108   0.671   0.229  15.958 -0.7245  1.0444  0.2328
  337TMC3    C5 5109   0.575   0.260  15.865  0.2522  0.9017  0.8123
  337TMC3    C6 5110   0.493   0.168  15.819  0.0909  0.1238  0.3146
  337TMC3     C 5111   0.780   0.086  16.110 -0.3060 -0.9207 -0.9459
  337TMC3     O 5112   0.872   0.161  16.123 -0.0811  0.0690 -0.9406
  337TMC3     H 5113   0.607   4.635  16.003  1.1326  1.0461  0.8728
  337TMC3    H1 5114   0.744   0.302  15.991  0.5321 -0.6267  1.1505
  337TMC3    H2 5115   0.407   0.194  15.758  0.0143  0.8680  0.7472
  337TMC3    C7 5116   0.542   0.398  15.833 -0.4020 -0.6361  0.1967
  337TMC3    C8 5117   0.417   4.682  15.820  0.1809 -0.1072 -0.3915
  337TMC3    O1 5118   0.577   0.477  15.919 -0.7489  0.5183 -0.4627
  337TMC3    O2 5119   0.402   4.588  15.898  0.0105  0.2792  0.8589
  338MPD2     C 5120   0.940   0.177   1.345 -0.1250 -0.2171  0.3052
  338MPD2    C1 5121   0.981   0.114   1.230 -0.8021  0.2810 -0.2830
  338MPD2    C2 5122   0.878   0.086   1.134 -0.3396  0.2173 -0.1701
  338MPD2    C3 5123   0.746   0.118   1.151  0.4486  0.3192 -0.0081
  338MPD2    C4 5124   0.713   0.160   1.277 -0.3024  0.0537  0.5014
  338MPD2    C5 5125   0.807   0.194   1.366 -0.0411 -0.5310  0.5814
  338MPD2     H 5126   0.919   0.051   1.041 -1.8926  1.0055 -1.1642
  338MPD2    H1 5127   0.611   0.167   1.312 -1.0125  0.0842 -1.5934
  338MPD2    H2 5128   1.001   0.206   1.430  1.0850 -1.1350 -0.2422
  338MPD2    H3 5129   0.779   0.235   1.462  0.6042 -0.2744  0.6630
  338MPD2     N 5130   0.665   0.103   1.036 -0.2510  1.1789 -0.6446
  338MPD2    H5 5131   0.716   0.067   0.957  1.5742  0.4563  0.8654
  338MPD2    N1 5132   1.117   0.076   1.210 -0.0125 -0.2552 -0.1640
  338MPD2    H7 5133   1.126   0.033   1.119  1.0205 -1.0746  0.3316
  339TMC3    C1 5134   0.493   0.111   0.893  0.4264  0.0530  0.8419
  339TMC3    C2 5135   0.512   4.721   0.853  0.0465  0.5354 -0.4853
  339TMC3    C3 5136   0.590   4.696   0.740  0.8738 -0.0667 -0.1369
  339TMC3    C4 5137   0.541   0.210   0.812 -0.4177 -0.5018 -0.6455
  339TMC3    C5 5138   0.616   0.178   0.702  0.0997 -0.8336  0.1352
  339TMC3    C6 5139   0.635   0.055   0.651 -0.5562 -0.2962  0.1839
  339TMC3     C 5140   0.529   0.114   1.034 -1.0656  0.0381 -0.3274
  339TMC3     O 5141   0.446   0.141   1.117 -0.2719  0.4162  0.2057
  339TMC3     H 5142   0.477   4.648   0.925 -0.7062  1.0411 -0.3475
  339TMC3    H1 5143   0.531   0.315   0.834  1.2000 -0.4706 -0.0009
  339TMC3    H2 5144   0.712   0.024   0.582 -0.9856 -1.3612  0.1910
  339TMC3    C7 5145   0.697   0.279   0.637 -0.3275  0.1069 -0.1627
  339TMC3    C8 5146   0.697   4.610   0.787 -0.0572  0.6855 -0.3401
  339TMC3    O1 5147   0.737   0.371   0.710  0.5832 -0.4038 -0.3316
  339TMC3    O2 5148   0.806   4.661   0.765 -0.4187  0.0454 -0.4848
  340MPD2     C 5149   1.093   2.328   9.947 -0.1694 -0.8354 -0.1479
  340MPD2    C1 5150   1.064   2.210  10.013 -0.6045  0.3181 -0.3131
  340MPD2    C2 5151   1.032   2.218  10.151 -0.2845 -0.2360 -0.4158
  340MPD2    C3 5152   1.046   2.332  10.226  0.0663 -0.2439  0.3955
  340MPD2    C4 5153   1.063   2.446  10.155  0.6394 -0.5074  0.4517
  340MPD2    C5 5154   1.089   2.442  10.022  0.3409  0.1027  0.2563
  340MPD2     H 5155   0.994   2.123  10.186 -2.2458  0.2087 -1.3723
  340MPD2    H1 5156   1.068   2.538  10.213 -0.8879  0.3017 -0.6687
  340MPD2    H2 5157   1.128   2.324   9.845  0.4336 -0.9663  0.0634
  340MPD2    H3 5158   1.119   2.532   9.971 -1.1960  0.3886 -0.1227
  340MPD2     N 5159   1.064   2.328  10.370 -0.2867 -0.0599 -0.7597
  340MPD2    H5 5160   1.076   2.416  10.420  1.0888 -0.3939 -0.4883
  340MPD2    N1 5161   1.094   2.087   9.948  0.0514 -0.0538  0.5475
  340MPD2    H7 5162   1.097   2.078   9.847  1.3583  0.7039  0.5101
  341TMC3    C1 5163   1.188   1.884   9.915 -1.1342  0.4446 -1.2972
  341TMC3    C2 5164   1.156   1.748   9.912  0.1747 -0.5494  0.2548
  341TMC3    C3 5165   1.252   1.662   9.870 -0.4352  0.6331  0.4524
  341TMC3    C4 5166   1.302   1.928   9.853 -0.0544  0.2128  0.2443
  341TMC3    C5 5167   1.397   1.836   9.808 -0.5484  0.5096 -0.6807
  341TMC3    C6 5168   1.374   1.703   9.818  0.0274  0.1901 -0.2174
  341TMC3     C 5169   1.130   1.971  10.014 -0.0017  1.1588 -0.1949
  341TMC3     O 5170   1.139   1.942  10.130 -0.4372  0.3513 -0.0074
  341TMC3     H 5171   1.072   1.716   9.973  0.9481 -0.6758  1.2506
  341TMC3    H1 5172   1.329   2.033   9.859 -1.5385  0.7957 -3.6160
  341TMC3    H2 5173   1.443   1.632   9.772 -1.3758 -1.5764  0.3783
  341TMC3    C7 5174   1.506   1.880   9.729  0.6440 -0.2309 -0.1725
  341TMC3    C8 5175   1.249   1.525   9.931 -0.8921 -0.2748 -0.3474
  341TMC3    O1 5176   1.585   1.791   9.692 -0.3860 -0.0473 -0.3827
  341TMC3    O2 5177   1.360   1.471   9.947  0.0430  0.1425  0.1380
  342MPD2     C 5178   3.957   0.539  17.720  0.2934 -0.7026  0.4932
  342MPD2    C1 5179   4.011   0.557  17.594  0.0373  0.0842 -0.6444
  342MPD2    C2 5180   4.033   0.685  17.555  1.0148  0.1448  0.3761
  342MPD2    C3 5181   3.995   0.794  17.638  0.4760  0.2076  0.3058
  342MPD2    C4 5182   3.961   0.766   0.018 -0.1728  0.3900 -0.1088
  342MPD2    C5 5183   3.942   0.638   0.052 -0.4511 -0.6092  0.1979
  342MPD2     H 5184   4.061   0.705  17.452  2.1126  1.9660  1.0168
  342MPD2    H1 5185   3.945   0.840   0.096 -0.0277 -2.0245  2.2233
  342MPD2    H2 5186   3.927   0.443   0.006 -0.3866 -0.6100  0.1936
  342MPD2    H3 5187   3.897   0.634   0.150  3.0894 -0.5270  1.8195
  342MPD2     N 5188   3.990   0.930  17.598  0.3130 -0.4897  0.1041
  342MPD2    H5 5189   3.947   0.999  17.659  1.4994  0.8975 -0.6543
  342MPD2    N1 5190   4.025   0.455  17.496 -0.3298  0.4546 -0.2623
  342MPD2    H7 5191   4.044   0.493  17.403  2.3019 -0.0107  0.1012
  343TMC3    C1 5192   4.026   0.238  17.402  0.3973 -0.2096 -0.4543
  343TMC3    C2 5193   4.102   0.282  17.301 -0.6873 -0.3948  0.0948
  343TMC3    C3 5194   4.127   0.183  17.205  0.0526 -0.6253 -0.5707
  343TMC3    C4 5195   4.000   0.104  17.423  0.3139 -0.1499  0.0271
  343TMC3    C5 5196   4.012   0.019  17.322  0.6188 -0.0444 -0.0029
  343TMC3    C6 5197   4.075   0.055  17.207  0.7121  0.2854 -0.1402
  343TMC3     C 5198   4.010   0.318  17.521  0.3662  0.0504 -0.0623
  343TMC3     O 5199   3.982   0.261  17.626  0.0005 -0.0882 -0.6166
  343TMC3     H 5200   4.129   0.384  17.274  0.2564 -0.3535  1.1907
  343TMC3    H1 5201   3.940   0.076  17.509  0.4707 -0.6996 -0.0416
  343TMC3    H2 5202   4.100   4.714  17.138 -0.2585 -0.6663  0.6142
  343TMC3    C7 5203   4.002   4.614  17.351 -0.6169  0.4375  0.0475
  343TMC3    C8 5204   4.239   0.220  17.119 -0.4240 -0.8704  0.4008
  343TMC3    O1 5205   3.983   4.531  17.264  0.4068 -0.1259  0.4097
  343TMC3    O2 5206   4.275   0.334  17.095 -0.1030  0.0591 -0.0033
  344MPD2     C 5207   0.581   4.451  11.220  0.1479 -1.0996 -0.4273
  344MPD2    C1 5208   0.497   4.449  11.112  0.0570 -0.1257  0.2860
  344MPD2    C2 5209   0.520   4.539  11.010  0.6868 -0.1147  0.4763
  344MPD2    C3 5210   0.627   4.632  11.012  0.6330  0.0544 -0.2731
  344MPD2    C4 5211   0.708   4.628  11.124  0.3191 -0.3586 -0.1191
  344MPD2    C5 5212   0.686   4.535  11.226  0.0598  0.4332  0.2541
  344MPD2     H 5213   0.467   4.530  10.916 -0.9993  1.3298  1.2865
  344MPD2    H1 5214   0.784   4.704  11.137 -1.0564  0.8850  0.7220
  344MPD2    H2 5215   0.567   4.373  11.294 -1.2430  0.2658  0.7683
  344MPD2    H3 5216   0.749   4.535  11.315  0.6629  1.0118 -0.1777
  344MPD2     N 5217   0.671   4.722  10.912  0.5578 -0.6925  0.0022
  344MPD2    H5 5218   0.741   0.051  10.942 -1.9514  2.0688 -0.3409
  344MPD2    N1 5219   0.405   4.339  11.104 -0.6830 -0.2630 -0.2908
  344MPD2    H7 5220   0.401   4.270  11.178  2.9278  0.1243  0.2505
  345TMC3    C1 5221   0.661   0.123  10.733 -0.2757  0.0617  0.3728
  345TMC3    C2 5222   0.797   0.153  10.732 -0.2598  0.3587 -0.1861
  345TMC3    C3 5223   0.824   0.272  10.669 -0.9674 -0.4585  0.1244
  345TMC3    C4 5224   0.558   0.204  10.698  0.8193  0.0343  0.2646
  345TMC3    C5 5225   0.602   0.324  10.647  0.3701  0.2822  1.2446
  345TMC3    C6 5226   0.729   0.353  10.617 -0.1434 -0.4976 -0.5077
  345TMC3     C 5227   0.613   0.002  10.791 -0.3759 -0.0288  0.0011
  345TMC3     O 5228   0.519   4.684  10.742  0.4478  0.2552 -0.3201
  345TMC3     H 5229   0.862   0.096  10.797 -0.1636 -0.8052 -1.2942
  345TMC3    H1 5230   0.456   0.168  10.700  1.2843 -1.4334 -1.9472
  345TMC3    H2 5231   0.762   0.441  10.563  0.4030 -0.5401 -0.2531
  345TMC3    C7 5232   0.497   0.416  10.602 -0.1564 -0.6092  0.1892
  345TMC3    C8 5233   0.963   0.316  10.659  0.9016 -0.0768  0.3970
  345TMC3    O1 5234   0.538   0.525  10.567 -0.0802  0.8405 -0.4654
  345TMC3    O2 5235   0.986   0.435  10.641 -0.6048  0.2807  0.4290
  346MPD2     C 5236   0.240   1.628  14.413  0.0825  0.6389 -0.9086
  346MPD2    C1 5237   0.375   1.598  14.435 -0.4977 -0.3297 -0.0304
  346MPD2    C2 5238   0.430   1.642  14.550  0.6705  0.0407  0.2339
  346MPD2    C3 5239   0.356   1.723  14.640 -0.6141  0.2004 -0.0076
  346MPD2    C4 5240   0.230   1.764  14.606  1.0663  0.5887 -0.0943
  346MPD2    C5 5241   0.172   1.708  14.503 -0.6056  0.8285  0.2236
  346MPD2     H 5242   0.530   1.617  14.584  0.5588 -2.0428 -0.9877
  346MPD2    H1 5243   0.168   1.828  14.668  1.3217  0.6250  0.1237
  346MPD2    H2 5244   0.188   1.583  14.329  1.3240  0.0732 -1.3694
  346MPD2    H3 5245   0.074   1.746  14.474 -0.1339  1.9092  0.0318
  346MPD2     N 5246   0.418   1.766  14.759  0.1121  0.1196  0.2582
  346MPD2    H5 5247   0.513   1.733  14.774 -0.1881 -0.6488  0.4592
  346MPD2    N1 5248   0.443   1.526  14.337  0.1493 -0.6177 -0.0283
  346MPD2    H7 5249   0.394   1.522  14.248  0.6951  1.4582 -0.4039
  347TMC3    C1 5250   0.431   1.840  14.975  0.6739 -0.0154 -0.1716
  347TMC3    C2 5251   0.565   1.852  14.954  0.7213  0.0631 -0.2212
  347TMC3    C3 5252   0.643   1.881  15.063  0.2037  0.7982  1.2018
  347TMC3    C4 5253   0.368   1.847  15.095  0.9560  0.1098  0.7190
  347TMC3    C5 5254   0.451   1.873  15.203  0.7125  1.1508  0.0798
  347TMC3    C6 5255   0.588   1.893  15.193 -0.1376  0.1995  0.5092
  347TMC3     C 5256   0.344   1.814  14.866 -0.2680 -0.5156  0.6408
  347TMC3     O 5257   0.226   1.846  14.888 -0.1427  0.1572  0.2447
  347TMC3     H 5258   0.613   1.861  14.858  1.0089  0.2908 -0.0572
  347TMC3    H1 5259   0.264   1.818  15.096  1.2675 -1.0032  0.2469
  347TMC3    H2 5260   0.649   1.889  15.283 -0.9938 -0.6707  1.0430
  347TMC3    C7 5261   0.398   1.877  15.343 -0.0111 -0.0671 -0.0654
  347TMC3    C8 5262   0.771   1.808  15.056  0.1457  0.5034 -0.3166
  347TMC3    O1 5263   0.482   1.860  15.432  0.2703  0.6546  0.0756
  347TMC3    O2 5264   0.824   1.799  14.948 -0.2508  0.3835 -0.3009
  348MPD2     C 5265   3.752   1.407  12.536 -0.5123 -0.0831 -0.1370
  348MPD2    C1 5266   3.861   1.449  12.475 -0.1037  0.3777 -0.1923
  348MPD2    C2 5267   3.849   1.517  12.357  0.7115  0.2382  0.0784
  348MPD2    C3 5268   3.727   1.541  12.304  0.6192 -0.6156 -0.1685
  348MPD2    C4 5269   3.615   1.482  12.364  0.1188 -0.8696 -0.9768
  348MPD2    C5 5270   3.630   1.410  12.476  0.2456 -0.5249 -0.2766
  348MPD2     H 5271   3.946   1.536  12.311  0.9302 -1.8625 -0.3254
  348MPD2    H1 5272   3.516   1.483  12.318  0.1452  1.5044 -0.9351
  348MPD2    H2 5273   3.756   1.339  12.620  0.0354  0.9085  0.6441
  348MPD2    H3 5274   3.545   1.354  12.514 -0.3135  0.0359 -0.7159
  348MPD2     N 5275   3.719   1.612  12.185  0.2831  0.6952 -0.0079
  348MPD2    H5 5276   3.634   1.609  12.129 -0.5149 -1.2381  1.3049
  348MPD2    N1 5277   3.992   1.427  12.517 -0.6095  0.1733  0.0898
  348MPD2    H7 5278   4.064   1.469  12.458  0.6829  0.4129  1.8488
  349TMC3    C1 5279   4.170   1.291  12.588 -0.4829 -0.4425  0.2811
  349TMC3    C2 5280   4.177   1.168  12.643  0.7762  0.3392  0.6661
  349TMC3    C3 5281   4.222   1.070  12.561  0.1996 -0.6111 -0.2247
  349TMC3    C4 5282   4.228   1.327  12.468  0.8063 -0.2685 -1.0681
  349TMC3    C5 5283   4.262   1.226  12.387 -0.4756  0.1403  0.1240
  349TMC3    C6 5284   4.269   1.091  12.434 -0.1135 -0.0325 -0.7774
  349TMC3     C 5285   4.040   1.348  12.615 -0.1479  0.4365  0.2275
  349TMC3     O 5286   3.975   1.291  12.706 -0.2323  0.1151 -0.3392
  349TMC3     H 5287   4.143   1.149  12.745  0.5871 -1.1117  0.3252
  349TMC3    H1 5288   4.219   1.431  12.441  0.7468 -0.4903 -1.9149
  349TMC3    H2 5289   4.293   1.010  12.366  0.9999  0.4697 -0.9803
  349TMC3    C7 5290   4.199   1.227  12.260 -0.1612 -0.7679  0.4268
  349TMC3    C8 5291   4.226   0.936  12.617 -0.9511 -0.5421 -0.3694
  349TMC3    O1 5292   4.175   1.121  12.205  0.1427  0.2373  0.3227
  349TMC3    O2 5293   4.141   0.911  12.702  0.1591  0.1331 -0.2379
  350MPD2     C 5294   2.597   4.367  10.763  0.3198 -0.4822  0.2809
  350MPD2    C1 5295   2.674   4.256  10.724 -0.1401 -0.4617  0.2636
  350MPD2    C2 5296   2.810   4.253  10.698 -0.0709  0.2072  1.0045
  350MPD2    C3 5297   2.882   4.372  10.714  0.2607 -0.2316 -0.0213
  350MPD2    C4 5298   2.811   4.481  10.764 -0.4878 -0.7447  1.2152
  350MPD2    C5 5299   2.672   4.483  10.775  1.0280 -0.1648 -0.6957
  350MPD2     H 5300   2.862   4.166  10.660  2.2287  2.6628 -1.4619
  350MPD2    H1 5301   2.867   4.574  10.765 -1.6451 -0.0492  1.3323
  350MPD2    H2 5302   2.489   4.369  10.768  0.1728 -0.0654 -2.5452
  350MPD2    H3 5303   2.627   4.581  10.791  0.7065 -0.4075 -0.0953
  350MPD2     N 5304   3.023   4.372  10.701  0.2211  0.1054 -0.0651
  350MPD2    H5 5305   3.072   4.291  10.664 -0.2806  0.4756 -1.5010
  350MPD2    N1 5306   2.607   4.131  10.701  0.3347 -0.2740  0.4363
  350MPD2    H7 5307   2.672   4.054  10.690 -1.1699 -0.9694 -3.6031
  351TMC3    C1 5308   2.441   3.972  10.641  0.1082  0.4741 -0.3114
  351TMC3    C2 5309   2.529   3.912  10.554 -0.0194  0.0097 -0.5881
  351TMC3    C3 5310   2.492   3.790  10.509 -0.2149  0.7820 -0.2588
  351TMC3    C4 5311   2.312   3.922  10.661  0.9805 -0.4143 -0.1647
  351TMC3    C5 5312   2.271   3.802  10.594 -0.2792 -0.6582  0.5120
  351TMC3    C6 5313   2.363   3.736  10.516  0.2873  0.0569 -0.3868
  351TMC3     C 5314   2.475   4.103  10.698 -0.3853  0.2918 -0.5348
  351TMC3     O 5315   2.380   4.169  10.744 -0.6591  0.4444 -0.3524
  351TMC3     H 5316   2.633   3.940  10.549 -0.2280  1.2092  1.5935
  351TMC3    H1 5317   2.255   3.982  10.732 -0.4621  0.3563 -1.9945
  351TMC3    H2 5318   2.330   3.646  10.464 -1.9832  1.3957 -1.2470
  351TMC3    C7 5319   2.151   3.729  10.624 -0.2056 -0.2395  0.2461
  351TMC3    C8 5320   2.562   3.731  10.404  0.8921 -0.6677  0.0348
  351TMC3    O1 5321   2.137   3.616  10.586  0.6096  0.3048 -0.1994
  351TMC3    O2 5322   2.533   3.616  10.380 -0.3733  0.3906 -0.2180
  352MPD2     C 5323   2.050   2.095   0.976 -0.1241 -0.8407 -0.1103
  352MPD2    C1 5324   1.956   2.061   1.071  0.2716 -0.3364 -0.2891
  352MPD2    C2 5325   1.952   1.933   1.118  0.5360  0.3591 -0.4251
  352MPD2    C3 5326   2.035   1.839   1.063 -0.8499 -0.1892 -0.6302
  352MPD2    C4 5327   2.125   1.874   0.963  0.4592  0.1974  0.5503
  352MPD2    C5 5328   2.133   2.000   0.920  0.5036 -0.2600  0.1766
  352MPD2     H 5329   1.872   1.905   1.185  0.7115 -1.2333 -0.8748
  352MPD2    H1 5330   2.182   1.794   0.918 -0.6682 -0.3085  0.0065
  352MPD2    H2 5331   2.065   2.195   0.936 -0.7917 -1.0439 -0.8645
  352MPD2    H3 5332   2.201   2.033   0.842  1.0169 -2.8703 -0.4977
  352MPD2     N 5333   2.026   1.703   1.095 -0.1724 -0.1710 -0.2551
  352MPD2    H5 5334   2.088   1.649   1.037 -2.3093 -0.1803 -2.5176
  352MPD2    N1 5335   1.874   2.165   1.121  0.1529 -0.2149 -0.6550
  352MPD2    H7 5336   1.877   2.253   1.071 -1.6313  0.0174 -0.3394
  353TMC3    C1 5337   1.960   1.498   1.181 -0.3382  0.1424 -1.4634
  353TMC3    C2 5338   2.085   1.449   1.167 -0.1244  0.1137 -0.5295
  353TMC3    C3 5339   2.119   1.319   1.196 -0.2969 -0.5607 -0.0619
  353TMC3    C4 5340   1.854   1.423   1.220 -0.8780  0.1909  0.4484
  353TMC3    C5 5341   1.888   1.290   1.235  0.4202 -0.3854  0.6761
  353TMC3    C6 5342   2.016   1.241   1.226  0.7575 -0.1396  0.1844
  353TMC3     C 5343   1.938   1.643   1.179 -0.1896  0.6168  0.3500
  353TMC3     O 5344   1.843   1.684   1.244  0.1083 -0.5206 -0.3466
  353TMC3     H 5345   2.172   1.511   1.149  0.2604 -0.1512  0.4601
  353TMC3    H1 5346   1.755   1.468   1.224  0.1793  2.6010 -0.1545
  353TMC3    H2 5347   2.021   1.132   1.231  0.2839 -0.1489  0.4732
  353TMC3    C7 5348   1.778   1.197   1.224  0.0235  0.1537  0.1665
  353TMC3    C8 5349   2.252   1.268   1.162 -0.1437 -0.2288 -0.5047
  353TMC3    O1 5350   1.812   1.083   1.187  0.0227 -0.0934  0.4418
  353TMC3    O2 5351   2.337   1.347   1.134  0.6949  0.2108 -0.1022
  354TMC3    C1 5352   3.006   2.444  13.711 -0.0707  0.0867  0.1135
  354TMC3    C2 5353   2.962   2.573  13.684  0.4122 -0.0035  0.4135
  354TMC3    C3 5354   2.951   2.601  13.548 -0.0680 -0.6765  0.2653
  354TMC3    C4 5355   3.025   2.345  13.620 -0.6278  0.4255  0.6111
  354TMC3    C5 5356   3.007   2.385  13.500  0.0512  0.5711 -0.1808
  354TMC3    C6 5357   2.971   2.510  13.449 -0.0874  0.5866 -0.6562
  354TMC3     C 5358   2.998   2.406  13.850  0.3104 -0.1444 -0.7609
  354TMC3     O 5359   2.909   2.459  13.915 -0.1710 -0.2499  0.0059
  354TMC3     H 5360   2.944   2.641  13.767  1.7182 -1.2113  1.7043
  354TMC3    H1 5361   3.016   2.244  13.659 -2.9242  1.7084  3.4014
  354TMC3    H2 5362   2.923   2.514  13.352  2.4234 -0.1384 -1.9113
  354TMC3    C7 5363   3.020   2.283  13.398 -0.6626 -0.3477 -0.2479
  354TMC3    C8 5364   2.912   2.738  13.522  0.1987 -0.2880 -0.0694
  354TMC3    O1 5365   2.985   2.172  13.438  0.2724  0.0866 -0.5343
  354TMC3    O2 5366   2.873   2.804  13.619 -0.3335 -0.4227 -0.3780
  355MPD2     C 5367   2.998   3.256  12.130  0.0336 -0.3112 -0.1551
  355MPD2    C1 5368   3.067   3.260  12.013  0.1173  0.0008 -0.4389
  355MPD2    C2 5369   3.205   3.268  12.023  0.4551  0.2030  0.7703
  355MPD2    C3 5370   3.278   3.271  12.139  0.4462 -0.1765 -0.1845
  355MPD2    C4 5371   3.207   3.277  12.252 -0.5839 -0.7620  0.3418
  355MPD2    C5 5372   3.072   3.267  12.247 -0.7365  0.6188  0.2680
  355MPD2     H 5373   3.267   3.263  11.934 -1.5821 -1.2014 -0.5716
  355MPD2    H1 5374   3.253   3.278  12.351  0.3487  0.7238 -0.1077
  355MPD2    H2 5375   2.892   3.254  12.150  0.3245  0.0761  1.4292
  355MPD2    H3 5376   3.024   3.267  12.345  0.0238 -0.0314  0.6400
  355MPD2     N 5377   3.417   3.285  12.149  0.1497  1.1858 -0.6097
  355MPD2    H5 5378   3.444   3.341  12.229 -0.8778  0.1809  0.4417
  355MPD2    N1 5379   2.991   3.257  11.891  0.0350 -0.7064  0.0878
  355MPD2    H7 5380   2.899   3.213  11.889 -1.4736  2.4369  0.1083
  356TMC3    C1 5381   3.641   3.332  12.075  0.2971  0.3970  0.1407
  356TMC3    C2 5382   3.710   3.386  11.975  0.6459 -0.1553 -0.7396
  356TMC3    C3 5383   3.799   3.489  12.000 -0.7485  0.1221  0.2133
  356TMC3    C4 5384   3.659   3.372  12.205  0.3199  0.1731 -0.3020
  356TMC3    C5 5385   3.762   3.459  12.224  0.4282 -0.5516 -0.8142
  356TMC3    C6 5386   3.840   3.514  12.126  0.7176  0.1396 -0.3006
  356TMC3     C 5387   3.510   3.270  12.041 -0.3971 -0.1396  0.5659
  356TMC3     O 5388   3.491   3.244  11.923 -0.1986 -0.2685  0.5363
  356TMC3     H 5389   3.683   3.366  11.872 -1.2743 -0.5140 -0.1597
  356TMC3    H1 5390   3.611   3.329  12.293 -1.0944 -0.8776 -1.6015
  356TMC3    H2 5391   3.929   3.570  12.152 -0.4192  1.1910  1.4081
  356TMC3    C7 5392   3.773   3.513  12.357 -0.1567 -0.4044 -0.4535
  356TMC3    C8 5393   3.858   3.562  11.885 -0.2756 -0.5319  0.3082
  356TMC3    O1 5394   3.721   3.440  12.444 -0.0449 -0.1585 -0.1357
  356TMC3    O2 5395   3.852   3.503  11.779 -0.3321 -0.0037 -0.3606
  357MPD2     C 5396   2.611   3.126   1.282  0.1708  0.1865  0.0208
  357MPD2    C1 5397   2.732   3.176   1.279 -0.6129  0.7080 -0.0043
  357MPD2    C2 5398   2.755   3.286   1.353 -0.5075  0.1331  0.4803
  357MPD2    C3 5399   2.655   3.358   1.421 -0.2453 -0.1964 -0.5651
  357MPD2    C4 5400   2.531   3.301   1.426  0.0303 -0.1987  0.0929
  357MPD2    C5 5401   2.511   3.186   1.353 -0.1328 -0.3768  0.2471
  357MPD2     H 5402   2.849   3.339   1.338 -0.2619  0.2136  2.2329
  357MPD2    H1 5403   2.450   3.345   1.482  1.4580  2.6935 -0.1331
  357MPD2    H2 5404   2.594   3.042   1.216  1.2022  0.1996 -0.2638
  357MPD2    H3 5405   2.413   3.144   1.369  0.1817 -0.9034  0.8082
  357MPD2     N 5406   2.669   3.482   1.483  0.3600  0.0103  0.8477
  357MPD2    H5 5407   2.591   3.525   1.532 -0.6395 -0.6662 -0.1534
  357MPD2    N1 5408   2.827   3.112   1.197 -0.2870  0.6053  0.6291
  357MPD2    H7 5409   2.795   3.042   1.131  0.2066 -0.2305  1.2730
  358TMC3    C1 5410   3.042   3.055   1.109  0.2523  0.1630 -0.2772
  358TMC3    C2 5411   3.007   3.046   0.974 -0.0493 -0.0548  0.8770
  358TMC3    C3 5412   3.110   3.039   0.885  1.2614  0.4740  0.0184
  358TMC3    C4 5413   3.170   3.051   1.141 -0.0411  0.4395 -0.1868
  358TMC3    C5 5414   3.269   3.037   1.045 -0.2402 -0.0716  0.2137
  358TMC3    C6 5415   3.241   3.042   0.910  0.4828 -0.3036 -0.2902
  358TMC3     C 5416   2.963   3.137   1.198 -0.1899  0.0797 -0.0789
  358TMC3     O 5417   3.022   3.195   1.291 -0.1370 -0.1127 -0.0125
  358TMC3     H 5418   2.903   3.058   0.946  0.7584  0.6492 -1.8146
  358TMC3    H1 5419   3.197   3.048   1.246 -0.3008  0.8692 -0.1083
  358TMC3    H2 5420   3.317   3.014   0.838 -0.5066 -1.3204 -0.9320
  358TMC3    C7 5421   3.405   3.034   1.081 -0.0874  0.1091 -0.3494
  358TMC3    C8 5422   3.067   3.001   0.748  0.0390 -0.3740  0.3316
  358TMC3    O1 5423   3.482   2.970   1.010  0.0981 -0.6531  0.1693
  358TMC3    O2 5424   2.962   2.941   0.729 -0.1133 -0.2721 -0.2389
  359MPD2     C 5425   3.038   2.659  12.486 -0.3085 -0.0050  0.2149
  359MPD2    C1 5426   3.024   2.554  12.404 -0.0313  0.1687 -0.2509
  359MPD2    C2 5427   2.929   2.464  12.428 -0.6127  0.1667 -0.2309
  359MPD2    C3 5428   2.831   2.479  12.522  0.1986  0.4752  0.3903
  359MPD2    C4 5429   2.844   2.594  12.610 -0.3034  0.1029 -0.1475
  359MPD2    C5 5430   2.955   2.669  12.592  0.2924 -1.0084 -0.9388
  359MPD2     H 5431   2.922   2.387  12.353  3.8442  1.8368 -2.3800
  359MPD2    H1 5432   2.775   2.628  12.687 -0.8677 -0.3589 -0.4487
  359MPD2    H2 5433   3.118   2.732  12.482  1.9663 -2.6289 -1.1523
  359MPD2    H3 5434   2.971   2.753  12.659 -1.5905 -2.1996  1.0055
  359MPD2     N 5435   2.723   2.387  12.554 -0.0636  0.9700 -0.0806
  359MPD2    H5 5436   2.662   2.426  12.624  1.1573  0.6582  1.1448
  359MPD2    N1 5437   3.103   2.525  12.297  0.0289 -0.4149 -0.1256
  359MPD2    H7 5438   3.067   2.461  12.227  0.7548  0.7869 -1.6039
  360TMC3    C1 5439   3.317   2.516  12.180  0.1231  0.1111  0.0940
  360TMC3    C2 5440   3.443   2.555  12.152 -0.5539  0.2765 -0.2446
  360TMC3    C3 5441   3.523   2.473  12.080 -0.4622  0.0398  0.3549
  360TMC3    C4 5442   3.270   2.400  12.122 -0.5790  0.1919  0.1007
  360TMC3    C5 5443   3.346   2.328  12.036 -0.8070 -0.4704  0.6793
  360TMC3    C6 5444   3.478   2.361  12.022 -0.9176 -0.4586 -0.0262
  360TMC3     C 5445   3.238   2.570  12.295 -0.2053  0.5112 -0.3235
  360TMC3     O 5446   3.304   2.621  12.381 -0.1968 -0.1867 -0.5216
  360TMC3     H 5447   3.490   2.633  12.211  0.1384 -0.6534  0.4307
  360TMC3    H1 5448   3.177   2.352  12.150 -0.0287 -1.3010 -0.6381
  360TMC3    H2 5449   3.539   2.298  11.958 -2.6006 -1.0340 -1.0385
  360TMC3    C7 5450   3.291   2.209  11.975  0.2717 -0.5625 -0.0093
  360TMC3    C8 5451   3.632   2.548  12.011  0.0541 -0.7276 -0.3375
  360TMC3    O1 5452   3.363   2.123  11.931 -0.0894 -0.0749  0.5719
  360TMC3    O2 5453   3.598   2.657  11.974 -0.4467  0.3800  0.0840
  361MPD2     C 5454   0.576   1.256  16.902  0.4232  0.4980  0.3935
  361MPD2    C1 5455   0.511   1.279  17.020 -0.8817 -0.3482  0.0563
  361MPD2    C2 5456   0.556   1.228  17.137  0.3600  0.1924 -1.0276
  361MPD2    C3 5457   0.666   1.140  17.131 -0.9462  0.5338  0.3547
  361MPD2    C4 5458   0.725   1.108  17.008  0.0391 -0.3117 -0.8251
  361MPD2    C5 5459   0.678   1.168  16.895 -0.0729  0.6494  0.1821
  361MPD2     H 5460   0.497   1.243  17.227  0.9786  2.6596 -1.0457
  361MPD2    H1 5461   0.814   1.046  17.003 -1.1620 -2.2984  1.8881
  361MPD2    H2 5462   0.545   1.286  16.802 -0.0776 -0.4600  0.2664
  361MPD2    H3 5463   0.725   1.139  16.802 -0.5318 -0.5579  0.3364
  361MPD2     N 5464   0.722   1.077  17.247 -0.0010 -0.2685  0.2915
  361MPD2    H5 5465   0.791   1.007  17.220 -1.9125 -2.6479  1.5404
  361MPD2    N1 5466   0.405   1.366  17.023  0.2668 -0.6793  0.5180
  361MPD2    H7 5467   0.363   1.381  17.115 -1.4175  0.9889 -0.5112
  362TMC3    C1 5468   0.245   1.521  16.962  0.5280 -0.3788  0.3153
  362TMC3    C2 5469   0.142   1.446  17.015 -0.6588  0.4869 -0.7090
  362TMC3    C3 5470   0.010   1.475  16.982 -0.0981 -0.4400  0.2315
  362TMC3    C4 5471   0.209   1.636  16.898  0.1630  0.2821  0.4676
  362TMC3    C5 5472   0.077   1.662  16.872 -0.3489 -0.0938  0.3224
  362TMC3    C6 5473   4.711   1.582  16.912  0.6375  0.1231  0.0038
  362TMC3     C 5474   0.366   1.453  16.923 -0.2872 -0.1311 -0.3736
  362TMC3     O 5475   0.434   1.497  16.828  0.2208 -0.1239  0.1142
  362TMC3     H 5476   0.158   1.356  17.073  0.1435  0.6954 -0.6029
  362TMC3    H1 5477   0.280   1.711  16.866 -0.4010  0.2219 -0.9547
  362TMC3    H2 5478   4.606   1.607  16.896  0.4413 -2.3250 -2.4426
  362TMC3    C7 5479   0.058   1.763  16.766 -0.4888 -0.5157 -0.2167
  362TMC3    C8 5480   4.646   1.370  17.001 -0.0279 -0.3460 -0.2570
  362TMC3    O1 5481   0.149   1.844  16.736 -0.4438 -0.4636  0.7575
  362TMC3    O2 5482   4.678   1.253  16.986 -0.2463 -0.0970 -0.7200
  363TMC3    C1 5483   2.990   2.958   9.383  0.5210 -0.5109  0.8634
  363TMC3    C2 5484   3.122   2.952   9.402 -0.6455  0.3247 -0.0719
  363TMC3    C3 5485   3.174   3.071   9.440  0.3757 -0.3859 -0.8967
  363TMC3    C4 5486   2.908   3.072   9.389 -0.2376  0.2852 -0.2376
  363TMC3    C5 5487   2.974   3.187   9.416 -0.0520 -0.0682  0.5290
  363TMC3    C6 5488   3.109   3.198   9.440  0.3378  0.1400  0.7420
  363TMC3     C 5489   2.933   2.838   9.340  0.1480 -0.1550 -0.1395
  363TMC3     O 5490   3.008   2.742   9.320 -0.0194  0.0837  0.8615
  363TMC3     H 5491   3.174   2.858   9.389  0.1600  0.5682  1.4131
  363TMC3    H1 5492   2.802   3.080   9.371 -0.4299  1.1481  1.3530
  363TMC3    H2 5493   3.152   3.285   9.488 -2.2662  1.1669  1.2209
  363TMC3    C7 5494   2.895   3.293   9.473  0.0801  0.4179 -1.0141
  363TMC3    C8 5495   3.323   3.087   9.464  0.0987  0.0284  0.0363
  363TMC3    O1 5496   2.779   3.268   9.512 -1.1009 -0.0416  0.4757
  363TMC3    O2 5497   3.377   3.197   9.437 -0.2706 -0.4845  0.5097
  364MPD2     C 5498   2.236   3.051  10.965 -0.0021 -0.4675 -0.1877
  364MPD2    C1 5499   2.346   3.028  10.882  0.0267 -0.2454 -0.8444
  364MPD2    C2 5500   2.382   2.901  10.839 -0.1137  0.1384 -0.9947
  364MPD2    C3 5501   2.314   2.794  10.896 -0.4848  0.1901 -1.2596
  364MPD2    C4 5502   2.207   2.812  10.985  0.1261 -0.2785  0.0956
  364MPD2    C5 5503   2.171   2.942  11.022  0.0594 -0.2311  0.9274
  364MPD2     H 5504   2.465   2.881  10.772  0.6015  0.9428 -0.3402
  364MPD2    H1 5505   2.171   2.723  11.034  1.7542 -1.9078 -1.6922
  364MPD2    H2 5506   2.199   3.148  10.996 -0.7292 -0.9749  0.5308
  364MPD2    H3 5507   2.087   2.960  11.089 -0.3670  1.3846 -0.0528
  364MPD2     N 5508   2.350   2.666  10.868  0.3884 -0.2503  0.0922
  364MPD2    H5 5509   2.311   2.591  10.925  2.4221 -2.7216 -1.7593
  364MPD2    N1 5510   2.411   3.144  10.834 -0.6702  0.5253  0.2605
  364MPD2    H7 5511   2.383   3.233  10.872 -1.1663  0.3054  0.4024
  365TMC3    C1 5512   2.558   3.283  10.705  0.4285  0.7341 -0.4859
  365TMC3    C2 5513   2.630   3.303  10.595 -0.2298 -0.7788  0.6382
  365TMC3    C3 5514   2.685   3.422  10.577  0.4195 -0.5329 -0.0580
  365TMC3    C4 5515   2.549   3.373  10.807  0.0413 -0.0375  0.2100
  365TMC3    C5 5516   2.616   3.486  10.793  0.1667 -0.2488  0.0194
  365TMC3    C6 5517   2.683   3.519  10.677 -0.6937  0.0943 -0.3929
  365TMC3     C 5518   2.511   3.147  10.738 -0.5790  0.4721 -0.0353
  365TMC3     O 5519   2.549   3.074  10.653  0.2250 -0.3773  0.0990
  365TMC3     H 5520   2.628   3.226  10.519  0.3112  1.4027 -1.5908
  365TMC3    H1 5521   2.536   3.334  10.907  0.5613 -1.4621 -0.2824
  365TMC3    H2 5522   2.752   3.601  10.663 -1.1850  0.5229 -0.2808
  365TMC3    C7 5523   2.657   3.562  10.907 -0.6864  0.0162 -0.0727
  365TMC3    C8 5524   2.775   3.436  10.465  0.5761  0.4688  0.3111
  365TMC3    O1 5525   2.767   3.615  10.898 -0.1525 -0.8161 -0.6204
  365TMC3    O2 5526   2.847   3.538  10.463  0.2903 -0.1529  0.2387
  366MPD2     C 5527   0.295   3.682  15.606 -0.5143 -1.0640 -0.1750
  366MPD2    C1 5528   0.397   3.759  15.565 -0.0160 -0.0505 -0.0420
  366MPD2    C2 5529   0.504   3.686  15.512  0.4673  0.2255  0.8661
  366MPD2    C3 5530   0.520   3.549  15.533  0.2321 -0.0254  0.0265
  366MPD2    C4 5531   0.418   3.476  15.597 -0.1072  0.1728  0.2423
  366MPD2    C5 5532   0.305   3.545  15.629 -0.1517 -0.6107 -0.6386
  366MPD2     H 5533   0.589   3.734  15.466 -0.5067  0.6085 -0.5515
  366MPD2    H1 5534   0.410   3.369  15.611  0.8408  0.3573  2.1421
  366MPD2    H2 5535   0.201   3.723  15.641  0.9748 -0.3415  3.0055
  366MPD2    H3 5536   0.213   3.492  15.649 -0.4636  0.0395 -0.3299
  366MPD2     N 5537   0.646   3.491  15.512 -0.6131  0.4284 -0.3928
  366MPD2    H5 5538   0.710   3.547  15.456 -0.3501  0.4715 -0.0565
  366MPD2    N1 5539   0.408   3.896  15.585 -0.4590 -0.1356  0.0582
  366MPD2    H7 5540   0.502   3.935  15.585 -0.9793  1.1005 -2.6796
  367TMC3    C1 5541   0.359   4.124  15.625 -0.2093  0.5567  0.2062
  367TMC3    C2 5542   0.477   4.146  15.688  0.5521  0.4078  0.9110
  367TMC3    C3 5543   0.543   4.263  15.690 -0.1900 -0.1973  0.3434
  367TMC3    C4 5544   0.312   4.224  15.546  0.0824  0.0487 -0.3889
  367TMC3    C5 5545   0.379   4.344  15.544 -0.4096  0.9042 -0.1538
  367TMC3    C6 5546   0.487   4.372  15.620 -0.4765 -0.3968  0.3985
  367TMC3     C 5547   0.304   3.986  15.596 -0.2556 -0.1804 -0.3385
  367TMC3     O 5548   0.181   3.982  15.585  0.3788 -0.0844  0.0857
  367TMC3     H 5549   0.526   4.063  15.738  1.1501 -1.0268 -2.1009
  367TMC3    H1 5550   0.219   4.215  15.491 -0.6836 -2.6295  1.3654
  367TMC3    H2 5551   0.516   4.476  15.635 -2.3039 -0.1183  1.9545
  367TMC3    C7 5552   0.367   4.416  15.416 -0.2325  0.0130  0.1205
  367TMC3    C8 5553   0.657   4.292  15.778 -0.5240 -0.1943 -0.2773
  367TMC3    O1 5554   0.417   4.526  15.412 -0.3806  0.1325 -0.1012
  367TMC3    O2 5555   0.677   4.203  15.863  0.5425 -0.2931 -0.2203
  368MPD2     C 5556   1.825   1.006  13.135  0.1576 -1.5157  0.1394
  368MPD2    C1 5557   1.841   1.002  12.995  0.1034 -0.3098  0.1282
  368MPD2    C2 5558   1.969   1.024  12.940 -0.8653 -0.2419 -0.6161
  368MPD2    C3 5559   2.072   1.068  13.019  0.2869  0.0888  0.0175
  368MPD2    C4 5560   2.055   1.071  13.151  0.1527 -0.3029 -0.0333
  368MPD2    C5 5561   1.934   1.030  13.213  0.3985  0.0090 -0.2037
  368MPD2     H 5562   1.984   1.026  12.833 -0.1208 -1.8597 -0.5423
  368MPD2    H1 5563   2.140   1.102  13.210  0.4564  0.7958 -1.0497
  368MPD2    H2 5564   1.728   1.002  13.183 -0.2650 -0.9311 -0.6696
  368MPD2    H3 5565   1.923   1.044  13.320  0.9979  1.2643 -0.3049
  368MPD2     N 5566   2.192   1.129  12.975 -0.6018 -0.3223  0.5731
  368MPD2    H5 5567   2.259   1.152  13.048  1.0087  0.5806 -1.1800
  368MPD2    N1 5568   1.729   0.965  12.919 -0.5495  0.8363 -0.1832
  368MPD2    H7 5569   1.643   0.961  12.973  0.5802 -1.4949  1.4489
  369TMC3    C1 5570   1.597   0.947  12.734  0.3888 -0.2429  0.1512
  369TMC3    C2 5571   1.611   1.024  12.617 -0.6100 -0.5248  0.0174
  369TMC3    C3 5572   1.552   1.149  12.607 -0.0288 -1.0067  0.7612
  369TMC3    C4 5573   1.500   0.983  12.820 -0.0928 -0.1693  0.8154
  369TMC3    C5 5574   1.429   1.095  12.795 -0.3227 -0.7051  0.0038
  369TMC3    C6 5575   1.457   1.184  12.695 -0.4346 -0.0652  0.2168
  369TMC3     C 5576   1.726   0.947  12.788 -0.0877 -0.5925  0.1805
  369TMC3     O 5577   1.819   0.943  12.705 -0.5757  0.5053 -0.1660
  369TMC3     H 5578   1.673   0.990  12.535 -0.6919 -0.8692  0.0948
  369TMC3    H1 5579   1.483   0.924  12.910  1.3684 -0.9117  0.6150
  369TMC3    H2 5580   1.407   1.280  12.689 -1.8421 -1.0208 -3.3223
  369TMC3    C7 5581   1.329   1.122  12.895  0.0504 -0.5464 -0.2370
  369TMC3    C8 5582   1.651   1.250  12.572 -0.4115  0.2249  0.4633
  369TMC3    O1 5583   1.349   1.079  13.007 -0.1228  0.1217  0.4189
  369TMC3    O2 5584   1.602   1.360  12.561 -0.1336  0.7325 -0.5348
  370TMC3    C1 5585   1.349   1.926  16.545 -0.4383 -0.2020  0.0619
  370TMC3    C2 5586   1.289   1.863  16.651  0.6902  0.2271 -0.7411
  370TMC3    C3 5587   1.233   1.738  16.635  0.5135  0.2799 -0.3414
  370TMC3    C4 5588   1.355   1.866  16.421  0.6957 -0.4032 -1.3031
  370TMC3    C5 5589   1.289   1.746  16.411 -0.2599 -0.9660  0.4986
  370TMC3    C6 5590   1.228   1.685  16.510 -1.1541  0.1949 -1.1087
  370TMC3     C 5591   1.456   2.022  16.591  0.7922 -1.1045  0.5240
  370TMC3     O 5592   1.501   2.025  16.703 -0.1709 -0.2800  0.4764
  370TMC3     H 5593   1.297   1.907  16.750 -0.2696  0.2904 -0.6937
  370TMC3    H1 5594   1.414   1.903  16.338 -0.6779  0.4906 -1.8807
  370TMC3    H2 5595   1.170   1.594  16.499  0.2982 -0.8116 -0.3908
  370TMC3    C7 5596   1.286   1.691  16.276 -1.3262 -0.0953 -0.9230
  370TMC3    C8 5597   1.222   1.647  16.747 -0.3076  0.2168 -0.0997
  370TMC3    O1 5598   1.302   1.770  16.181  0.2023  0.4183 -0.1686
  370TMC3    O2 5599   1.215   1.529  16.716 -0.2493 -0.1416 -0.4694
  371TMC3    C1 5600   2.403   0.155  15.674 -0.6854  0.5752  0.0455
  371TMC3    C2 5601   2.285   0.129  15.730  0.1210  0.2549 -0.1264
  371TMC3    C3 5602   2.226   0.230  15.802 -0.0041  0.7365 -0.2363
  371TMC3    C4 5603   2.450   0.283  15.664 -0.2776 -0.3951  0.0999
  371TMC3    C5 5604   2.387   0.386  15.727  0.2354  0.4265 -0.9139
  371TMC3    C6 5605   2.283   0.355  15.806  0.6899  0.0348  0.2612
  371TMC3     C 5606   2.468   0.046  15.604  0.4181 -0.3478  0.9330
  371TMC3     O 5607   2.528   0.079  15.500  0.6123 -0.6719 -0.2838
  371TMC3     H 5608   2.233   0.034  15.726 -0.0570  0.2785  1.5866
  371TMC3    H1 5609   2.543   0.293  15.609  0.7263  0.5416  1.9775
  371TMC3    H2 5610   2.225   0.432  15.857  0.8183  0.3299 -0.0407
  371TMC3    C7 5611   2.443   0.521  15.724 -0.3550  0.2363 -0.0465
  371TMC3    C8 5612   2.092   0.205  15.861  0.1009  0.1894 -0.4898
  371TMC3    O1 5613   2.539   0.529  15.649  0.0839  0.2137 -0.4269
  371TMC3    O2 5614   2.037   0.107  15.815 -0.2258  0.0990  0.1860
  372MPD2     C 5615   1.636   1.188  13.412 -0.0098 -0.7236  0.2300
  372MPD2    C1 5616   1.751   1.251  13.465  0.1000  0.0465  0.1790
  372MPD2    C2 5617   1.843   1.174  13.533  0.0314 -0.2019  0.2330
  372MPD2    C3 5618   1.829   1.037  13.554 -0.5269  0.1054 -0.0867
  372MPD2    C4 5619   1.708   0.983  13.507 -0.1582 -0.8622  0.1945
  372MPD2    C5 5620   1.618   1.052  13.436 -0.2767  0.1052  0.2173
  372MPD2     H 5621   1.929   1.227  13.573 -0.3298  0.9869 -0.5452
  372MPD2    H1 5622   1.679   0.881  13.531 -0.2018 -1.0392 -0.6068
  372MPD2    H2 5623   1.572   1.232  13.337 -1.2340 -0.8860  1.1968
  372MPD2    H3 5624   1.539   0.997  13.386 -0.0939  0.9338 -0.9648
  372MPD2     N 5625   1.925   0.957  13.622 -0.2054  0.2422 -0.6339
  372MPD2    H5 5626   1.899   0.862  13.645 -0.3312  1.0223  2.3626
  372MPD2    N1 5627   1.767   1.392  13.465 -0.0219  0.2236 -0.4222
  372MPD2    H7 5628   1.840   1.424  13.528  2.5514  0.4457 -3.5490
  373TMC3    C1 5629   2.105   0.938  13.776  0.3169 -0.3265  0.5672
  373TMC3    C2 5630   2.026   0.893  13.872  0.6186  0.2602  0.3507
  373TMC3    C3 5631   2.081   0.817  13.969  0.0979 -0.6334 -0.2822
  373TMC3    C4 5632   2.242   0.903  13.775  0.1119 -0.2507  0.3177
  373TMC3    C5 5633   2.293   0.824  13.875  0.1603  0.2032 -0.0897
  373TMC3    C6 5634   2.212   0.784  13.978  0.2471 -0.1060 -0.3469
  373TMC3     C 5635   2.050   0.997  13.655  0.2301  0.4899  0.5595
  373TMC3     O 5636   2.126   1.068  13.588 -0.5126 -0.3030  0.1758
  373TMC3     H 5637   1.922   0.921  13.863  0.0525 -1.5130  1.3523
  373TMC3    H1 5638   2.295   0.930  13.684 -0.5102 -0.7067 -0.1749
  373TMC3    H2 5639   2.247   0.720  14.058 -0.1866 -0.0368 -0.1035
  373TMC3    C7 5640   2.422   0.763  13.856 -0.7219 -1.1934 -0.7787
  373TMC3    C8 5641   2.007   0.812  14.093 -1.2546  0.1381  0.2648
  373TMC3    O1 5642   2.446   0.654  13.904 -0.2317  0.0911  0.2598
  373TMC3    O2 5643   2.068   0.792  14.197  0.2962 -0.2488 -0.4614
  374TMC3    C1 5644   2.405   1.480  10.367  0.2190  0.2891  0.1779
  374TMC3    C2 5645   2.545   1.456  10.357 -0.1874  0.6748 -0.2070
  374TMC3    C3 5646   2.598   1.476  10.235  0.3948 -0.5774 -0.7986
  374TMC3    C4 5647   2.326   1.527  10.263 -0.0525  0.1990 -0.4800
  374TMC3    C5 5648   2.398   1.565  10.148 -0.3231 -0.3057 -0.5969
  374TMC3    C6 5649   2.527   1.525  10.130  0.3206 -0.1609 -0.7081
  374TMC3     C 5650   2.328   1.449  10.480 -0.5166  0.1369  0.1900
  374TMC3     O 5651   2.206   1.439  10.462 -0.4668  0.1988 -0.1143
  374TMC3     H 5652   2.591   1.391  10.430 -2.1088 -1.5541 -0.9971
  374TMC3    H1 5653   2.222   1.558  10.273 -0.0121 -0.9863  3.6205
  374TMC3    H2 5654   2.582   1.551  10.041 -0.3037 -0.4420 -1.1740
  374TMC3    C7 5655   2.322   1.612  10.031 -0.3592 -0.1036 -0.5262
  374TMC3    C8 5656   2.739   1.462  10.218  0.0240  0.0922 -0.6538
  374TMC3    O1 5657   2.371   1.590   9.920  0.1449 -0.0058 -0.3141
  374TMC3    O2 5658   2.783   1.457  10.106 -0.4023 -0.6960  0.6841
  375MPD2     C 5659   2.620   1.737  17.105  0.0955  0.4209  0.4430
  375MPD2    C1 5660   2.598   1.834  17.009  0.0520  0.5565 -0.2786
  375MPD2    C2 5661   2.646   1.801  16.879 -0.6306  0.3325  0.4890
  375MPD2    C3 5662   2.723   1.691  16.850  0.8090 -0.0175 -0.2964
  375MPD2    C4 5663   2.740   1.598  16.949  0.2617 -0.0000 -0.3432
  375MPD2    C5 5664   2.689   1.624  17.073  0.1523  0.1240 -0.1314
  375MPD2     H 5665   2.627   1.874  16.800  1.7818 -0.3797 -0.7671
  375MPD2    H1 5666   2.782   1.500  16.929  0.7426  0.1354  0.0303
  375MPD2    H2 5667   2.580   1.736  17.206 -0.0412  1.1606  0.4013
  375MPD2    H3 5668   2.719   1.555  17.151  0.5851  0.7853  0.2748
  375MPD2     N 5669   2.779   1.655  16.729 -0.5974  0.1392  0.1045
  375MPD2    H5 5670   2.842   1.575  16.736  0.0281  0.6734  0.6035
  375MPD2    N1 5671   2.524   1.955  17.030  0.2752 -0.5383  0.4324
  375MPD2    H7 5672   2.516   2.015  16.949  0.9987 -0.1632  0.6417
  376TMC3    C1 5673   2.871   1.648  16.517 -0.0250  1.4029 -0.1499
  376TMC3    C2 5674   2.956   1.551  16.558  0.2124 -0.1540  0.9474
  376TMC3    C3 5675   3.052   1.514  16.474 -0.7074  0.0324 -0.3101
  376TMC3    C4 5676   2.881   1.705  16.389 -1.1117 -0.3821 -0.2288
  376TMC3    C5 5677   2.984   1.664  16.307 -0.2783  0.9460  0.4974
  376TMC3    C6 5678   3.067   1.561  16.347  0.1836  0.4761 -0.6971
  376TMC3     C 5679   2.772   1.708  16.603 -0.1330  0.5544 -0.1870
  376TMC3     O 5680   2.698   1.793  16.554  0.0461 -0.3164  0.5368
  376TMC3     H 5681   2.963   1.510  16.658 -2.3906 -0.3352  1.0600
  376TMC3    H1 5682   2.803   1.770  16.350  1.9980  3.3666 -0.2152
  376TMC3    H2 5683   3.157   1.541  16.290 -0.7577 -0.8964 -1.6922
  376TMC3    C7 5684   2.986   1.719  16.172  0.2258 -0.3055  0.7922
  376TMC3    C8 5685   3.174   1.480  16.540 -0.0236 -0.4928  0.1993
  376TMC3    O1 5686   2.911   1.819  16.149 -0.0041 -0.2921  0.6858
  376TMC3    O2 5687   3.175   1.383  16.615 -0.1868 -0.6250 -0.0063
  377MPD2     C 5688   1.156   1.823  13.181 -0.1514 -0.1494  0.3442
  377MPD2    C1 5689   1.069   1.896  13.109 -0.7139 -0.4469 -0.7461
  377MPD2    C2 5690   0.935   1.887  13.120 -0.0034  0.2680 -0.1182
  377MPD2    C3 5691   0.886   1.791  13.206 -0.2578  0.5146  0.4437
  377MPD2    C4 5692   0.977   1.715  13.275 -0.1541  0.0605 -0.2346
  377MPD2    C5 5693   1.103   1.735  13.265  0.0184  0.4492  0.2041
  377MPD2     H 5694   0.871   1.943  13.054 -0.7730  0.2321  0.5914
  377MPD2    H1 5695   0.939   1.638  13.341  1.5569 -0.5720  0.0106
  377MPD2    H2 5696   1.261   1.845  13.171 -0.4147  0.6674 -0.6124
  377MPD2    H3 5697   1.165   1.675  13.330 -2.1254 -1.1383  0.7823
  377MPD2     N 5698   0.747   1.761  13.229 -0.9493 -0.6815  0.5261
  377MPD2    H5 5699   0.730   1.693  13.302 -0.0651 -0.1503  1.2262
  377MPD2    N1 5700   1.124   1.980  13.007  0.6047  0.0596 -0.6109
  377MPD2    H7 5701   1.222   1.963  12.986  0.4240 -2.6571  0.7394
  378TMC3    C1 5702   1.216   2.335  12.718 -0.9016 -0.1475  0.3487
  378TMC3    C2 5703   1.118   2.271  12.795 -0.1594  0.2031  1.2642
  378TMC3    C3 5704   1.160   2.152  12.848 -0.2359  0.6323 -0.9465
  378TMC3    C4 5705   1.343   2.298  12.708 -0.5944  0.1704  0.4763
  378TMC3    C5 5706   1.381   2.177  12.767 -0.2085 -0.1005  0.3652
  378TMC3    C6 5707   1.285   2.104  12.830  0.9577 -0.0801  0.0350
  378TMC3     C 5708   1.169   2.420  12.604  0.0769 -0.4284  0.8852
  378TMC3     O 5709   1.224   2.419  12.494 -0.0909  0.1238 -0.0950
  378TMC3     H 5710   1.019   2.304  12.822 -0.8431 -1.7560  1.1816
  378TMC3    H1 5711   1.401   2.366  12.646 -1.1810 -0.4144 -0.7264
  378TMC3    H2 5712   1.327   2.017  12.879 -0.0250 -0.7594 -0.3377
  378TMC3    C7 5713   1.491   2.090  12.713 -0.2401 -1.0286  0.2977
  378TMC3    C8 5714   1.065   2.069  12.923  0.0382 -0.1289 -0.6464
  378TMC3    O1 5715   1.544   2.017  12.796 -0.2164  0.0907 -0.7735
  378TMC3    O2 5716   0.943   2.093  12.903 -0.1981 -0.1108  0.1636
  379MPD2     C 5717   1.343   4.437  16.830  0.7169 -0.0439 -0.2196
  379MPD2    C1 5718   1.421   4.351  16.751  0.6932  0.2403  0.4541
  379MPD2    C2 5719   1.529   4.295  16.808 -1.1405 -0.4526 -0.1473
  379MPD2    C3 5720   1.556   4.318  16.944  0.1739  0.6975 -0.4204
  379MPD2    C4 5721   1.477   4.403  17.020  0.2855  0.0420 -0.1348
  379MPD2    C5 5722   1.371   4.464  16.960  0.3910 -0.0860  0.1325
  379MPD2     H 5723   1.586   4.225  16.748 -0.0659  0.0726  0.2582
  379MPD2    H1 5724   1.504   4.435  17.120 -0.8605  0.3508  0.0802
  379MPD2    H2 5725   1.250   4.484  16.799  0.4261  0.3174  1.2232
  379MPD2    H3 5726   1.312   4.542  17.006  1.1582  0.9524 -0.6516
  379MPD2     N 5727   1.665   4.262  17.007 -0.2249  0.6837 -0.1975
  379MPD2    H5 5728   1.660   4.263  17.108 -0.5427 -1.0517 -0.1877
  379MPD2    N1 5729   1.376   4.319  16.620  0.0586  0.2407 -0.1222
  379MPD2    H7 5730   1.279   4.342  16.601  0.3935  0.2246 -1.7757
  380TMC3    C1 5731   1.369   4.231  16.410  0.2144 -0.1425  0.0677
  380TMC3    C2 5732   1.413   4.132  16.335  0.3432  0.2455 -0.7150
  380TMC3    C3 5733   1.339   4.112  16.220 -0.6772 -0.6752  0.3208
  380TMC3    C4 5734   1.271   4.319  16.382  0.1651  0.0521 -0.0394
  380TMC3    C5 5735   1.197   4.295  16.271 -0.0152 -0.9742  0.6352
  380TMC3    C6 5736   1.227   4.182  16.189  0.0041  0.3423 -0.1717
  380TMC3     C 5737   1.448   4.254  16.530  0.2005 -0.6188  0.6436
  380TMC3     O 5738   1.552   4.185  16.539  0.3400 -0.6000  0.4937
  380TMC3     H 5739   1.496   4.072  16.368  0.4113  0.0785 -1.1917
  380TMC3    H1 5740   1.241   4.410  16.433 -1.0929 -1.1492  1.3588
  380TMC3    H2 5741   1.180   4.166  16.092  0.6884  1.4525 -0.6891
  380TMC3    C7 5742   1.149   4.413  16.202  0.4485  0.1912  0.0964
  380TMC3    C8 5743   1.401   4.039  16.108  0.2711  0.4437  0.4019
  380TMC3    O1 5744   1.216   4.514  16.226  0.1160  0.0998  0.9717
  380TMC3    O2 5745   1.344   4.064  15.998  0.3699  0.7687  0.6299
  381TMC3    C1 5746   1.180   0.889  16.499  0.3987  0.4077 -0.9870
  381TMC3    C2 5747   1.277   0.981  16.464  0.3805 -0.2112 -0.3253
  381TMC3    C3 5748   1.326   1.073  16.557 -0.6181  1.0399 -0.1544
  381TMC3    C4 5749   1.135   0.889  16.626 -0.1197  0.2920  0.8077
  381TMC3    C5 5750   1.173   0.992  16.711 -0.0847 -0.6729 -0.6592
  381TMC3    C6 5751   1.268   1.083  16.683 -0.4132 -0.1646  0.3800
  381TMC3     C 5752   1.108   0.824  16.393  0.5387 -0.7644  0.3507
  381TMC3     O 5753   1.135   0.861  16.276  0.1501 -0.0227  0.3162
  381TMC3     H 5754   1.319   0.980  16.364  0.8847  0.9678 -0.1316
  381TMC3    H1 5755   1.067   0.813  16.661 -0.6054  0.0247 -0.7247
  381TMC3    H2 5756   1.294   1.156  16.759 -4.1430  0.2407  1.2715
  381TMC3    C7 5757   1.162   0.971  16.847 -0.0760  0.3053  0.6696
  381TMC3    C8 5758   1.440   1.154  16.515 -0.2777 -0.3687  0.8886
  381TMC3    O1 5759   1.194   0.858  16.885  0.1160  0.1464 -0.0603
  381TMC3    O2 5760   1.476   1.156  16.398  0.5188 -0.1726 -0.3491
  382MPD2     C 5761   0.783   3.412  17.599  0.7306 -0.1608 -0.1109
  382MPD2    C1 5762   0.670   3.424  17.523 -0.8524 -0.2724 -0.1546
  382MPD2    C2 5763   0.590   3.317  17.514  0.0747 -0.0294 -0.6654
  382MPD2    C3 5764   0.611   3.194  17.582  0.1189 -0.2120 -0.4063
  382MPD2    C4 5765   0.730   3.186  17.650 -0.6257  0.0750 -0.1917
  382MPD2    C5 5766   0.816   3.293  17.658  0.0671  0.0115  0.4578
  382MPD2     H 5767   0.510   3.326  17.442 -0.6329 -2.3765 -0.1577
  382MPD2    H1 5768   0.761   3.109  17.720 -0.5449 -1.4740 -1.9582
  382MPD2    H2 5769   0.857   3.491  17.610  1.4307 -0.8536  0.1437
  382MPD2    H3 5770   0.909   3.286  17.712  0.5060 -0.9807 -0.4166
  382MPD2     N 5771   0.530   3.081  17.574 -0.0865 -0.0467 -0.2419
  382MPD2    H5 5772   0.564   2.994  17.613 -2.2080 -0.9739 -0.4303
  382MPD2    N1 5773   0.635   3.534  17.432  0.1786  0.5603  0.3226
  382MPD2    H7 5774   0.542   3.527  17.392  0.2357  0.4628  0.2076
  383TMC3    C1 5775   0.329   2.956  17.542 -0.0767  0.3115 -0.3113
  383TMC3    C2 5776   0.224   2.929  17.458  0.3213 -0.8620 -0.3667
  383TMC3    C3 5777   0.171   2.807  17.468  0.5983  0.2618  0.2404
  383TMC3    C4 5778   0.384   2.867  17.625 -0.1996  0.0620 -0.1773
  383TMC3    C5 5779   0.320   2.744  17.635  0.8076  0.7055  0.5788
  383TMC3    C6 5780   0.214   2.713  17.553  0.1934 -0.3883  0.2642
  383TMC3     C 5781   0.402   3.081  17.517 -0.8126 -0.1778 -0.3370
  383TMC3     O 5782   0.340   3.175  17.470 -0.2617  0.5866 -0.3066
  383TMC3     H 5783   0.180   3.002  17.390  0.6784  0.4960  0.8725
  383TMC3    H1 5784   0.445   2.902  17.707 -0.2550 -1.7662  0.6362
  383TMC3    H2 5785   0.174   2.612  17.550 -1.1475  0.1196  0.9366
  383TMC3    C7 5786   0.360   2.642  17.732 -0.4931  0.1394  0.4596
  383TMC3    C8 5787   0.100   2.764  17.352  0.2516  0.4844 -0.6772
  383TMC3    O1 5788   0.279   2.554  17.753 -0.3113  0.6775 -0.4302
  383TMC3    O2 5789   0.016   2.830  17.298 -0.6668 -0.4121 -0.5718
  384MPD2     C 5790   2.530   4.623  12.131 -0.3457  0.3579 -0.0608
  384MPD2    C1 5791   2.542   4.544  12.244 -0.2117 -0.7025 -0.6057
  384MPD2    C2 5792   2.643   4.457  12.261 -0.5078 -0.5751  0.8871
  384MPD2    C3 5793   2.738   4.443  12.162 -0.1707  0.0401  0.5940
  384MPD2    C4 5794   2.723   4.512  12.043  0.7366  0.3118  0.3584
  384MPD2    C5 5795   2.619   4.598  12.035  0.0054 -0.3440 -0.1205
  384MPD2     H 5796   2.649   4.398  12.352  1.0973 -0.8454  0.6169
  384MPD2    H1 5797   2.799   4.515  11.966 -0.0067 -2.0097 -0.4793
  384MPD2    H2 5798   2.452   4.698  12.119  0.8873  1.0913 -3.4604
  384MPD2    H3 5799   2.614   4.669  11.953 -0.7236 -0.6312 -0.3254
  384MPD2     N 5800   2.849   4.348  12.164 -0.1639 -0.6584  0.0970
  384MPD2    H5 5801   2.912   4.337  12.085 -1.3424  0.4978 -0.9893
  384MPD2    N1 5802   2.450   4.565  12.352  0.7709  0.0725  0.3932
  384MPD2    H7 5803   2.470   4.526  12.443  0.6580 -2.2896 -0.5732
  385TMC3    C1 5804   2.979   4.155  12.235  0.2197 -0.8760  0.4183
  385TMC3    C2 5805   2.937   4.044  12.164 -0.6148  0.4548 -0.4672
  385TMC3    C3 5806   2.942   3.923  12.237 -0.1441 -0.3024 -0.2529
  385TMC3    C4 5807   3.032   4.141  12.359  0.1182 -0.7290  0.2478
  385TMC3    C5 5808   3.046   4.026  12.426 -0.5781  0.2149 -0.7276
  385TMC3    C6 5809   2.994   3.913  12.365 -0.4845  0.1744 -0.5367
  385TMC3     C 5810   2.855   4.238  12.253  0.0336  0.3752 -0.0657
  385TMC3     O 5811   2.780   4.203  12.346 -0.2979 -0.3718  0.0300
  385TMC3     H 5812   2.887   4.058  12.069 -0.1716  0.3085 -0.7248
  385TMC3    H1 5813   3.042   4.224  12.428  0.4477  0.0061 -0.6944
  385TMC3    H2 5814   3.005   3.824  12.425  0.5729 -0.1472 -1.2093
  385TMC3    C7 5815   3.007   4.034  12.570  0.0641  0.5424  0.6951
  385TMC3    C8 5816   2.852   3.811  12.197 -0.0376 -0.5368 -0.5020
  385TMC3    O1 5817   3.072   3.978  12.658 -0.1441 -0.1220 -0.3729
  385TMC3    O2 5818   2.769   3.837  12.113 -1.0001 -0.7053  0.4522
  386TMC3    C1 5819   2.601   1.811  11.593  0.7349 -0.0238 -0.3787
  386TMC3    C2 5820   2.588   1.878  11.470 -0.0792 -0.7215 -0.3593
  386TMC3    C3 5821   2.518   1.996  11.458  0.0473  0.1089  0.2117
  386TMC3    C4 5822   2.539   1.871  11.697 -0.0468 -0.5192  0.3299
  386TMC3    C5 5823   2.476   1.991  11.686  0.2498 -0.0754 -0.4157
  386TMC3    C6 5824   2.464   2.055  11.562 -0.7673 -0.8214  0.4569
  386TMC3     C 5825   2.684   1.693  11.599  0.3497  0.2639  0.0515
  386TMC3     O 5826   2.772   1.700  11.516  0.0584  0.5698 -0.0928
  386TMC3     H 5827   2.635   1.834  11.383  1.5988 -0.2007  0.2800
  386TMC3    H1 5828   2.548   1.821  11.793  0.2081  1.3559  1.2769
  386TMC3    H2 5829   2.385   2.127  11.547 -0.2241 -0.8148 -2.3706
  386TMC3    C7 5830   2.382   2.030  11.793  0.7995 -0.0312 -0.0281
  386TMC3    C8 5831   2.444   2.011  11.337  0.3051 -0.0830  0.4911
  386TMC3    O1 5832   2.352   1.936  11.864  0.4849 -0.1854  0.5323
  386TMC3    O2 5833   2.401   2.128  11.321  0.6315  0.4695 -0.0299
  387MPD2     C 5834   4.636   1.732   9.990 -0.6457 -0.5310 -0.1339
  387MPD2    C1 5835   4.727   1.724  10.095  0.0265  0.7800  1.0802
  387MPD2    C2 5836   0.010   1.610  10.166  0.6076 -0.4606  0.0480
  387MPD2    C3 5837   4.689   1.493  10.123 -0.1458 -0.1185  0.1094
  387MPD2    C4 5838   4.607   1.487  10.013  0.3837  0.6983 -0.1827
  387MPD2    C5 5839   4.584   1.609   9.948 -0.4232 -0.2768  0.3919
  387MPD2     H 5840   0.067   1.605  10.258 -0.3134 -0.0992  0.6392
  387MPD2    H1 5841   4.553   1.399   9.979 -0.7434  2.1423 -2.0931
  387MPD2    H2 5842   4.617   1.823   9.934  1.0480 -0.1447 -0.0877
  387MPD2    H3 5843   4.523   1.612   9.859  3.3804  2.3055 -2.1387
  387MPD2     N 5844   4.727   1.377  10.200  0.1008  0.7222 -0.2388
  387MPD2    H5 5845   0.032   1.394  10.290  0.3101 -2.3097  0.2319
  387MPD2    N1 5846   0.065   1.832  10.148 -0.7054 -0.3636 -0.5293
  387MPD2    H7 5847   0.140   1.814  10.213 -2.2472 -0.0684  1.3178
  388TMC3    C1 5848   0.167   2.043  10.182  0.0539  0.3748 -0.3732
  388TMC3    C2 5849   0.235   2.145  10.124 -0.0264 -0.5320 -0.1702
  388TMC3    C3 5850   0.340   2.196  10.191 -0.5752  0.2324 -0.5223
  388TMC3    C4 5851   0.200   1.990  10.311  0.0071  0.1231 -1.4118
  388TMC3    C5 5852   0.308   2.048  10.377 -0.5286  0.0734  0.1450
  388TMC3    C6 5853   0.365   2.158  10.320  0.5375  0.3227 -0.2285
  388TMC3     C 5854   0.077   1.961  10.101  0.0882  0.5929 -0.2747
  388TMC3     O 5855   0.047   2.001   9.988  0.3007 -0.1374  0.4224
  388TMC3     H 5856   0.202   2.180  10.027 -1.7043  0.3430  0.7154
  388TMC3    H1 5857   0.152   1.906  10.360 -0.4796  1.1420 -0.1329
  388TMC3    H2 5858   0.446   2.208  10.373  2.5134 -0.4333 -2.5387
  388TMC3    C7 5859   0.389   1.958  10.463 -0.3258  0.0017 -0.8650
  388TMC3    C8 5860   0.379   2.335  10.158 -0.5254 -0.5091 -1.1048
  388TMC3    O1 5861   0.509   1.972  10.448  0.1289 -0.1532  0.2565
  388TMC3    O2 5862   0.400   2.400  10.260  0.0130 -0.0998  0.5633
  389MPD2     C 5863   4.569   4.700  11.649 -0.1362  0.1252  0.5371
  389MPD2    C1 5864   4.463   4.666  11.576  0.1736 -0.1660  0.3311
  389MPD2    C2 5865   4.376   4.570  11.623 -0.3916  0.7482 -0.7576
  389MPD2    C3 5866   4.390   4.524  11.751 -0.3849  0.5964  0.1026
  389MPD2    C4 5867   4.502   4.558  11.828  0.1599  0.0976  0.0260
  389MPD2    C5 5868   4.595   4.645  11.770  0.0227  0.2004 -0.2545
  389MPD2     H 5869   4.294   4.542  11.558  0.1806 -0.6962 -0.8456
  389MPD2    H1 5870   4.523   4.504  11.920  3.2180 -1.2283 -1.4519
  389MPD2    H2 5871   4.636   0.034  11.604 -1.1940  1.0315  0.4362
  389MPD2    H3 5872   4.688   4.670  11.819  0.2461  0.3210 -0.7444
  389MPD2     N 5873   4.294   4.444  11.809 -0.4276  0.0572  0.4599
  389MPD2    H5 5874   4.301   4.428  11.909 -0.9404  1.9253  0.7879
  389MPD2    N1 5875   4.448   4.731  11.450 -0.0382  0.9622  0.5905
  389MPD2    H7 5876   4.528   0.050  11.427  1.7564 -2.1607 -1.1661
  390TMC3    C1 5877   4.083   4.344  11.838  0.0724  0.4164  0.0582
  390TMC3    C2 5878   3.986   4.264  11.792 -0.3586  0.6308  0.1142
  390TMC3    C3 5879   3.879   4.238  11.878  0.2949 -0.5341  0.3614
  390TMC3    C4 5880   4.074   4.416  11.957 -0.4134 -0.2661 -0.0303
  390TMC3    C5 5881   3.971   4.384  12.037 -0.1497 -0.2693  0.4894
  390TMC3    C6 5882   3.871   4.301  11.999 -0.1938 -0.1524 -0.1338
  390TMC3     C 5883   4.183   4.393  11.745  0.1977  0.5812 -0.3905
  390TMC3     O 5884   4.168   4.365  11.626 -0.0619 -0.4856 -0.5705
  390TMC3     H 5885   4.005   4.214  11.698 -1.6932  0.6132 -0.1522
  390TMC3    H1 5886   4.144   4.490  11.996  0.6794 -1.3077  0.0004
  390TMC3    H2 5887   3.787   4.279  12.064 -0.7651 -1.4275 -1.2936
  390TMC3    C7 5888   3.994   4.400  12.179  0.8937 -0.6629  0.8286
  390TMC3    C8 5889   3.803   4.110  11.864  0.4003  0.4463 -0.4719
  390TMC3    O1 5890   4.113   4.426  12.207  0.1698  0.3079  0.0606
  390TMC3    O2 5891   3.756   4.075  11.756  0.1213 -0.6234  0.3707
  391MPD2     C 5892   3.276   1.604  11.718 -0.2356 -0.3403  0.4122
  391MPD2    C1 5893   3.399   1.593  11.655 -0.2164 -0.0667 -0.0714
  391MPD2    C2 5894   3.407   1.555  11.529  0.1498 -0.0002  0.0957
  391MPD2    C3 5895   3.292   1.549  11.450 -0.5284  0.7030  0.1935
  391MPD2    C4 5896   3.164   1.574  11.503 -0.3781  0.0755  0.6802
  391MPD2    C5 5897   3.165   1.604  11.641  0.2837 -0.1336 -0.3740
  391MPD2     H 5898   3.492   1.517  11.474  0.0980  0.7229 -0.4701
  391MPD2    H1 5899   3.070   1.575  11.448 -0.2166  0.1547  0.4055
  391MPD2    H2 5900   3.261   1.640  11.819  1.2139 -0.7587  0.7720
  391MPD2    H3 5901   3.071   1.626  11.690  0.1183 -0.8221 -0.3891
  391MPD2     N 5902   3.301   1.518  11.316  0.0066 -0.4040  0.1005
  391MPD2    H5 5903   3.393   1.492  11.282  0.5872  2.8863 -0.9377
  391MPD2    N1 5904   3.513   1.617  11.737 -0.3951  0.7038  0.5591
  391MPD2    H7 5905   3.491   1.647  11.832  1.4871 -0.4245  1.3489
  392TMC3    C1 5906   3.275   1.567  11.086  0.5716 -0.1194  0.0151
  392TMC3    C2 5907   3.191   1.531  10.981  0.0254 -0.5393 -0.3864
  392TMC3    C3 5908   3.243   1.498  10.859 -0.4426  1.1774  0.2088
  392TMC3    C4 5909   3.410   1.573  11.069 -0.0002  0.1184  0.5913
  392TMC3    C5 5910   3.450   1.531  10.945 -0.6031  0.5238 -0.4636
  392TMC3    C6 5911   3.375   1.498  10.840 -0.9902  0.0268  0.7198
  392TMC3     C 5912   3.210   1.552  11.218  0.4866 -0.3068 -0.5233
  392TMC3     O 5913   3.090   1.581  11.223 -0.4006 -0.9781 -0.1604
  392TMC3     H 5914   3.085   1.526  11.001  0.3937 -1.7039  1.2292
  392TMC3    H1 5915   3.474   1.593  11.154  1.4697  0.4763 -0.5822
  392TMC3    H2 5916   3.403   1.474  10.738  0.9238 -2.0856  1.7431
  392TMC3    C7 5917   3.576   1.600  10.913 -0.1666  0.7647 -0.8838
  392TMC3    C8 5918   3.147   1.493  10.749 -0.0805  0.1006  0.5367
  392TMC3    O1 5919   3.626   1.682  10.989 -1.0782  0.2114 -0.4209
  392TMC3    O2 5920   3.033   1.533  10.766  0.0785  0.3233  0.5206
  393TMC3    C1 5921   2.476   4.260  11.158 -0.0315 -0.1184  0.5140
  393TMC3    C2 5922   2.363   4.190  11.196 -0.2923 -0.1020  0.1230
  393TMC3    C3 5923   2.365   4.052  11.192  0.1410  0.3463 -0.0334
  393TMC3    C4 5924   2.578   4.200  11.089  0.2092 -0.3699 -0.6828
  393TMC3    C5 5925   2.581   4.063  11.092 -0.1129 -0.0546 -0.2832
  393TMC3    C6 5926   2.480   3.991  11.150 -0.5958 -0.0015  0.3095
  393TMC3     C 5927   2.454   4.405  11.124  1.1682 -1.3546 -0.5202
  393TMC3     O 5928   2.336   4.435  11.099  0.5414  0.0583  0.6358
  393TMC3     H 5929   2.283   4.245  11.244  0.5087  1.7966 -0.7193
  393TMC3    H1 5930   2.649   4.255  11.029 -2.1189  2.2158 -1.0762
  393TMC3    H2 5931   2.481   3.883  11.143 -0.3268  0.1685 -2.2666
  393TMC3    C7 5932   2.639   3.995  10.979 -0.3954 -0.1986  0.5696
  393TMC3    C8 5933   2.270   3.986  11.262 -0.2466 -0.2232  0.8290
  393TMC3    O1 5934   2.571   3.912  10.918 -0.3276 -0.0375  0.0548
  393TMC3    O2 5935   2.217   4.040  11.359  0.4148 -0.2367  0.1215
  394TMC3    C1 5936   4.343   0.062  11.241  0.4880  0.1384 -0.0564
  394TMC3    C2 5937   4.242   0.050  11.152  0.0143 -0.2485  0.4658
  394TMC3    C3 5938   4.249   0.115  11.035 -0.1755  0.5161  0.3370
  394TMC3    C4 5939   4.460   0.127  11.209  0.4841 -0.1257  0.4598
  394TMC3    C5 5940   4.460   0.187  11.085  0.1136  0.8307 -0.2294
  394TMC3    C6 5941   4.353   0.189  11.002  0.0928 -0.6969  0.3677
  394TMC3     C 5942   4.344   4.716  11.360 -0.3503  0.5854  0.0854
  394TMC3     O 5943   4.235   4.661  11.385  0.3861 -0.3848  0.5559
  394TMC3     H 5944   4.168   4.713  11.174  0.8856 -1.6094 -1.3718
  394TMC3    H1 5945   4.548   0.135  11.272  0.2641 -1.0921  0.8861
  394TMC3    H2 5946   4.359   0.248  10.911 -0.9740  0.7914  1.2667
  394TMC3    C7 5947   4.576   0.236  11.032 -0.3145 -0.0829  0.4822
  394TMC3    C8 5948   4.195   0.037  10.917 -0.6866 -0.5102  0.1050
  394TMC3    O1 5949   4.568   0.333  10.957  0.0058  0.0679 -0.3848
  394TMC3    O2 5950   4.145   4.667  10.942  0.8875 -0.5981  0.1225
  395TMC3    C1 5951   3.716   1.715  15.026  0.0469 -0.8099 -0.0522
  395TMC3    C2 5952   3.601   1.750  14.964 -0.0529 -0.0633  0.4515
  395TMC3    C3 5953   3.592   1.877  14.916  0.0782  0.1419  0.2452
  395TMC3    C4 5954   3.830   1.789  15.022  0.3638  0.3341 -0.1709
  395TMC3    C5 5955   3.811   1.914  14.967  0.9174 -0.8860 -0.3332
  395TMC3    C6 5956   3.698   1.965  14.922 -0.2146 -1.2859 -0.3094
  395TMC3     C 5957   3.680   1.696  15.166 -0.1472 -0.0016 -0.7506
  395TMC3     O 5958   3.576   1.735  15.214 -0.4561  0.1821 -0.3701
  395TMC3     H 5959   3.515   1.687  14.980 -0.3625  0.8110  2.2483
  395TMC3    H1 5960   3.916   1.764  15.083  0.9605  3.0346  0.0684
  395TMC3    H2 5961   3.698   2.067  14.885  3.4209 -0.6884  1.3746
  395TMC3    C7 5962   3.912   2.008  14.991  0.9983 -0.1738  0.6858
  395TMC3    C8 5963   3.463   1.932  14.946 -0.1997 -0.3143  0.3260
  395TMC3    O1 5964   3.879   2.125  15.010  0.3872  0.6728  0.1513
  395TMC3    O2 5965   3.459   2.045  14.993 -0.2526 -0.9830  0.3174
  396MPD2     C 5966   3.185   3.133  17.058 -0.2093  0.1267  0.1442
  396MPD2    C1 5967   3.292   3.141  17.141  0.6446 -0.0571  0.1149
  396MPD2    C2 5968   3.389   3.231  17.102 -0.8297  0.0837 -0.3415
  396MPD2    C3 5969   3.389   3.299  16.977  0.5867 -0.2415  0.3855
  396MPD2    C4 5970   3.290   3.271  16.886 -0.2926  0.1019  0.1311
  396MPD2    C5 5971   3.189   3.196  16.938  0.3626 -0.1080  0.3009
  396MPD2     H 5972   3.473   3.239  17.171 -1.3916 -1.8261  0.5769
  396MPD2    H1 5973   3.288   3.323  16.790  1.5990  1.7559  0.9893
  396MPD2    H2 5974   3.110   3.062  17.089  0.2114 -0.4389 -0.1475
  396MPD2    H3 5975   3.114   3.173  16.863 -0.5690 -0.6422  1.3953
  396MPD2     N 5976   3.492   3.387  16.933 -0.0655 -0.4454  0.5369
  396MPD2    H5 5977   3.489   3.409  16.834 -0.6419 -1.6660  0.2780
  396MPD2    N1 5978   3.297   3.049  17.247  0.1281 -0.2672  0.1530
  396MPD2    H7 5979   3.226   2.976  17.243 -0.2016 -0.0148  1.2827
  397TMC3    C1 5980   3.415   2.903  17.386 -1.0235 -0.2614  0.4172
  397TMC3    C2 5981   3.516   2.836  17.310  0.1655  0.2595  0.2404
  397TMC3    C3 5982   3.492   2.708  17.271  0.1832 -0.1332  0.1706
  397TMC3    C4 5983   3.307   2.829  17.429 -0.7204  0.4963  0.1260
  397TMC3    C5 5984   3.304   2.695  17.402  0.1710  0.2871  0.2391
  397TMC3    C6 5985   3.388   2.637  17.317 -0.1151 -0.5977  0.0929
  397TMC3     C 5986   3.400   3.036  17.334 -0.0773 -0.0954  0.4590
  397TMC3     O 5987   3.495   3.114  17.355  0.2213  0.1526  0.6731
  397TMC3     H 5988   3.591   2.893  17.256  0.2589  0.1565  0.2622
  397TMC3    H1 5989   3.240   2.881  17.496  2.2466 -0.1803  3.6526
  397TMC3    H2 5990   3.387   2.533  17.288 -0.6209 -0.1623 -1.4467
  397TMC3    C7 5991   3.235   2.607  17.502 -1.1587  0.8939 -0.0157
  397TMC3    C8 5992   3.526   2.683  17.136 -0.3510 -0.7326 -0.1762
  397TMC3    O1 5993   3.225   2.485  17.487  0.3726 -0.2999  0.6039
  397TMC3    O2 5994   3.432   2.654  17.058 -0.5754  0.4914  0.2223
  398MPD2     C 5995   1.843   0.106   0.384 -0.4726  0.0124  0.0100
  398MPD2    C1 5996   1.904   0.033   0.489 -0.1072  0.0094 -0.4370
  398MPD2    C2 5997   2.019   0.076   0.544  0.0073  0.3913 -0.4130
  398MPD2    C3 5998   2.096   0.174   0.486 -0.6931 -0.2438 -0.4467
  398MPD2    C4 5999   2.037   0.243   0.383  0.0628  0.1756 -0.3603
  398MPD2    C5 6000   1.919   0.206   0.330 -0.2722  0.8955 -0.3699
  398MPD2     H 6001   2.055   0.024   0.633  2.4990  0.0381 -1.6214
  398MPD2    H1 6002   2.080   0.320   0.320 -1.6550 -0.6656 -2.5502
  398MPD2    H2 6003   1.749   0.082   0.335  0.5110  0.0995 -1.9116
  398MPD2    H3 6004   1.890   0.265   0.244 -0.4956  1.5008  0.1218
  398MPD2     N 6005   2.219   0.207   0.541  0.2586  0.6633  0.4401
  398MPD2    H5 6006   2.251   0.142   0.613  0.4384 -0.6646 -0.8476
  398MPD2    N1 6007   1.839   4.654   0.543  0.4440 -0.6680  0.3241
  398MPD2    H7 6008   1.892   4.613   0.619 -0.5360 -1.0673  0.7853
  399TMC3    C1 6009   1.668   4.491   0.561  0.1117 -0.5506  0.4828
  399TMC3    C2 6010   1.736   4.435   0.667 -0.6240 -0.6743  0.5013
  399TMC3    C3 6011   1.671   4.339   0.744 -0.3290 -0.2300 -0.0749
  399TMC3    C4 6012   1.538   4.460   0.536 -0.3001  0.1542  0.2179
  399TMC3    C5 6013   1.480   4.361   0.615 -0.1726  0.2111 -0.1379
  399TMC3    C6 6014   1.549   4.295   0.713  0.1228  0.4626  0.3137
  399TMC3     C 6015   1.720   4.609   0.499 -0.1958 -0.4891 -0.0851
  399TMC3     O 6016   1.640   4.647   0.412 -0.2430  0.4571  0.5414
  399TMC3     H 6017   1.831   4.473   0.704 -1.3534  2.0286 -0.4273
  399TMC3    H1 6018   1.477   4.508   0.460 -0.3404  0.5495  0.5030
  399TMC3    H2 6019   1.514   4.207   0.765 -1.1895  0.7845 -0.0249
  399TMC3    C7 6020   1.349   4.304   0.578 -0.2014 -0.6133 -1.5761
  399TMC3    C8 6021   1.739   4.294   0.864 -0.5913  0.1968  0.1516
  399TMC3    O1 6022   1.317   4.195   0.625 -0.0238  0.1725 -0.4544
  399TMC3    O2 6023   1.863   4.290   0.873  0.0730 -1.0343  1.1557
  400TMC3    C1 6024   0.416   3.084  17.098  0.3442  0.1921 -0.3365
  400TMC3    C2 6025   0.315   3.070  17.008  0.0383 -0.1475 -0.0377
  400TMC3    C3 6026   0.274   3.189  16.956 -0.0673 -0.0968  0.5571
  400TMC3    C4 6027   0.455   3.208  17.146  0.9768 -0.2674  0.4121
  400TMC3    C5 6028   0.408   3.324  17.090 -0.4673  0.1666  0.0967
  400TMC3    C6 6029   0.323   3.312  16.985 -1.3181 -0.2563  0.1152
  400TMC3     C 6030   0.495   2.961  17.133  0.5098 -0.4019  0.1262
  400TMC3     O 6031   0.452   2.851  17.119  0.0564 -0.1783 -0.4854
  400TMC3     H 6032   0.266   2.976  16.984  0.7323 -0.7095  0.7600
  400TMC3    H1 6033   0.521   3.222  17.231  0.5632  3.3627  0.1319
  400TMC3    H2 6034   0.286   3.405  16.944  1.7492  0.7024 -0.4663
  400TMC3    C7 6035   0.357   3.419  17.181 -0.0184 -0.3946 -0.2482
  400TMC3    C8 6036   0.137   3.201  16.898 -0.9574  0.4201 -0.5220
  400TMC3    O1 6037   0.434   3.450  17.269  0.4914  0.0538  0.3392
  400TMC3    O2 6038   0.086   3.309  16.904  0.4980  0.2025 -0.0626
  401MPD2     C 6039   3.373   1.177   0.862  0.0734  0.2192 -0.7585
  401MPD2    C1 6040   3.475   1.145   0.950  0.4552 -0.6490 -0.5827
  401MPD2    C2 6041   3.530   1.017   0.948 -0.2690 -0.3096 -0.5844
  401MPD2    C3 6042   3.488   0.926   0.854  0.5131  0.6380 -0.1139
  401MPD2    C4 6043   3.389   0.954   0.767  0.8010  0.3946 -0.3182
  401MPD2    C5 6044   3.320   1.077   0.777 -0.2671  0.0370  0.2124
  401MPD2     H 6045   3.608   0.988   1.018  0.3206  0.7594 -0.7882
  401MPD2    H1 6046   3.354   0.890   0.687 -1.7243  0.5144  0.7023
  401MPD2    H2 6047   3.347   1.281   0.851  0.5142  0.4561  0.5209
  401MPD2    H3 6048   3.234   1.103   0.716  0.4300 -0.7435 -1.0952
  401MPD2     N 6049   3.550   0.800   0.864 -0.5237 -0.1810 -0.1150
  401MPD2    H5 6050   3.620   0.787   0.937  0.9233 -0.7912 -1.5868
  401MPD2    N1 6051   3.521   1.245   1.041  0.7610  0.2529 -0.2051
  401MPD2    H7 6052   3.506   1.343   1.017 -1.0677 -0.3603 -1.5502
  402TMC3    C1 6053   3.626   0.588   0.804 -0.0478 -0.1514 -0.3203
  402TMC3    C2 6054   3.628   0.547   0.936 -0.5444 -0.0643 -1.0604
  402TMC3    C3 6055   3.672   0.419   0.961  0.1911 -0.1030 -0.2080
  402TMC3    C4 6056   3.672   0.508   0.707 -0.8408 -0.4537  0.0884
  402TMC3    C5 6057   3.718   0.384   0.738  0.4958 -0.1839 -0.0554
  402TMC3    C6 6058   3.706   0.328   0.861  0.0438 -0.3824 -0.8275
  402TMC3     C 6059   3.549   0.705   0.768 -0.5815 -0.0382  0.1227
  402TMC3     O 6060   3.543   0.733   0.649  0.2018 -0.3751  0.2832
  402TMC3     H 6061   3.577   0.601   1.016  1.1279 -1.1151  0.7098
  402TMC3    H1 6062   3.659   0.538   0.604 -0.8164 -3.0994 -0.6935
  402TMC3    H2 6063   3.742   0.229   0.889 -0.0948 -0.3246 -0.4518
  402TMC3    C7 6064   3.796   0.315   0.639  0.5112 -0.0446 -0.2114
  402TMC3    C8 6065   3.739   0.395   1.086  0.4857  0.0898 -0.0821
  402TMC3    O1 6066   3.808   0.193   0.642  0.2201 -0.4089 -0.0178
  402TMC3    O2 6067   3.810   0.297   1.087 -0.2638  0.0452  0.0226
  403MPD2     C 6068   1.779   3.597  13.139 -0.4667  0.1518 -0.1218
  403MPD2    C1 6069   1.806   3.592  13.271  0.6374 -0.3277 -0.1801
  403MPD2    C2 6070   1.908   3.681  13.316 -0.2594  0.4237  0.2336
  403MPD2    C3 6071   1.965   3.783  13.233 -0.5317  0.1897 -0.7074
  403MPD2    C4 6072   1.928   3.786  13.102  0.4714 -0.5900  0.4245
  403MPD2    C5 6073   1.840   3.690  13.054 -0.1840 -0.2265 -0.8267
  403MPD2     H 6074   1.926   3.693  13.422 -2.0596 -1.3705  0.7604
  403MPD2    H1 6075   1.974   3.856  13.033  0.7090 -1.7665 -0.6240
  403MPD2    H2 6076   1.713   3.525  13.094  1.8410 -2.8086  1.2130
  403MPD2    H3 6077   1.801   3.696  12.953  2.6714 -0.0137 -1.9139
  403MPD2     N 6078   2.046   3.872  13.298  0.0332  0.6609 -0.2149
  403MPD2    H5 6079   2.090   3.849  13.387 -0.8037  2.2077  0.5936
  403MPD2    N1 6080   1.744   3.497  13.355  0.3082  0.3200  0.6124
  403MPD2    H7 6081   1.659   3.447  13.330  0.6507 -0.2858  0.6869
  404TMC3    C1 6082   1.707   3.388  13.562 -0.1569 -0.0739  0.4618
  404TMC3    C2 6083   1.748   3.377  13.691  0.6438 -0.0428 -0.2048
  404TMC3    C3 6084   1.739   3.262  13.756 -0.3291  0.3730  0.2216
  404TMC3    C4 6085   1.643   3.284  13.502  0.5006  0.1847  0.0395
  404TMC3    C5 6086   1.629   3.176  13.581 -0.9658 -0.0338 -0.4451
  404TMC3    C6 6087   1.673   3.159  13.709  0.1325 -0.3515 -0.0085
  404TMC3     C 6088   1.797   3.473  13.484  0.3486 -0.5303  0.2813
  404TMC3     O 6089   1.901   3.500  13.544 -0.0510  0.5600  0.2604
  404TMC3     H 6090   1.814   3.448  13.739 -3.0042  1.5108  2.5879
  404TMC3    H1 6091   1.640   3.275  13.394 -0.1612  2.6278 -0.1421
  404TMC3    H2 6092   1.648   3.075  13.772 -0.8419 -0.5152 -0.6125
  404TMC3    C7 6093   1.537   3.079  13.523 -0.3208  0.5626 -0.4695
  404TMC3    C8 6094   1.764   3.263  13.903 -0.0641  0.5512 -0.0779
  404TMC3    O1 6095   1.500   2.981  13.585 -0.0700 -0.2453 -0.6058
  404TMC3    O2 6096   1.813   3.169  13.965 -0.5442 -0.0417  0.1717
  405MPD2     C 6097   1.417   0.720  14.889  0.7601 -0.0942 -0.7644
  405MPD2    C1 6098   1.552   0.683  14.886  0.1460  0.5982  0.3030
  405MPD2    C2 6099   1.621   0.678  14.760 -0.0274 -0.2409 -0.4645
  405MPD2    C3 6100   1.547   0.691  14.641 -0.1388  0.2178 -0.1589
  405MPD2    C4 6101   1.409   0.706  14.651 -0.0671  0.0777  0.7980
  405MPD2    C5 6102   1.350   0.718  14.772 -0.2163 -0.1955  0.1790
  405MPD2     H 6103   1.725   0.652  14.743  0.2278  0.5611 -0.1622
  405MPD2    H1 6104   1.341   0.711  14.567  0.5581 -0.7211  0.2496
  405MPD2    H2 6105   1.363   0.735  14.982  1.4202  2.0084 -0.7307
  405MPD2    H3 6106   1.242   0.717  14.774 -0.2412 -1.0712 -1.9641
  405MPD2     N 6107   1.622   0.674  14.520 -0.1694  0.1869 -0.3972
  405MPD2    H5 6108   1.723   0.677  14.528 -0.2151  1.4305 -0.1886
  405MPD2    N1 6109   1.620   0.652  15.004  0.0692 -1.0446  0.2616
  405MPD2    H7 6110   1.558   0.627  15.080  0.5566 -1.2980  0.5736
  406TMC3    C1 6111   1.693   0.410  14.175  0.3306 -0.5762 -0.5470
  406TMC3    C2 6112   1.828   0.418  14.196 -0.5638 -0.3643  0.7096
  406TMC3    C3 6113   1.882   0.528  14.263  0.4166 -0.3856  0.1630
  406TMC3    C4 6114   1.606   0.507  14.233  0.4685 -0.1384  0.0587
  406TMC3    C5 6115   1.659   0.603  14.307 -0.0451 -0.0810 -0.6326
  406TMC3    C6 6116   1.795   0.615  14.333  0.1999 -0.5881 -0.3107
  406TMC3     C 6117   1.639   0.281  14.154  0.4287  0.0439  0.0366
  406TMC3     O 6118   1.701   0.206  14.080  0.1256 -0.2780 -0.2914
  406TMC3     H 6119   1.889   0.345  14.145  0.4318  1.3407 -0.5601
  406TMC3    H1 6120   1.500   0.508  14.212 -0.2551  1.0311  3.8365
  406TMC3    H2 6121   1.833   0.711  14.366  0.5072 -0.0272 -2.3020
  406TMC3    C7 6122   1.563   0.664  14.397  0.3530 -0.3583 -0.2148
  406TMC3    C8 6123   2.007   0.489  14.323  0.6164 -0.2821  0.2316
  406TMC3    O1 6124   1.444   0.660  14.368  0.1800 -0.5550  0.2591
  406TMC3    O2 6125   2.079   0.408  14.269  0.1471 -0.6765 -0.1714
  407MPD2     C 6126   4.151   1.092  10.198  0.1485  0.3581 -0.5050
  407MPD2    C1 6127   4.285   1.126  10.206 -0.8657 -0.0680 -0.2366
  407MPD2    C2 6128   4.325   1.246  10.258 -0.2735  0.4795  0.6762
  407MPD2    C3 6129   4.232   1.332  10.304 -0.8861  0.9252 -0.1149
  407MPD2    C4 6130   4.097   1.303  10.289  0.3386  0.6261 -0.0249
  407MPD2    C5 6131   4.058   1.184  10.236  0.3968  0.1352  0.3585
  407MPD2     H 6132   4.432   1.266  10.257 -0.1762 -0.1922 -2.6366
  407MPD2    H1 6133   4.020   1.372  10.322 -0.2179  0.4020 -0.8774
  407MPD2    H2 6134   4.112   1.000  10.155  1.3776  0.1905 -1.2518
  407MPD2    H3 6135   3.953   1.159  10.232  0.5917 -0.9025  1.6503
  407MPD2     N 6136   4.262   1.455  10.367 -0.5143 -0.2939  0.0234
  407MPD2    H5 6137   4.184   1.517  10.387 -2.4842 -2.7169 -0.2242
  407MPD2    N1 6138   4.386   1.048  10.139 -0.3773 -0.0528  0.4813
  407MPD2    H7 6139   4.477   1.092  10.131  0.2492 -1.4209  0.0265
  408TMC3    C1 6140   4.466   0.904   9.983  0.3208 -0.4593  0.1450
  408TMC3    C2 6141   4.572   0.824  10.009 -0.9913  0.0737  0.4428
  408TMC3    C3 6142   4.681   0.841   9.926 -0.1022  0.1856  0.0700
  408TMC3    C4 6143   4.471   1.011   9.891  0.0168 -0.1721 -0.3210
  408TMC3    C5 6144   4.584   1.021   9.811 -0.0200  0.2709 -0.0942
  408TMC3    C6 6145   4.691   0.938   9.828  0.4344  0.1311  0.2322
  408TMC3     C 6146   4.371   0.927  10.085  0.0314  0.4519 -0.7275
  408TMC3     O 6147   4.273   0.855  10.077  0.2595  0.1005 -0.5430
  408TMC3     H 6148   4.569   0.765  10.100 -0.7052  0.0925  0.4663
  408TMC3    H1 6149   4.381   1.067   9.869 -0.0913  0.1345  0.8730
  408TMC3    H2 6150   0.037   0.949   9.761  0.5170  0.8674  0.4674
  408TMC3    C7 6151   4.601   1.145   9.730  0.5136 -0.2474  0.5339
  408TMC3    C8 6152   0.058   0.851  10.013  0.4630 -0.1612 -0.8481
  408TMC3    O1 6153   4.721   1.180   9.720  0.2840  0.3579  0.4205
  408TMC3    O2 6154   0.086   0.758  10.085  0.4425 -0.0095  0.0108
  409MPD2     C 6155   3.585   2.141  16.991  0.4659 -0.5762  0.0193
  409MPD2    C1 6156   3.712   2.093  17.005  0.1777  0.8588 -0.0543
  409MPD2    C2 6157   3.819   2.176  16.973  0.4808  0.4647  0.0567
  409MPD2    C3 6158   3.796   2.308  16.932 -0.4602 -0.6031  0.2253
  409MPD2    C4 6159   3.671   2.354  16.902 -0.0166 -0.5631  0.2887
  409MPD2    C5 6160   3.566   2.271  16.945  0.6305 -0.1452 -0.6722
  409MPD2     H 6161   3.917   2.132  16.983  0.0408 -0.3867  0.6485
  409MPD2    H1 6162   3.645   2.451  16.860  0.4716  0.9916  3.5398
  409MPD2    H2 6163   3.493   2.088  17.011 -0.2798  0.2040 -1.2743
  409MPD2    H3 6164   3.466   2.306  16.925  0.2139  0.4450  2.3502
  409MPD2     N 6165   3.910   2.386  16.897 -0.0685 -0.4695 -0.2089
  409MPD2    H5 6166   3.893   2.465  16.836 -3.3015 -0.8819  0.1684
  409MPD2    N1 6167   3.743   1.964  17.046  0.4236 -0.3625  0.1348
  409MPD2    H7 6168   3.844   1.950  17.050  0.7618  1.8344 -0.7658
  410TMC3    C1 6169   4.125   2.457  16.900 -0.0801  0.1961 -0.3547
  410TMC3    C2 6170   4.218   2.504  16.985 -0.0002  0.0788  0.0998
  410TMC3    C3 6171   4.339   2.550  16.930  0.2728 -0.4040  0.2518
  410TMC3    C4 6172   4.147   2.436  16.766 -1.0425 -0.1877  0.6286
  410TMC3    C5 6173   4.270   2.470  16.723 -0.0318 -0.0508  0.5177
  410TMC3    C6 6174   4.361   2.541  16.798 -0.1356  0.0488 -0.0549
  410TMC3     C 6175   4.034   2.369  16.955  0.7522  0.2513  0.7152
  410TMC3     O 6176   4.070   2.290  17.045  0.3899 -0.5501  0.0507
  410TMC3     H 6177   4.212   2.495  17.092  0.2544  0.6155  0.1542
  410TMC3    H1 6178   4.077   2.386  16.699 -0.0722 -0.6768 -0.0281
  410TMC3    H2 6179   4.453   2.584  16.760  0.1513 -2.1636 -1.8612
  410TMC3    C7 6180   4.281   2.473  16.576  0.0296 -0.4742 -0.2509
  410TMC3    C8 6181   4.446   2.545  17.027 -0.2768  0.2073  0.1389
  410TMC3    O1 6182   4.241   2.379  16.512  0.4697  0.1872  0.2324
  410TMC3    O2 6183   4.426   2.598  17.139 -0.2660 -0.6759  0.0522
  411MPD2     C 6184   4.234   2.725  14.907  0.6751  0.1771  0.1094
  411MPD2    C1 6185   4.143   2.795  14.836  0.0742 -0.2243  0.1798
  411MPD2    C2 6186   4.068   2.727  14.741 -0.1094  0.0297  0.0853
  411MPD2    C3 6187   4.095   2.595  14.699  0.2161 -0.5575  0.0523
  411MPD2    C4 6188   4.200   2.533  14.762  0.6536  0.2241 -0.2777
  411MPD2    C5 6189   4.263   2.591  14.864 -0.3086 -0.1776 -0.2779
  411MPD2     H 6190   3.990   2.774  14.682  0.5570  1.0950  0.0539
  411MPD2    H1 6191   4.211   2.425  14.756  0.5919  0.2957 -1.7078
  411MPD2    H2 6192   4.279   2.764  14.998  2.2042 -0.9841 -0.1448
  411MPD2    H3 6193   4.330   2.521  14.911  0.2525  2.1241  2.3715
  411MPD2     N 6194   4.037   2.517  14.589 -0.3265 -0.0057  0.4289
  411MPD2    H5 6195   4.078   2.427  14.567  0.0339  0.0907  0.7039
  411MPD2    N1 6196   4.132   2.936  14.860  0.5412 -0.0057 -0.1249
  411MPD2    H7 6197   4.192   2.980  14.930 -1.4183  1.3798  0.6889
  412TMC3    C1 6198   3.891   2.472  14.409 -0.6701  0.0099 -0.4703
  412TMC3    C2 6199   3.757   2.462  14.372 -0.0231 -1.2276 -0.7357
  412TMC3    C3 6200   3.743   2.399  14.250  0.1513 -0.3483  0.4635
  412TMC3    C4 6201   4.005   2.430  14.331 -0.1217 -0.2684  0.5079
  412TMC3    C5 6202   3.979   2.371  14.207  0.2869  0.3652 -0.1156
  412TMC3    C6 6203   3.850   2.348  14.169 -0.3104 -0.1096 -0.2417
  412TMC3     C 6204   3.928   2.566  14.518 -0.4132 -0.2033  0.3212
  412TMC3     O 6205   3.850   2.654  14.536 -0.9270 -0.5429  0.1168
  412TMC3     H 6206   3.691   2.501  14.448  1.2427  0.9007 -0.7469
  412TMC3    H1 6207   4.106   2.455  14.358  0.1806 -0.0924 -0.7813
  412TMC3    H2 6208   3.817   2.283  14.090  0.5544 -3.5933  2.2713
  412TMC3    C7 6209   4.054   2.429  14.101  0.0142 -0.4884 -0.0150
  412TMC3    C8 6210   3.644   2.461  14.169  0.3341  0.6937  0.5830
  412TMC3    O1 6211   4.176   2.442  14.105  0.0956  0.4718 -0.0207
  412TMC3    O2 6212   3.677   2.470  14.052  0.5444 -0.0771  0.5037
  413MPD2     C 6213   1.163   0.703  15.957  0.2816 -0.7444  0.0224
  413MPD2    C1 6214   1.211   0.732  15.836 -0.5569 -0.6941 -0.6353
  413MPD2    C2 6215   1.311   0.655  15.782  0.4317  1.0181  0.6207
  413MPD2    C3 6216   1.346   0.527  15.837 -0.1537  0.6468 -0.0380
  413MPD2    C4 6217   1.281   0.492  15.955  0.3388 -0.8966 -0.8525
  413MPD2    C5 6218   1.195   0.584  16.013 -0.1011 -0.4571 -0.4267
  413MPD2     H 6219   1.360   0.689  15.691  2.1255  1.0886  1.5613
  413MPD2    H1 6220   1.299   0.402  16.013 -1.7402 -0.5734  0.2770
  413MPD2    H2 6221   1.093   0.771  16.004  1.2209  1.2988 -1.5501
  413MPD2    H3 6222   1.153   0.568  16.112  1.2104 -2.6377 -0.2111
  413MPD2     N 6223   1.452   0.452  15.783 -0.1544 -0.3658  0.2124
  413MPD2    H5 6224   1.498   0.493  15.702  2.0998  0.1676  1.7268
  413MPD2    N1 6225   1.160   0.853  15.780 -0.0300  0.1543 -0.4369
  413MPD2    H7 6226   1.107   0.913  15.842  1.1572 -0.5829  1.2585
  414TMC3    C1 6227   1.605   0.277  15.739 -1.1140  0.4355  0.3161
  414TMC3    C2 6228   1.625   0.142  15.732 -0.5781 -0.2816 -0.3341
  414TMC3    C3 6229   1.720   0.092  15.652  0.8078 -0.4093  0.1536
  414TMC3    C4 6230   1.691   0.363  15.677 -0.1150 -0.4663 -0.1265
  414TMC3    C5 6231   1.796   0.311  15.606  0.5566  0.1124 -0.3632
  414TMC3    C6 6232   1.814   0.175  15.594  0.4736  0.4291 -1.0050
  414TMC3     C 6233   1.485   0.325  15.810  0.0404 -0.1211  0.2778
  414TMC3     O 6234   1.432   0.239  15.883 -0.0105 -0.2206 -0.8342
  414TMC3     H 6235   1.566   0.072  15.790  0.5690 -1.4399 -0.5452
  414TMC3    H1 6236   1.683   0.469  15.699  0.3224 -0.1181 -1.6761
  414TMC3    H2 6237   1.898   0.126  15.546 -0.1639 -0.3479 -1.3036
  414TMC3    C7 6238   1.882   0.397  15.530 -0.0483 -1.2609  0.1841
  414TMC3    C8 6239   1.751   4.690  15.659 -0.0242 -0.5720  0.5421
  414TMC3    O1 6240   1.846   0.515  15.516 -0.6120  0.3029 -0.4138
  414TMC3    O2 6241   1.653   4.618  15.634  0.1172 -0.1569  0.0649
  415TMC3    C1 6242   1.632   3.943  10.598 -0.1414  0.4081  0.7540
  415TMC3    C2 6243   1.760   3.946  10.549 -0.2424 -0.8170  0.1399
  415TMC3    C3 6244   1.775   3.879  10.426  0.1902 -0.0238 -0.5972
  415TMC3    C4 6245   1.522   3.899  10.529  0.4080 -0.7170 -0.2613
  415TMC3    C5 6246   1.549   3.825  10.421  0.9018  0.2370 -0.2209
  415TMC3    C6 6247   1.675   3.798  10.371  0.8755 -0.0845  0.4390
  415TMC3     C 6248   1.598   4.007  10.729 -0.1679  0.3386  0.4190
  415TMC3     O 6249   1.481   3.982  10.759  0.8815 -0.2929 -0.2477
  415TMC3     H 6250   1.841   4.006  10.590 -1.1078  0.2596  0.2495
  415TMC3    H1 6251   1.420   3.929  10.548 -0.0200 -2.2573 -0.0974
  415TMC3    H2 6252   1.683   3.726  10.290 -1.1683  1.3833 -1.0508
  415TMC3    C7 6253   1.435   3.776  10.349  0.1578 -0.0350 -0.4469
  415TMC3    C8 6254   1.903   3.851  10.363  0.8448 -0.0163 -0.4608
  415TMC3    O1 6255   1.449   3.747  10.231  0.1515  0.2607  0.0455
  415TMC3    O2 6256   1.924   3.735  10.321  0.0016  0.2390 -0.0345
  416MPD2     C 6257   3.646   2.525  11.587  0.2423 -0.1489 -0.2332
  416MPD2    C1 6258   3.529   2.455  11.613 -0.0644 -0.3079  0.0274
  416MPD2    C2 6259   3.508   2.327  11.558  0.0001  1.2779 -0.1158
  416MPD2    C3 6260   3.595   2.284  11.459  0.6651 -0.0951  0.4368
  416MPD2    C4 6261   3.701   2.356  11.417  0.0168  0.3135 -1.0288
  416MPD2    C5 6262   3.727   2.475  11.486 -0.1106  0.0085  0.5628
  416MPD2     H 6263   3.418   2.271  11.581 -0.9558  4.0364  2.9687
  416MPD2    H1 6264   3.782   2.317  11.355 -0.8221 -0.4507 -1.6518
  416MPD2    H2 6265   3.666   2.626  11.620  1.8433  0.1121 -1.9954
  416MPD2    H3 6266   3.811   2.536  11.456  0.6157  0.0393  2.7258
  416MPD2     N 6267   3.569   2.160  11.394 -0.2323 -0.0765 -0.4948
  416MPD2    H5 6268   3.517   2.092  11.450 -0.6176 -0.4948 -1.3651
  416MPD2    N1 6269   3.427   2.520  11.694 -0.3504  0.0596 -0.6645
  416MPD2    H7 6270   3.453   2.610  11.733  0.2476 -0.0792 -0.7453
  417TMC3    C1 6271   3.211   2.557  11.785 -0.4314  0.1647 -0.3058
  417TMC3    C2 6272   3.265   2.650  11.868  0.5815  0.2552  0.2660
  417TMC3    C3 6273   3.191   2.761  11.898 -0.5841  0.3060  0.6252
  417TMC3    C4 6274   3.093   2.581  11.718  0.3703  0.3617  0.4564
  417TMC3    C5 6275   3.029   2.700  11.737  0.6150 -0.6031 -0.4402
  417TMC3    C6 6276   3.076   2.794  11.830 -0.5944  0.3728 -0.0075
  417TMC3     C 6277   3.296   2.474  11.702  0.0136  0.4789  0.2170
  417TMC3     O 6278   3.240   2.398  11.627 -0.3719 -0.7242  1.0775
  417TMC3     H 6279   3.362   2.635  11.914  0.9023  1.5953  0.0414
  417TMC3    H1 6280   3.049   2.513  11.646  3.1603 -2.1093  1.0567
  417TMC3    H2 6281   3.025   2.882  11.865  0.1821  1.0770 -0.6459
  417TMC3    C7 6282   2.960   2.760  11.627 -0.2354  0.0879 -0.2347
  417TMC3    C8 6283   3.229   2.829  12.023  0.7070  0.3903 -0.6589
  417TMC3    O1 6284   2.983   2.881  11.618  0.5457 -0.2034  0.5598
  417TMC3    O2 6285   3.135   2.862  12.097 -0.3934  0.1851  0.0642
  418TMC3    C1 6286   2.672   0.282   0.522  0.1071 -0.3374  0.3194
  418TMC3    C2 6287   2.546   0.327   0.478 -0.4935 -0.4927  0.4746
  418TMC3    C3 6288   2.440   0.296   0.550 -0.5356  0.3584  0.8150
  418TMC3    C4 6289   2.690   0.216   0.640 -0.2211 -0.6929 -0.5368
  418TMC3    C5 6290   2.576   0.197   0.712 -0.6278 -0.3160  0.9715
  418TMC3    C6 6291   2.448   0.225   0.667  0.1365 -0.1044  0.6323
  418TMC3     C 6292   2.767   0.283   0.414 -0.1136  0.1017 -0.2563
  418TMC3     O 6293   2.773   0.377   0.339  0.0190 -0.2867  0.4871
  418TMC3     H 6294   2.553   0.364   0.376 -0.5820  0.9023  0.9749
  418TMC3    H1 6295   2.786   0.173   0.665  0.1410  0.9455  0.8834
  418TMC3    H2 6296   2.361   0.214   0.730  1.5488 -2.3249  2.1966
  418TMC3    C7 6297   2.575   0.104   0.826  0.2041  0.1151 -0.9678
  418TMC3    C8 6298   2.310   0.296   0.482 -0.1131 -0.7153 -0.4446
  418TMC3    O1 6299   2.471   0.036   0.839  0.2837 -0.3725  0.3690
  418TMC3    O2 6300   2.306   0.361   0.379  0.0600 -1.0879  0.3079
  419MPD2     C 6301   0.380   3.054  12.695 -0.7207 -0.0643 -0.2619
  419MPD2    C1 6302   0.310   3.158  12.765 -0.6015 -0.6021 -0.0611
  419MPD2    C2 6303   0.302   3.156  12.906  0.7234  0.6502  0.4036
  419MPD2    C3 6304   0.366   3.058  12.977  0.0488 -0.4194  0.4458
  419MPD2    C4 6305   0.435   2.960  12.909  0.3225 -0.3712 -0.1131
  419MPD2    C5 6306   0.440   2.954  12.774  0.2034  0.2665 -0.0780
  419MPD2     H 6307   0.241   3.237  12.945 -0.6987 -0.2223 -0.0205
  419MPD2    H1 6308   0.494   2.887  12.963 -1.8777 -2.6009 -0.6689
  419MPD2    H2 6309   0.390   3.033  12.589 -1.2790 -1.3944 -0.0629
  419MPD2    H3 6310   0.499   2.873  12.732  0.6153  1.0482 -0.9950
  419MPD2     N 6311   0.360   3.072  13.124  0.5104 -0.1855 -0.2023
  419MPD2    H5 6312   0.317   3.159  13.154 -0.2994 -1.7754  3.1930
  419MPD2    N1 6313   0.235   3.255  12.698  0.0585 -0.0159 -0.0902
  419MPD2    H7 6314   0.178   3.314  12.758 -1.2530 -1.1688 -0.2204
  420TMC3    C1 6315   0.308   3.013  13.341  0.3146 -0.0666 -0.0693
  420TMC3    C2 6316   0.211   3.113  13.347  0.2280 -0.5297 -0.1193
  420TMC3    C3 6317   0.144   3.134  13.458 -0.0627 -0.2631  0.6649
  420TMC3    C4 6318   0.337   2.943  13.452  0.3375 -0.3277 -0.3355
  420TMC3    C5 6319   0.263   2.966  13.567 -0.1971  0.4419 -0.3223
  420TMC3    C6 6320   0.161   3.056  13.571  0.4344  0.5329  0.3818
  420TMC3     C 6321   0.376   2.972  13.217 -1.0526 -0.1068  0.2765
  420TMC3     O 6322   0.405   2.856  13.203  0.8202 -0.4220  0.1143
  420TMC3     H 6323   0.198   3.180  13.263  1.3827 -0.1377  0.0205
  420TMC3    H1 6324   0.406   2.860  13.457  0.8452  0.0258 -1.4113
  420TMC3    H2 6325   0.114   3.087  13.664 -0.1818  1.1855 -0.1424
  420TMC3    C7 6326   0.318   2.902  13.687 -0.0615 -0.3241 -0.0913
  420TMC3    C8 6327   0.055   3.251  13.452  0.6207  0.4549  0.7675
  420TMC3    O1 6328   0.421   2.839  13.680  0.3388  0.2419 -0.2075
  420TMC3    O2 6329   0.078   3.333  13.367 -0.1177  0.0312 -1.0221
  421TMC3    C1 6330   2.123   4.079  13.357 -0.0913 -0.4651 -0.3209
  421TMC3    C2 6331   2.055   4.193  13.384 -0.1348 -0.6881  0.1136
  421TMC3    C3 6332   2.100   4.262  13.492 -0.4997  0.4270 -0.2720
  421TMC3    C4 6333   2.220   4.020  13.438  0.3454  0.0192  0.0970
  421TMC3    C5 6334   2.266   4.098  13.544 -0.2986  0.6345 -0.2782
  421TMC3    C6 6335   2.207   4.218  13.566  0.6675  0.2649 -0.1593
  421TMC3     C 6336   2.052   4.000  13.257  0.1007  0.3818 -0.0468
  421TMC3     O 6337   2.000   4.063  13.163 -0.3169 -0.6699 -0.5244
  421TMC3     H 6338   1.985   4.231  13.311 -1.6672 -1.2083  1.3368
  421TMC3    H1 6339   2.260   3.923  13.411  2.1282  0.4195  1.3224
  421TMC3    H2 6340   2.239   4.285  13.645 -1.8072  0.6467  0.5272
  421TMC3    C7 6341   2.368   4.052  13.635  0.0115 -0.5008  0.5777
  421TMC3    C8 6342   2.033   4.385  13.531 -0.2750 -0.4871  0.1899
  421TMC3    O1 6343   2.436   4.140  13.684  0.2801  0.0882  1.0088
  421TMC3    O2 6344   2.100   4.462  13.595 -0.5989  0.6042 -0.3591
  422TMC3    C1 6345   4.494   0.777  13.111  0.2781  1.0179  0.6989
  422TMC3    C2 6346   4.495   0.900  13.168  0.2362 -0.5368 -0.6135
  422TMC3    C3 6347   4.379   0.940  13.227 -0.1233 -0.0081  0.0063
  422TMC3    C4 6348   4.382   0.699  13.100  0.7829 -0.4395  0.5207
  422TMC3    C5 6349   4.265   0.741  13.154  0.5735 -1.3142  0.1097
  422TMC3    C6 6350   4.262   0.860  13.226  0.3268 -0.2333 -0.8031
  422TMC3     C 6351   4.591   0.775  13.002 -0.4789 -0.2760 -0.1893
  422TMC3     O 6352   4.621   0.881  12.948 -0.4609  0.2703  0.3951
  422TMC3     H 6353   4.586   0.960  13.177 -0.0394 -0.3149  0.7087
  422TMC3    H1 6354   4.379   0.606  13.045 -1.3517 -0.3191  0.4321
  422TMC3    H2 6355   4.177   0.894  13.284 -0.4871 -0.9095 -1.5972
  422TMC3    C7 6356   4.139   0.671  13.118 -0.1573 -0.9857 -0.9538
  422TMC3    C8 6357   4.366   1.083  13.239 -0.1889  0.1849 -0.7268
  422TMC3    O1 6358   4.150   0.595  13.022 -0.1061  0.5145  0.1743
  422TMC3    O2 6359   4.458   1.139  13.292  0.1698  0.2920  0.1612
  423MPD2     C 6360   1.524   2.471   0.674 -0.5927  0.7690 -0.3173
  423MPD2    C1 6361   1.502   2.341   0.721 -0.1631  0.1470 -0.3271
  423MPD2    C2 6362   1.472   2.239   0.627 -0.0689 -0.1218 -0.3237
  423MPD2    C3 6363   1.477   2.261   0.488  0.1147  0.7337 -0.7920
  423MPD2    C4 6364   1.502   2.388   0.448 -0.1845  0.0401  0.1216
  423MPD2    C5 6365   1.513   2.495   0.540  0.4783 -0.6359 -0.4958
  423MPD2     H 6366   1.430   2.143   0.656 -1.8948  0.3701 -1.3852
  423MPD2    H1 6367   1.515   2.417   0.345 -2.0987  1.2237  0.2068
  423MPD2    H2 6368   1.553   2.548   0.744 -0.0234  0.1424  0.1428
  423MPD2    H3 6369   1.529   2.595   0.502 -1.2793 -0.0571  0.2821
  423MPD2     N 6370   1.472   2.160   0.394 -0.6037 -0.3463  0.1627
  423MPD2    H5 6371   1.474   2.184   0.295  0.4355 -1.2673 -0.0365
  423MPD2    N1 6372   1.495   2.325   0.856 -0.6344 -0.0009 -0.3408
  423MPD2    H7 6373   1.530   2.401   0.912  0.1913  0.2962 -1.2390
  424TMC3    C1 6374   1.494   2.222   1.061  0.1366  0.4879  0.7978
  424TMC3    C2 6375   1.620   2.250   1.086  0.4704  0.4633 -0.6128
  424TMC3    C3 6376   1.669   2.230   1.212  0.6964 -0.4426  0.5585
  424TMC3    C4 6377   1.411   2.168   1.151 -0.0821  0.3898  0.3666
  424TMC3    C5 6378   1.454   2.172   1.280 -0.5994 -0.2520  0.5537
  424TMC3    C6 6379   1.584   2.206   1.314  0.6675  0.1297 -0.6325
  424TMC3     C 6380   1.458   2.214   0.927  0.0735 -0.5610  0.1818
  424TMC3     O 6381   1.383   2.120   0.904 -0.1738 -0.4326 -0.1805
  424TMC3     H 6382   1.690   2.282   1.009  2.0798  0.4577  0.8401
  424TMC3    H1 6383   1.309   2.146   1.123  0.2212  0.8699 -1.1148
  424TMC3    H2 6384   1.617   2.206   1.417 -1.5376 -2.1107  0.0850
  424TMC3    C7 6385   1.360   2.141   1.384  0.1480 -0.5306  0.4281
  424TMC3    C8 6386   1.787   2.149   1.225 -0.1736 -0.1364 -0.2611
  424TMC3    O1 6387   1.392   2.172   1.501  0.1917 -0.2842  0.4322
  424TMC3    O2 6388   1.778   2.066   1.312 -0.9691 -0.0008  0.2624
  425MPD2     C 6389   0.001   1.258  17.351  0.0194 -0.3441 -0.4878
  425MPD2    C1 6390   4.680   1.149  17.415  0.1167 -0.3452 -0.5713
  425MPD2    C2 6391   4.555   1.161  17.486 -0.3048  0.1333 -0.8117
  425MPD2    C3 6392   4.490   1.285  17.472  0.0690  0.2303  0.0829
  425MPD2    C4 6393   4.554   1.393  17.422 -0.5046 -0.1118 -0.2922
  425MPD2    C5 6394   4.676   1.384  17.360  0.2880 -1.1031 -0.4419
  425MPD2     H 6395   4.503   1.076  17.528  0.4989  0.2839  0.5103
  425MPD2    H1 6396   4.510   1.492  17.421 -0.7483 -0.2370 -2.3997
  425MPD2    H2 6397   0.096   1.252  17.301  0.5911 -0.3625  0.6058
  425MPD2    H3 6398   4.724   1.464  17.305 -0.1342 -0.7309 -0.2693
  425MPD2     N 6399   4.358   1.290  17.511 -0.4309  0.0131 -0.0602
  425MPD2    H5 6400   4.321   1.201  17.543  1.9053 -1.6122 -1.9233
  425MPD2    N1 6401   0.010   1.027  17.419 -0.4252  0.1559  0.0830
  425MPD2    H7 6402   0.091   1.017  17.358 -1.7506 -0.7125 -1.5400
  426TMC3    C1 6403   0.064   0.809  17.464 -0.5835  0.4038  0.0549
  426TMC3    C2 6404   0.102   0.788  17.331 -0.2185  0.5678 -0.1071
  426TMC3    C3 6405   0.174   0.671  17.316 -0.2867  1.0417  0.0472
  426TMC3    C4 6406   0.083   0.736  17.575  0.5857 -0.1300 -0.4770
  426TMC3    C5 6407   0.147   0.616  17.549  0.3961 -0.2578  0.8003
  426TMC3    C6 6408   0.189   0.583  17.424 -0.2875 -0.6710 -0.5264
  426TMC3     C 6409   4.716   0.920  17.497  0.7078 -0.4182  0.2935
  426TMC3     O 6410   4.634   0.906  17.584 -0.2611  0.1146 -0.2237
  426TMC3     H 6411   0.052   0.832  17.246  0.9218  0.9654 -0.5693
  426TMC3    H1 6412   0.066   0.782  17.671 -3.4621 -0.1673 -1.1865
  426TMC3    H2 6413   0.231   0.483  17.413 -2.0926 -1.3464 -1.2622
  426TMC3    C7 6414   0.203   0.540  17.659 -0.4929  0.3695  1.0810
  426TMC3    C8 6415   0.170   0.595  17.188  0.8074  0.6736  0.0643
  426TMC3    O1 6416   0.290   0.460  17.630  0.0957 -0.2850  0.6030
  426TMC3    O2 6417   0.173   0.476  17.198  0.2959 -0.7421  0.0110
  427MPD2     C 6418   3.274   2.979  14.910 -0.1116  0.3106 -0.4582
  427MPD2    C1 6419   3.223   2.982  15.044 -0.5249  0.2699  0.5315
  427MPD2    C2 6420   3.111   3.054  15.072 -0.7592  0.3023  0.0271
  427MPD2    C3 6421   3.053   3.133  14.971 -0.0813  0.1022 -0.1016
  427MPD2    C4 6422   3.099   3.124  14.843  0.1790  0.2084  0.3568
  427MPD2    C5 6423   3.207   3.044  14.816 -0.4748  0.0198 -0.0593
  427MPD2     H 6424   3.073   3.053  15.174 -0.0627  0.6136  0.2883
  427MPD2    H1 6425   3.051   3.175  14.761  0.3335 -2.1986 -1.1959
  427MPD2    H2 6426   3.361   2.920  14.884 -0.6603 -1.0278  0.7386
  427MPD2    H3 6427   3.240   3.028  14.714  0.0948  2.6535 -0.2619
  427MPD2     N 6428   2.943   3.221  14.984 -0.0951  0.2539  0.0564
  427MPD2    H5 6429   2.897   3.251  14.899 -0.7627 -1.9934 -0.3714
  427MPD2    N1 6430   3.283   2.913  15.154 -0.7730 -0.0966 -0.6213
  427MPD2    H7 6431   3.240   2.912  15.245 -0.7897 -0.7665 -0.6309
  428TMC3    C1 6432   3.453   2.797  15.265 -0.6995 -0.0735 -0.0593
  428TMC3    C2 6433   3.362   2.722  15.330  0.3382  0.5970  0.2068
  428TMC3    C3 6434   3.407   2.649  15.433  0.8123 -0.1576 -1.0974
  428TMC3    C4 6435   3.589   2.788  15.286  0.0863  0.7654  0.1903
  428TMC3    C5 6436   3.634   2.706  15.388 -0.6181 -1.0080 -0.6274
  428TMC3    C6 6437   3.542   2.646  15.470  0.0725  0.3648 -0.3895
  428TMC3     C 6438   3.409   2.852  15.143 -0.6937 -0.1897  0.8701
  428TMC3     O 6439   3.485   2.851  15.053 -0.0648  0.4773  0.5974
  428TMC3     H 6440   3.256   2.715  15.309  0.5482  0.5703 -0.8460
  428TMC3    H1 6441   3.656   2.843  15.221  0.2808  2.3494  1.7317
  428TMC3    H2 6442   3.576   2.578  15.548 -1.2392  0.4215  0.2311
  428TMC3    C7 6443   3.765   2.742  15.451 -1.4563 -0.2484 -0.6223
  428TMC3    C8 6444   3.308   2.606  15.524  0.2547  0.6758  0.4619
  428TMC3    O1 6445   3.780   2.728  15.572 -0.2564  0.0336 -0.6573
  428TMC3    O2 6446   3.220   2.692  15.555 -0.4547 -0.5017 -0.1078
  429MPD2     C 6447   3.852   2.885  17.723 -0.1012  0.0671 -0.2033
  429MPD2    C1 6448   3.980   2.854  17.672 -0.3991 -0.6461  0.4738
  429MPD2    C2 6449   4.041   2.949  17.589 -0.7134  0.2081 -0.1009
  429MPD2    C3 6450   3.969   3.062  17.550 -0.0420 -0.1088  0.2338
  429MPD2    C4 6451   3.839   3.081  17.595  0.4202  0.3315  0.7165
  429MPD2    C5 6452   3.786   2.994  17.685 -0.8925 -0.5079 -0.7894
  429MPD2     H 6453   4.131   2.924  17.535  0.5046 -1.0253  2.4713
  429MPD2    H1 6454   3.792   3.178  17.587  0.8236  0.4141 -0.8174
  429MPD2    H2 6455   3.801   2.809   0.028 -0.5835  0.1621 -0.5089
  429MPD2    H3 6456   3.688   3.013  17.726 -1.1731 -1.2953 -1.1007
  429MPD2     N 6457   4.029   3.144  17.453  0.1576 -0.2359 -0.0642
  429MPD2    H5 6458   4.125   3.119  17.430  0.2581  1.8587 -1.9118
  429MPD2    N1 6459   4.041   2.724  17.690  0.5816  0.4797 -0.2322
  429MPD2    H7 6460   4.136   2.717  17.655 -0.1719  0.3554 -2.2340
  430TMC3    C1 6461   4.068   3.318  17.305 -0.3289  0.1672  0.0845
  430TMC3    C2 6462   4.040   3.357  17.176  0.0612 -0.0462  0.2379
  430TMC3    C3 6463   4.133   3.440  17.112 -0.0029 -0.1232 -0.8431
  430TMC3    C4 6464   4.186   3.348  17.371  0.7841 -0.2438  0.0799
  430TMC3    C5 6465   4.284   3.411  17.297  0.3467  0.2115 -0.1206
  430TMC3    C6 6466   4.259   3.466  17.169 -0.6795  0.1167 -0.4449
  430TMC3     C 6467   3.970   3.254  17.386  0.5560  0.3980  0.5556
  430TMC3     O 6468   3.853   3.285  17.375 -0.9818 -0.5664  0.7435
  430TMC3     H 6469   3.949   3.330  17.125  1.1466 -2.4508 -0.3976
  430TMC3    H1 6470   4.210   3.323  17.474  0.5360 -1.0214 -0.0499
  430TMC3    H2 6471   4.333   3.532  17.125 -0.4855 -0.7270 -1.4094
  430TMC3    C7 6472   4.402   3.457  17.365  0.4614 -0.6294 -0.1079
  430TMC3    C8 6473   4.123   3.478  16.972  0.0948 -0.4807  0.2378
  430TMC3    O1 6474   4.395   3.495  17.481 -0.5718 -0.4798 -0.6660
  430TMC3    O2 6475   4.050   3.407  16.901 -0.1996  0.7005  0.6734
  431MPD2     C 6476   0.649   3.719  13.006 -0.6516  0.5380 -0.0081
  431MPD2    C1 6477   0.693   3.711  12.875  0.3958  0.5671  0.1210
  431MPD2    C2 6478   0.598   3.724  12.775  0.2169  0.4416 -0.1829
  431MPD2    C3 6479   0.467   3.756  12.802  0.2994 -0.8495 -0.8193
  431MPD2    C4 6480   0.428   3.759  12.936 -0.7343 -0.5550 -0.6141
  431MPD2    C5 6481   0.520   3.745  13.036  0.0931  0.3465  0.0705
  431MPD2     H 6482   0.628   3.700  12.674 -0.4630  1.3498 -0.6029
  431MPD2    H1 6483   0.326   3.762  12.973 -1.6247  1.6321 -3.2405
  431MPD2    H2 6484   0.720   3.716  13.088  0.3409  0.4909 -0.8621
  431MPD2    H3 6485   0.491   3.747  13.140 -0.9266 -0.4816 -0.1977
  431MPD2     N 6486   0.361   3.733  12.710 -0.7146  0.6031 -0.2621
  431MPD2    H5 6487   0.267   3.721  12.748 -0.6878  1.1220 -0.0333
  431MPD2    N1 6488   0.825   3.660  12.839 -0.6980 -0.5225 -0.2615
  431MPD2    H7 6489   0.842   3.644  12.740 -1.1504  0.0661 -0.4394
  432TMC3    C1 6490   0.264   3.635  12.528  0.1131  0.9202  0.0610
  432TMC3    C2 6491   0.243   3.656  12.399  0.0493  0.9306  0.3675
  432TMC3    C3 6492   0.194   3.551  12.329  0.0112  0.0433 -0.6228
  432TMC3    C4 6493   0.242   3.513  12.592  0.3201  0.7110 -0.0521
  432TMC3    C5 6494   0.197   3.408  12.522 -0.4287  0.5733 -0.1973
  432TMC3    C6 6495   0.183   3.429  12.388 -0.5609 -0.3831 -0.7978
  432TMC3     C 6496   0.381   3.701  12.576  0.5653 -0.5183 -0.3874
  432TMC3     O 6497   0.471   3.741  12.502  0.3206  0.0452 -0.0438
  432TMC3     H 6498   0.280   3.747  12.354 -0.7548  0.5668 -1.0087
  432TMC3    H1 6499   0.275   3.502  12.694  1.9576 -1.0760 -0.7784
  432TMC3    H2 6500   0.140   3.351  12.325  1.0044 -1.3142 -0.7261
  432TMC3    C7 6501   0.231   3.275  12.562  0.3397  1.2774  0.2356
  432TMC3    C8 6502   0.276   3.535  12.208 -0.0205 -0.3902  0.8333
  432TMC3    O1 6503   0.293   3.217  12.473 -0.1473  0.4578  0.1992
  432TMC3    O2 6504   0.282   3.628  12.124 -0.7924 -0.1011 -0.6272
  433MPD2     C 6505   4.302   1.894  11.056  0.2763 -0.0045 -0.8431
  433MPD2    C1 6506   4.240   1.814  11.146  0.8354  0.7124 -0.6625
  433MPD2    C2 6507   4.238   1.851  11.280  0.5575 -0.6299  0.0860
  433MPD2    C3 6508   4.306   1.959  11.318 -0.1528 -0.2303 -0.7631
  433MPD2    C4 6509   4.388   2.040  11.229  0.1290  0.4575 -0.6222
  433MPD2    C5 6510   4.377   2.004  11.094 -0.2086  0.6841 -0.2787
  433MPD2     H 6511   4.189   1.796  11.360  0.3529 -1.8991 -0.9194
  433MPD2    H1 6512   4.446   2.129  11.248  0.6833  0.4502 -2.3022
  433MPD2    H2 6513   4.293   1.866  10.952  1.1314 -1.3510 -0.5575
  433MPD2    H3 6514   4.419   2.068  11.018  1.0394  0.1872  0.0020
  433MPD2     N 6515   4.318   1.983  11.458 -0.0187  1.1863 -0.7637
  433MPD2    H5 6516   4.280   1.915  11.523 -0.3270  0.1841 -2.0076
  433MPD2    N1 6517   4.179   1.701  11.091  0.7134 -0.1737  0.2210
  433MPD2    H7 6518   4.195   1.682  10.993 -0.8314  1.4353 -0.3466
  434TMC3    C1 6519   4.124   1.474  11.104  0.4352  0.6668 -0.3972
  434TMC3    C2 6520   4.200   1.398  11.190  0.0390  0.2707  0.6876
  434TMC3    C3 6521   4.326   1.352  11.142  0.1276 -0.0858  0.2948
  434TMC3    C4 6522   4.153   1.482  10.972 -0.2684  0.0144 -0.1648
  434TMC3    C5 6523   4.277   1.447  10.927  0.9814  0.3302  0.1984
  434TMC3    C6 6524   4.359   1.378  11.011 -0.4785 -0.0929  0.1022
  434TMC3     C 6525   4.111   1.603  11.162 -0.5611  0.5325  0.0902
  434TMC3     O 6526   4.079   1.601  11.284 -0.1912 -0.0994 -0.4916
  434TMC3     H 6527   4.170   1.392  11.294 -0.8948  0.3381  0.4245
  434TMC3    H1 6528   4.091   1.527  10.894  0.5052  1.6553  0.1627
  434TMC3    H2 6529   4.447   1.332  10.970 -0.5089  0.4735 -0.5868
  434TMC3    C7 6530   4.295   1.397  10.791 -0.2538  0.8461 -0.0196
  434TMC3    C8 6531   4.428   1.316  11.246 -0.0416 -0.1060  0.2209
  434TMC3    O1 6532   4.404   1.411  10.735  0.3146  0.0189  0.2058
  434TMC3    O2 6533   4.386   1.286  11.360  0.4087  0.5208 -0.2473
  435MPD2     C 6534   1.250   2.099  15.727  0.0628 -0.6335  0.1726
  435MPD2    C1 6535   1.211   2.036  15.842 -0.0476  0.4279  0.2627
  435MPD2    C2 6536   1.298   1.972  15.923  0.3816 -0.2515 -0.7411
  435MPD2    C3 6537   1.430   1.967  15.895  0.4774  0.2131 -0.5077
  435MPD2    C4 6538   1.472   2.019  15.773  0.4230 -0.0063 -0.2571
  435MPD2    C5 6539   1.383   2.083  15.693  0.3025 -0.2912  0.0448
  435MPD2     H 6540   1.261   1.941  16.020  3.0497 -0.8778  0.0716
  435MPD2    H1 6541   1.576   2.012  15.745 -0.0788  0.3128 -2.2555
  435MPD2    H2 6542   1.176   2.126  15.652  1.7107  2.4471 -0.3314
  435MPD2    H3 6543   1.419   2.124  15.599  0.1929  1.2048  0.6629
  435MPD2     N 6544   1.518   1.911  15.994  0.4678 -0.6023 -0.4325
  435MPD2    H5 6545   1.475   1.864  16.073  1.0930  0.4120  0.5266
  435MPD2    N1 6546   1.079   2.023  15.902  0.2667 -0.1835 -0.4390
  435MPD2    H7 6547   1.067   1.983  15.994  0.2515  0.3083 -0.2293
  436TMC3    C1 6548   0.708   2.032  16.092  0.2875  0.4250 -0.0192
  436TMC3    C2 6549   0.829   2.017  16.031 -0.2591  0.3081  0.0434
  436TMC3    C3 6550   0.841   2.029  15.894  0.2665 -0.2064 -0.2338
  436TMC3    C4 6551   0.593   2.050  16.015  0.1413  0.0217 -0.1401
  436TMC3    C5 6552   0.606   2.055  15.883 -0.3770  0.3830 -0.0439
  436TMC3    C6 6553   0.723   2.033  15.815  0.3131 -0.1826 -0.1236
  436TMC3     C 6554   0.687   1.967  16.219  0.5386 -0.5551 -0.2385
  436TMC3     O 6555   0.770   1.884  16.258 -0.4435 -0.1127  0.1714
  436TMC3     H 6556   0.909   1.999  16.102 -2.3447 -0.3302  2.2301
  436TMC3    H1 6557   0.502   2.084  16.062 -0.9672 -0.0951 -2.2151
  436TMC3    H2 6558   0.726   2.030  15.707 -2.8217  0.5204 -0.2290
  436TMC3    C7 6559   0.492   2.100  15.815 -0.2494 -0.1541  0.4540
  436TMC3    C8 6560   0.964   2.079  15.839 -0.2985 -0.1132 -0.1319
  436TMC3    O1 6561   0.380   2.090  15.862 -0.4549  0.2250 -0.4986
  436TMC3    O2 6562   0.952   2.125  15.729  0.2602 -0.1580  0.5521
  437TMC3    C1 6563   0.220   4.554  12.345 -0.0865 -0.0107 -0.4042
  437TMC3    C2 6564   0.152   4.620  12.249  0.3462  0.4340 -0.2893
  437TMC3    C3 6565   0.211   4.638  12.132 -0.0617 -0.0633  0.2126
  437TMC3    C4 6566   0.353   4.519  12.332  0.0586  0.6861  0.0308
  437TMC3    C5 6567   0.408   4.537  12.208 -0.5199  0.8448 -0.2421
  437TMC3    C6 6568   0.336   4.594  12.101 -0.3409 -0.2974  0.5954
  437TMC3     C 6569   0.168   4.537  12.483  0.6036  1.1029 -0.3647
  437TMC3     O 6570   0.251   4.514  12.574  0.2441 -0.2467 -0.0128
  437TMC3     H 6571   0.054   4.657  12.277  0.0448  0.3138 -1.1973
  437TMC3    H1 6572   0.410   4.456  12.400  0.6620  0.7462 -0.4241
  437TMC3    H2 6573   0.387   4.614  12.007 -1.0369 -1.9992 -0.1336
  437TMC3    C7 6574   0.544   4.584  12.211  0.3193  0.3836 -0.2712
  437TMC3    C8 6575   0.151   0.011  12.057 -0.1987 -0.3165  0.5163
  437TMC3    O1 6576   0.573   4.678  12.136 -0.4832  0.6297  0.3062
  437TMC3    O2 6577   0.060   0.070  12.120  0.4381 -0.9227  0.1116
  438MPD2     C 6578   2.447   4.514  16.903  0.0892  0.8078 -1.1982
  438MPD2    C1 6579   2.482   4.397  16.958  0.8653  0.4866  0.5577
  438MPD2    C2 6580   2.416   4.351  17.080 -0.8476  0.0083 -0.1357
  438MPD2    C3 6581   2.323   4.432  17.137  0.4349  0.3732  0.1026
  438MPD2    C4 6582   2.284   4.549  17.082 -0.6939  0.6567  0.5230
  438MPD2    C5 6583   2.343   4.582  16.958  0.3093 -0.1143 -0.7586
  438MPD2     H 6584   2.460   4.268  17.134 -2.5777  0.1873  1.5497
  438MPD2    H1 6585   2.206   4.613  17.123  0.9587  1.0053  3.1319
  438MPD2    H2 6586   2.491   4.560  16.815  0.7630 -0.1223 -1.3468
  438MPD2    H3 6587   2.309   4.671  16.906  0.4742  0.6510  0.4463
  438MPD2     N 6588   2.263   4.407  17.270 -0.5251  0.8149 -0.2068
  438MPD2    H5 6589   2.213   4.486  17.310  0.3959  0.4287  1.7090
  438MPD2    N1 6590   2.597   4.331  16.913 -0.1963 -0.2390 -0.4004
  438MPD2    H7 6591   2.620   4.243  16.959 -0.1244  0.5647  1.0965
  439TMC3    C1 6592   2.776   4.264  16.778  0.1347  0.1576  0.1478
  439TMC3    C2 6593   2.815   4.248  16.649 -1.0411 -0.0495 -0.7353
  439TMC3    C3 6594   2.904   4.142  16.629  0.1408 -0.1855  1.0427
  439TMC3    C4 6595   2.824   4.203  16.882  0.3645  0.2346 -0.3874
  439TMC3    C5 6596   2.925   4.119  16.856 -0.2459 -1.0333 -0.0082
  439TMC3    C6 6597   2.962   4.081  16.733 -0.3412 -0.6925 -0.3650
  439TMC3     C 6598   2.664   4.352  16.795  0.2255  0.7391 -0.3891
  439TMC3     O 6599   2.627   4.420  16.702  0.3156 -0.1683  0.3930
  439TMC3     H 6600   2.745   4.284  16.575 -2.3941  0.9156  1.0095
  439TMC3    H1 6601   2.807   4.234  16.985 -2.3943 -0.7254 -0.5640
  439TMC3    H2 6602   3.031   3.999  16.719  2.0329  0.9537  1.7851
  439TMC3    C7 6603   3.006   4.061  16.959  0.4412 -0.7612  0.6708
  439TMC3    C8 6604   2.914   4.092  16.495 -0.2120  0.1123  0.4939
  439TMC3    O1 6605   3.119   4.035  16.938 -0.0051 -0.2607  0.2493
  439TMC3    O2 6606   2.961   3.981  16.478 -0.0535  0.3765 -0.5987
  440MPD2     C 6607   1.048   4.445  15.480 -0.1951  0.7505  0.3417
  440MPD2    C1 6608   1.138   4.464  15.375  0.2669  0.0842  0.3495
  440MPD2    C2 6609   1.234   4.364  15.351  0.2396  0.1992  0.4781
  440MPD2    C3 6610   1.247   4.249  15.429  0.0061  0.6988  0.7872
  440MPD2    C4 6611   1.151   4.236  15.527  0.2785 -0.3015 -0.0752
  440MPD2    C5 6612   1.047   4.325  15.547 -0.1786  0.1938 -0.7894
  440MPD2     H 6613   1.320   4.389  15.290 -0.7284  0.2394 -0.8586
  440MPD2    H1 6614   1.150   4.149  15.591 -0.3726 -0.5233 -0.3992
  440MPD2    H2 6615   0.978   4.519  15.517 -0.6823  0.9131 -0.9377
  440MPD2    H3 6616   0.975   4.310  15.626 -1.1051  1.5580 -1.3685
  440MPD2     N 6617   1.349   4.159  15.419  0.6224  0.9198 -0.6081
  440MPD2    H5 6618   1.351   4.089  15.492 -0.7240  1.3740 -0.1433
  440MPD2    N1 6619   1.145   4.583  15.294  0.0002  0.9181 -0.1894
  440MPD2    H7 6620   1.215   4.580  15.220 -1.0674 -0.7313 -1.1265
  441TMC3    C1 6621   1.563   4.053  15.352 -0.3852 -0.3504  0.4898
  441TMC3    C2 6622   1.697   4.086  15.353 -0.4196 -0.1682 -0.2221
  441TMC3    C3 6623   1.786   4.004  15.423 -0.4281  0.4912 -0.0121
  441TMC3    C4 6624   1.514   3.958  15.430  0.0805  0.0006 -0.1284
  441TMC3    C5 6625   1.605   3.877  15.500 -0.0624  0.0542  0.6629
  441TMC3    C6 6626   1.741   3.890  15.489 -0.6466 -0.5879  0.0729
  441TMC3     C 6627   1.468   4.161  15.333  0.2133 -0.2361  0.3279
  441TMC3     O 6628   1.500   4.243  15.247  0.3659 -0.3814  0.3867
  441TMC3     H 6629   1.731   4.164  15.286  0.3152  1.6503  2.2632
  441TMC3    H1 6630   1.409   3.932  15.429  0.7173 -2.5985  0.6633
  441TMC3    H2 6631   1.811   3.833  15.549 -0.3486 -0.4866 -0.1779
  441TMC3    C7 6632   1.556   3.854  15.634  0.0714 -0.5206 -0.0587
  441TMC3    C8 6633   1.886   4.075  15.502 -0.2218 -0.5383 -0.3962
  441TMC3    O1 6634   1.464   3.931  15.648 -0.1995  0.0396 -0.4580
  441TMC3    O2 6635   1.961   4.015  15.576 -0.7180  0.2623  0.6275
  442MPD2     C 6636   4.418   0.813  16.670  0.2895  0.0073  0.8877
  442MPD2    C1 6637   4.317   0.741  16.729 -0.3230  0.0652  0.1059
  442MPD2    C2 6638   4.305   0.608  16.722  0.6973 -0.1117  0.1196
  442MPD2    C3 6639   4.390   0.534  16.637  0.3230  0.3919  0.2501
  442MPD2    C4 6640   4.487   0.608  16.570  0.2150  0.7261 -0.3608
  442MPD2    C5 6641   4.497   0.744  16.578 -0.0045 -1.0192  0.2530
  442MPD2     H 6642   4.226   0.556  16.776  0.3547  0.1062 -0.1720
  442MPD2    H1 6643   4.549   0.560  16.495  1.2550  1.1019  0.2557
  442MPD2    H2 6644   4.437   0.918  16.693  2.0999 -0.5139  1.7407
  442MPD2    H3 6645   4.573   0.799  16.523  1.3645 -0.9334  2.2218
  442MPD2     N 6646   4.391   0.392  16.610 -0.5452  0.2838 -0.4226
  442MPD2    H5 6647   4.454   0.358  16.538  0.3406 -1.4433  1.1549
  442MPD2    N1 6648   4.217   0.805  16.801  0.2240 -0.1450  0.3653
  442MPD2    H7 6649   4.150   0.743  16.845  1.6951 -0.2710  2.4252
  443TMC3    C1 6650   4.082   0.988  16.876 -0.0850  0.7595  0.5547
  443TMC3    C2 6651   4.018   1.099  16.831 -0.2272  0.3615 -0.8331
  443TMC3    C3 6652   3.895   1.122  16.870 -0.3519  0.4175 -0.5556
  443TMC3    C4 6653   4.027   0.898  16.966  0.4339 -0.8237  0.2934
  443TMC3    C5 6654   3.910   0.939  17.016  0.2905  0.1729  0.0883
  443TMC3    C6 6655   3.845   1.050  16.974  0.1806  0.0796 -0.6138
  443TMC3     C 6656   4.199   0.943  16.799  0.4581  0.0095 -0.7339
  443TMC3     O 6657   4.254   1.026  16.731 -0.3869 -0.2218 -0.7545
  443TMC3     H 6658   4.059   1.169  16.759 -0.6546  0.5505 -0.8936
  443TMC3    H1 6659   4.090   0.823  17.014  1.1740 -0.1836  0.3153
  443TMC3    H2 6660   3.738   1.055  16.991  0.1689  0.4600 -0.7978
  443TMC3    C7 6661   3.877   0.884  17.146  0.2354 -1.0851  0.8231
  443TMC3    C8 6662   3.797   1.214  16.807  0.0710  0.5808 -0.1469
  443TMC3    O1 6663   3.930   0.774  17.171 -0.4257 -0.6424  0.6889
  443TMC3    O2 6664   3.745   1.283  16.894  0.0542  0.7517 -0.0081
  444MPD2     C 6665   4.498   0.195  16.974  0.7265 -0.0880 -0.5586
  444MPD2    C1 6666   4.423   0.085  17.009  0.1503 -0.1296  0.4596
  444MPD2    C2 6667   4.461   4.698  16.989 -0.4494  0.1415 -0.0055
  444MPD2    C3 6668   4.585   4.661  16.946  0.2621  0.3731 -0.0085
  444MPD2    C4 6669   4.673   0.027  16.925  0.0345 -0.1394 -0.2130
  444MPD2    C5 6670   4.625   0.156  16.929  0.0698  0.2949 -0.6831
  444MPD2     H 6671   4.397   4.620  17.030 -0.8223  1.0603  1.1735
  444MPD2    H1 6672   0.038   0.004  16.904 -0.0769 -0.4771 -0.3894
  444MPD2    H2 6673   4.473   0.298  16.995  0.0532 -0.5647  0.9337
  444MPD2    H3 6674   4.695   0.238  16.915 -1.0508  0.9288 -2.6479
  444MPD2     N 6675   4.611   4.523  16.926 -0.0984  0.7939 -0.1061
  444MPD2    H5 6676   4.538   4.456  16.947 -0.5908  2.4596  3.4647
  444MPD2    N1 6677   4.293   0.102  17.070 -0.4854 -0.4803  0.5812
  444MPD2    H7 6678   4.258   0.014  17.107  1.3996 -2.4325 -2.3663
  445TMC3    C1 6679   4.724   4.326  16.885 -0.1915  0.3794 -0.1724
  445TMC3    C2 6680   4.643   4.273  16.786  0.0178 -0.0807 -1.1700
  445TMC3    C3 6681   4.659   4.144  16.736 -0.7784  0.3655  0.0710
  445TMC3    C4 6682   0.098   4.257  16.916  0.0566  0.2960 -0.3945
  445TMC3    C5 6683   0.107   4.122  16.871 -0.4380 -0.5121  0.4333
  445TMC3    C6 6684   0.023   4.068  16.781 -0.2370 -0.0064 -0.0256
  445TMC3     C 6685   4.737   4.467  16.913  0.7838 -0.4527 -0.2409
  445TMC3     O 6686   0.111   4.511  16.934  0.3749 -0.1331 -0.4304
  445TMC3     H 6687   4.564   4.342  16.758 -2.2540 -2.8810 -1.6055
  445TMC3    H1 6688   0.170   4.284  16.992 -0.7472 -0.3042  0.5789
  445TMC3    H2 6689   0.038   3.964  16.753 -0.3060  0.4409 -1.7585
  445TMC3    C7 6690   0.245   4.076  16.856  0.1968 -0.3778  0.1293
  445TMC3    C8 6691   4.574   4.083  16.632 -1.1225 -0.8005 -0.3202
  445TMC3    O1 6692   0.319   4.174  16.854  0.0739  0.6857 -0.3720
  445TMC3    O2 6693   4.570   3.962  16.626 -0.3164  0.4621  0.6910
  446MPD2     C 6694   4.154   1.121  11.796 -0.1342  0.5954 -0.3002
  446MPD2    C1 6695   4.109   1.155  11.669 -0.0385  0.4392  0.0757
  446MPD2    C2 6696   4.168   1.265  11.612  0.2563 -0.0334 -0.1434
  446MPD2    C3 6697   4.275   1.333  11.673  0.3370  0.0164 -0.3073
  446MPD2    C4 6698   4.315   1.302  11.799 -0.3467 -0.0329  0.9428
  446MPD2    C5 6699   4.249   1.197  11.852  0.1363 -0.1936  0.4196
  446MPD2     H 6700   4.132   1.303  11.517 -1.5971  2.6495  1.6341
  446MPD2    H1 6701   4.385   1.351  11.866  1.0922  1.1978 -1.4595
  446MPD2    H2 6702   4.118   1.037  11.855  2.8830  0.5610  1.4402
  446MPD2    H3 6703   4.274   1.173  11.955 -0.6297 -0.5323  0.5251
  446MPD2     N 6704   4.345   1.439  11.603  0.0148  0.1631 -0.4436
  446MPD2    H5 6705   4.304   1.471  11.516 -0.0960  1.2701  0.0160
  446MPD2    N1 6706   3.995   1.093  11.604  0.1455  0.4201  0.1076
  446MPD2    H7 6707   3.978   1.119  11.508  1.9539  2.0594  0.2311
  447TMC3    C1 6708   4.546   1.570  11.558 -0.3896 -0.0673  0.3129
  447TMC3    C2 6709   4.490   1.614  11.441 -0.2752  0.1483  0.5051
  447TMC3    C3 6710   4.557   1.715  11.372 -0.1263  0.0146  0.1704
  447TMC3    C4 6711   4.667   1.622  11.603  0.0691  0.1434 -0.3056
  447TMC3    C5 6712   4.711   1.735  11.544  0.7475  0.4028  0.0333
  447TMC3    C6 6713   4.659   1.786  11.430  0.4418 -0.3754  0.9145
  447TMC3     C 6714   4.482   1.466  11.634  0.1403 -0.7163  0.2410
  447TMC3     O 6715   4.544   1.427  11.732  0.2018 -0.2183 -0.3121
  447TMC3     H 6716   4.403   1.575  11.391  1.1135 -1.8621 -0.3502
  447TMC3    H1 6717   4.721   1.586  11.689 -1.5762  3.6892  2.2001
  447TMC3    H2 6718   4.700   1.879  11.391 -1.3164 -0.8082 -2.0021
  447TMC3    C7 6719   0.121   1.745  11.535  1.0558 -0.1586  0.3601
  447TMC3    C8 6720   4.577   1.693  11.234 -0.7978  0.1326 -0.3855
  447TMC3    O1 6721   0.160   1.752  11.419 -0.7243 -0.4724 -0.4126
  447TMC3    O2 6722   4.487   1.645  11.165  0.0617  0.4422  0.1273
  448TMC3    C1 6723   2.845   0.771  17.611 -0.0935  0.2995 -0.1380
  448TMC3    C2 6724   2.822   0.718  17.485 -0.0925 -0.2310  0.0779
  448TMC3    C3 6725   2.896   0.606  17.456  0.3399  0.5657  0.3277
  448TMC3    C4 6726   2.933   0.711  17.705  0.4902 -0.2237  0.1791
  448TMC3    C5 6727   2.995   0.592  17.670 -0.3915  0.1858  0.4652
  448TMC3    C6 6728   2.970   0.535  17.548 -0.3098 -0.2312  0.3246
  448TMC3     C 6729   2.801   0.902  17.647 -0.6989 -0.0512 -0.2101
  448TMC3     O 6730   2.853   0.954  17.747  0.0275  0.3022  0.4791
  448TMC3     H 6731   2.743   0.747  17.417  1.2823  0.6995 -1.1090
  448TMC3    H1 6732   2.956   0.757   0.047 -1.2751 -0.5432  0.7501
  448TMC3    H2 6733   3.025   0.447  17.517 -1.0926 -0.0250 -1.6886
  448TMC3    C7 6734   3.097   0.529  17.752  0.1999  0.4470  0.3363
  448TMC3    C8 6735   2.883   0.535  17.329  0.1255  0.3200  0.1866
  448TMC3    O1 6736   3.155   0.440  17.694 -0.2477 -0.2847  0.2456
  448TMC3    O2 6737   2.924   0.419  17.325 -1.1097  0.1743 -0.1241
  449MPD2     C 6738   4.472   4.507  14.314 -0.2799  0.0242 -0.1564
  449MPD2    C1 6739   4.418   4.592  14.217  0.0157 -0.0533  0.3162
  449MPD2    C2 6740   4.298   4.562  14.152 -0.3546  0.3491  0.2954
  449MPD2    C3 6741   4.242   4.443  14.177 -0.0748 -1.0250 -0.8400
  449MPD2    C4 6742   4.294   4.358  14.273 -0.9320 -1.3585  0.2768
  449MPD2    C5 6743   4.412   4.390  14.340 -0.3816 -0.0165  0.7241
  449MPD2     H 6744   4.245   4.629  14.086 -2.7075 -0.0593  1.7941
  449MPD2    H1 6745   4.254   4.258  14.280 -1.4370 -0.8947  3.9201
  449MPD2    H2 6746   4.570   4.534  14.350 -0.5557  0.1102  0.5325
  449MPD2    H3 6747   4.464   4.309  14.389  0.6331  1.1357  1.5708
  449MPD2     N 6748   4.123   4.414  14.109 -0.5649  0.5264  0.3033
  449MPD2    H5 6749   4.095   4.485  14.041 -1.3071  0.3461  0.4179
  449MPD2    N1 6750   4.477   4.718  14.190 -0.1961 -0.2578  0.3452
  449MPD2    H7 6751   4.417   0.043  14.139 -1.2413 -0.4148  1.3913
  450TMC3    C1 6752   4.589   0.172  14.206 -0.3472  0.4821  0.1625
  450TMC3    C2 6753   4.666   0.219  14.106  0.2257  0.1909  0.1828
  450TMC3    C3 6754   4.611   0.316  14.029 -0.6417  0.1172 -0.2550
  450TMC3    C4 6755   4.464   0.221  14.235 -0.1222  0.0559  0.0497
  450TMC3    C5 6756   4.411   0.325  14.163  0.3373 -0.3805 -0.2489
  450TMC3    C6 6757   4.490   0.380  14.059  0.1738 -0.5517  0.4921
  450TMC3     C 6758   4.595   0.033  14.240 -0.8060 -0.0300 -0.3190
  450TMC3     O 6759   4.701   4.712  14.250  0.1071  0.0210 -0.2842
  450TMC3     H 6760   0.018   0.161  14.091  0.3476  0.4198  0.0331
  450TMC3    H1 6761   4.411   0.173  14.317 -0.9535 -0.3732 -0.7360
  450TMC3    H2 6762   4.451   0.461  13.999  0.4010 -0.8128 -0.0040
  450TMC3    C7 6763   4.284   0.272  14.103  0.2634  0.5170  0.2638
  450TMC3    C8 6764   4.674   0.368  13.910 -0.1176 -0.4666 -0.2825
  450TMC3    O1 6765   4.288   0.152  14.080  0.4185 -0.1432  0.4151
  450TMC3    O2 6766   4.679   0.491  13.908  0.1476 -0.4574 -0.1434
  451MPD2     C 6767   1.324   3.337   0.954 -0.2610  0.1028 -0.2532
  451MPD2    C1 6768   1.268   3.211   0.954 -0.4862  0.3472 -0.7567
  451MPD2    C2 6769   1.356   3.100   0.947 -0.1533 -0.6743  1.0991
  451MPD2    C3 6770   1.491   3.123   0.924  0.1669 -0.2196 -0.2191
  451MPD2    C4 6771   1.538   3.254   0.923 -0.3868  0.5075  0.6113
  451MPD2    C5 6772   1.461   3.360   0.940 -0.8977 -0.5263  0.1632
  451MPD2     H 6773   1.313   3.002   0.957 -0.4709 -0.6298  0.2420
  451MPD2    H1 6774   1.644   3.275   0.914 -0.1469 -0.8367  0.2247
  451MPD2    H2 6775   1.264   3.427   0.950 -0.9449 -0.3675 -0.5425
  451MPD2    H3 6776   1.496   3.463   0.934  0.2577 -0.9066  0.4684
  451MPD2     N 6777   1.586   3.021   0.892  0.2447  0.7016 -0.7040
  451MPD2    H5 6778   1.686   3.039   0.892  0.4250 -0.3294  2.6258
  451MPD2    N1 6779   1.130   3.206   0.957 -0.0430  0.6466  0.3467
  451MPD2    H7 6780   1.091   3.298   0.970 -1.8663 -0.0741 -0.0636
  452TMC3    C1 6781   1.435   2.868   0.778 -0.2478 -0.7750 -0.1276
  452TMC3    C2 6782   1.374   2.747   0.778 -0.8824 -0.3075 -0.2096
  452TMC3    C3 6783   1.285   2.729   0.677 -0.7031 -0.2770  0.1577
  452TMC3    C4 6784   1.420   2.964   0.679 -0.2800 -0.2299  0.0685
  452TMC3    C5 6785   1.328   2.933   0.577 -0.0215  0.0094  0.3401
  452TMC3    C6 6786   1.261   2.818   0.581 -0.0136  0.2161  0.8951
  452TMC3     C 6787   1.541   2.889   0.876 -0.4013 -0.4914 -0.6643
  452TMC3     O 6788   1.604   2.789   0.896 -0.3049 -0.1677 -0.5288
  452TMC3     H 6789   1.395   2.663   0.844  2.1157 -1.0115 -2.0472
  452TMC3    H1 6790   1.461   3.064   0.677  1.1282 -0.8059  0.3960
  452TMC3    H2 6791   1.208   2.788   0.491  0.4585 -1.2057  1.0832
  452TMC3    C7 6792   1.236   3.043   0.551 -0.6097  0.5794  0.6540
  452TMC3    C8 6793   1.214   2.605   0.655  0.5518 -0.6688 -1.0583
  452TMC3    O1 6794   1.275   3.156   0.547  0.7045 -0.2981  0.2940
  452TMC3    O2 6795   1.199   2.559   0.542 -0.7638 -0.3743 -0.2175
  453TMC3    C1 6796   2.159   0.538  12.218  0.4198  0.5797  0.7981
  453TMC3    C2 6797   2.069   0.443  12.188 -0.3745 -0.3581  0.4955
  453TMC3    C3 6798   1.980   0.465  12.083 -0.2598  0.9192 -1.0099
  453TMC3    C4 6799   2.152   0.659  12.154  0.1051 -0.0162  0.3596
  453TMC3    C5 6800   2.058   0.681  12.060 -0.4895  0.0111  0.2268
  453TMC3    C6 6801   1.969   0.587  12.022 -0.4686 -0.0223 -0.7344
  453TMC3     C 6802   2.265   0.515  12.321  0.0254 -0.1388  0.2191
  453TMC3     O 6803   2.338   0.611  12.329 -0.4985  0.6412 -0.6004
  453TMC3     H 6804   2.069   0.350  12.244  2.8645 -0.3146  0.5307
  453TMC3    H1 6805   2.209   0.740  12.196 -1.1024  0.3130  1.3538
  453TMC3    H2 6806   1.882   0.611  11.962 -0.3234  0.9119 -0.5836
  453TMC3    C7 6807   2.066   0.814  11.991  0.3656  0.1950  0.9310
  453TMC3    C8 6808   1.863   0.369  12.064 -1.1197  0.6495 -0.8100
  453TMC3    O1 6809   2.142   0.895  12.038  0.5101  0.3507 -0.1235
  453TMC3    O2 6810   1.756   0.413  12.023 -0.4619  0.0049  0.6254
  454MPD2     C 6811   0.595   4.328  16.590  0.8179  0.4437  0.1307
  454MPD2    C1 6812   0.548   4.435  16.520 -0.0427 -0.7472 -0.2322
  454MPD2    C2 6813   0.506   4.546  16.594 -0.1731  0.4839  0.0748
  454MPD2    C3 6814   0.519   4.552  16.731 -0.1721  1.2604  0.0713
  454MPD2    C4 6815   0.564   4.441  16.802  0.1324 -0.2952  0.4103
  454MPD2    C5 6816   0.595   4.326  16.728  0.4606  0.3066 -0.0815
  454MPD2     H 6817   0.463   4.635  16.548 -1.0290 -0.6758 -1.3708
  454MPD2    H1 6818   0.567   4.444  16.911 -1.4366 -1.1898  0.4746
  454MPD2    H2 6819   0.622   4.234  16.542  0.4525  0.7600 -0.6986
  454MPD2    H3 6820   0.632   4.235  16.772  0.2705  0.2002 -0.1451
  454MPD2     N 6821   0.488   4.662  16.810 -0.5517  0.4646  0.0340
  454MPD2    H5 6822   0.504   4.648  16.909 -0.4507 -0.1196 -0.0652
  454MPD2    N1 6823   0.523   4.427  16.381  0.3447  0.0547 -0.0193
  454MPD2    H7 6824   0.514   4.516  16.333  0.7291  0.0689 -0.0624
  455TMC3    C1 6825   0.302   0.021  16.692  0.4400 -0.0057 -0.4788
  455TMC3    C2 6826   0.246   0.139  16.654 -0.1719  0.3329  0.4540
  455TMC3    C3 6827   0.120   0.148  16.598  0.3654  0.3982  0.1102
  455TMC3    C4 6828   0.233   4.642  16.667  0.5304 -0.3614  0.5491
  455TMC3    C5 6829   0.106   4.645  16.613  0.0596 -0.8259 -0.4395
  455TMC3    C6 6830   0.045   0.031  16.576 -0.2741  0.2420  0.2818
  455TMC3     C 6831   0.416   0.036  16.776  0.2368 -0.7717 -0.3106
  455TMC3     O 6832   0.424   0.140  16.837  0.4822 -0.5576 -0.7920
  455TMC3     H 6833   0.301   0.229  16.680 -3.0152  1.3827  2.7824
  455TMC3    H1 6834   0.273   4.553  16.716  1.8967  0.9226  1.7819
  455TMC3    H2 6835   4.685   0.033  16.532 -0.0212  3.6166 -0.1648
  455TMC3    C7 6836   0.064   4.528  16.544  0.0272  0.1276 -0.4343
  455TMC3    C8 6837   0.049   0.276  16.613 -0.0967  0.9436 -0.0634
  455TMC3    O1 6838   4.709   4.536  16.468 -0.2661  0.1865  0.4547
  455TMC3    O2 6839   4.705   0.316  16.533 -0.3159 -0.4109 -0.3205
  456MPD2     C 6840   3.188   4.431  16.300  1.0754  0.6940  0.4163
  456MPD2    C1 6841   3.217   4.359  16.414 -0.1258 -1.1317  0.5913
  456MPD2    C2 6842   3.163   4.402  16.537  0.1461 -0.8500 -0.0726
  456MPD2    C3 6843   3.085   4.514  16.544  0.2825 -0.3755 -0.4910
  456MPD2    C4 6844   3.054   4.583  16.425 -0.0061 -1.2806 -0.4962
  456MPD2    C5 6845   3.113   4.541  16.306 -0.2630  0.1353 -0.2679
  456MPD2     H 6846   3.180   4.346  16.629  1.1389  0.8602  0.7803
  456MPD2    H1 6847   2.997   4.675  16.423  0.1618 -1.1747 -0.4032
  456MPD2    H2 6848   3.219   4.398  16.202  3.4062 -1.7548  1.9548
  456MPD2    H3 6849   3.092   4.590  16.211  2.0214  0.5914 -0.5334
  456MPD2     N 6850   3.039   4.553  16.671  0.7120  0.2166 -0.3810
  456MPD2    H5 6851   3.088   4.516  16.751  1.0547  1.1195 -0.1709
  456MPD2    N1 6852   3.311   4.255  16.395 -0.4938 -0.2933 -0.1002
  456MPD2    H7 6853   3.340   4.245  16.299 -0.6382  1.1770 -0.2906
  457TMC3    C1 6854   2.878   4.648  16.831  0.6115 -0.2544  0.2351
  457TMC3    C2 6855   2.782   0.006  16.844 -0.1649 -0.7142 -0.0587
  457TMC3    C3 6856   2.717   0.011  16.962  0.3118 -0.0544 -0.3824
  457TMC3    C4 6857   2.915   4.563  16.923 -0.3412  0.2594  0.8600
  457TMC3    C5 6858   2.843   4.569  17.031 -0.6774  0.2857 -0.7883
  457TMC3    C6 6859   2.740   4.656  17.054 -0.8785 -0.2669  0.1283
  457TMC3     C 6860   2.926   4.634  16.688 -0.6360 -0.1022  0.6104
  457TMC3     O 6861   2.848   4.675  16.600  0.3517 -0.1917 -0.1844
  457TMC3     H 6862   2.773   0.083  16.769  2.2447 -1.9594 -1.6139
  457TMC3    H1 6863   2.983   4.480  16.907 -3.0469 -1.7700 -0.0837
  457TMC3    H2 6864   2.679   4.658  17.144 -2.9603 -0.3726 -1.2538
  457TMC3    C7 6865   2.935   4.561  17.140 -0.1353  0.2344  0.0974
  457TMC3    C8 6866   2.715   0.131  17.029  0.4422  0.3468  0.1830
  457TMC3    O1 6867   3.016   4.468  17.139  0.3046 -0.2610 -0.4250
  457TMC3    O2 6868   2.777   0.135  17.132  0.5950 -0.2759  0.5488
  458MPD2     C 6869   1.049   4.538  12.294  0.4156  0.2000  0.3005
  458MPD2    C1 6870   0.993   4.426  12.342  0.3009 -0.6181  0.5377
  458MPD2    C2 6871   0.851   4.413  12.327  0.4242  0.6965  0.7176
  458MPD2    C3 6872   0.771   4.514  12.278  0.0638  0.4854  0.4922
  458MPD2    C4 6873   0.829   4.630  12.240 -0.3117  0.8711 -0.1847
  458MPD2    C5 6874   0.969   4.642  12.249  0.0411 -0.0875 -0.4594
  458MPD2     H 6875   0.800   4.321  12.353  0.5191  0.3946 -0.1584
  458MPD2    H1 6876   0.779   4.717  12.199 -2.4268 -1.2302 -2.0674
  458MPD2    H2 6877   1.156   4.557  12.302  0.2919  0.4308  1.3337
  458MPD2    H3 6878   1.009   0.003  12.230 -0.4905 -0.1872 -2.0801
  458MPD2     N 6879   0.632   4.498  12.271 -0.3492 -0.3484  0.8706
  458MPD2    H5 6880   0.596   4.415  12.317  0.1715 -0.5281  0.9582
  458MPD2    N1 6881   1.072   4.333  12.411  0.5027  0.1302  0.3111
  458MPD2    H7 6882   1.167   4.367  12.422  0.3081  1.3474 -1.8423
  459TMC3    C1 6883   1.153   4.138  12.518  0.6133 -0.0982  0.7589
  459TMC3    C2 6884   1.279   4.199  12.517 -0.5539 -0.3294 -1.0451
  459TMC3    C3 6885   1.369   4.149  12.618  0.8007  0.4965  0.1676
  459TMC3    C4 6886   1.123   4.055  12.623  0.0572 -0.1414 -0.3514
  459TMC3    C5 6887   1.213   4.020  12.727  0.6320 -0.1295  0.1284
  459TMC3    C6 6888   1.340   4.068  12.727 -0.2439  0.0333 -0.2427
  459TMC3     C 6889   1.043   4.207  12.459  0.7084  0.5307  0.1450
  459TMC3     O 6890   0.934   4.153  12.452 -0.1550 -0.5152 -0.4266
  459TMC3     H 6891   1.313   4.266  12.438 -3.0937  0.1930 -1.6917
  459TMC3    H1 6892   1.024   4.013  12.638 -0.4373  0.7907 -1.0382
  459TMC3    H2 6893   1.412   4.060  12.807 -0.0835  2.8311 -0.0965
  459TMC3    C7 6894   1.157   3.950  12.840  0.4021 -0.2042 -0.7714
  459TMC3    C8 6895   1.513   4.165  12.591 -0.5883  0.1514  1.2917
  459TMC3    O1 6896   1.049   3.897  12.831  0.3832  0.0266  0.2821
  459TMC3    O2 6897   1.545   4.272  12.536  0.0889  0.7138 -0.4418
  460MPD2     C 6898   0.136   1.802  11.062 -0.0930  0.8874 -0.5235
  460MPD2    C1 6899   0.006   1.766  11.072 -0.2680  0.8676  0.9937
  460MPD2    C2 6900   4.670   1.759  10.953  0.6926  0.0891 -0.1418
  460MPD2    C3 6901   4.724   1.787  10.828  0.3010  0.7021 -0.5746
  460MPD2    C4 6902   0.114   1.823  10.829 -0.2677 -0.0873  0.8227
  460MPD2    C5 6903   0.192   1.827  10.939  0.6483  0.6513 -0.4787
  460MPD2     H 6904   4.567   1.724  10.953  0.9489 -0.6897  0.2201
  460MPD2    H1 6905   0.175   1.848  10.742 -1.6142  2.3987  0.6079
  460MPD2    H2 6906   0.196   1.811  11.151  1.0612 -0.7443 -1.1383
  460MPD2    H3 6907   0.296   1.856  10.936 -0.3110  3.9587 -1.0301
  460MPD2     N 6908   4.644   1.779  10.711  0.7215  0.0169 -0.0509
  460MPD2    H5 6909   4.552   1.738  10.728  1.3757 -1.6608 -0.5360
  460MPD2    N1 6910   4.700   1.736  11.202  0.2298  0.1252  0.2300
  460MPD2    H7 6911   0.018   1.773  11.277 -0.7598  0.3981  0.8499
  461TMC3    C1 6912   4.579   1.771  10.486  0.2222  0.4654  0.6755
  461TMC3    C2 6913   4.515   1.664  10.508 -0.1997  0.0998  0.3065
  461TMC3    C3 6914   4.407   1.636  10.432  0.6977 -0.0603  0.4410
  461TMC3    C4 6915   4.546   1.852  10.380 -0.3614 -0.3221  0.4508
  461TMC3    C5 6916   4.434   1.831  10.312 -0.0151 -0.1180 -0.2423
  461TMC3    C6 6917   4.358   1.715  10.332  0.3562 -0.2480  0.6510
  461TMC3     C 6918   4.679   1.819  10.585  0.1078 -0.3216 -0.1429
  461TMC3     O 6919   0.045   1.873  10.550 -0.5969 -0.1432 -0.0757
  461TMC3     H 6920   4.555   1.591  10.578  1.2142  1.3734  0.8316
  461TMC3    H1 6921   4.608   1.940  10.367 -3.5193  1.7241 -0.6017
  461TMC3    H2 6922   4.263   1.694  10.283  0.8791  0.3631 -0.6063
  461TMC3    C7 6923   4.375   1.923  10.207  0.0203  0.0990  0.0577
  461TMC3    C8 6924   4.382   1.487  10.420 -0.4951 -0.2515 -0.7977
  461TMC3    O1 6925   4.255   1.918  10.192 -0.3132 -0.8016 -0.4714
  461TMC3    O2 6926   4.479   1.415  10.440 -0.5542  0.7312  0.7463
  462TMC3    C1 6927   4.318   3.071   0.136  0.3521 -0.5210 -0.7075
  462TMC3    C2 6928   4.358   3.006   0.020  0.1933  0.2345  0.1108
  462TMC3    C3 6929   4.418   2.886   0.032  0.2993 -0.2725  0.4205
  462TMC3    C4 6930   4.321   3.006   0.258 -0.5926  0.1677 -0.7589
  462TMC3    C5 6931   4.389   2.887   0.265  0.0976 -0.0443 -0.2743
  462TMC3    C6 6932   4.445   2.835   0.152 -0.2372 -0.2604  0.2874
  462TMC3     C 6933   4.196   3.137   0.110 -0.0329 -0.3103 -0.1625
  462TMC3     O 6934   4.103   3.093   0.174 -0.0526 -0.4598 -0.6633
  462TMC3     H 6935   4.326   3.044  17.676 -1.5870 -3.4575 -0.7650
  462TMC3    H1 6936   4.272   3.045   0.346  0.7001 -0.5310  0.2672
  462TMC3    H2 6937   4.463   2.729   0.167 -0.2285 -0.1257  1.2658
  462TMC3    C7 6938   4.328   2.791   0.345  0.7040  0.8207 -0.3499
  462TMC3    C8 6939   4.426   2.798  17.672 -0.0657 -0.1512 -0.1216
  462TMC3    O1 6940   4.395   2.695   0.384 -0.2294 -0.0638 -0.2114
  462TMC3    O2 6941   4.331   2.796  17.594 -0.0872  0.2391  0.3519
  463MPD2     C 6942   2.188   0.620   1.347 -0.4685 -0.2806 -0.0304
  463MPD2    C1 6943   2.081   0.704   1.370 -0.2944 -0.1521  0.2773
  463MPD2    C2 6944   2.107   0.826   1.411 -0.5264 -0.3378 -0.3665
  463MPD2    C3 6945   2.232   0.883   1.440  0.4879 -0.3317  0.4010
  463MPD2    C4 6946   2.340   0.795   1.424 -0.2225  0.8714 -0.7389
  463MPD2    C5 6947   2.312   0.664   1.387 -0.1487 -0.0728 -0.3711
  463MPD2     H 6948   2.016   0.881   1.429 -1.2800 -2.1275  1.2839
  463MPD2    H1 6949   2.442   0.829   1.440  0.1450  0.2081 -1.6360
  463MPD2    H2 6950   2.176   0.514   1.328  0.1732 -0.0596 -1.6532
  463MPD2    H3 6951   2.388   0.589   1.367 -1.2643 -0.9088 -1.5357
  463MPD2     N 6952   2.252   1.015   1.496  0.1974  0.1618 -0.1071
  463MPD2    H5 6953   2.347   1.048   1.511 -0.5946  1.8154  1.3020
  463MPD2    N1 6954   1.941   0.674   1.356 -0.3290  0.2309 -0.0318
  463MPD2    H7 6955   1.871   0.745   1.372 -1.4085 -0.2995 -2.4537
  464TMC3    C1 6956   1.746   0.556   1.321 -0.1488 -0.6086 -0.0722
  464TMC3    C2 6957   1.674   0.639   1.406 -0.5994 -0.1233 -0.7565
  464TMC3    C3 6958   1.536   0.645   1.394 -1.2905  0.3891 -0.8731
  464TMC3    C4 6959   1.677   0.453   1.256  1.1149  0.1736  1.0094
  464TMC3    C5 6960   1.541   0.452   1.253 -0.0773  0.1341  0.3110
  464TMC3    C6 6961   1.466   0.550   1.319 -0.4713  0.2178 -0.1758
  464TMC3     C 6962   1.891   0.553   1.317  0.6924  0.2018 -0.1582
  464TMC3     O 6963   1.943   0.463   1.253 -0.7146  0.2431 -1.0171
  464TMC3     H 6964   1.718   0.718   1.466  0.5926 -0.9824 -0.5098
  464TMC3    H1 6965   1.740   0.377   1.211 -0.0767 -0.7702  0.9474
  464TMC3    H2 6966   1.359   0.568   1.317 -0.0392  3.0250  2.4780
  464TMC3    C7 6967   1.467   0.375   1.155 -1.2038  0.1210 -0.2565
  464TMC3    C8 6968   1.472   0.762   1.454 -0.0977 -0.7361 -0.1920
  464TMC3    O1 6969   1.527   0.294   1.091  0.1007  0.3765 -0.1397
  464TMC3    O2 6970   1.546   0.859   1.469 -0.1358 -0.3342 -0.7333
  465MPD2     C 6971   2.444   0.749  17.172  0.0602  0.0992  0.3673
  465MPD2    C1 6972   2.422   0.613  17.198 -0.7704 -0.1859 -0.2804
  465MPD2    C2 6973   2.377   0.532  17.100 -0.2823 -0.6237  0.3187
  465MPD2    C3 6974   2.341   0.584  16.973 -0.4421 -0.0483  0.4024
  465MPD2    C4 6975   2.384   0.711  16.943  0.0287  0.5606  0.5055
  465MPD2    C5 6976   2.425   0.795  17.043 -0.6728  0.3346 -0.2897
  465MPD2     H 6977   2.354   0.429  17.122 -0.8467 -1.0659 -2.2861
  465MPD2    H1 6978   2.391   0.752  16.843 -1.2363 -0.0353  0.1684
  465MPD2    H2 6979   2.482   0.807  17.256  1.1315 -0.4424  0.2512
  465MPD2    H3 6980   2.463   0.894  17.017 -3.8913  1.8553  0.8215
  465MPD2     N 6981   2.291   0.491  16.880  0.8055  0.1378 -0.2588
  465MPD2    H5 6982   2.259   0.404  16.923  3.2071 -0.1808  0.8751
  465MPD2    N1 6983   2.435   0.553  17.327  0.0342  0.2360  0.4572
  465MPD2    H7 6984   2.430   0.452  17.330 -2.4100  0.2120 -3.8504
  466TMC3    C1 6985   2.081   0.216  16.787  0.0508  0.4907 -0.1139
  466TMC3    C2 6986   1.967   0.255  16.724  0.3887  0.0248  0.5475
  466TMC3    C3 6987   1.967   0.351  16.624 -0.1040 -0.1941  0.0579
  466TMC3    C4 6988   2.196   0.286  16.764 -0.4033  0.2638 -0.4945
  466TMC3    C5 6989   2.181   0.405  16.699  0.2343 -0.0874 -0.0261
  466TMC3    C6 6990   2.078   0.436  16.614 -0.3186 -0.8253 -0.3440
  466TMC3     C 6991   2.069   0.170  16.919 -0.3053  0.6461  0.5170
  466TMC3     O 6992   2.147   0.228  16.995 -0.0106 -0.2480  0.1783
  466TMC3     H 6993   1.876   0.202  16.749  0.1560  0.8747  1.5241
  466TMC3    H1 6994   2.292   0.266  16.811  0.3807 -0.5499 -2.3984
  466TMC3    H2 6995   2.077   0.529  16.559 -1.5705 -0.6307  0.0017
  466TMC3    C7 6996   2.260   0.509  16.746  0.2517  0.0423  0.6501
  466TMC3    C8 6997   1.844   0.415  16.582 -0.7892  0.3641  0.1489
  466TMC3    O1 6998   2.278   0.606  16.674  0.2646  0.0169  0.3693
  466TMC3    O2 6999   1.846   0.475  16.475  0.4114  0.6894  0.3687
  467TMC3    C1 7000   2.536   3.222  14.122  0.0333 -0.2637  0.3276
  467TMC3    C2 7001   2.520   3.308  14.018 -0.1799  1.0599  0.0223
  467TMC3    C3 7002   2.493   3.252  13.894 -0.3363 -0.2238 -0.3897
  467TMC3    C4 7003   2.511   3.090  14.104 -0.1275  0.5442  0.1127
  467TMC3    C5 7004   2.484   3.039  13.981  0.0757  0.8294 -0.0328
  467TMC3    C6 7005   2.477   3.121  13.873 -0.6545  0.0029  0.1790
  467TMC3     C 7006   2.664   3.244  14.183 -0.1621 -0.1630  0.1874
  467TMC3     O 7007   2.690   3.361  14.213  0.5902  0.3239 -0.5638
  467TMC3     H 7008   2.571   3.403  14.030  0.7321  0.6039 -0.2368
  467TMC3    H1 7009   2.487   3.030  14.191 -0.4158 -1.4953 -1.3918
  467TMC3    H2 7010   2.456   3.087  13.773 -1.0263  1.4223 -0.2300
  467TMC3    C7 7011   2.379   2.947  14.000 -0.5013  0.0786  0.7290
  467TMC3    C8 7012   2.576   3.318  13.796 -0.2223  0.0698  0.0544
  467TMC3    O1 7013   2.404   2.834  13.961 -0.0546 -0.4203  0.3302
  467TMC3    O2 7014   2.574   3.439  13.779 -0.0655  0.2486  0.1601
  468MPD2     C 7015   1.352   1.973  11.472 -0.6708  0.5073  0.8119
  468MPD2    C1 7016   1.458   1.929  11.397 -0.1205  0.7640  0.0230
  468MPD2    C2 7017   1.482   1.797  11.374 -0.1885  0.4509 -0.1817
  468MPD2    C3 7018   1.406   1.703  11.445 -0.5511  0.5325  0.0387
  468MPD2    C4 7019   1.313   1.745  11.542 -0.2932  0.2069 -0.1294
  468MPD2    C5 7020   1.287   1.879  11.553  0.0986 -0.1439  0.4644
  468MPD2     H 7021   1.566   1.776  11.308 -1.4829 -2.1092 -1.0053
  468MPD2    H1 7022   1.263   1.673  11.606  0.8587 -1.0277 -0.6326
  468MPD2    H2 7023   1.331   2.077  11.493 -1.3191  0.4146  0.6369
  468MPD2    H3 7024   1.214   1.911  11.627 -1.6329  0.8208 -1.6557
  468MPD2     N 7025   1.420   1.567  11.422  0.2180 -0.0871 -0.2043
  468MPD2    H5 7026   1.356   1.503  11.467 -2.1155  1.5091 -1.2445
  468MPD2    N1 7027   1.555   2.015  11.337 -0.1130 -0.4575 -0.2383
  468MPD2    H7 7028   1.628   1.970  11.283 -1.3459 -2.4070 -0.2614
  469TMC3    C1 7029   1.668   2.200  11.266  0.9548  0.2468 -1.0254
  469TMC3    C2 7030   1.701   2.134  11.151  0.0641  0.8772  0.2880
  469TMC3    C3 7031   1.813   2.177  11.089  0.3453  0.1511 -0.4382
  469TMC3    C4 7032   1.733   2.311  11.318  0.1618  0.1087  0.1111
  469TMC3    C5 7033   1.845   2.346  11.246  0.3272 -0.5703 -0.0490
  469TMC3    C6 7034   1.888   2.282  11.135  0.1031 -0.1492  1.1158
  469TMC3     C 7035   1.556   2.155  11.341 -0.0204  0.2000 -0.3440
  469TMC3     O 7036   1.479   2.231  11.397 -0.0464 -0.2036 -0.2520
  469TMC3     H 7037   1.644   2.048  11.117 -0.3682  1.2201  0.1487
  469TMC3    H1 7038   1.700   2.361  11.409 -1.1902 -1.3317  0.4011
  469TMC3    H2 7039   1.969   2.321  11.075  0.8939 -3.6402 -0.1220
  469TMC3    C7 7040   1.891   2.489  11.264  0.3551  0.9919  0.1765
  469TMC3    C8 7041   1.887   2.065  11.027 -0.3015 -0.2370 -0.1480
  469TMC3    O1 7042   1.941   2.550  11.171 -0.5959  0.1759  0.0579
  469TMC3    O2 7043   1.818   1.978  10.976 -0.1991  0.2806  0.4718
  470TMC3    C1 7044   3.715   1.902   0.935  0.8786 -0.1744 -0.1342
  470TMC3    C2 7045   3.771   2.025   0.909  0.1821  0.3960 -0.7537
  470TMC3    C3 7046   3.813   2.087   1.023 -0.2475  0.5883  0.0244
  470TMC3    C4 7047   3.691   1.847   1.055  0.5802 -0.1929 -0.2194
  470TMC3    C5 7048   3.712   1.921   1.165  0.1449 -0.9642  0.3346
  470TMC3    C6 7049   3.782   2.041   1.151  0.3998  0.4668  0.0043
  470TMC3     C 7050   3.670   1.830   0.816 -0.0912  0.4705 -0.2073
  470TMC3     O 7051   3.654   1.901   0.716  0.0582  0.8208 -0.8020
  470TMC3     H 7052   3.796   2.049   0.807 -0.5813  1.9691 -0.5675
  470TMC3    H1 7053   3.623   1.762   1.062  1.0112 -0.5289 -0.1289
  470TMC3    H2 7054   3.801   2.105   1.236  1.0049 -0.0521  0.2587
  470TMC3    C7 7055   3.711   1.847   1.293  0.1855 -0.6440 -1.2924
  470TMC3    C8 7056   3.878   2.211   1.012 -0.7589 -0.3400  0.3829
  470TMC3    O1 7057   3.680   1.729   1.280  0.9106 -0.1070 -0.3740
  470TMC3    O2 7058   3.942   2.255   1.110 -0.2944 -0.1404 -0.1132
  471MPD2     C 7059   4.270   3.736  16.558  0.0252 -0.1618 -0.3773
  471MPD2    C1 7060   4.252   3.602  16.576 -0.9351  1.0381  0.1810
  471MPD2    C2 7061   4.215   3.554  16.702 -0.2997 -0.4013 -0.7621
  471MPD2    C3 7062   4.206   3.642  16.809  0.2969 -0.0780  0.2740
  471MPD2    C4 7063   4.224   3.776  16.789  0.7049 -0.0806  0.0619
  471MPD2    C5 7064   4.253   3.818  16.668 -0.4408 -0.4379  0.2264
  471MPD2     H 7065   4.191   3.450  16.720  1.6608 -0.6997  0.0747
  471MPD2    H1 7066   4.231   3.838  16.877 -0.5587  0.3278 -0.1222
  471MPD2    H2 7067   4.305   3.781  16.466  0.9986 -0.2073 -0.0273
  471MPD2    H3 7068   4.271   3.925  16.669  1.0300 -0.6887  0.2929
  471MPD2     N 7069   4.181   3.594  16.943  0.5771 -0.2158 -0.3743
  471MPD2    H5 7070   4.205   3.662  17.015 -0.6723  0.1554 -0.3107
  471MPD2    N1 7071   4.264   3.504  16.472 -0.7310 -0.0434 -0.7348
  471MPD2    H7 7072   4.237   3.409  16.493 -0.2401 -0.4558 -1.9752
  472TMC3    C1 7073   4.285   3.431  16.249 -0.6166  0.2831 -0.2478
  472TMC3    C2 7074   4.265   3.453  16.113  1.2870 -0.3175 -0.0399
  472TMC3    C3 7075   4.234   3.346  16.035  0.3530  0.6044 -0.4071
  472TMC3    C4 7076   4.290   3.304  16.294 -0.8556  0.0520 -0.0224
  472TMC3    C5 7077   4.279   3.196  16.209  0.5611 -0.7333  0.5486
  472TMC3    C6 7078   4.246   3.211  16.078  0.6594  0.0622  0.4664
  472TMC3     C 7079   4.293   3.544  16.341  0.4921  0.2546 -0.0224
  472TMC3     O 7080   4.322   3.653  16.290  0.1718 -0.2995  0.2685
  472TMC3     H 7081   4.249   3.552  16.072  3.0573  1.1046  2.6590
  472TMC3    H1 7082   4.330   3.285  16.393 -0.9531 -1.0630 -0.1995
  472TMC3    H2 7083   4.232   3.128  16.010  0.8480  0.5671 -0.1894
  472TMC3    C7 7084   4.270   3.064  16.269 -0.1348  0.2726  0.8159
  472TMC3    C8 7085   4.116   3.378  15.963 -0.6551  0.0307 -0.2661
  472TMC3    O1 7086   4.245   3.068  16.389  0.5033 -0.0221  0.2643
  472TMC3    O2 7087   4.107   3.472  15.883  0.3562  0.2300  0.3589
  473MPD2     C 7088   4.518   0.830  14.156 -0.1709 -0.4377 -0.0223
  473MPD2    C1 7089   4.473   0.958  14.127  0.2787 -0.5874 -0.5558
  473MPD2    C2 7090   4.509   1.067  14.205  0.2147  0.2472 -0.4062
  473MPD2    C3 7091   4.583   1.048  14.318  0.2162  0.0830  0.5981
  473MPD2    C4 7092   4.620   0.920  14.343  0.6554  0.3562  1.0396
  473MPD2    C5 7093   4.591   0.814  14.267 -0.6498 -0.5128 -0.2490
  473MPD2     H 7094   4.477   1.164  14.169  1.1206  0.0966 -1.6246
  473MPD2    H1 7095   4.690   0.894  14.421  3.6410 -1.8217 -2.3523
  473MPD2    H2 7096   4.489   0.746  14.095  0.4677 -1.5786  1.2365
  473MPD2    H3 7097   4.631   0.714  14.280 -0.4661 -0.4203 -0.1033
  473MPD2     N 7098   4.624   1.145  14.412  0.5833 -0.2600  0.1471
  473MPD2    H5 7099   4.681   1.114  14.491 -0.6284 -2.2595  0.2548
  473MPD2    N1 7100   4.403   0.986  14.016 -0.1008  0.4532  0.5152
  473MPD2    H7 7101   4.383   1.084  14.002  1.1957  0.6997  0.3909
  474TMC3    C1 7102   4.619   1.352  14.519 -0.0248 -0.2160  0.2782
  474TMC3    C2 7103   4.551   1.465  14.544 -0.1155 -0.6358  0.2014
  474TMC3    C3 7104   4.602   1.552  14.646 -0.2190 -0.4105 -0.1440
  474TMC3    C4 7105   4.732   1.318  14.589 -0.1177 -0.3032  0.6172
  474TMC3    C5 7106   0.038   1.403  14.690 -0.4155 -0.4458 -0.7044
  474TMC3    C6 7107   4.707   1.519  14.716  0.6948  0.2145 -0.2815
  474TMC3     C 7108   4.581   1.269  14.409 -0.5589  1.1042 -0.6941
  474TMC3     O 7109   4.498   1.322  14.337 -0.4904  0.3165 -0.4743
  474TMC3     H 7110   4.457   1.481  14.492 -0.1446  1.5900  0.9149
  474TMC3    H1 7111   0.043   1.222  14.577 -0.2095 -0.8679  4.8370
  474TMC3    H2 7112   0.010   1.597  14.779  2.3145  0.1859 -1.3323
  474TMC3    C7 7113   0.173   1.385  14.747  0.2069 -0.3256 -0.2705
  474TMC3    C8 7114   4.542   1.683  14.654  0.4345 -0.3844  0.0484
  474TMC3    O1 7115   0.253   1.324  14.677 -0.1011  0.6036 -0.0910
  474TMC3    O2 7116   4.610   1.770  14.705  0.4625 -0.2800 -0.1858
  475MPD2     C 7117   3.043   3.914  10.662 -0.0809  0.2147 -0.5978
  475MPD2    C1 7118   3.084   3.986  10.770 -0.5656 -0.0836  0.1060
  475MPD2    C2 7119   2.996   4.020  10.875 -0.2095 -0.2517 -0.9747
  475MPD2    C3 7120   2.865   3.964  10.872  0.4691  0.3655 -0.2601
  475MPD2    C4 7121   2.829   3.883  10.770  0.0172  0.2623 -0.1016
  475MPD2    C5 7122   2.918   3.860  10.667  0.7404  0.4513 -0.3274
  475MPD2     H 7123   3.023   4.102  10.940  0.2182  1.0041 -2.7615
  475MPD2    H1 7124   2.730   3.838  10.763  0.6022 -0.9122 -0.8924
  475MPD2    H2 7125   3.108   3.901  10.576  0.1397 -0.2871 -0.3573
  475MPD2    H3 7126   2.887   3.791  10.589  0.3482 -0.1778  0.3840
  475MPD2     N 7127   2.769   4.021  10.964 -0.3363  0.2213 -0.0737
  475MPD2    H5 7128   2.812   4.081  11.034 -0.1430  0.9396 -0.8053
  475MPD2    N1 7129   3.206   4.051  10.771 -0.7507  0.3297  0.4498
  475MPD2    H7 7130   3.238   4.084  10.862  1.3256 -3.3597  1.0664
  476TMC3    C1 7131   3.347   4.217  10.702 -0.4802 -0.1897 -0.0179
  476TMC3    C2 7132   3.265   4.319  10.655  0.0167 -0.1037  0.2910
  476TMC3    C3 7133   3.243   4.422  10.741  0.3769 -0.8760  0.1558
  476TMC3    C4 7134   3.406   4.218  10.830  0.5670 -0.0897 -0.0539
  476TMC3    C5 7135   3.371   4.315  10.909  0.7446  0.6882 -0.2544
  476TMC3    C6 7136   3.290   4.419  10.870 -0.6219 -0.1573 -0.0498
  476TMC3     C 7137   3.275   4.100  10.664 -0.5878  0.6130  0.2531
  476TMC3     O 7138   3.232   4.102  10.551 -0.2795 -0.0659 -0.4034
  476TMC3     H 7139   3.212   4.316  10.561 -0.3248 -0.7659  0.5047
  476TMC3    H1 7140   3.454   4.128  10.865  2.0173 -0.0488 -1.8704
  476TMC3    H2 7141   3.251   4.499  10.931 -1.0849  0.1701 -0.7757
  476TMC3    C7 7142   3.329   4.257  11.036  0.5900 -0.2236 -0.1161
  476TMC3    C8 7143   3.111   4.469  10.743 -1.0117  0.1047 -0.5920
  476TMC3    O1 7144   3.293   4.144  11.019  1.1419 -0.1562  0.6067
  476TMC3    O2 7145   3.094   4.582  10.784 -0.1060 -0.0498 -0.1096
  477MPD2     C 7146   0.587   0.803  11.984  0.4651 -0.5943  0.5938
  477MPD2    C1 7147   0.478   0.806  12.062 -0.4802  0.1811  0.1769
  477MPD2    C2 7148   0.469   0.732  12.179 -0.0506  0.0775 -1.0579
  477MPD2    C3 7149   0.570   0.643  12.212 -0.6572 -0.0369  0.0979
  477MPD2    C4 7150   0.685   0.638  12.132 -0.0438  0.7426 -0.4591
  477MPD2    C5 7151   0.694   0.725  12.020  0.3344  0.2342 -0.1759
  477MPD2     H 7152   0.380   0.727  12.241  0.6577  2.6811  0.1744
  477MPD2    H1 7153   0.772   0.583  12.166 -1.2097 -0.0487  1.2224
  477MPD2    H2 7154   0.577   0.864  11.895 -0.3889 -1.8282 -0.1541
  477MPD2    H3 7155   0.779   0.727  11.951  0.8911 -0.0528  0.5048
  477MPD2     N 7156   0.574   0.562  12.329  0.0297  0.8144 -0.3007
  477MPD2    H5 7157   0.660   0.516  12.357 -0.6931 -0.8348 -0.7746
  477MPD2    N1 7158   0.376   0.892  12.017 -0.3029 -0.2044 -0.1805
  477MPD2    H7 7159   0.399   0.953  11.939  2.3444  0.3523  1.0744
  478TMC3    C1 7160   0.173   1.009  11.998 -0.4453 -0.4448  0.8069
  478TMC3    C2 7161   0.068   1.059  12.058  0.6855  0.2027  0.0552
  478TMC3    C3 7162   0.007   1.169  11.997  0.3422 -0.1860 -0.5614
  478TMC3    C4 7163   0.218   1.055  11.876  0.0315 -0.6029  0.2054
  478TMC3    C5 7164   0.148   1.152  11.812 -0.3249  0.2722  1.3771
  478TMC3    C6 7165   0.052   1.219  11.880  0.0563  0.0562 -0.2897
  478TMC3     C 7166   0.247   0.905  12.065 -0.7303 -0.0451 -0.4433
  478TMC3     O 7167   0.201   0.856  12.169 -0.4547 -0.0528 -1.1511
  478TMC3     H 7168   0.036   1.018  12.153 -0.0461  0.9538  0.1328
  478TMC3    H1 7169   0.296   1.011  11.814  0.7201  0.5185  0.2850
  478TMC3    H2 7170   0.003   1.296  11.822  1.1656  0.3298 -0.8684
  478TMC3    C7 7171   0.179   1.201  11.679  0.2963  0.7175  0.1208
  478TMC3    C8 7172   4.669   1.253  12.091 -0.3474  0.1119  0.0331
  478TMC3    O1 7173   0.293   1.203  11.640 -0.0317 -0.4123  0.0336
  478TMC3    O2 7174   4.658   1.210  12.205  0.1431  0.3780 -0.0707
  479MPD2     C 7175   4.040   2.906  15.267 -1.1426  0.0002 -0.5971
  479MPD2    C1 7176   3.982   2.839  15.372 -0.4333  0.4843 -0.1566
  479MPD2    C2 7177   4.040   2.849  15.496 -0.0907  0.5674  0.4380
  479MPD2    C3 7178   4.153   2.932  15.517 -0.3590 -0.3312  0.5467
  479MPD2    C4 7179   4.203   3.000  15.412  0.3627 -0.1742  0.2791
  479MPD2    C5 7180   4.150   2.975  15.289 -0.7644 -0.4362  0.1458
  479MPD2     H 7181   3.989   2.784  15.567  0.7359 -2.1002 -1.4009
  479MPD2    H1 7182   4.277   3.078  15.425  1.4503 -1.7552  3.5446
  479MPD2    H2 7183   3.994   2.905  15.169 -0.7888  0.1170 -0.7621
  479MPD2    H3 7184   4.192   3.036  15.211 -1.0932  0.1755  0.4453
  479MPD2     N 7185   4.219   2.956  15.640 -0.1519  0.7262  0.5303
  479MPD2    H5 7186   4.316   2.987  15.640 -0.4063  1.5139 -1.1223
  479MPD2    N1 7187   3.857   2.778  15.350  0.1217  0.4770 -0.5460
  479MPD2    H7 7188   3.837   2.758  15.252  2.5465  0.0972 -0.9523
  480TMC3    C1 7189   3.883   2.833  15.955  0.2372 -0.2490  0.8365
  480TMC3    C2 7190   3.786   2.905  15.899 -0.1246  0.5944 -0.3108
  480TMC3    C3 7191   3.830   2.987  15.796 -0.1197 -0.3792 -0.0038
  480TMC3    C4 7192   4.005   2.825  15.900 -0.4960 -0.2533  0.1687
  480TMC3    C5 7193   4.034   2.901  15.787  0.3537 -0.2563 -0.4394
  480TMC3    C6 7194   3.953   2.995  15.742 -0.2418 -0.3770 -0.1464
  480TMC3     C 7195   3.860   2.742  16.065  0.8497  0.0689  0.8174
  480TMC3     O 7196   3.946   2.701  16.141 -0.4920 -0.1356  0.5438
  480TMC3     H 7197   3.686   2.903  15.939 -0.2100  1.0144 -0.5005
  480TMC3    H1 7198   4.076   2.750  15.933 -2.2158 -2.0799 -0.2575
  480TMC3    H2 7199   3.995   3.073  15.679  1.1529  0.8483  2.3034
  480TMC3    C7 7200   4.170   2.929  15.771 -0.3549 -0.4994  1.0279
  480TMC3    C8 7201   3.714   3.035  15.718  0.0937  0.2984 -0.4327
  480TMC3    O1 7202   4.224   2.940  15.876  0.2549  0.3432 -0.3893
  480TMC3    O2 7203   3.604   3.001  15.759 -0.7044 -0.1135 -0.1087
  481MPD2     C 7204   1.074   2.616  14.602  0.6599 -0.2610  0.2422
  481MPD2    C1 7205   0.980   2.520  14.635  0.5014  0.0197  0.0458
  481MPD2    C2 7206   1.013   2.440  14.745 -0.2447  0.2510 -0.1500
  481MPD2    C3 7207   1.126   2.455  14.817  0.6986 -0.2810 -0.1450
  481MPD2    C4 7208   1.217   2.548  14.784 -0.3496 -0.1039 -0.6297
  481MPD2    C5 7209   1.192   2.630  14.674 -0.1323  0.2598  0.2854
  481MPD2     H 7210   0.952   2.352  14.761 -1.6006  0.7593 -2.3851
  481MPD2    H1 7211   1.310   2.566  14.836 -1.1816  3.1217 -0.2808
  481MPD2    H2 7212   1.067   2.688  14.522  1.5373 -3.5497 -2.8413
  481MPD2    H3 7213   1.269   2.693  14.631 -0.8263  0.2840 -0.9426
  481MPD2     N 7214   1.158   2.379  14.932  0.1955  0.1577 -0.0028
  481MPD2    H5 7215   1.255   2.388  14.959  0.6075 -2.4596 -0.5893
  481MPD2    N1 7216   0.869   2.505  14.546 -0.3503  0.0687 -0.4009
  481MPD2    H7 7217   0.868   2.549  14.455  1.6626 -0.6629 -0.7576
  482TMC3    C1 7218   0.675   2.419  14.451  0.3444 -0.5987 -0.5920
  482TMC3    C2 7219   0.613   2.301  14.414 -0.0910  0.0275  0.4202
  482TMC3    C3 7220   0.512   2.302  14.324  0.2633  0.1194 -0.0905
  482TMC3    C4 7221   0.640   2.539  14.402 -0.2229  0.6177  0.2511
  482TMC3    C5 7222   0.545   2.528  14.301  0.2616  0.4380  0.0685
  482TMC3    C6 7223   0.476   2.419  14.266  0.4145  0.3212 -0.5489
  482TMC3     C 7224   0.767   2.412  14.563 -0.2553  1.0869 -0.1054
  482TMC3     O 7225   0.740   2.344  14.663  0.0241  0.1670  0.3603
  482TMC3     H 7226   0.642   2.207  14.460  0.0327 -0.3236 -0.3822
  482TMC3    H1 7227   0.699   2.629  14.416  1.7299 -0.6577  0.1647
  482TMC3    H2 7228   0.398   2.421  14.190 -1.1378 -0.9796  1.0199
  482TMC3    C7 7229   0.476   2.651  14.281  0.2276  0.1969 -0.0798
  482TMC3    C8 7230   0.493   2.176  14.249 -0.4123  0.1795  0.1158
  482TMC3    O1 7231   0.479   2.726  14.380  0.7097  0.5327  0.5304
  482TMC3    O2 7232   0.586   2.097  14.239  0.2211  0.3202 -0.1904
  483TMC3    C1 7233   3.630   1.328   1.237  0.0816  0.3184  0.5422
  483TMC3    C2 7234   3.711   1.411   1.164 -0.0151  0.6013 -0.0211
  483TMC3    C3 7235   3.823   1.464   1.223  0.1547  0.1892 -1.1145
  483TMC3    C4 7236   3.657   1.293   1.367 -0.7691  0.1400 -0.1450
  483TMC3    C5 7237   3.774   1.342   1.421 -0.1611 -0.0163  1.1704
  483TMC3    C6 7238   3.859   1.430   1.350 -0.4794  0.0141  0.2205
  483TMC3     C 7239   3.570   1.217   1.163  0.4756 -0.1604 -0.4289
  483TMC3     O 7240   3.558   1.113   1.226 -0.1065  0.3596 -0.2001
  483TMC3     H 7241   3.689   1.429   1.060 -1.0662  1.5430  0.3728
  483TMC3    H1 7242   3.593   1.219   1.415 -0.8089  0.2812  0.0196
  483TMC3    H2 7243   3.954   1.464   1.391 -1.7988  0.9031  2.5319
  483TMC3    C7 7244   3.842   1.273   1.526  0.6918 -0.8729  0.2843
  483TMC3    C8 7245   3.889   1.571   1.151 -1.2520 -0.0095 -0.1462
  483TMC3    O1 7246   3.966   1.288   1.536 -0.9231  0.0575 -0.4075
  483TMC3    O2 7247   3.855   1.570   1.030  0.8724  0.1485 -0.3943
  484MPD2     C 7248   1.773   3.925  12.709 -0.0628  0.2861  0.2631
  484MPD2    C1 7249   1.730   4.043  12.656  0.1025  0.6791  0.6790
  484MPD2    C2 7250   1.824   4.137  12.611 -0.3362 -0.0922  0.1793
  484MPD2    C3 7251   1.959   4.111  12.636 -0.2962  0.7304 -0.0468
  484MPD2    C4 7252   1.996   3.999  12.708 -0.4399 -0.9849  0.2649
  484MPD2    C5 7253   1.902   3.906  12.748 -0.0500  0.3907  0.0439
  484MPD2     H 7254   1.798   4.228  12.559  4.2571  0.7912 -0.5756
  484MPD2    H1 7255   2.097   3.988  12.746  0.0167 -1.6746 -1.1289
  484MPD2    H2 7256   1.706   3.842  12.722 -1.3343  1.1306 -0.8469
  484MPD2    H3 7257   1.923   3.819  12.810  1.4527 -1.8715 -3.6342
  484MPD2     N 7258   2.058   4.210  12.604  0.7858 -0.3209  0.1030
  484MPD2    H5 7259   2.152   4.193  12.638  1.2351  0.8905 -0.5214
  484MPD2    N1 7260   1.589   4.058  12.643 -0.6127  0.1286  0.2323
  484MPD2    H7 7261   1.530   3.976  12.654  1.1442 -1.1783  0.0056
  485TMC3    C1 7262   2.162   4.413  12.555  0.2703 -0.4126  0.7592
  485TMC3    C2 7263   2.262   4.395  12.647 -0.3830  0.5949 -0.0688
  485TMC3    C3 7264   2.363   4.482  12.662  0.9824 -0.2675  0.0893
  485TMC3    C4 7265   2.171   4.520  12.471  0.1866 -0.0176  0.2697
  485TMC3    C5 7266   2.273   4.606  12.486  0.1024 -0.4230  0.1940
  485TMC3    C6 7267   2.366   4.590  12.585  0.4557 -0.2625 -0.0815
  485TMC3     C 7268   2.038   4.333  12.552 -0.6795 -0.4178 -0.1506
  485TMC3     O 7269   1.942   4.376  12.491 -0.3211 -0.8233  0.3071
  485TMC3     H 7270   2.270   4.309  12.713 -1.4990 -0.4894 -1.3383
  485TMC3    H1 7271   2.092   4.530  12.398 -2.0678 -1.8958  2.4839
  485TMC3    H2 7272   2.435   4.672  12.599  1.2839 -0.7335 -1.3761
  485TMC3    C7 7273   2.329   4.635  12.359 -0.6524 -0.8462  0.3558
  485TMC3    C8 7274   2.496   4.422  12.677  0.1696  0.7866 -0.2340
  485TMC3    O1 7275   2.258   4.680  12.272 -0.3923 -0.0142  0.0840
  485TMC3    O2 7276   2.579   4.472  12.595  0.0231 -0.0544 -0.2442
  486MPD2     C 7277   3.727   2.918  12.703  0.7380  0.9109 -0.0821
  486MPD2    C1 7278   3.601   2.877  12.746 -0.4172 -0.1706 -0.7909
  486MPD2    C2 7279   3.546   2.947  12.856  0.2973 -0.1244 -0.1816
  486MPD2    C3 7280   3.619   3.039  12.925 -0.2107  0.4459  0.2437
  486MPD2    C4 7281   3.742   3.083  12.875  0.3664 -0.8014 -0.3267
  486MPD2    C5 7282   3.796   3.019  12.767 -0.0546 -0.1479 -1.0671
  486MPD2     H 7283   3.443   2.935  12.887  0.2556  1.3536  0.2472
  486MPD2    H1 7284   3.799   3.164  12.920  1.6327 -2.0472  0.3312
  486MPD2    H2 7285   3.786   2.866  12.628  1.4864 -1.7287  2.3459
  486MPD2    H3 7286   3.898   3.032  12.736  0.0414  1.8129  0.1185
  486MPD2     N 7287   3.556   3.112  13.030 -0.0231 -1.3084 -0.3079
  486MPD2    H5 7288   3.470   3.066  13.057 -1.7399 -0.8201 -4.8522
  486MPD2    N1 7289   3.531   2.778  12.680  0.0166 -0.9933 -0.7142
  486MPD2    H7 7290   3.584   2.723  12.613  0.2546  0.5452 -1.7707
  487TMC3    C1 7291   3.410   2.583  12.657  0.4765  0.0694  0.0702
  487TMC3    C2 7292   3.284   2.525  12.666  1.1579 -0.2465 -0.0143
  487TMC3    C3 7293   3.277   2.390  12.647  0.3602 -0.2409 -0.5342
  487TMC3    C4 7294   3.524   2.506  12.665  0.1880  0.2968 -0.0009
  487TMC3    C5 7295   3.512   2.369  12.679 -0.0693  0.3044  0.1232
  487TMC3    C6 7296   3.386   2.308  12.652  0.2202 -0.4983 -0.2766
  487TMC3     C 7297   3.419   2.713  12.717 -0.1688  0.0771  0.4367
  487TMC3     O 7298   3.350   2.719  12.818  0.0795 -0.1394 -0.1879
  487TMC3     H 7299   3.191   2.580  12.681  1.8975  0.8869  0.3921
  487TMC3    H1 7300   3.618   2.557  12.685 -0.0270  0.8040 -0.2607
  487TMC3    H2 7301   3.370   2.201  12.663 -0.9879 -0.2664  0.1575
  487TMC3    C7 7302   3.559   2.340  12.813  0.5085 -0.4034 -0.1590
  487TMC3    C8 7303   3.153   2.323  12.675  0.4486 -0.4137  0.4491
  487TMC3    O1 7304   3.635   2.424  12.854 -0.3676  0.2389  0.1200
  487TMC3    O2 7305   3.148   2.208  12.633  0.1347  0.1280 -0.0323
  488MPD2     C 7306   3.805   0.046  16.897  0.1113  0.1764 -0.4039
  488MPD2    C1 7307   3.820   0.181  16.922 -0.2949 -0.0576 -0.2874
  488MPD2    C2 7308   3.785   0.228  17.045 -0.3800 -0.3216 -0.3064
  488MPD2    C3 7309   3.741   0.143  17.150 -0.6823  0.1373  0.6039
  488MPD2    C4 7310   3.726   0.009  17.120  0.5709 -0.1433 -0.2089
  488MPD2    C5 7311   3.753   4.700  16.994  0.3447  0.8709  0.8328
  488MPD2     H 7312   3.787   0.331  17.078  0.6033 -0.0262 -1.2933
  488MPD2    H1 7313   3.675   4.672  17.180 -0.5794 -0.5684 -1.7353
  488MPD2    H2 7314   3.825   4.737  16.802  2.0647  2.4224 -1.1377
  488MPD2    H3 7315   3.741   4.596  16.968  3.6354  0.6867  0.0966
  488MPD2     N 7316   3.704   0.191  17.273  0.5167  0.4711 -0.2747
  488MPD2    H5 7317   3.701   0.293  17.280 -0.6885  0.4451 -0.4410
  488MPD2    N1 7318   3.859   0.274  16.819  0.3914 -0.0255  0.5573
  488MPD2    H7 7319   3.885   0.371  16.836 -1.0744  0.9688 -2.8498
  489TMC3    C1 7320   3.623   0.196  17.499 -0.4424 -0.4552 -0.4671
  489TMC3    C2 7321   3.584   0.320  17.468  0.4163 -0.7398  0.0650
  489TMC3    C3 7322   3.593   0.425  17.558  0.3774  0.9868 -0.4655
  489TMC3    C4 7323   3.675   0.162  17.618 -0.4967 -0.3890 -0.2381
  489TMC3    C5 7324   3.675   0.262  17.714 -0.1674  0.0613 -0.2801
  489TMC3    C6 7325   3.641   0.388  17.684  0.4462 -0.7827 -0.9029
  489TMC3     C 7326   3.669   0.116  17.383 -0.3993  0.4222  0.0001
  489TMC3     O 7327   3.679   4.732  17.400  0.0205  0.0746  0.3388
  489TMC3     H 7328   3.551   0.346  17.368  1.4804 -2.6278 -0.7746
  489TMC3    H1 7329   3.706   0.061  17.643  2.3097 -0.0416 -2.3917
  489TMC3    H2 7330   3.655   0.470   0.000  0.9213 -3.7423  2.5252
  489TMC3    C7 7331   3.658   0.225   0.102 -0.2649  0.4787 -0.1513
  489TMC3    C8 7332   3.656   0.536  17.493  0.5628 -0.1669 -0.3540
  489TMC3    O1 7333   3.690   0.294   0.194  0.2011  0.1269 -0.1600
  489TMC3    O2 7334   3.726   0.500  17.395  0.5352  0.2514 -0.5349
  490MPD2     C 7335   4.508   0.103  17.346 -0.1626  0.4897 -0.0245
  490MPD2    C1 7336   4.596   4.734  17.333  0.1664 -0.3336  0.0918
  490MPD2    C2 7337   4.729   0.027  17.292 -0.1805  0.3767 -0.1871
  490MPD2    C3 7338   0.039   0.154  17.280  0.5755  0.2353  0.0320
  490MPD2    C4 7339   4.690   0.259  17.307 -0.4670 -0.0759 -0.3575
  490MPD2    C5 7340   4.558   0.228  17.348 -0.4855 -0.3852  0.2141
  490MPD2     H 7341   0.053   4.683  17.264 -2.3132 -1.4033  0.2718
  490MPD2    H1 7342   4.719   0.363  17.302  0.8976 -0.3899  1.0048
  490MPD2    H2 7343   4.406   0.084  17.376 -0.0498  0.1169  0.1296
  490MPD2    H3 7344   4.507   0.318  17.380 -0.8421 -0.2838 -0.6388
  490MPD2     N 7345   0.171   0.189  17.241  0.2223 -0.4280  0.8087
  490MPD2    H5 7346   0.192   0.289  17.242 -0.3857 -0.3019  1.1814
  490MPD2    N1 7347   4.546   4.608  17.342 -0.2757 -0.1789 -0.1527
  490MPD2    H7 7348   4.619   4.538  17.339  0.2707  0.4365 -1.0625
  491TMC3    C1 7349   4.386   4.432  17.347  0.8012  0.5344 -0.4505
  491TMC3    C2 7350   4.441   4.351  17.443  0.3412 -0.1142  0.6533
  491TMC3    C3 7351   4.408   4.218  17.458  0.2212 -0.2890 -0.3046
  491TMC3    C4 7352   4.278   4.377  17.271 -0.6814 -0.1554  0.0393
  491TMC3    C5 7353   4.242   4.243  17.292 -0.0174 -0.2312 -0.6344
  491TMC3    C6 7354   4.311   4.159  17.379 -0.7009 -0.1683 -0.2141
  491TMC3     C 7355   4.410   4.571  17.340  0.0277  0.3917 -0.7065
  491TMC3     O 7356   4.316   4.638  17.294  0.1860 -0.7703 -0.0356
  491TMC3     H 7357   4.514   4.393  17.511 -0.1933  0.9112  0.5977
  491TMC3    H1 7358   4.217   4.431  17.200 -1.5057 -1.2740 -0.1096
  491TMC3    H2 7359   4.271   4.060  17.403  2.0729 -1.0387  0.7769
  491TMC3    C7 7360   4.152   4.182  17.198 -0.5192 -0.9675 -0.3295
  491TMC3    C8 7361   4.437   4.161  17.587 -0.1056 -0.4215 -0.5829
  491TMC3    O1 7362   4.171   4.062  17.184 -0.5971  0.4533 -0.4212
  491TMC3    O2 7363   4.466   4.242  17.674  0.0571 -0.2808  0.3382
  492MPD2     C 7364   0.360   3.958  11.580  0.6749 -0.0595  0.1852
  492MPD2    C1 7365   0.259   3.915  11.502  0.8211  0.2688 -0.1559
  492MPD2    C2 7366   0.151   3.849  11.553  0.1517 -0.6338  0.9642
  492MPD2    C3 7367   0.132   3.838  11.691 -0.2314  0.5246 -0.8104
  492MPD2    C4 7368   0.237   3.879  11.767 -0.7702  0.0644 -0.2044
  492MPD2    C5 7369   0.349   3.940  11.716  0.7451 -0.4158  0.3149
  492MPD2     H 7370   0.075   3.812  11.486 -0.7579 -1.2651  2.3397
  492MPD2    H1 7371   0.230   3.865  11.874 -4.2034 -0.6265 -0.5213
  492MPD2    H2 7372   0.444   4.015  11.543  0.6081  1.3888  2.2569
  492MPD2    H3 7373   0.420   3.983  11.786  0.0242  2.7865 -0.9051
  492MPD2     N 7374   0.020   3.772  11.752 -0.4387  0.2586  0.3072
  492MPD2    H5 7375   0.024   3.764  11.853 -2.1496  0.3757  0.3930
  492MPD2    N1 7376   0.273   3.941  11.363  0.0513  0.4198 -1.2022
  492MPD2    H7 7377   0.359   3.989  11.339  0.3746  0.4423 -0.0204
  493TMC3    C1 7378   0.202   3.993  11.137  0.9509  0.4869 -0.0933
  493TMC3    C2 7379   0.249   4.119  11.134 -0.3478 -0.4426 -0.7953
  493TMC3    C3 7380   0.255   4.185  11.006 -0.2221 -0.1781  0.0770
  493TMC3    C4 7381   0.154   3.934  11.020  0.4057 -0.3240  0.5619
  493TMC3    C5 7382   0.161   3.998  10.896 -0.3692 -0.5767  0.3900
  493TMC3    C6 7383   0.220   4.124  10.886 -0.3627 -0.0475 -0.3111
  493TMC3     C 7384   0.174   3.930  11.271 -0.8647  0.2384 -0.6557
  493TMC3     O 7385   0.068   3.868  11.269 -0.1699 -0.1007  0.1439
  493TMC3     H 7386   0.275   4.175  11.223 -0.9496  0.1078 -0.9632
  493TMC3    H1 7387   0.114   3.833  11.023 -0.4527  0.0288  1.0034
  493TMC3    H2 7388   0.231   4.174  10.790 -2.9019  0.4523 -0.3408
  493TMC3    C7 7389   0.079   3.957  10.785 -0.2934 -0.3970  0.1980
  493TMC3    C8 7390   0.322   4.312  10.999 -0.0227  0.6626  0.2981
  493TMC3    O1 7391   0.063   4.036  10.690  0.2340 -0.1398 -0.5171
  493TMC3    O2 7392   0.294   4.381  10.904  0.1252 -0.5474  0.6686
  494TMC3    C1 7393   1.045   1.663   0.894 -0.2469  0.4368 -0.1314
  494TMC3    C2 7394   0.953   1.570   0.918 -0.4289  0.3421  0.0942
  494TMC3    C3 7395   0.899   1.509   0.815  0.9687  0.6136 -0.0243
  494TMC3    C4 7396   1.054   1.720   0.769  0.4128  0.6825 -0.1148
  494TMC3    C5 7397   0.992   1.664   0.663  0.4683  0.2628 -1.0058
  494TMC3    C6 7398   0.914   1.557   0.687 -0.0956  0.0871  0.5779
  494TMC3     C 7399   1.097   1.728   1.007  0.2215 -0.7139 -0.0479
  494TMC3     O 7400   1.031   1.709   1.108 -0.8227  0.2567  0.5131
  494TMC3     H 7401   0.938   1.527   1.016 -0.6877 -0.6098 -0.3566
  494TMC3    H1 7402   1.136   1.789   0.753  0.9261  0.5458  1.9651
  494TMC3    H2 7403   0.858   1.517   0.603  0.5660  1.7419 -0.6385
  494TMC3    C7 7404   1.023   1.697   0.528  0.1458 -0.4257  0.0166
  494TMC3    C8 7405   0.880   1.370   0.836 -0.2192  0.0650 -0.7660
  494TMC3    O1 7406   0.990   1.613   0.446 -0.4050 -0.4232  0.7230
  494TMC3    O2 7407   0.906   1.318   0.944 -0.3658  0.0801  0.3423
  495TMC3    C1 7408   4.060   3.168  14.829  0.3770 -0.1289  0.7719
  495TMC3    C2 7409   4.018   3.259  14.733 -0.1347 -0.0383  0.5950
  495TMC3    C3 7410   3.930   3.354  14.779  0.1204 -0.1141 -0.6384
  495TMC3    C4 7411   4.029   3.179  14.963  0.5860 -0.6500 -0.5115
  495TMC3    C5 7412   3.937   3.273  14.996  0.6829  0.2907 -0.0826
  495TMC3    C6 7413   3.881   3.365  14.913 -0.0568  0.3249 -0.0882
  495TMC3     C 7414   4.060   3.028  14.790 -0.1126  0.4663  0.3197
  495TMC3     O 7415   3.983   3.012  14.693 -0.1504 -0.6937 -0.1854
  495TMC3     H 7416   4.043   3.257  14.627  1.3778  1.1323  0.9227
  495TMC3    H1 7417   4.031   3.093  15.030 -0.9315 -0.9964 -0.9117
  495TMC3    H2 7418   3.807   3.440  14.937  0.4157  0.8760 -0.3577
  495TMC3    C7 7419   3.894   3.265  15.135  0.2955  0.2161 -0.6294
  495TMC3    C8 7420   3.828   3.392  14.679  0.5839 -0.6924  0.5750
  495TMC3    O1 7421   3.990   3.252  15.214 -0.5846  0.1390  0.1222
  495TMC3    O2 7422   3.708   3.385  14.705  0.3954  0.2535  0.2475
  496MPD2     C 7423   1.719   3.364  15.851  0.4899  0.1205  0.6941
  496MPD2    C1 7424   1.599   3.323  15.796 -0.1607 -0.2119 -0.3171
  496MPD2    C2 7425   1.484   3.303  15.878  0.6087  0.2905  0.2249
  496MPD2    C3 7426   1.490   3.323  16.013  0.3678  0.3293  0.2336
  496MPD2    C4 7427   1.613   3.356  16.060  0.2398  1.0920  0.3522
  496MPD2    C5 7428   1.719   3.379  15.981 -0.5376  0.0093  0.5462
  496MPD2     H 7429   1.403   3.264  15.817  0.7619 -0.6189  0.6010
  496MPD2    H1 7430   1.634   3.366  16.166 -0.9927 -0.8323  0.7771
  496MPD2    H2 7431   1.808   3.382  15.791 -0.4274 -0.6253 -0.9024
  496MPD2    H3 7432   1.803   3.434  16.022  1.7177 -2.5925 -0.5740
  496MPD2     N 7433   1.370   3.296  16.082  0.4996  0.1391 -0.3011
  496MPD2    H5 7434   1.299   3.239  16.038  0.3920  1.6094 -2.0170
  496MPD2    N1 7435   1.613   3.269  15.662  0.1895  0.6857 -0.1093
  496MPD2    H7 7436   1.707   3.267  15.623 -0.2555 -1.4671 -1.0470
  497TMC3    C1 7437   1.270   3.207  16.271  0.3194 -1.0783  0.0425
  497TMC3    C2 7438   1.201   3.119  16.187  0.2735 -0.3338 -0.0915
  497TMC3    C3 7439   1.107   3.037  16.245 -0.0841 -0.2213  0.3999
  497TMC3    C4 7440   1.244   3.210  16.404 -0.2926 -0.0337 -0.0505
  497TMC3    C5 7441   1.160   3.119  16.453  0.1233 -0.5345  0.0279
  497TMC3    C6 7442   1.089   3.033  16.377  0.4123  0.2008  0.3525
  497TMC3     C 7443   1.365   3.304  16.215  0.0472 -0.4155  0.0880
  497TMC3     O 7444   1.433   3.360  16.303  0.1128  0.6112 -0.1625
  497TMC3     H 7445   1.230   3.095  16.085  0.4242 -0.4400 -0.0230
  497TMC3    H1 7446   1.283   3.283  16.474 -0.5961  1.6109 -1.6025
  497TMC3    H2 7447   1.020   2.969  16.431  0.0188  0.0862 -0.2841
  497TMC3    C7 7448   1.139   3.115  16.596  0.1835 -0.3315  0.5008
  497TMC3    C8 7449   1.025   2.949  16.166 -0.0277  0.2426 -0.2502
  497TMC3    O1 7450   1.037   3.067  16.638  0.0075 -0.6070 -0.3810
  497TMC3    O2 7451   0.981   2.847  16.219 -0.2167  0.5700  0.0490
  498MPD2     C 7452   2.382   3.999  10.224 -0.0097  0.1114  0.0307
  498MPD2    C1 7453   2.327   4.083  10.320 -1.3378 -0.2921  0.0317
  498MPD2    C2 7454   2.196   4.074  10.357 -0.5806 -0.4938 -0.2636
  498MPD2    C3 7455   2.125   3.959  10.331 -0.0661  0.6431  0.1912
  498MPD2    C4 7456   2.175   3.870  10.247  0.1302  0.1059 -0.4812
  498MPD2    C5 7457   2.302   3.887  10.195 -0.8278  0.0645 -0.0015
  498MPD2     H 7458   2.150   4.158  10.407  0.4988 -0.3833  0.5525
  498MPD2    H1 7459   2.124   3.785  10.204  0.8927 -0.1999 -0.7922
  498MPD2    H2 7460   2.485   3.994  10.193 -0.2061 -0.4487 -0.5594
  498MPD2    H3 7461   2.341   3.812  10.127  1.1712  1.8730 -0.8362
  498MPD2     N 7462   1.997   3.945  10.394 -0.7803  0.0166 -0.4892
  498MPD2    H5 7463   1.961   4.030  10.436 -0.0254 -0.2767  0.7512
  498MPD2    N1 7464   2.394   4.190  10.369 -0.4879  0.3648  0.5169
  498MPD2    H7 7465   2.339   4.269  10.401 -1.9505 -1.0735  1.5571
  499TMC3    C1 7466   2.591   4.332  10.384 -0.2215 -0.7550 -0.1507
  499TMC3    C2 7467   2.728   4.343  10.372 -0.8927  0.7733 -0.0645
  499TMC3    C3 7468   2.784   4.467  10.376  0.9667  1.0976 -0.1000
  499TMC3    C4 7469   2.509   4.440  10.406 -0.4064  0.4344  0.2152
  499TMC3    C5 7470   2.572   4.555  10.443 -0.1277 -0.4213 -0.1049
  499TMC3    C6 7471   2.703   4.575  10.416 -0.3635  0.9103 -0.1526
  499TMC3     C 7472   2.530   4.201  10.364  0.0724  0.2175 -0.2545
  499TMC3     O 7473   2.614   4.114  10.350  0.3306 -0.1329 -0.0504
  499TMC3     H 7474   2.789   4.256  10.352 -0.2252  1.2214  0.0491
  499TMC3    H1 7475   2.401   4.428  10.408 -0.2343 -1.5311 -2.2778
  499TMC3    H2 7476   2.750   4.671  10.437  1.5782  0.1607 -1.0738
  499TMC3    C7 7477   2.493   4.677  10.466  0.4527 -0.2052  0.0528
  499TMC3    C8 7478   2.925   4.493  10.360 -0.6303  0.8959  0.8480
  499TMC3    O1 7479   2.536   0.047  10.433 -0.8735  0.1312  0.1812
  499TMC3    O2 7480   2.942   4.615  10.344  0.6341  0.2655  0.0061
  500MPD2     C 7481   3.673   0.377  11.290 -0.0217 -0.9509 -0.4614
  500MPD2    C1 7482   3.691   0.514  11.257  0.4077  0.4175 -0.2016
  500MPD2    C2 7483   3.577   0.593  11.247  0.2185 -0.4755  0.6402
  500MPD2    C3 7484   3.451   0.540  11.257  0.5842  0.0905 -0.2232
  500MPD2    C4 7485   3.434   0.407  11.276 -0.0413 -0.1905  0.4764
  500MPD2    C5 7486   3.546   0.329  11.289  0.4137 -0.3572 -0.8811
  500MPD2     H 7487   3.596   0.697  11.224  1.2084 -0.9602 -0.7616
  500MPD2    H1 7488   3.338   0.356  11.282 -0.3774  0.4029  0.2204
  500MPD2    H2 7489   3.760   0.316  11.311  0.6401  0.4314  0.7951
  500MPD2    H3 7490   3.537   0.225  11.317 -0.9313 -0.0760 -0.2529
  500MPD2     N 7491   3.337   0.627  11.233 -0.1039 -0.3950 -0.0364
  500MPD2    H5 7492   3.246   0.583  11.243 -0.1404 -0.9191 -2.6210
  500MPD2    N1 7493   3.821   0.577  11.255 -0.2416  0.7303  0.2078
  500MPD2    H7 7494   3.819   0.674  11.226 -0.4979  0.4950 -0.5654
  501TMC3    C1 7495   4.057   0.559  11.197 -0.6138 -0.0949 -0.3889
  501TMC3    C2 7496   4.038   0.654  11.100  0.4679  1.1279 -0.2809
  501TMC3    C3 7497   4.147   0.705  11.044  0.4825 -0.2274 -0.1100
  501TMC3    C4 7498   4.178   0.509  11.228  0.0380  0.3701 -0.2771
  501TMC3    C5 7499   4.288   0.572  11.169  0.4319  0.5596 -0.3455
  501TMC3    C6 7500   4.273   0.668  11.071  0.0277  0.5608  0.0935
  501TMC3     C 7501   3.942   0.509  11.276 -0.0796  0.0534  0.6870
  501TMC3     O 7502   3.962   0.408  11.339  0.5848 -0.0035  0.2932
  501TMC3     H 7503   3.938   0.694  11.083 -0.7243 -1.5683  0.3679
  501TMC3    H1 7504   4.194   0.458  11.322  0.4617  0.9045 -0.0668
  501TMC3    H2 7505   4.357   0.712  11.017  0.5657  0.0785  0.5305
  501TMC3    C7 7506   4.420   0.528  11.214 -0.4019  0.1087  0.4854
  501TMC3    C8 7507   4.133   0.813  10.946  0.4043 -0.1138 -0.6457
  501TMC3    O1 7508   4.420   0.438  11.301 -0.0196  0.1833 -0.1626
  501TMC3    O2 7509   4.048   0.895  10.977  0.1374 -0.1353  0.0076
  502TMC3    C1 7510   3.333   4.025  14.960  0.4739 -0.5086  0.7159
  502TMC3    C2 7511   3.321   4.147  14.903  0.1887 -0.0297 -0.3260
  502TMC3    C3 7512   3.189   4.202  14.912  0.1076 -0.5811  0.8073
  502TMC3    C4 7513   3.230   3.945  15.002 -0.3586 -0.4571 -0.4448
  502TMC3    C5 7514   3.110   4.008  15.014 -0.0262  0.1343  0.1393
  502TMC3    C6 7515   3.078   4.137  14.971 -0.7448  0.2657  0.2768
  502TMC3     C 7516   3.458   4.011  15.034  0.2415  0.2897 -0.3553
  502TMC3     O 7517   3.559   4.066  14.993  0.1793 -0.2942 -0.3683
  502TMC3     H 7518   3.408   4.208  14.882  0.5195 -0.0993  0.8677
  502TMC3    H1 7519   3.241   3.845  15.041  1.0947  0.6410  1.9678
  502TMC3    H2 7520   2.981   4.182  14.983 -0.7086  1.2997 -3.5147
  502TMC3    C7 7521   3.042   3.955  15.125  0.0747  0.3840  0.2771
  502TMC3    C8 7522   3.191   4.344  14.948  0.3322  0.0073 -0.2166
  502TMC3    O1 7523   3.111   3.883  15.196 -0.2222 -0.2843  0.0748
  502TMC3    O2 7524   3.297   4.401  14.969 -0.1897  0.0500 -0.7425
  503MPD2     C 7525   1.005   0.437  17.276 -0.1579  0.1630 -0.2973
  503MPD2    C1 7526   1.033   0.485  17.401 -0.2268 -0.0355 -0.2381
  503MPD2    C2 7527   1.117   0.415  17.478  1.0211  0.0130 -0.2673
  503MPD2    C3 7528   1.169   0.297  17.437 -0.3548 -0.4086 -1.0949
  503MPD2    C4 7529   1.148   0.253  17.312 -0.3095 -0.1407 -0.0807
  503MPD2    C5 7530   1.065   0.321  17.237 -0.1696  0.1910  0.8748
  503MPD2     H 7531   1.135   0.444  17.581 -1.3453  2.8341 -0.6494
  503MPD2    H1 7532   1.191   0.163  17.270 -0.1035 -0.8205  1.5705
  503MPD2    H2 7533   0.950   0.499  17.207  1.5604 -0.6578 -2.4195
  503MPD2    H3 7534   1.040   0.277  17.141 -1.0568  0.1419  1.1231
  503MPD2     N 7535   1.254   0.231  17.528  0.2022  0.1571  0.0455
  503MPD2    H5 7536   1.257   0.277  17.619 -2.1056 -0.1627  0.2824
  503MPD2    N1 7537   0.978   0.601  17.453 -0.0150 -0.2788  0.4320
  503MPD2    H7 7538   0.989   0.613  17.553 -1.7885  0.4207  0.5266
  504TMC3    C1 7539   1.402   0.076  17.630 -0.1715  0.2010  0.0424
  504TMC3    C2 7540   1.352   0.101   0.005 -0.0533 -0.1504 -0.4155
  504TMC3    C3 7541   1.406   0.041   0.115  0.5356 -0.5619 -0.0256
  504TMC3    C4 7542   1.525   0.023  17.609 -0.9623  0.2331 -0.1266
  504TMC3    C5 7543   1.576   4.698  17.724  0.4456 -0.7132  0.2090
  504TMC3    C6 7544   1.515   4.698   0.098 -0.1890  0.4262 -0.0652
  504TMC3     C 7545   1.323   0.111  17.509 -0.2329  0.5403  0.0520
  504TMC3     O 7546   1.324   0.032  17.417 -0.1545 -0.1011 -0.7699
  504TMC3     H 7547   1.257   0.151   0.024 -1.1641 -2.8463  1.1880
  504TMC3    H1 7548   1.561   4.737  17.509 -0.7974  0.9408 -0.2441
  504TMC3    H2 7549   1.565   4.668   0.190  1.9249  1.2401 -0.9483
  504TMC3    C7 7550   1.690   4.611  17.691  0.1677 -0.1764  0.0481
  504TMC3    C8 7551   1.311   0.017   0.226  0.3692  0.1217 -0.0700
  504TMC3    O1 7552   1.754   4.640  17.593  0.3617 -0.3231 -0.0713
  504TMC3    O2 7553   1.195   0.012   0.183 -0.2397  0.2273  0.1190
  505MPD2     C 7554   0.573   4.133  10.774  0.8001 -0.3485 -0.0104
  505MPD2    C1 7555   0.612   4.038  10.860 -0.1348  0.8913  0.4333
  505MPD2    C2 7556   0.691   4.076  10.977 -0.3366 -0.3384 -0.0293
  505MPD2    C3 7557   0.744   4.204  10.979  0.4391  0.2318  0.5474
  505MPD2    C4 7558   0.723   4.287  10.877 -0.1547 -0.7706 -0.2801
  505MPD2    C5 7559   0.630   4.259  10.780  0.2753 -0.3562 -0.7630
  505MPD2     H 7560   0.713   4.000  11.051 -4.4156  0.5893  2.1416
  505MPD2    H1 7561   0.760   4.389  10.876 -1.1196 -0.3971  1.7789
  505MPD2    H2 7562   0.505   4.104  10.694 -1.3734 -0.8522  2.0168
  505MPD2    H3 7563   0.604   4.338  10.711 -1.4115  1.4714  1.9463
  505MPD2     N 7564   0.819   4.259  11.088 -0.3875 -0.0214 -0.2697
  505MPD2    H5 7565   0.876   4.343  11.076  1.1201 -0.9694  0.1920
  505MPD2    N1 7566   0.551   3.910  10.835  0.0730  0.5110  0.2290
  505MPD2    H7 7567   0.499   3.896  10.749 -1.3504  0.5568  1.0819
  506TMC3    C1 7568   0.531   3.676  10.841 -0.0429 -0.0322  0.2403
  506TMC3    C2 7569   0.569   3.690  10.706  0.0663  0.1989 -0.0076
  506TMC3    C3 7570   0.672   3.605  10.673  0.1076  0.4319 -0.2987
  506TMC3    C4 7571   0.580   3.578  10.925 -0.3866 -0.3859 -0.3886
  506TMC3    C5 7572   0.680   3.493  10.887 -0.5438 -0.0999 -0.0173
  506TMC3    C6 7573   0.729   3.512  10.755  0.3241 -0.2955  0.5776
  506TMC3     C 7574   0.556   3.801  10.915 -0.6016  0.1204 -0.1819
  506TMC3     O 7575   0.620   3.784  11.017  0.0794 -0.2060  0.0337
  506TMC3     H 7576   0.530   3.767  10.640 -1.8528 -0.9508 -0.2331
  506TMC3    H1 7577   0.532   3.568  11.021 -0.5358  1.3164 -0.2858
  506TMC3    H2 7578   0.820   3.462  10.726  0.2768 -1.4011  2.3297
  506TMC3    C7 7579   0.776   3.459  10.984  0.3326 -0.1990  0.0698
  506TMC3    C8 7580   0.735   3.634  10.543  0.4221 -0.3533 -0.1298
  506TMC3    O1 7581   0.856   3.371  10.970 -0.5825  0.2108 -0.2895
  506TMC3    O2 7582   0.665   3.700  10.462 -0.1832  0.0796  0.3238
  507TMC3    C1 7583   1.761   0.345  15.225  0.7039 -0.0443  0.2352
  507TMC3    C2 7584   1.887   0.306  15.192  0.3837  0.6930 -0.1791
  507TMC3    C3 7585   1.978   0.399  15.138 -0.6829 -0.3359 -0.2154
  507TMC3    C4 7586   1.718   0.467  15.193 -0.7072  0.4672  0.4515
  507TMC3    C5 7587   1.802   0.557  15.140  0.0164  0.2314 -0.9196
  507TMC3    C6 7588   1.935   0.525  15.117  0.1680 -0.1023  0.1096
  507TMC3     C 7589   1.673   0.241  15.276  0.4908  0.1808  0.0253
  507TMC3     O 7590   1.707   0.122  15.283  0.1318 -0.2680  0.8114
  507TMC3     H 7591   1.902   0.199  15.188 -2.8620  0.2570 -0.5434
  507TMC3    H1 7592   1.624   0.510  15.225 -1.3515 -0.9835  0.4996
  507TMC3    H2 7593   2.002   0.604  15.086  0.5860 -0.5379 -0.1055
  507TMC3    C7 7594   1.758   0.636  15.021 -0.2169 -0.1597  1.4278
  507TMC3    C8 7595   2.051   0.339  15.028  0.2095  0.5586 -0.8526
  507TMC3    O1 7596   1.845   0.649  14.936 -0.6110  0.1240 -0.0491
  507TMC3    O2 7597   2.095   0.227  15.041 -0.7159  0.0496 -0.1352
  508MPD2     C 7598   3.212   1.621  15.897  0.2767  0.0342 -0.4385
  508MPD2    C1 7599   3.113   1.697  15.961  0.2265 -0.1136  0.3860
  508MPD2    C2 7600   3.062   1.810  15.903  0.6739 -0.1888  0.1984
  508MPD2    C3 7601   3.122   1.871  15.791  0.2395 -0.2057 -0.8534
  508MPD2    C4 7602   3.217   1.796  15.727  0.7142  0.1479 -0.3879
  508MPD2    C5 7603   3.260   1.674  15.778 -0.1961  0.1960 -0.1547
  508MPD2     H 7604   2.984   1.868  15.952  0.7217  0.8383 -0.9345
  508MPD2    H1 7605   3.258   1.822  15.630  1.3185  2.6418  0.5389
  508MPD2    H2 7606   3.246   1.523  15.927  1.0291  0.4509  0.0673
  508MPD2    H3 7607   3.333   1.616  15.723 -3.3625 -1.1580 -2.9476
  508MPD2     N 7608   3.069   1.997  15.754 -0.2772  0.6636 -0.2175
  508MPD2    H5 7609   3.005   2.044  15.816 -1.7852 -1.6768  0.0041
  508MPD2    N1 7610   3.062   1.649  16.085  0.2195  0.0969 -0.1473
  508MPD2    H7 7611   3.082   1.553  16.112 -0.0514 -0.1899 -0.9588
  509TMC3    C1 7612   2.996   2.396  15.508 -0.4824 -0.8630  0.3517
  509TMC3    C2 7613   2.889   2.431  15.588 -0.5644 -0.4184  0.1305
  509TMC3    C3 7614   2.862   2.338  15.689 -0.0051 -0.1152  0.1680
  509TMC3    C4 7615   3.077   2.281  15.532 -0.7114 -0.1584 -0.0457
  509TMC3    C5 7616   3.052   2.204  15.642  0.0464  0.5904 -0.0835
  509TMC3    C6 7617   2.941   2.226  15.717 -0.6539 -0.0072  0.5061
  509TMC3     C 7618   3.010   2.474  15.384  0.3038  0.3161  0.7414
  509TMC3     O 7619   3.099   2.438  15.310 -0.4078 -0.2773 -0.2634
  509TMC3     H 7620   2.819   2.509  15.564  0.1629  0.4542  0.8482
  509TMC3    H1 7621   3.171   2.264  15.480 -0.3477  1.6271  0.0267
  509TMC3    H2 7622   2.923   2.168  15.806 -1.9408  1.5670  1.2856
  509TMC3    C7 7623   3.120   2.078  15.655 -0.4253 -0.2622 -0.0830
  509TMC3    C8 7624   2.796   2.389  15.811  0.5742 -0.2388  0.0635
  509TMC3    O1 7625   3.206   2.047  15.578 -0.0472  0.2534 -0.4108
  509TMC3    O2 7626   2.741   2.301  15.876 -0.2124 -0.2100 -0.1093
  510MPD2     C 7627   0.591   3.713  14.663 -0.5787  0.5815  0.7091
  510MPD2    C1 7628   0.676   3.656  14.757  0.0632 -0.5268 -0.4996
  510MPD2    C2 7629   0.813   3.653  14.736 -0.5417  0.3449  0.0909
  510MPD2    C3 7630   0.866   3.703  14.620  0.3812  0.4228 -0.2926
  510MPD2    C4 7631   0.782   3.764  14.525 -0.4554  0.2511  0.0629
  510MPD2    C5 7632   0.644   3.768  14.552  0.6035  0.0221 -0.0714
  510MPD2     H 7633   0.881   3.602  14.803 -1.7563  1.8442  2.4471
  510MPD2    H1 7634   0.815   3.819  14.437  2.8270  1.5382  2.0869
  510MPD2    H2 7635   0.483   3.723  14.670 -0.7973 -1.2066 -0.1446
  510MPD2    H3 7636   0.572   3.817  14.487 -0.0562  1.8609  2.0575
  510MPD2     N 7637   1.007   3.699  14.608  0.2848  0.2057  0.1304
  510MPD2    H5 7638   1.064   3.685  14.690  1.4018  2.5944 -0.2443
  510MPD2    N1 7639   0.629   3.597  14.873  0.3038  0.1167  0.0445
  510MPD2    H7 7640   0.696   3.560  14.940 -1.5871 -2.4015  0.5480
  511TMC3    C1 7641   0.474   3.519  15.037  0.3436  0.1988  0.2083
  511TMC3    C2 7642   0.366   3.563  15.109 -0.0755 -0.3483 -0.7004
  511TMC3    C3 7643   0.335   3.496  15.222 -0.0071  0.2355 -0.1672
  511TMC3    C4 7644   0.548   3.416  15.072  0.6035 -0.1122 -0.0085
  511TMC3    C5 7645   0.502   3.341  15.179  0.5396  0.1366 -0.4471
  511TMC3    C6 7646   0.397   3.380  15.258 -0.9951 -0.0168 -0.2408
  511TMC3     C 7647   0.501   3.604  14.921  0.1917  0.3025 -0.7041
  511TMC3     O 7648   0.410   3.677  14.887  0.4587 -0.8164 -0.5271
  511TMC3     H 7649   0.316   3.657  15.089  1.2844  0.3740 -0.7088
  511TMC3    H1 7650   0.639   3.388  15.020 -0.3238 -3.3064  0.0928
  511TMC3    H2 7651   0.368   3.329  15.349 -1.7596 -0.1649 -0.5733
  511TMC3    C7 7652   0.567   3.213  15.212  0.2245  0.9265  0.4473
  511TMC3    C8 7653   0.216   3.547  15.283  0.0062 -0.0608  0.3133
  511TMC3    O1 7654   0.683   3.203  15.166 -0.1911  0.0742 -0.8359
  511TMC3    O2 7655   0.191   3.666  15.268 -0.3482 -0.7678  0.4106
  512TMC3    C1 7656   4.650   2.714  14.272  0.5031 -0.0802 -0.2727
  512TMC3    C2 7657   4.634   2.842  14.313 -0.3270  0.0277 -0.5454
  512TMC3    C3 7658   4.580   2.931  14.226 -1.0485 -0.2712 -0.4855
  512TMC3    C4 7659   4.611   2.675  14.150  0.2393  0.0523  0.2166
  512TMC3    C5 7660   4.547   2.761  14.071 -0.6780 -0.2292  0.0601
  512TMC3    C6 7661   4.533   2.895  14.105 -0.3230 -0.5080 -0.3243
  512TMC3     C 7662   4.733   2.628  14.362  0.1177  0.4260  0.5259
  512TMC3     O 7663   0.074   2.681  14.437 -0.0835 -0.1900  0.4610
  512TMC3     H 7664   4.677   2.881  14.405  2.3328  0.4086 -1.9338
  512TMC3    H1 7665   4.646   2.582  14.109 -0.8015 -0.7184  1.0817
  512TMC3    H2 7666   4.465   2.965  14.059 -1.1397 -2.2095 -1.7178
  512TMC3    C7 7667   4.525   2.732  13.930  0.3909 -0.4785 -1.0303
  512TMC3    C8 7668   4.632   3.066  14.234 -0.2537 -0.7121 -0.4345
  512TMC3    O1 7669   4.500   2.836  13.870 -0.1234  0.1465 -0.4877
  512TMC3    O2 7670   4.706   3.092  14.328  0.8534 -0.4556  0.3043
  513MPD2     C 7671   0.668   2.885  13.948 -0.0533  0.3334  0.4570
  513MPD2    C1 7672   0.726   2.791  13.873 -0.0112  0.9436  0.3656
  513MPD2    C2 7673   0.822   2.707  13.926 -0.0020  0.1066 -0.7122
  513MPD2    C3 7674   0.859   2.711  14.059  0.1174 -0.1839  0.7981
  513MPD2    C4 7675   0.788   2.801  14.135  0.0168 -0.0740 -0.4003
  513MPD2    C5 7676   0.692   2.889  14.081 -0.0901  0.1366  0.5708
  513MPD2     H 7677   0.880   2.644  13.860  1.9229 -0.0982  1.1687
  513MPD2    H1 7678   0.819   2.818  14.238  0.8466  0.0407 -0.6641
  513MPD2    H2 7679   0.604   2.965  13.913 -0.6424 -0.0335  0.6929
  513MPD2    H3 7680   0.632   2.957  14.140  1.7638  0.4559  2.0824
  513MPD2     N 7681   0.968   2.629  14.102 -0.2009  0.0330  0.5461
  513MPD2    H5 7682   0.993   2.557  14.035  1.0139 -0.4428  1.5160
  513MPD2    N1 7683   0.689   2.792  13.738 -0.0367  0.6634 -0.2360
  513MPD2    H7 7684   0.615   2.856  13.711  0.1291  0.5030 -1.0753
  514TMC3    C1 7685   0.669   2.726  13.507  0.2523  0.2443  0.6350
  514TMC3    C2 7686   0.663   2.850  13.449 -0.6079 -0.2968  0.0230
  514TMC3    C3 7687   0.724   2.873  13.329  0.6340  0.1416 -0.1122
  514TMC3    C4 7688   0.727   2.629  13.439 -0.5712  0.2289  0.2245
  514TMC3    C5 7689   0.801   2.650  13.331  0.3723  0.2416 -0.8982
  514TMC3    C6 7690   0.798   2.775  13.270 -0.2121  0.1138  0.1690
  514TMC3     C 7691   0.725   2.702  13.644 -0.7450  0.2080 -0.7191
  514TMC3     O 7692   0.799   2.604  13.663  0.0802  0.2588  0.6418
  514TMC3     H 7693   0.625   2.937  13.502  0.7770  0.9809 -1.0897
  514TMC3    H1 7694   0.716   2.525  13.468 -0.3297  0.5464  1.4654
  514TMC3    H2 7695   0.881   2.800  13.205  0.3432 -0.9763  0.4662
  514TMC3    C7 7696   0.932   2.589  13.317  0.4569 -0.2039  0.3159
  514TMC3    C8 7697   0.701   2.989  13.255  0.0116  0.2869  0.0496
  514TMC3    O1 7698   0.987   2.585  13.210  0.1969  0.2481  0.6536
  514TMC3    O2 7699   0.657   3.083  13.320  0.2587  0.0230  0.1098
  515MPD2     C 7700   4.576   4.194  14.649  0.2993  0.4703 -0.0548
  515MPD2    C1 7701   4.469   4.276  14.681  0.2263 -1.1636  0.1016
  515MPD2    C2 7702   4.490   4.395  14.758  0.3873  0.0594 -0.6725
  515MPD2    C3 7703   4.618   4.438  14.793  0.2860  0.0191 -0.2868
  515MPD2    C4 7704   4.719   4.357  14.748 -0.5575  0.0869  0.4312
  515MPD2    C5 7705   4.698   4.242  14.674  0.2305 -0.0081 -0.4388
  515MPD2     H 7706   4.401   4.446  14.791  1.5592  0.9702  1.1174
  515MPD2    H1 7707   0.083   4.392  14.760 -0.4657  0.8774 -2.7457
  515MPD2    H2 7708   4.570   4.104  14.589 -0.6753  1.9469 -2.1774
  515MPD2    H3 7709   0.044   4.192  14.628 -0.0662 -1.0014  0.0962
  515MPD2     N 7710   4.651   4.553  14.869 -0.3480 -0.4091  0.0295
  515MPD2    H5 7711   0.010   4.581  14.870 -0.6847  0.7306 -0.1087
  515MPD2    N1 7712   4.337   4.232  14.653 -0.2167  0.3637  0.9681
  515MPD2    H7 7713   4.262   4.284  14.698 -0.2575  1.5699 -0.4700
  516TMC3    C1 7714   4.157   4.119  14.563  0.1629  0.0783  0.1352
  516TMC3    C2 7715   4.097   4.237  14.539  0.4863  0.2851  0.0483
  516TMC3    C3 7716   3.958   4.243  14.538 -0.0082 -0.2549 -0.0067
  516TMC3    C4 7717   4.087   4.006  14.595 -0.4021 -0.3358 -0.1811
  516TMC3    C5 7718   3.952   4.012  14.590  0.4495  0.1947  0.2486
  516TMC3    C6 7719   3.882   4.126  14.558  0.6210 -0.5165 -0.4541
  516TMC3     C 7720   4.295   4.116  14.593  0.7000 -0.2839 -0.6311
  516TMC3     O 7721   4.356   4.025  14.544  0.2742  0.6735  0.2784
  516TMC3     H 7722   4.155   4.323  14.509  1.9756  0.1510  2.5829
  516TMC3    H1 7723   4.133   3.917  14.637  2.6580  0.9233 -0.8903
  516TMC3    H2 7724   3.774   4.120  14.552  0.4573 -1.6490  3.5349
  516TMC3    C7 7725   3.882   3.918  14.676  0.1721 -0.2937 -0.4708
  516TMC3    C8 7726   3.883   4.359  14.498 -0.5400  0.1512  0.1160
  516TMC3    O1 7727   3.944   3.878  14.773  0.4057  0.2161 -0.4663
  516TMC3    O2 7728   3.759   4.347  14.505 -0.0390 -0.0696  0.3764
  517MPD2     C 7729   3.646   1.510   0.091 -0.9605 -0.2769 -0.3373
  517MPD2    C1 7730   3.783   1.511   0.092 -0.0899  0.3477  0.5074
  517MPD2    C2 7731   3.837   1.605   0.176  0.2535  0.2178 -0.2675
  517MPD2    C3 7732   3.770   1.697   0.247 -0.3051  0.2281 -0.1051
  517MPD2    C4 7733   3.635   1.681   0.250 -0.4864 -0.1186 -0.4089
  517MPD2    C5 7734   3.572   1.588   0.172  0.2012  0.2042 -0.1671
  517MPD2     H 7735   3.943   1.625   0.164  0.5534 -0.4359  1.3732
  517MPD2    H1 7736   3.574   1.736   0.320  0.2419  0.5718 -0.3175
  517MPD2    H2 7737   3.585   1.431   0.049 -1.5866 -0.8828  1.7460
  517MPD2    H3 7738   3.465   1.572   0.166  0.0643  0.2521  2.3483
  517MPD2     N 7739   3.824   1.789   0.335  0.3311 -0.0482 -0.1540
  517MPD2    H5 7740   3.767   1.863   0.373 -0.0795  1.0387 -2.8664
  517MPD2    N1 7741   3.861   1.436  17.749 -0.3322 -0.6495 -0.5254
  517MPD2    H7 7742   3.962   1.448   0.005 -0.6018  0.9925  0.2078
  518TMC3    C1 7743   3.922   1.300  17.576  0.5865 -0.0991  0.2595
  518TMC3    C2 7744   3.907   1.173  17.527  0.1906  1.1596  0.7079
  518TMC3    C3 7745   4.014   1.119  17.463 -0.2537  0.4254  0.2757
  518TMC3    C4 7746   4.038   1.380  17.562 -0.4356 -0.3480 -0.2404
  518TMC3    C5 7747   4.136   1.320  17.490  0.2282  0.3133  1.1676
  518TMC3    C6 7748   4.129   1.189  17.445  0.3990  0.6683  0.0295
  518TMC3     C 7749   3.816   1.348  17.657  0.3596 -0.3839  0.3712
  518TMC3     O 7750   3.702   1.310  17.631 -0.2783 -0.3483  0.7139
  518TMC3     H 7751   3.821   1.111  17.545  1.9896 -1.3725  0.6022
  518TMC3    H1 7752   4.057   1.474  17.612 -2.2192  1.3702 -2.7449
  518TMC3    H2 7753   4.211   1.138  17.396  2.0210  1.2385  2.1600
  518TMC3    C7 7754   4.267   1.390  17.492  0.0483  0.2729  0.1738
  518TMC3    C8 7755   4.043   0.981  17.484 -0.4629 -0.3097 -0.7233
  518TMC3    O1 7756   4.275   1.509  17.461  0.4118  0.2041  0.3125
  518TMC3    O2 7757   4.126   0.925  17.414 -0.1849  0.3491 -0.7420
  519MPD2     C 7758   0.921   4.300  14.489 -0.1602  0.3445 -0.2598
  519MPD2    C1 7759   0.900   4.314  14.349  0.3313  0.0752 -0.1354
  519MPD2    C2 7760   0.925   4.202  14.270  0.5395  0.2389 -0.5310
  519MPD2    C3 7761   0.954   4.078  14.322 -0.4681 -0.2599 -0.4114
  519MPD2    C4 7762   0.962   4.069  14.459 -0.3214 -0.1145 -0.1399
  519MPD2    C5 7763   0.942   4.176  14.544 -0.5943 -0.1950 -0.1620
  519MPD2     H 7764   0.915   4.209  14.162 -0.4341 -0.1333 -0.4627
  519MPD2    H1 7765   0.974   3.970  14.502 -1.1221  0.9159  2.4165
  519MPD2    H2 7766   0.899   4.385  14.553 -0.8277 -0.8088  1.0543
  519MPD2    H3 7767   0.968   4.172  14.649 -2.4718 -2.9058  0.2057
  519MPD2     N 7768   0.983   3.967  14.247  0.3433 -0.5091 -0.2232
  519MPD2    H5 7769   0.999   3.883  14.302 -0.7734 -1.1167 -0.8117
  519MPD2    N1 7770   0.860   4.434  14.290 -0.1862 -0.4924  0.0927
  519MPD2    H7 7771   0.867   4.436  14.189  3.5912 -1.4566  0.3438
  520TMC3    C1 7772   1.013   3.836  14.051 -0.1552 -0.7733  0.4420
  520TMC3    C2 7773   0.950   3.805  13.934 -0.4977 -0.5420  0.1399
  520TMC3    C3 7774   1.033   3.752  13.830 -0.6273  0.5878 -0.6884
  520TMC3    C4 7775   1.145   3.810  14.074 -0.0316 -0.7160 -0.2988
  520TMC3    C5 7776   1.216   3.747  13.977  0.2533 -0.2751 -0.0932
  520TMC3    C6 7777   1.162   3.715  13.853 -0.0070  0.1746 -0.2390
  520TMC3     C 7778   0.952   3.952  14.115  0.0395  0.1716 -0.3660
  520TMC3     O 7779   0.915   4.029  14.028  0.5998 -0.0181  0.2963
  520TMC3     H 7780   0.848   3.840  13.922 -0.0389  0.4382 -0.9044
  520TMC3    H1 7781   1.185   3.848  14.167 -0.5151 -1.9293  0.4068
  520TMC3    H2 7782   1.220   3.648  13.790  2.5060  1.4245  0.7391
  520TMC3    C7 7783   1.356   3.775  13.980 -0.5857  0.5239 -0.8889
  520TMC3    C8 7784   0.995   3.750  13.691 -0.2582 -0.3397  0.6622
  520TMC3    O1 7785   1.409   3.783  14.091 -0.4830  0.1399 -0.2316
  520TMC3    O2 7786   1.083   3.760  13.608 -0.1253 -0.4772  0.8462
  521MPD2     C 7787   1.891   2.647  17.624  1.3310  0.8035 -0.3623
  521MPD2    C1 7788   1.847   2.633  17.494 -0.4779  0.5416 -0.2637
  521MPD2    C2 7789   1.923   2.556  17.408  0.0830  0.2261  0.3661
  521MPD2    C3 7790   2.031   2.483  17.451 -0.3454 -0.1240  0.5008
  521MPD2    C4 7791   2.059   2.488  17.588 -0.4851  0.1837 -0.1286
  521MPD2    C5 7792   2.000   2.578  17.664  0.2007 -0.4519 -0.9598
  521MPD2     H 7793   1.897   2.560  17.303  0.9120  1.3643  0.2079
  521MPD2    H1 7794   2.133   2.424  17.634 -0.9818 -0.3743 -0.1163
  521MPD2    H2 7795   1.853   2.705  17.707 -2.0027 -1.4216 -0.3467
  521MPD2    H3 7796   2.042   2.582   0.011  1.7801 -4.2664 -1.4601
  521MPD2     N 7797   2.096   2.401  17.362  0.1857  0.0913  0.1369
  521MPD2    H5 7798   2.060   2.399  17.267 -3.7604 -0.9954  1.6584
  521MPD2    N1 7799   1.725   2.685  17.464 -0.2013 -0.1237 -0.1003
  521MPD2    H7 7800   1.670   2.718  17.543  1.7900  1.7719  0.5028
  522TMC3    C1 7801   2.231   2.251  17.256  0.2253 -0.1745  0.2063
  522TMC3    C2 7802   2.341   2.162  17.260 -0.1321  0.0573  0.8472
  522TMC3    C3 7803   2.413   2.127  17.153  0.3016  0.2640  0.4542
  522TMC3    C4 7804   2.208   2.320  17.139  0.1246 -0.0296  0.2808
  522TMC3    C5 7805   2.294   2.290  17.032 -0.1152 -0.1276  0.0079
  522TMC3    C6 7806   2.391   2.200  17.037  0.1401 -0.3239 -0.5613
  522TMC3     C 7807   2.190   2.308  17.384 -0.2663 -0.4496  0.1762
  522TMC3     O 7808   2.246   2.268  17.483 -0.6222 -0.2331  0.4229
  522TMC3     H 7809   2.372   2.113  17.351 -0.3810  1.3142  1.6071
  522TMC3    H1 7810   2.170   2.421  17.136 -0.5472 -0.2600  0.9053
  522TMC3    H2 7811   2.452   2.165  16.954  2.3866  1.9396  0.1167
  522TMC3    C7 7812   2.277   2.372  16.910 -0.2841 -0.1744  0.1453
  522TMC3    C8 7813   2.480   1.996  17.150  0.8574 -0.2899  0.2557
  522TMC3    O1 7814   2.370   2.373  16.837  0.3079  0.3789 -0.0274
  522TMC3    O2 7815   2.499   1.950  17.256  0.1324 -0.2935  0.2570
  523MPD2     C 7816   4.536   2.193  10.021  0.5357  0.2463 -0.5846
  523MPD2    C1 7817   4.430   2.121  10.071 -0.4518  0.1330  0.5214
  523MPD2    C2 7818   4.302   2.151  10.022 -0.3803 -0.2420 -0.0088
  523MPD2    C3 7819   4.283   2.245   9.919 -0.6372  0.4707 -0.3424
  523MPD2    C4 7820   4.389   2.320   9.878  0.6126  0.1684 -0.0656
  523MPD2    C5 7821   4.515   2.291   9.928 -0.3224 -0.3481 -0.5569
  523MPD2     H 7822   4.218   2.095  10.060 -2.8057  2.2589 -1.7430
  523MPD2    H1 7823   4.384   2.381   9.789  1.6713 -2.0584 -1.6535
  523MPD2    H2 7824   4.635   2.180  10.062 -0.1606  0.2386  1.1068
  523MPD2    H3 7825   4.602   2.344   9.893  0.0041  0.2853  1.2153
  523MPD2     N 7826   4.159   2.277   9.857 -0.1747  0.0750 -0.9461
  523MPD2    H5 7827   4.164   2.351   9.788  0.0271  1.2737  0.3550
  523MPD2    N1 7828   4.458   2.022  10.169  0.6094 -0.4169 -0.6027
  523MPD2    H7 7829   4.555   2.010  10.198  0.7069  1.5176 -0.1330
  524TMC3    C1 7830   3.927   2.281   9.823  0.6027  1.0609  0.4529
  524TMC3    C2 7831   3.822   2.200   9.796 -0.4661 -0.9321 -1.0628
  524TMC3    C3 7832   3.738   2.247   9.701 -0.2426  0.0206  1.0104
  524TMC3    C4 7833   3.936   2.418   9.792  0.2024  0.5730  0.3097
  524TMC3    C5 7834   3.841   2.455   9.702  0.2648  0.4414 -0.1324
  524TMC3    C6 7835   3.735   2.377   9.662 -0.1434 -1.1708  0.6996
  524TMC3     C 7836   4.041   2.212   9.882 -0.0812  0.3378  0.6286
  524TMC3     O 7837   4.033   2.106   9.940 -0.1370 -0.3324 -0.0293
  524TMC3     H 7838   3.830   2.093   9.812 -0.4840 -0.4735  1.9449
  524TMC3    H1 7839   4.016   2.487   9.814  0.3850  0.8017 -1.0541
  524TMC3    H2 7840   3.658   2.413   9.594  2.5956  0.1205 -1.7333
  524TMC3    C7 7841   3.846   2.594   9.654 -0.9095 -0.1576 -0.9262
  524TMC3    C8 7842   3.636   2.156   9.636 -0.4533  0.1104  0.1925
  524TMC3    O1 7843   3.963   2.637   9.656  0.1925  0.1292 -0.5541
  524TMC3    O2 7844   3.656   2.034   9.656  0.2499  0.3166  0.0305
  525MPD2     C 7845   2.360   3.894  14.345 -0.8998  0.8659 -0.1825
  525MPD2    C1 7846   2.442   3.908  14.453 -0.2676  0.3491  0.1100
  525MPD2    C2 7847   2.499   4.035  14.472 -0.8763 -0.5833 -0.1671
  525MPD2    C3 7848   2.472   4.136  14.390  0.4046 -0.6027  0.2416
  525MPD2    C4 7849   2.379   4.120  14.289 -0.1128 -0.1587 -0.1729
  525MPD2    C5 7850   2.328   3.996  14.260 -0.3864  0.6840  0.6260
  525MPD2     H 7851   2.569   4.049  14.554  0.4592 -1.0569 -1.2126
  525MPD2    H1 7852   2.351   4.200  14.221  1.4323 -0.7403 -1.4879
  525MPD2    H2 7853   2.333   3.792  14.324  0.8541  0.5337 -0.8313
  525MPD2    H3 7854   2.257   3.970  14.181  0.9239 -3.3755  0.7981
  525MPD2     N 7855   2.518   4.265  14.406 -0.0015 -0.1012  0.1554
  525MPD2    H5 7856   2.484   4.338  14.346 -1.8039 -1.2506 -0.2173
  525MPD2    N1 7857   2.466   3.814  14.547  0.6941  0.4237 -0.0212
  525MPD2    H7 7858   2.544   3.839  14.607 -0.3149 -1.2429  1.9999
  526TMC3    C1 7859   2.424   3.660  14.717 -0.6799  0.3468 -0.0479
  526TMC3    C2 7860   2.325   3.609  14.802 -0.6752 -0.0941 -0.2479
  526TMC3    C3 7861   2.357   3.583  14.927 -0.2293  0.0098  0.7104
  526TMC3    C4 7862   2.541   3.692  14.762 -0.0359 -0.4927 -0.5210
  526TMC3    C5 7863   2.568   3.650  14.888  0.3995 -0.1861 -0.4711
  526TMC3    C6 7864   2.482   3.597  14.976 -0.4466  0.2239 -0.3092
  526TMC3     C 7865   2.384   3.709  14.584  0.3492  0.1387 -0.2556
  526TMC3     O 7866   2.274   3.687  14.534  0.2164  0.1682  0.4040
  526TMC3     H 7867   2.220   3.599  14.774 -0.6950 -1.6546  0.3740
  526TMC3    H1 7868   2.620   3.726  14.696  1.0041  2.2784  2.1727
  526TMC3    H2 7869   2.502   3.571  15.080  2.1209  1.1331 -0.5780
  526TMC3    C7 7870   2.704   3.644  14.925  0.1672 -1.0244  0.5553
  526TMC3    C8 7871   2.244   3.565  15.021 -0.5595 -0.6398 -0.6637
  526TMC3    O1 7872   2.743   3.648  15.042 -0.8165  0.2744  0.1782
  526TMC3    O2 7873   2.142   3.529  14.971 -0.5141  0.0455 -0.0522
  527MPD2     C 7874   0.954   1.878   1.573 -0.0252 -0.0017 -0.2958
  527MPD2    C1 7875   0.967   1.848   1.444  0.3066 -0.0354 -0.1182
  527MPD2    C2 7876   1.077   1.900   1.374  0.6463 -0.6899  0.3032
  527MPD2    C3 7877   1.169   1.992   1.427  0.6862 -0.0795 -0.0731
  527MPD2    C4 7878   1.156   2.015   1.560 -0.3638  0.4049  0.0360
  527MPD2    C5 7879   1.059   1.955   1.633  0.0541 -0.4561 -0.0108
  527MPD2     H 7880   1.089   1.866   1.271 -0.5328  1.5622 -0.5808
  527MPD2    H1 7881   1.235   2.062   1.617  1.2294 -1.0883 -0.9451
  527MPD2    H2 7882   0.877   1.836   1.636 -0.4252  3.6913  1.6584
  527MPD2    H3 7883   1.059   1.972   1.740  1.2225  0.6673 -0.1910
  527MPD2     N 7884   1.263   2.046   1.341  0.5367 -0.0513 -0.5453
  527MPD2    H5 7885   1.264   2.019   1.243 -0.2003  0.7966 -0.7747
  527MPD2    N1 7886   0.880   1.764   1.375 -0.1864 -0.2551 -0.7274
  527MPD2    H7 7887   0.910   1.749   1.279  0.3520  0.8517 -0.7379
  528TMC3    C1 7888   0.705   1.621   1.311  0.0658  0.0885 -0.0003
  528TMC3    C2 7889   0.710   1.669   1.183  0.3200 -0.4859  0.2355
  528TMC3    C3 7890   0.626   1.626   1.087  0.0384 -0.1393  0.1890
  528TMC3    C4 7891   0.601   1.536   1.350 -0.1930  0.1960  0.2639
  528TMC3    C5 7892   0.510   1.500   1.250  0.4713  0.3020  0.3583
  528TMC3    C6 7893   0.521   1.550   1.121 -0.5054  0.1221  0.1517
  528TMC3     C 7894   0.778   1.693   1.420 -0.8664  0.2660  0.0194
  528TMC3     O 7895   0.745   1.669   1.535 -0.2416  0.3736 -0.4354
  528TMC3     H 7896   0.794   1.729   1.149  0.9491 -0.5886  1.6012
  528TMC3    H1 7897   0.587   1.495   1.449 -0.7030  0.7602  0.4266
  528TMC3    H2 7898   0.438   1.542   1.052 -0.8214 -1.1241  0.6643
  528TMC3    C7 7899   0.394   1.416   1.281  0.2528 -0.4675 -0.4973
  528TMC3    C8 7900   0.644   1.672   0.957 -0.5500 -0.0328 -0.7560
  528TMC3    O1 7901   0.347   1.417   1.395 -0.0013  0.0234 -0.1810
  528TMC3    O2 7902   0.715   1.768   0.944 -0.3121  0.2643 -0.0680
  529MPD2     C 7903   3.469   0.834   1.646  1.0235 -0.4763 -1.1747
  529MPD2    C1 7904   3.441   0.706   1.600  0.1988 -0.3408  0.8911
  529MPD2    C2 7905   3.389   0.694   1.470 -0.5732 -0.4703 -0.1175
  529MPD2    C3 7906   3.365   0.807   1.399 -0.2565 -1.0518 -0.4887
  529MPD2    C4 7907   3.383   0.926   1.457 -0.1566 -0.0315  0.3954
  529MPD2    C5 7908   3.429   0.937   1.583  0.2050 -0.1011 -0.3683
  529MPD2     H 7909   3.370   0.599   1.420 -1.5216 -0.3183 -0.0553
  529MPD2    H1 7910   3.369   1.020   1.404  3.5414 -0.0036 -0.5582
  529MPD2    H2 7911   3.513   0.855   1.743 -0.2108 -0.1835 -0.6797
  529MPD2    H3 7912   3.445   1.031   1.634 -5.3502  0.1501  0.8859
  529MPD2     N 7913   3.316   0.800   1.266 -0.1446 -0.4387  0.3521
  529MPD2    H5 7914   3.299   0.892   1.226 -0.3871 -1.2902 -1.5011
  529MPD2    N1 7915   3.482   0.587   1.663 -0.1749 -0.8351  0.5882
  529MPD2    H7 7916   3.487   0.499   1.612  1.0826 -0.9279  0.8784
  530TMC3    C1 7917   3.613   0.461   1.825  0.3623  0.5893  0.1772
  530TMC3    C2 7918   3.715   0.470   1.913 -0.0230 -0.1537 -0.7101
  530TMC3    C3 7919   3.817   0.384   1.896  0.3760  0.5604 -0.0160
  530TMC3    C4 7920   3.601   0.354   1.739  0.4835 -0.5807 -0.7643
  530TMC3    C5 7921   3.702   0.262   1.731  0.4347  0.1842 -0.2999
  530TMC3    C6 7922   3.815   0.281   1.804 -0.2977  0.0435 -0.4100
  530TMC3     C 7923   3.539   0.584   1.789  0.0340  0.9434 -0.2334
  530TMC3     O 7924   3.539   0.670   1.880 -0.1291  0.0646  0.1867
  530TMC3     H 7925   3.707   0.540   1.996 -1.7929 -1.9175  0.6316
  530TMC3    H1 7926   3.506   0.343   1.688  0.3998 -1.2009 -0.4800
  530TMC3    H2 7927   3.905   0.225   1.780 -1.3829 -0.1853 -3.8690
  530TMC3    C7 7928   3.674   0.127   1.702  0.3524 -0.2551  0.0965
  530TMC3    C8 7929   3.918   0.382   2.002 -0.6015  1.0187  0.3968
  530TMC3    O1 7930   3.763   0.042   1.714  0.3458  0.3253 -0.0323
  530TMC3    O2 7931   3.875   0.414   2.112 -0.2179  0.3377 -0.5820
  531MPD2     C 7932   1.352   2.464  13.581  0.3562  0.9659 -0.6329
  531MPD2    C1 7933   1.245   2.471  13.664  0.3297 -0.0143  0.2126
  531MPD2    C2 7934   1.120   2.502  13.611  0.2804  0.1859 -0.2778
  531MPD2    C3 7935   1.104   2.533  13.480  0.3561 -0.1929  0.4433
  531MPD2    C4 7936   1.221   2.533  13.401 -0.3782  0.4536  0.7345
  531MPD2    C5 7937   1.345   2.499  13.449 -0.8360  0.9566  0.4244
  531MPD2     H 7938   1.030   2.494  13.671 -0.7058  0.6006 -1.7072
  531MPD2    H1 7939   1.217   2.563  13.297 -0.4623 -0.1734  0.5627
  531MPD2    H2 7940   1.448   2.428  13.616  0.8600  1.4907 -1.4813
  531MPD2    H3 7941   1.432   2.513  13.387  0.2749  0.0847  1.7867
  531MPD2     N 7942   0.971   2.550  13.440 -0.4032  0.3858 -0.4866
  531MPD2    H5 7943   0.903   2.562  13.514  1.2430 -0.3513  1.1538
  531MPD2    N1 7944   1.264   2.448  13.798  0.0673 -0.0857 -0.1822
  531MPD2    H7 7945   1.358   2.421  13.826 -1.7546 -3.5598  2.4876
  532TMC3    C1 7946   1.236   2.437  14.033 -0.0054 -0.5727  0.1031
  532TMC3    C2 7947   1.141   2.444  14.127 -0.0695 -0.8486 -0.1344
  532TMC3    C3 7948   1.153   2.550  14.205 -0.0594  0.3235  0.0665
  532TMC3    C4 7949   1.358   2.489  14.049 -0.7035  0.1016 -0.1898
  532TMC3    C5 7950   1.381   2.573  14.157  0.5191 -0.8662  0.1737
  532TMC3    C6 7951   1.272   2.612  14.224 -0.7219 -0.0693  0.6767
  532TMC3     C 7952   1.174   2.446  13.902 -0.1881 -0.4277 -0.1864
  532TMC3     O 7953   1.053   2.461  13.896  0.0121  0.4927 -0.0337
  532TMC3     H 7954   1.047   2.396  14.103 -0.9872  0.9285 -0.0992
  532TMC3    H1 7955   1.441   2.482  13.980 -0.9716 -1.3706 -0.3534
  532TMC3    H2 7956   1.284   2.691  14.298 -0.0287  0.3436  0.1188
  532TMC3    C7 7957   1.501   2.658  14.137  0.7893 -0.4836 -0.8179
  532TMC3    C8 7958   1.037   2.632  14.220 -0.8728 -0.7303 -0.6079
  532TMC3    O1 7959   1.482   2.779  14.137 -0.0361  0.0047 -0.4121
  532TMC3    O2 7960   1.028   2.721  14.303 -0.2115 -0.2770 -0.1699
  533TMC3    C1 7961   2.634   4.451  14.499 -0.6567 -0.0901  0.5370
  533TMC3    C2 7962   2.756   4.503  14.506  0.3393 -0.1490 -0.2386
  533TMC3    C3 7963   2.761   4.634  14.555 -0.1653  0.1675 -0.3114
  533TMC3    C4 7964   2.519   4.517  14.523  0.7979 -0.2578 -0.5667
  533TMC3    C5 7965   2.526   4.646  14.586 -0.0519 -0.5575 -0.6061
  533TMC3    C6 7966   2.651   4.701  14.593  0.1324  0.1312  0.3287
  533TMC3     C 7967   2.633   4.306  14.477 -0.0741 -0.6144  0.5352
  533TMC3     O 7968   2.725   4.242  14.525 -0.8707  0.1794  0.5038
  533TMC3     H 7969   2.847   4.455  14.474  0.7630  1.2183 -1.0963
  533TMC3    H1 7970   2.426   4.462  14.521  0.8876 -0.5070  1.8732
  533TMC3    H2 7971   2.654   0.056  14.648 -0.2119  0.4554 -0.1982
  533TMC3    C7 7972   2.435   4.646  14.702 -0.1326 -0.0452  0.3123
  533TMC3    C8 7973   2.885   4.691  14.590 -0.3704  0.5996  0.9849
  533TMC3    O1 7974   2.345   4.561  14.702  0.2631 -0.3118 -0.1643
  533TMC3    O2 7975   2.877   0.050  14.657  0.2560 -0.1845 -0.0779
  534MPD2     C 7976   1.291   0.319   0.917 -0.9568  0.0409 -0.3247
  534MPD2    C1 7977   1.241   0.370   1.035 -0.3099  0.1901  0.4179
  534MPD2    C2 7978   1.110   0.405   1.050  0.9118 -0.2741  0.2542
  534MPD2    C3 7979   1.022   0.390   0.947  1.0951  0.2221  0.1022
  534MPD2    C4 7980   1.071   0.348   0.831 -0.9655 -0.5004  0.1493
  534MPD2    C5 7981   1.201   0.310   0.821 -0.0203 -0.7163  0.7659
  534MPD2     H 7982   1.079   0.453   1.143 -1.7716  0.0025 -0.7605
  534MPD2    H1 7983   1.011   0.330   0.743 -0.1687 -0.6767 -0.3504
  534MPD2    H2 7984   1.395   0.289   0.909 -0.6283  0.7939  1.1160
  534MPD2    H3 7985   1.224   0.287   0.718  0.1874 -0.3729  0.7346
  534MPD2     N 7986   0.889   0.431   0.952  0.7424  0.4527 -0.0155
  534MPD2    H5 7987   0.844   0.435   0.861  1.1155 -0.1739 -0.2281
  534MPD2    N1 7988   1.335   0.404   1.147  0.3620 -0.0429  0.7539
  534MPD2    H7 7989   1.292   0.442   1.231  0.0543  2.3235 -0.4681
  535TMC3    C1 7990   0.686   0.487   1.043 -0.0076 -0.3711  0.5762
  535TMC3    C2 7991   0.594   0.458   1.147 -0.1441  0.1426 -0.5735
  535TMC3    C3 7992   0.460   0.471   1.117 -0.4863 -0.2441  0.6067
  535TMC3    C4 7993   0.644   0.540   0.924  0.4389  0.0717 -0.1042
  535TMC3    C5 7994   0.509   0.553   0.905 -0.3414 -0.2942  0.2642
  535TMC3    C6 7995   0.412   0.515   0.997 -0.1438 -0.3294 -0.3410
  535TMC3     C 7996   0.827   0.460   1.068  0.2114  0.3730  0.5974
  535TMC3     O 7997   0.861   0.427   1.183 -0.2276 -0.3908  0.2730
  535TMC3     H 7998   0.632   0.419   1.241 -2.3641 -0.1329  0.1947
  535TMC3    H1 7999   0.712   0.589   0.855  0.0615  2.0581  0.9407
  535TMC3    H2 8000   0.305   0.527   0.984 -0.0497  0.3063 -0.5101
  535TMC3    C7 8001   0.464   0.635   0.788 -0.5720  0.4655  0.0081
  535TMC3    C8 8002   0.359   0.447   1.218 -0.2942 -0.1930 -0.7855
  535TMC3    O1 8003   0.544   0.667   0.701 -0.7352 -0.0836  0.0744
  535TMC3    O2 8004   0.244   0.429   1.181  0.1905  0.0589  0.5769
  536MPD2     C 8005   3.987   3.691  16.314  0.2746 -0.2398 -0.5742
  536MPD2    C1 8006   3.875   3.632  16.373  0.5881  0.2063 -0.3678
  536MPD2    C2 8007   3.765   3.606  16.284  0.3115  0.0643 -0.4095
  536MPD2    C3 8008   3.765   3.655  16.151 -0.3255 -0.5024  0.0132
  536MPD2    C4 8009   3.886   3.699  16.098 -0.0475  0.5951 -0.1579
  536MPD2    C5 8010   3.995   3.721  16.178  0.5739 -0.0763  0.3478
  536MPD2     H 8011   3.673   3.563  16.322  0.4931 -1.4822 -1.7041
  536MPD2    H1 8012   3.895   3.725  15.993  0.7430 -0.5849 -0.3794
  536MPD2    H2 8013   4.078   3.711  16.368 -1.4001  2.0890  1.3410
  536MPD2    H3 8014   4.083   3.763  16.132  0.7469  0.2825  1.0110
  536MPD2     N 8015   3.655   3.657  16.059  0.3820  0.4127 -0.1686
  536MPD2    H5 8016   3.682   3.685  15.965  0.2149 -0.8092 -0.5795
  536MPD2    N1 8017   3.873   3.615  16.516  0.2478 -0.3781  0.1834
  536MPD2    H7 8018   3.951   3.652  16.570 -0.4056  1.8587 -0.3912
  537TMC3    C1 8019   3.786   3.553  16.725 -0.1818  0.3124 -0.1555
  537TMC3    C2 8020   3.853   3.658  16.774  0.6140 -1.1156 -0.4711
  537TMC3    C3 8021   3.843   3.676  16.907 -0.3280  0.0021  0.4752
  537TMC3    C4 8022   3.704   3.470  16.794 -0.1193  0.1340 -0.3727
  537TMC3    C5 8023   3.703   3.489  16.931 -0.6189 -0.0882 -0.4822
  537TMC3    C6 8024   3.774   3.592  16.988  0.1633 -0.1051 -0.0158
  537TMC3     C 8025   3.778   3.542  16.581 -0.3630  0.3613  0.3337
  537TMC3     O 8026   3.686   3.470  16.542  0.2101  0.0065 -1.0571
  537TMC3     H 8027   3.893   3.748  16.727  2.2698 -0.9945  1.1413
  537TMC3    H1 8028   3.642   3.397  16.743  1.9454 -0.8961 -1.4121
  537TMC3    H2 8029   3.774   3.607  17.095 -3.4812  1.3348 -0.2284
  537TMC3    C7 8030   3.599   3.431  17.011  0.1387 -0.1829 -0.0135
  537TMC3    C8 8031   3.874   3.806  16.972  0.1137 -0.3528 -0.6205
  537TMC3    O1 8032   3.611   3.435  17.134 -0.2007 -1.0255  0.0960
  537TMC3    O2 8033   3.894   3.802  17.092 -0.3550  0.6522  0.0684
  538TMC3    C1 8034   0.365   2.003  11.405 -0.0177  0.0711 -0.2926
  538TMC3    C2 8035   0.475   1.970  11.332 -0.1441 -0.5023 -0.1215
  538TMC3    C3 8036   0.481   2.009  11.202 -0.1261  0.5097  0.0016
  538TMC3    C4 8037   0.263   2.076  11.347 -0.0327  0.0591 -0.1300
  538TMC3    C5 8038   0.268   2.092  11.214  0.5742  0.4502 -0.5982
  538TMC3    C6 8039   0.375   2.051  11.135 -0.5225  0.1809 -0.2823
  538TMC3     C 8040   0.384   2.028  11.543 -0.4962 -1.1213  0.6149
  538TMC3     O 8041   0.288   2.003  11.613 -0.0120 -0.0428 -0.4135
  538TMC3     H 8042   0.547   1.913  11.390 -1.1934  0.0872  1.7672
  538TMC3    H1 8043   0.174   2.102  11.403  0.4141 -0.0469  0.6199
  538TMC3    H2 8044   0.372   2.050  11.027  0.2263 -0.9311 -0.2885
  538TMC3    C7 8045   0.150   2.152  11.154  0.2028 -0.3064 -0.0349
  538TMC3    C8 8046   0.588   1.961  11.120 -0.5248  0.4105 -0.4934
  538TMC3    O1 8047   0.054   2.167  11.223 -0.6254  0.0940  0.4247
  538TMC3    O2 8048   0.646   1.861  11.157 -0.3589  0.2713 -0.2314
  539MPD2     C 8049   4.524   1.461  12.250 -0.5484 -0.4835  0.3278
  539MPD2    C1 8050   4.544   1.459  12.108  0.5610  0.5949 -1.1977
  539MPD2    C2 8051   4.523   1.581  12.046  0.2956  0.2923  0.6253
  539MPD2    C3 8052   4.471   1.696  12.107 -0.0196 -0.7732  0.0008
  539MPD2    C4 8053   4.439   1.687  12.239 -0.2105 -0.4356 -0.2300
  539MPD2    C5 8054   4.469   1.571  12.306 -0.6035 -0.0051 -0.4007
  539MPD2     H 8055   4.548   1.572  11.941 -4.4000 -0.7756 -0.4014
  539MPD2    H1 8056   4.399   1.773  12.290  1.0353  0.8832 -1.4781
  539MPD2    H2 8057   4.565   1.386  12.316  1.4425 -0.6788 -1.1384
  539MPD2    H3 8058   4.446   1.564  12.412  0.9558 -0.1898 -0.0730
  539MPD2     N 8059   4.428   1.813  12.035  0.4315 -0.3678  1.2876
  539MPD2    H5 8060   4.375   1.879  12.091  0.8580  3.2023 -2.4999
  539MPD2    N1 8061   4.626   1.363  12.038 -0.0237  0.3322  0.3407
  539MPD2    H7 8062   4.652   1.383  11.942 -4.2146  1.2006 -0.5958
  540TMC3    C1 8063   4.384   1.954  11.852 -1.1639  0.0591  0.5774
  540TMC3    C2 8064   4.399   1.967  11.716  0.7908  0.0091 -0.0375
  540TMC3    C3 8065   4.357   2.086  11.659  0.3706  0.5456 -0.0619
  540TMC3    C4 8066   4.349   2.063  11.929  0.0653  0.0530 -0.0845
  540TMC3    C5 8067   4.318   2.185  11.873  0.3758  0.0062 -1.0033
  540TMC3    C6 8068   4.325   2.202  11.733 -0.1064  0.2199  0.7062
  540TMC3     C 8069   4.450   1.838  11.905  0.1954  0.7358 -0.0899
  540TMC3     O 8070   4.536   1.784  11.832  0.0067  0.3297 -0.7081
  540TMC3     H 8071   4.415   1.877  11.658  0.0233 -0.4803  0.5215
  540TMC3    H1 8072   4.336   2.054  12.037 -0.9928 -1.3507 -0.3357
  540TMC3    H2 8073   4.300   2.291  11.677  1.6405  1.0087  1.1929
  540TMC3    C7 8074   4.229   2.265  11.954  0.1537 -0.4944  0.1992
  540TMC3    C8 8075   4.363   2.099  11.514  0.0660 -0.4370  0.8019
  540TMC3    O1 8076   4.151   2.211  12.033 -0.4574 -0.0687  0.5106
  540TMC3    O2 8077   4.384   2.208  11.461  0.5569 -0.0485 -0.3369
  541MPD2     C 8078   2.820   2.993  13.396  0.0769 -0.0816 -0.4927
  541MPD2    C1 8079   2.906   2.902  13.336 -0.3919  0.1238  0.1898
  541MPD2    C2 8080   2.959   2.939  13.217  0.4581  0.2183 -0.0729
  541MPD2    C3 8081   2.911   3.044  13.143  0.5307 -0.1611 -0.4347
  541MPD2    C4 8082   2.812   3.121  13.203  0.0094 -0.1890  0.5619
  541MPD2    C5 8083   2.778   3.106  13.329  0.3047 -0.1671  0.4030
  541MPD2     H 8084   3.031   2.870  13.175 -1.2024 -0.8980 -1.0260
  541MPD2    H1 8085   2.784   3.211  13.149  0.9438 -0.4474 -0.3539
  541MPD2    H2 8086   2.787   2.976  13.498  1.0341 -2.1758 -0.5456
  541MPD2    H3 8087   2.708   3.174  13.376 -2.0371 -2.2672 -0.0455
  541MPD2     N 8088   2.951   3.074  13.012  0.3593 -0.5407  0.2239
  541MPD2    H5 8089   2.905   3.148  12.960  0.2751  0.7021  2.0761
  541MPD2    N1 8090   2.952   2.776  13.393  0.1514  0.0493  0.2276
  541MPD2    H7 8091   3.005   2.710  13.335 -2.9498 -2.1651 -0.0599
  542TMC3    C1 8092   3.092   3.098  12.827  0.0959 -0.4772 -0.2714
  542TMC3    C2 8093   3.176   3.039  12.748 -0.4485  0.2166 -0.0701
  542TMC3    C3 8094   3.236   3.120  12.652 -0.4147 -0.0675 -0.2562
  542TMC3    C4 8095   3.041   3.222  12.793 -0.6948  0.4473  0.2313
  542TMC3    C5 8096   3.082   3.289  12.684  0.3311  0.3696  0.0887
  542TMC3    C6 8097   3.188   3.243  12.616  0.1103 -0.0007  0.0066
  542TMC3     C 8098   3.070   3.034  12.953 -0.1284  0.4531  0.5971
  542TMC3     O 8099   3.147   2.955  13.000  0.6164 -0.3449 -0.3202
  542TMC3     H 8100   3.230   2.947  12.769  0.2789  0.1624 -2.1993
  542TMC3    H1 8101   2.966   3.266  12.857  0.1748  0.2541  1.3753
  542TMC3    H2 8102   3.231   3.301  12.536  0.6832  0.1170  0.3978
  542TMC3    C7 8103   3.009   3.408  12.633  0.1535 -0.1853 -0.2741
  542TMC3    C8 8104   3.266   3.045  12.533 -0.4644 -0.2549  0.2483
  542TMC3    O1 8105   3.067   3.461  12.535 -0.5515 -0.1938 -0.3836
  542TMC3    O2 8106   3.183   2.957  12.508  0.5891  0.2534 -0.1092
  543TMC3    C1 8107   2.272   4.314  17.486 -0.7472  0.1054 -0.0814
  543TMC3    C2 8108   2.281   4.197  17.562  0.3332  0.0413  0.0563
  543TMC3    C3 8109   2.347   4.204  17.682  0.4963  0.1199  0.5439
  543TMC3    C4 8110   2.338   4.429  17.540 -0.5714 -0.4819 -0.7126
  543TMC3    C5 8111   2.393   4.430  17.662  0.4095 -0.0533  0.1520
  543TMC3    C6 8112   2.384   4.326  17.743 -0.5244 -0.0487  0.3794
  543TMC3     C 8113   2.284   4.295  17.343 -0.0886 -0.1579 -0.0533
  543TMC3     O 8114   2.325   4.187  17.302  0.2526  0.0198 -0.3058
  543TMC3     H 8115   2.255   4.104  17.513 -1.6460  1.1797 -1.0393
  543TMC3    H1 8116   2.346   4.523  17.488 -0.3607  1.0347  2.0662
  543TMC3    H2 8117   2.443   4.330   0.081  0.7950 -3.0336 -0.3462
  543TMC3    C7 8118   2.477   4.541  17.709 -0.4617  0.2099 -0.1334
  543TMC3    C8 8119   2.331   4.083   0.011 -0.5213 -0.7626 -0.1895
  543TMC3    O1 8120   2.507   4.539   0.074 -0.2855  0.0344  0.1025
  543TMC3    O2 8121   2.254   3.994  17.728 -0.2164  0.6930  0.3569
  544MPD2     C 8122   2.443   3.750   0.367  0.5313 -0.4007 -0.2225
  544MPD2    C1 8123   2.320   3.786   0.318  0.2009 -0.4329  0.3997
  544MPD2    C2 8124   2.313   3.893   0.236  0.2657 -0.2584 -0.5664
  544MPD2    C3 8125   2.426   3.972   0.207  0.2966  0.8119  0.6440
  544MPD2    C4 8126   2.549   3.940   0.268 -0.6889 -0.7151  0.2639
  544MPD2    C5 8127   2.554   3.826   0.345 -0.0217  0.4543 -0.0318
  544MPD2     H 8128   2.222   3.924   0.186  0.6452  2.2714  0.2710
  544MPD2    H1 8129   2.642   3.994   0.253 -1.3863  0.1933 -0.8721
  544MPD2    H2 8130   2.446   3.659   0.426  0.1735 -0.5430 -0.4241
  544MPD2    H3 8131   2.644   3.799   0.398  0.2743  0.6738 -0.4150
  544MPD2     N 8132   2.421   4.085   0.120 -0.2540  0.6444  0.1224
  544MPD2    H5 8133   2.507   4.139   0.115  1.7295 -2.5325  0.0888
  544MPD2    N1 8134   2.195   3.727   0.350 -0.4439  0.0214 -0.0046
  544MPD2    H7 8135   2.115   3.757   0.295  0.0597  2.0216  0.3494
  545TMC3    C1 8136   2.044   3.572   0.415 -0.8405  0.2399  0.0521
  545TMC3    C2 8137   1.946   3.667   0.386 -0.2795  0.0469 -0.2677
  545TMC3    C3 8138   1.829   3.628   0.316  0.0045  0.3565 -0.2416
  545TMC3    C4 8139   2.029   3.443   0.380  0.1705 -0.1243 -0.0856
  545TMC3    C5 8140   1.917   3.412   0.302  0.4561  0.2536 -0.4524
  545TMC3    C6 8141   1.816   3.497   0.272 -0.3124 -0.1521  0.3042
  545TMC3     C 8142   2.183   3.611   0.420 -0.3450  0.7317  0.4434
  545TMC3     O 8143   2.266   3.546   0.479 -0.0224  0.3626 -0.0428
  545TMC3     H 8144   1.951   3.766   0.430  0.5030 -0.4244  0.7106
  545TMC3    H1 8145   2.108   3.373   0.403  0.4991  1.3174  3.1682
  545TMC3    H2 8146   1.728   3.462   0.218 -0.5076  1.8565 -0.6726
  545TMC3    C7 8147   1.898   3.277   0.264 -0.4595 -0.1134  0.4712
  545TMC3    C8 8148   1.763   3.733   0.239 -0.0928 -0.0414  0.0285
  545TMC3    O1 8149   1.786   3.239   0.232  0.1424  0.1552  0.4309
  545TMC3    O2 8150   1.813   3.846   0.251  0.7403 -0.6887  0.4563
  546MPD2     C 8151   4.077   4.240  17.693 -0.7363 -0.0072  0.0163
  546MPD2    C1 8152   3.976   4.251  17.598 -0.4579 -0.1712  0.4050
  546MPD2    C2 8153   3.966   4.368  17.528  0.1660  0.0562 -0.0943
  546MPD2    C3 8154   4.054   4.473  17.552 -0.0235 -0.4876 -0.2927
  546MPD2    C4 8155   4.143   4.461  17.654  0.4117 -0.0109  0.2621
  546MPD2    C5 8156   4.152   4.345  17.722  0.5395  0.5837  0.1042
  546MPD2     H 8157   3.895   4.373  17.447  0.1019  0.7756  0.0053
  546MPD2    H1 8158   4.207   4.549  17.663  0.5208 -0.2395  1.7455
  546MPD2    H2 8159   4.109   4.148  17.740 -0.2279 -0.4314 -1.1572
  546MPD2    H3 8160   4.235   4.337   0.039 -0.0127  2.0954  0.9451
  546MPD2     N 8161   4.061   4.596  17.475 -0.0900  0.1240 -0.1879
  546MPD2    H5 8162   4.117   4.669  17.518  3.0142 -3.4886  1.8758
  546MPD2    N1 8163   3.893   4.148  17.584 -0.0531  0.2351 -0.6552
  546MPD2    H7 8164   3.916   4.064  17.637 -1.8039 -0.6800 -1.3355
  547TMC3    C1 8165   3.693   4.041  17.522 -0.5908 -0.1929  1.0904
  547TMC3    C2 8166   3.590   4.036  17.434  0.1738  0.5470 -0.3675
  547TMC3    C3 8167   3.485   3.951  17.469  0.4291 -0.0989  0.1815
  547TMC3    C4 8168   3.703   3.959  17.629 -0.3490 -0.3395  0.4932
  547TMC3    C5 8169   3.593   3.877  17.659 -0.1565  0.2944 -0.0428
  547TMC3    C6 8170   3.485   3.871  17.580  0.3269 -0.0957  0.0492
  547TMC3     C 8171   3.774   4.156  17.510 -0.1909 -0.0561  1.1687
  547TMC3     O 8172   3.721   4.250  17.449 -0.4644  0.4493 -0.4899
  547TMC3     H 8173   3.590   4.085  17.337  1.5882 -0.8864 -1.0977
  547TMC3    H1 8174   3.776   3.981  17.707 -2.0541 -0.2066  2.0610
  547TMC3    H2 8175   3.398   3.821  17.622  0.8947  0.1224  1.5166
  547TMC3    C7 8176   3.595   3.828   0.042 -0.7233  0.5798 -0.1328
  547TMC3    C8 8177   3.364   3.964  17.388  0.0250 -0.1769 -0.1388
  547TMC3    O1 8178   3.639   3.901   0.129 -0.4171  0.3455 -0.2236
  547TMC3    O2 8179   3.370   4.055  17.306 -0.4107  0.3741 -0.0385
  548MPD2     C 8180   3.994   4.473  13.316  0.1956 -0.4138 -0.0063
  548MPD2    C1 8181   3.903   4.417  13.218 -0.1046  0.1389 -0.0313
  548MPD2    C2 8182   3.957   4.349  13.113  0.6490  0.1897 -0.6595
  548MPD2    C3 8183   4.096   4.354  13.096  0.1888 -0.9051  0.0592
  548MPD2    C4 8184   4.187   4.416  13.179 -0.2067 -0.1328  0.9750
  548MPD2    C5 8185   4.129   4.475  13.288 -0.0022 -0.2484 -0.6342
  548MPD2     H 8186   3.889   4.285  13.057  0.4339 -0.0784 -0.0922
  548MPD2    H1 8187   4.292   4.438  13.161 -0.6907  0.9173 -0.5703
  548MPD2    H2 8188   3.959   4.545  13.389  1.6808 -0.8717  1.1622
  548MPD2    H3 8189   4.186   4.549  13.340  0.2025  0.6856 -2.1821
  548MPD2     N 8190   4.140   4.288  12.980  0.1952  0.1214 -0.0455
  548MPD2    H5 8191   4.067   4.236  12.932 -1.7255  2.1994  0.5589
  548MPD2    N1 8192   3.768   4.425  13.257 -0.0522 -0.7850  0.6723
  548MPD2    H7 8193   3.750   4.462  13.349  0.3425  1.0681  0.0219
  549TMC3    C1 8194   3.541   4.400  13.243 -0.0306 -0.8980  0.8013
  549TMC3    C2 8195   3.493   4.532  13.259 -0.3211  0.0221  0.7628
  549TMC3    C3 8196   3.356   4.535  13.225 -0.6284  1.0731  0.1477
  549TMC3    C4 8197   3.464   4.284  13.206 -0.0428  0.7216 -0.8103
  549TMC3    C5 8198   3.342   4.307  13.165 -0.8145 -0.2928 -0.2279
  549TMC3    C6 8199   3.284   4.432  13.180 -0.8283 -0.5719 -0.3496
  549TMC3     C 8200   3.666   4.402  13.169 -0.7334 -0.0567 -0.2895
  549TMC3     O 8201   3.662   4.366  13.055 -0.1969 -0.0431 -0.2839
  549TMC3     H 8202   3.561   4.615  13.252  2.1217 -1.9894  0.8238
  549TMC3    H1 8203   3.509   4.189  13.177  0.1953  1.4600 -2.8271
  549TMC3    H2 8204   3.180   4.452  13.155 -0.5921  0.6431 -0.3757
  549TMC3    C7 8205   3.242   4.198  13.182  0.3445 -0.4510 -0.0517
  549TMC3    C8 8206   3.286   4.660  13.205 -0.2025  0.6149  0.3103
  549TMC3    O1 8207   3.132   4.221  13.144  0.2044  0.0470 -0.1435
  549TMC3    O2 8208   3.196   4.670  13.120 -0.0039  0.3169 -0.0665
  550TMC3    C1 8209   1.844   2.453  13.019  0.0175 -0.0681  0.4455
  550TMC3    C2 8210   1.794   2.500  13.138 -0.4837  0.0017  0.8069
  550TMC3    C3 8211   1.669   2.566  13.136 -0.6589  0.0040 -0.0181
  550TMC3    C4 8212   1.768   2.470  12.904  0.0334 -0.1413 -1.1243
  550TMC3    C5 8213   1.641   2.518  12.913  0.2886  1.1523 -0.3294
  550TMC3    C6 8214   1.589   2.575  13.029  0.2727 -0.3523 -0.1478
  550TMC3     C 8215   1.992   2.450  13.011  0.0264  0.1745 -0.3294
  550TMC3     O 8216   2.057   2.480  13.107  0.2015  0.0587 -1.2758
  550TMC3     H 8217   1.856   2.496  13.227  1.3468  2.1799 -0.3642
  550TMC3    H1 8218   1.808   2.443  12.806 -1.0934  0.1309 -1.6625
  550TMC3    H2 8219   1.488   2.611  13.042  0.2096 -0.7285  0.3845
  550TMC3    C7 8220   1.570   2.555  12.791 -0.4181 -0.6533 -0.4335
  550TMC3    C8 8221   1.689   2.704  13.181 -0.3482 -0.0870  0.0296
  550TMC3    O1 8222   1.466   2.614  12.815  0.0389  0.2256  0.2124
  550TMC3    O2 8223   1.649   2.785  13.100  0.2451 -0.2055 -0.0406
  551TMC3    C1 8224   4.685   0.731  13.689 -0.3253 -0.3440 -0.1648
  551TMC3    C2 8225   0.047   0.759  13.600  0.4329 -0.3951 -0.4217
  551TMC3    C3 8226   0.146   0.843  13.637  0.7140  0.3585  0.1761
  551TMC3    C4 8227   4.678   0.783  13.812  0.2814  0.0455  0.7368
  551TMC3    C5 8228   0.041   0.872  13.851 -0.1536  0.0459  0.1220
  551TMC3    C6 8229   0.145   0.901  13.760 -0.0888  0.5624  0.9927
  551TMC3     C 8230   4.586   0.635  13.633 -0.0321 -0.1810  0.3814
  551TMC3     O 8231   4.594   0.616  13.510  0.5753 -0.2662 -1.2128
  551TMC3     H 8232   0.053   0.721  13.499 -2.1901 -1.1514 -0.2827
  551TMC3    H1 8233   4.588   0.773  13.871 -1.9002  0.0554 -2.6191
  551TMC3    H2 8234   0.221   0.969  13.796  0.6183 -0.2841  1.1066
  551TMC3    C7 8235   0.065   0.910  13.988  0.2698 -0.5773 -0.2732
  551TMC3    C8 8236   0.268   0.851  13.552 -0.6643 -0.2226  0.2607
  551TMC3    O1 8237   0.094   0.818  14.059 -0.8151  0.1679  0.1117
  551TMC3    O2 8238   0.307   0.751  13.493 -0.6034  0.2156 -0.4774
  552MPD2     C 8239   1.926   2.669  14.580  0.3764  0.6339  0.2996
  552MPD2    C1 8240   1.938   2.542  14.621 -0.8258  0.0685 -0.8272
  552MPD2    C2 8241   2.065   2.496  14.656  0.5535 -0.3297  0.2819
  552MPD2    C3 8242   2.177   2.569  14.632  1.0915 -0.2154 -0.1838
  552MPD2    C4 8243   2.160   2.696  14.577 -0.4457  0.3554 -0.5355
  552MPD2    C5 8244   2.038   2.753  14.567 -0.5768  0.0015 -0.3494
  552MPD2     H 8245   2.073   2.395  14.693 -0.4545 -0.7740 -0.7217
  552MPD2    H1 8246   2.242   2.766  14.568  0.1115 -0.6142 -3.1402
  552MPD2    H2 8247   1.833   2.719  14.554 -0.3265 -0.2035  1.2201
  552MPD2    H3 8248   2.022   2.854  14.531  0.6811  0.5508  0.6519
  552MPD2     N 8249   2.304   2.538  14.690 -0.6684 -0.0711  0.3024
  552MPD2    H5 8250   2.377   2.608  14.687  1.4724 -2.2968  0.3882
  552MPD2    N1 8251   1.827   2.446  14.614  0.0705 -0.1747 -0.4421
  552MPD2    H7 8252   1.852   2.356  14.653  1.3531  0.2486 -0.2905
  553TMC3    C1 8253   1.610   2.358  14.564 -0.2302 -0.0883  0.1395
  553TMC3    C2 8254   1.528   2.362  14.457 -0.6122  0.8099  0.2756
  553TMC3    C3 8255   1.467   2.254  14.404  0.6002 -0.1052  0.4032
  553TMC3    C4 8256   1.654   2.238  14.600 -0.0107  0.2496  0.2290
  553TMC3    C5 8257   1.605   2.128  14.541 -0.0295 -0.0088 -0.6436
  553TMC3    C6 8258   1.496   2.133  14.456 -0.3807  0.2367  0.1278
  553TMC3     C 8259   1.702   2.473  14.568  0.1617  0.2005  0.4688
  553TMC3     O 8260   1.662   2.576  14.513  0.0623 -0.1064  0.0893
  553TMC3     H 8261   1.535   2.454  14.399 -0.7304 -0.1644 -1.2930
  553TMC3    H1 8262   1.723   2.226  14.683  0.8420 -0.2054 -0.5463
  553TMC3    H2 8263   1.444   2.042  14.428  0.4754 -0.3846  0.5847
  553TMC3    C7 8264   1.681   2.001  14.542 -0.3173  0.9019 -0.0953
  553TMC3    C8 8265   1.477   2.253  14.260 -0.5851 -0.2715  0.3188
  553TMC3    O1 8266   1.607   1.902  14.554  0.7236  0.9741 -0.2193
  553TMC3    O2 8267   1.554   2.327  14.200  0.1799  0.2278 -0.3929
  554TMC3    C1 8268   3.785   1.740  12.010 -0.6628 -0.2123  0.4512
  554TMC3    C2 8269   3.737   1.653  11.921  0.0018 -0.5791 -0.2654
  554TMC3    C3 8270   3.729   1.689  11.790  0.2661  0.3180  0.5071
  554TMC3    C4 8271   3.839   1.857  11.965  0.9433  0.6391 -0.1282
  554TMC3    C5 8272   3.824   1.888  11.833 -0.2279  0.1980 -0.1307
  554TMC3    C6 8273   3.780   1.803  11.740  0.0792 -0.3355 -0.0286
  554TMC3     C 8274   3.826   1.695  12.141  0.0634 -0.7725  0.0932
  554TMC3     O 8275   3.926   1.745  12.192  0.0668 -0.5557  0.3018
  554TMC3     H 8276   3.717   1.548  11.940  0.6270 -0.8994 -1.3327
  554TMC3    H1 8277   3.881   1.928  12.035  1.1346  0.8354 -0.4448
  554TMC3    H2 8278   3.772   1.827  11.635 -1.4241  1.1007  0.3944
  554TMC3    C7 8279   3.891   2.014  11.781 -0.1574 -0.5558  0.9253
  554TMC3    C8 8280   3.639   1.627  11.691  0.0457  0.1293 -0.5910
  554TMC3    O1 8281   3.895   2.098  11.871 -0.0013  0.2087  0.4804
  554TMC3    O2 8282   3.681   1.609  11.579 -0.4002  0.1895 -0.5356
  555TMC3    C1 8283   2.787   1.303  15.466 -0.3164 -0.7870 -0.0378
  555TMC3    C2 8284   2.912   1.326  15.510 -0.3230  0.1297 -0.5033
  555TMC3    C3 8285   2.979   1.227  15.578 -0.1762 -0.7799 -0.4911
  555TMC3    C4 8286   2.721   1.183  15.488  0.7855 -0.2968  0.6083
  555TMC3    C5 8287   2.793   1.087  15.565 -0.1869 -0.3818  0.0346
  555TMC3    C6 8288   2.921   1.104  15.616  0.8781 -0.2844  0.2080
  555TMC3     C 8289   2.701   1.406  15.400 -0.0282 -0.1947 -0.8208
  555TMC3     O 8290   2.594   1.356  15.369  0.2626 -0.3554 -0.5695
  555TMC3     H 8291   2.951   1.427  15.499 -2.0497  0.7689 -0.8019
  555TMC3    H1 8292   2.623   1.157  15.449  0.5560  0.6274  0.5700
  555TMC3    H2 8293   2.978   1.032  15.672 -0.3428  0.9081  3.0132
  555TMC3    C7 8294   2.721   0.982  15.621 -0.0036 -0.8170 -0.5178
  555TMC3    C8 8295   3.105   1.261  15.630 -0.4269 -0.1826 -0.8402
  555TMC3    O1 8296   2.766   0.870  15.615  0.2361  0.1701 -0.1390
  555TMC3    O2 8297   3.163   1.360  15.583 -0.2241 -0.1177  0.2389
  556MPD2     C 8298   0.547   3.118  10.788 -0.0995 -0.4934 -0.4087
  556MPD2    C1 8299   0.620   3.023  10.861  0.2425 -0.3334 -0.3587
  556MPD2    C2 8300   0.665   2.917  10.785 -0.1946 -0.4690 -0.2691
  556MPD2    C3 8301   0.633   2.901  10.648  0.3991 -0.5441  0.0684
  556MPD2    C4 8302   0.567   3.000  10.582  0.2661  0.4726 -0.2517
  556MPD2    C5 8303   0.519   3.098  10.657 -0.4923 -0.7392 -0.4601
  556MPD2     H 8304   0.718   2.831  10.825 -0.4719  0.1847  1.4627
  556MPD2    H1 8305   0.533   3.004  10.479  0.9675 -0.3727 -0.5077
  556MPD2    H2 8306   0.498   3.204  10.833  1.4770  0.3692 -0.3664
  556MPD2    H3 8307   0.450   3.163  10.605  2.3836  0.2180 -3.0426
  556MPD2     N 8308   0.677   2.785  10.581  0.4827 -0.0127  0.0557
  556MPD2    H5 8309   0.717   2.707  10.633  1.4715 -0.3014 -1.1404
  556MPD2    N1 8310   0.649   3.037  10.999  0.3900  0.3448 -0.4961
  556MPD2    H7 8311   0.715   2.974  11.044 -2.0303 -0.7795  1.5028
  557TMC3    C1 8312   0.694   2.617  10.413  0.2260  0.3516  1.1091
  557TMC3    C2 8313   0.679   2.577  10.277 -0.0063 -0.6468 -0.3255
  557TMC3    C3 8314   0.705   2.446  10.243  0.2604 -0.0596  0.3028
  557TMC3    C4 8315   0.737   2.531  10.514  0.3863  0.1325  0.2974
  557TMC3    C5 8316   0.751   2.400  10.475 -0.8227 -0.1057  0.1626
  557TMC3    C6 8317   0.741   2.357  10.342  0.0251 -0.9132 -0.2032
  557TMC3     C 8318   0.657   2.753  10.450  0.1108  0.0557  0.0701
  557TMC3     O 8319   0.621   2.819  10.351 -0.4615  0.0418  0.3880
  557TMC3     H 8320   0.652   2.655  10.206  1.5729  1.0356  0.9428
  557TMC3    H1 8321   0.763   2.565  10.614  1.8121  1.0386 -0.3940
  557TMC3    H2 8322   0.769   2.257  10.308  1.3242  0.0186 -1.8834
  557TMC3    C7 8323   0.751   2.310  10.593 -0.1930  0.2137  0.0720
  557TMC3    C8 8324   0.688   2.403  10.105 -1.1495 -0.3505  0.2828
  557TMC3    O1 8325   0.759   2.364  10.703  0.1276  0.4274 -0.4171
  557TMC3    O2 8326   0.672   2.499  10.035 -0.2449  0.3968 -0.5050
  558TMC3    C1 8327   3.197   0.798  11.163  0.0245  0.9737 -0.4316
  558TMC3    C2 8328   3.110   0.775  11.258  0.1192 -0.2410  0.4081
  558TMC3    C3 8329   2.978   0.808  11.231  0.1452  0.4488  0.1520
  558TMC3    C4 8330   3.164   0.856  11.047  0.0474 -0.1116 -1.0163
  558TMC3    C5 8331   3.031   0.888  11.033  0.1891 -0.0180 -0.9921
  558TMC3    C6 8332   2.928   0.863  11.119 -0.0839  0.5059 -0.2377
  558TMC3     C 8333   3.334   0.758  11.175  0.1749  0.1751  0.4022
  558TMC3     O 8334   3.422   0.809  11.110 -0.1816  0.0650  0.5191
  558TMC3     H 8335   3.133   0.739  11.358  1.1698 -1.0180 -0.1182
  558TMC3    H1 8336   3.228   0.869  10.960 -2.0897  0.6831 -2.4849
  558TMC3    H2 8337   2.832   0.913  11.119 -1.3595 -1.9463  1.7635
  558TMC3    C7 8338   2.985   0.914  10.900 -0.2541 -0.8136 -0.1360
  558TMC3    C8 8339   2.871   0.745  11.309 -0.2531  0.0556  0.2296
  558TMC3    O1 8340   3.033   1.009  10.845 -0.0590  0.0796 -0.5018
  558TMC3    O2 8341   2.759   0.792  11.305 -0.1236 -0.5184  0.3137
  559MPD2     C 8342   3.163   1.221  11.064 -0.3268 -0.0899 -0.2074
  559MPD2    C1 8343   3.126   1.199  11.190 -0.7363  0.7882 -0.1474
  559MPD2    C2 8344   3.215   1.149  11.282 -0.3714  0.1181 -0.3034
  559MPD2    C3 8345   3.340   1.125  11.245 -0.1370 -0.2858 -0.2582
  559MPD2    C4 8346   3.382   1.155  11.114 -0.1284 -0.2555  0.1941
  559MPD2    C5 8347   3.295   1.205  11.025  0.6082  0.0810  0.8303
  559MPD2     H 8348   3.199   1.127  11.387  0.7742 -0.7093 -0.3028
  559MPD2    H1 8349   3.483   1.144  11.075 -1.2759 -2.1108 -2.2908
  559MPD2    H2 8350   3.092   1.254  10.990 -0.3767 -0.5350 -0.3599
  559MPD2    H3 8351   3.323   1.247  10.929 -3.0150  0.8769  0.1130
  559MPD2     N 8352   3.432   1.080  11.350 -0.0731  0.8104 -0.5745
  559MPD2    H5 8353   3.389   1.062  11.440 -2.5508  1.4613 -1.6137
  559MPD2    N1 8354   2.995   1.233  11.217 -0.6973 -0.7735  0.0785
  559MPD2    H7 8355   2.952   1.288  11.143 -0.6559  0.4422  0.9481
  560TMC3    C1 8356   3.616   0.987  11.459 -0.8298  0.1212 -0.3310
  560TMC3    C2 8357   3.548   0.886  11.510  0.6362 -0.6137  0.5921
  560TMC3    C3 8358   3.623   0.804  11.599  0.5338  0.0585  0.1325
  560TMC3    C4 8359   3.745   1.019  11.493  0.9500 -0.0923 -0.3393
  560TMC3    C5 8360   3.809   0.941  11.581 -0.7122 -0.0748 -0.8240
  560TMC3    C6 8361   3.750   0.837  11.646  0.5094 -0.1043  0.2267
  560TMC3     C 8362   3.560   1.037  11.329  1.0094  0.5167  0.6975
  560TMC3     O 8363   3.646   1.090  11.257 -0.2390  0.3325 -0.6291
  560TMC3     H 8364   3.453   0.859  11.465  0.9905  0.9614 -1.0970
  560TMC3    H1 8365   3.790   1.105  11.445 -2.2870  2.4539  1.1939
  560TMC3    H2 8366   3.807   0.770  11.708 -0.1642  1.7525  2.8791
  560TMC3    C7 8367   3.919   0.993  11.657 -0.7030 -0.6735 -0.3147
  560TMC3    C8 8368   3.574   0.669  11.616 -0.0818  0.7815 -0.7716
  560TMC3    O1 8369   3.935   0.936  11.766  0.6038  0.1307  0.1682
  560TMC3    O2 8370   3.449   0.661  11.618  0.0441  0.2005  0.2996
  561TMC3    C1 8371   1.420   0.329  11.859  0.1486  0.2407  0.1539
  561TMC3    C2 8372   1.400   0.246  11.963 -0.3944 -0.3963 -0.2948
  561TMC3    C3 8373   1.349   0.295  12.082 -0.0557  0.1759 -0.3134
  561TMC3    C4 8374   1.390   0.461  11.861  0.2166  0.3223  0.5349
  561TMC3    C5 8375   1.345   0.515  11.981 -0.4025 -0.2067 -0.7243
  561TMC3    C6 8376   1.332   0.429  12.090 -0.1622 -0.0622 -0.6457
  561TMC3     C 8377   1.486   0.276  11.745  0.6319 -0.4411  0.1314
  561TMC3     O 8378   1.437   0.174  11.699  0.4489  0.1452 -0.3246
  561TMC3     H 8379   1.417   0.139  11.952 -0.5893 -0.3164 -1.3499
  561TMC3    H1 8380   1.392   0.515  11.766 -0.6835  0.2642  0.4834
  561TMC3    H2 8381   1.287   0.467  12.181  2.7796 -2.0073  1.6467
  561TMC3    C7 8382   1.301   0.652  11.995 -0.4353 -0.0660  0.1481
  561TMC3    C8 8383   1.318   0.202  12.188  0.3311  0.1865 -0.4327
  561TMC3    O1 8384   1.231   0.676  12.095  0.3230 -0.2061 -0.3762
  561TMC3    O2 8385   1.388   0.102  12.195 -0.1081 -0.2080  0.0349
  562TMC3    C1 8386   2.340   1.575  16.867  0.6302  0.4831 -0.1048
  562TMC3    C2 8387   2.326   1.710  16.838  0.6883  0.1806 -0.2009
  562TMC3    C3 8388   2.341   1.758  16.709  0.5045 -0.1761 -0.6660
  562TMC3    C4 8389   2.388   1.489  16.768  0.5239  0.6303  1.0245
  562TMC3    C5 8390   2.418   1.549  16.645  0.4688 -0.2276  0.2711
  562TMC3    C6 8391   2.395   1.683  16.611 -0.2172 -0.0765 -0.5608
  562TMC3     C 8392   2.287   1.530  16.992  0.5805 -0.3191 -0.6619
  562TMC3     O 8393   2.220   1.605  17.057 -0.1701  0.0931 -0.3183
  562TMC3     H 8394   2.299   1.782  16.914  0.0724  1.0104 -1.1965
  562TMC3    H1 8395   2.391   1.381  16.783  1.2556  0.8990  2.8889
  562TMC3    H2 8396   2.396   1.714  16.507  0.3874  3.1565  0.4311
  562TMC3    C7 8397   2.494   1.476  16.552  0.3934  0.7467 -0.6221
  562TMC3    C8 8398   2.341   1.899  16.691 -0.4704 -0.3404 -0.3294
  562TMC3    O1 8399   2.477   1.503  16.433  0.0642 -0.5293  0.1133
  562TMC3    O2 8400   2.289   1.966  16.775 -0.3150 -0.2564 -0.0421
  563MPD2     C 8401   0.289   3.207  15.793  0.0838 -0.1759 -0.2361
  563MPD2    C1 8402   0.338   3.206  15.925 -0.0584 -0.9099  0.1057
  563MPD2    C2 8403   0.402   3.087  15.962  0.0061 -0.2442  0.2006
  563MPD2    C3 8404   0.419   2.983  15.874 -0.0184 -0.1217 -0.5956
  563MPD2    C4 8405   0.353   2.983  15.756 -0.2089 -0.0361 -0.0904
  563MPD2    C5 8406   0.291   3.094  15.715 -0.3954 -0.2388 -0.2502
  563MPD2     H 8407   0.437   3.073  16.064  1.3292 -0.6799 -0.3117
  563MPD2    H1 8408   0.371   2.909  15.679  1.2243  0.6931 -0.4571
  563MPD2    H2 8409   0.256   3.301  15.750  0.7278 -0.4615 -1.3405
  563MPD2    H3 8410   0.265   3.104  15.610 -0.0319 -0.1131 -0.3284
  563MPD2     N 8411   0.493   2.873  15.920 -0.2870  0.0040 -0.6253
  563MPD2    H5 8412   0.530   2.891  16.012  1.6032  0.6648 -1.5219
  563MPD2    N1 8413   0.324   3.324  16.002  0.0366  0.0642 -0.1017
  563MPD2    H7 8414   0.259   3.394  15.967 -0.1905 -0.9313 -1.6836
  564TMC3    C1 8415   0.298   3.411  16.228  0.6958  0.0669  0.6195
  564TMC3    C2 8416   0.165   3.424  16.187  0.3048 -0.0583 -0.5573
  564TMC3    C3 8417   0.070   3.387  16.278 -0.6710  0.5196 -0.6023
  564TMC3    C4 8418   0.334   3.381  16.361  0.0279  0.3904 -0.3404
  564TMC3    C5 8419   0.234   3.353  16.450 -0.8504  0.5544 -0.2877
  564TMC3    C6 8420   0.106   3.366  16.414 -0.3109 -0.4648  0.1750
  564TMC3     C 8421   0.376   3.333  16.133 -0.7999 -0.2273  0.0552
  564TMC3     O 8422   0.480   3.278  16.170  0.4793 -0.6369  0.4026
  564TMC3     H 8423   0.130   3.462  16.092  0.5364  1.2109 -0.1432
  564TMC3    H1 8424   0.436   3.355  16.383  0.6756  2.2306 -1.1677
  564TMC3    H2 8425   0.038   3.320  16.485  0.0536 -3.0582 -1.1496
  564TMC3    C7 8426   0.258   3.225  16.493  0.1398  0.6999  0.0375
  564TMC3    C8 8427   4.703   3.294  16.228  0.1691  0.4268  0.8689
  564TMC3    O1 8428   0.311   3.198  16.603  0.1999  0.6405 -0.3913
  564TMC3    O2 8429   4.649   3.228  16.312  0.0350 -0.4918 -0.4009
  565TMC3    C1 8430   1.066   1.066   9.781 -0.3796  0.1884  0.1636
  565TMC3    C2 8431   1.163   0.971   9.804  0.2828 -0.3815  0.1126
  565TMC3    C3 8432   1.127   0.848   9.856 -0.3147 -0.0039 -1.3345
  565TMC3    C4 8433   0.934   1.032   9.801 -0.2950 -0.1097 -0.5086
  565TMC3    C5 8434   0.899   0.910   9.866  0.5653  0.4407 -1.2237
  565TMC3    C6 8435   0.995   0.814   9.883  0.1988 -0.4226 -0.0584
  565TMC3     C 8436   1.097   1.186   9.712  0.1499  0.1139 -0.1054
  565TMC3     O 8437   1.008   1.262   9.673 -0.5235  0.2741  0.3322
  565TMC3     H 8438   1.248   0.977   9.737 -0.6272 -0.0405 -1.0126
  565TMC3    H1 8439   0.857   1.106   9.783 -0.7730 -0.4521  0.1236
  565TMC3    H2 8440   0.980   0.715   9.923  0.5088 -0.3037  0.3466
  565TMC3    C7 8441   0.766   0.863   9.860 -0.2740 -0.7224  0.8190
  565TMC3    C8 8442   1.224   0.749   9.889  0.8144 -0.1997  0.4678
  565TMC3    O1 8443   0.701   0.907   9.763  0.1088 -0.0301  0.2500
  565TMC3    O2 8444   1.189   0.635   9.929 -0.0486 -0.5593 -0.1688
  566MPD2     C 8445   1.639   1.045  14.351 -0.1898 -0.1716 -0.7525
  566MPD2    C1 8446   1.778   1.041  14.364 -0.0308  0.4269 -0.2285
  566MPD2    C2 8447   1.848   0.958  14.287 -0.0797 -0.8238  0.6659
  566MPD2    C3 8448   1.793   0.906  14.175  0.2046  0.1252  0.0481
  566MPD2    C4 8449   1.658   0.919  14.153  0.0275  0.3546 -0.0796
  566MPD2    C5 8450   1.577   0.978  14.245  0.1045 -0.0094 -0.3518
  566MPD2     H 8451   1.955   0.943  14.300 -0.1503 -1.7192  0.2058
  566MPD2    H1 8452   1.616   0.867  14.067  1.3998 -0.9632  0.0476
  566MPD2    H2 8453   1.576   1.100  14.421  0.1396  0.7997 -1.2113
  566MPD2    H3 8454   1.469   0.976  14.234  0.5057  0.7980 -4.3289
  566MPD2     N 8455   1.872   0.842  14.080 -0.3394  0.0295  0.3195
  566MPD2    H5 8456   1.828   0.823  13.991 -1.6467 -1.0010  1.1970
  566MPD2    N1 8457   1.835   1.113  14.461 -0.4358 -0.2308  0.0652
  566MPD2    H7 8458   1.779   1.188  14.501  1.9972  1.2226  0.7796
  567TMC3    C1 8459   2.035   1.239  14.462 -0.5649 -0.3477 -0.9321
  567TMC3    C2 8460   2.032   1.281  14.334  0.0501  0.8264 -0.0009
  567TMC3    C3 8461   2.134   1.365  14.291 -0.6236 -0.0390  0.4367
  567TMC3    C4 8462   2.142   1.268  14.543  0.2737  1.3563 -0.0175
  567TMC3    C5 8463   2.245   1.345  14.489 -0.4992 -0.3600 -0.1575
  567TMC3    C6 8464   2.240   1.401  14.365  0.6410 -0.2450  0.4444
  567TMC3     C 8465   1.970   1.114  14.491 -0.5212 -0.3151  0.0956
  567TMC3     O 8466   2.041   1.014  14.509 -0.3444 -0.5318 -0.0057
  567TMC3     H 8467   1.960   1.242  14.263  0.9827  0.4196 -0.7122
  567TMC3    H1 8468   2.143   1.231  14.645 -0.5740 -1.1606 -0.9172
  567TMC3    H2 8469   2.315   1.469  14.325 -0.5543  1.7517  1.6055
  567TMC3    C7 8470   2.370   1.365  14.567 -0.5991  0.3199 -0.0738
  567TMC3    C8 8471   2.098   1.443  14.168  0.3470  0.1262  0.0755
  567TMC3    O1 8472   2.456   1.436  14.517  0.1194 -0.1494  0.1014
  567TMC3    O2 8473   1.980   1.422  14.138  0.1087 -0.0141  0.4273
  568MPD2     C 8474   4.505   1.773  16.547 -0.3014 -0.3683 -0.5227
  568MPD2    C1 8475   4.613   1.825  16.608 -0.8383 -0.1961 -0.2488
  568MPD2    C2 8476   4.657   1.954  16.579  0.0379 -0.4437 -0.3169
  568MPD2    C3 8477   4.589   2.028  16.483 -0.5875  0.6229 -0.2693
  568MPD2    C4 8478   4.469   1.981  16.428  0.4433  0.0911 -0.4606
  568MPD2    C5 8479   4.434   1.851  16.459  1.1788  0.2548  0.5305
  568MPD2     H 8480   0.012   1.992  16.618 -0.6700  0.7841  0.1959
  568MPD2    H1 8481   4.416   2.030  16.346 -1.0513 -0.1680  0.3508
  568MPD2    H2 8482   4.464   1.676  16.574 -2.8072  0.8532 -0.0055
  568MPD2    H3 8483   4.344   1.814  16.411  1.1701  1.0668 -0.0823
  568MPD2     N 8484   4.631   2.162  16.453  0.6393 -0.2487  0.2091
  568MPD2    H5 8485   4.703   2.211  16.506  1.5133  0.3451 -1.5365
  568MPD2    N1 8486   4.675   1.740  16.704  0.4394  0.1696 -0.0316
  568MPD2    H7 8487   4.624   1.657  16.734 -0.3513  1.9414  3.5374
  569TMC3    C1 8488   4.630   2.376  16.354  0.0824 -0.3969  0.2531
  569TMC3    C2 8489   4.638   2.450  16.474 -0.3507 -0.1975 -0.6583
  569TMC3    C3 8490   4.666   2.580  16.462 -0.3644  0.1651  0.5345
  569TMC3    C4 8491   4.619   2.447  16.234  0.2705 -0.2029  0.1135
  569TMC3    C5 8492   4.649   2.579  16.225  0.6001  0.6734 -1.1702
  569TMC3    C6 8493   4.677   2.643  16.345  0.1438 -0.5597  0.2291
  569TMC3     C 8494   4.577   2.244  16.356 -0.4213 -0.4852 -0.2971
  569TMC3     O 8495   4.489   2.223  16.273  0.5409  0.0312 -0.1326
  569TMC3     H 8496   4.623   2.416  16.576  0.1767  2.8358  0.4190
  569TMC3    H1 8497   4.604   2.394  16.140 -0.4202 -0.7714  0.5534
  569TMC3    H2 8498   4.709   2.747  16.344 -0.7553 -0.2939 -0.7249
  569TMC3    C7 8499   4.652   2.648  16.101 -0.0624  0.0850  0.5834
  569TMC3    C8 8500   4.683   2.670  16.569 -0.1443  0.1519 -0.8851
  569TMC3    O1 8501   4.656   2.583  15.997 -0.4718 -0.1642  0.4938
  569TMC3    O2 8502   0.036   2.650  16.647 -0.3432 -0.0337  0.3803
  570TMC3    C1 8503   3.941   0.348  16.599 -0.2513  0.2387 -0.9096
  570TMC3    C2 8504   4.012   0.307  16.485 -0.0446  0.0645  0.9709
  570TMC3    C3 8505   4.025   0.401  16.388 -0.2598  0.0636 -0.1121
  570TMC3    C4 8506   3.905   0.477  16.624  0.1511 -0.4961  0.1979
  570TMC3    C5 8507   3.935   0.571  16.523 -0.1408  0.4272  0.2382
  570TMC3    C6 8508   3.986   0.533  16.401  0.0460 -0.6879  0.1731
  570TMC3     C 8509   3.893   0.241  16.686  0.5000 -0.0763 -0.3963
  570TMC3     O 8510   3.879   0.129  16.634  0.6637 -1.0788  0.1051
  570TMC3     H 8511   4.026   0.201  16.470 -0.6497  0.1271  0.0028
  570TMC3    H1 8512   3.840   0.502  16.707  0.0115 -0.0167 -0.0557
  570TMC3    H2 8513   4.021   0.608  16.331 -0.8641 -0.6096 -0.1987
  570TMC3    C7 8514   3.903   0.706  16.559  0.2900 -0.1584 -0.2449
  570TMC3    C8 8515   4.126   0.387  16.284  0.1757 -0.9889  0.4651
  570TMC3    O1 8516   3.839   0.733  16.662  0.0614 -0.0699 -0.2796
  570TMC3    O2 8517   4.189   0.487  16.260 -0.6061  0.0781  0.2465
  571MPD2     C 8518   1.494   2.599   0.065  0.4113  0.5480  0.2067
  571MPD2    C1 8519   1.606   2.545   0.117 -0.4038 -0.8298  0.1914
  571MPD2    C2 8520   1.669   2.611   0.221 -0.4690  0.3139  0.1991
  571MPD2    C3 8521   1.605   2.727   0.278 -0.1951  0.2096  0.0693
  571MPD2    C4 8522   1.492   2.766   0.218  0.1014 -0.2538 -0.4960
  571MPD2    C5 8523   1.430   2.711   0.113 -0.4420  0.0609 -0.5042
  571MPD2     H 8524   1.754   2.564   0.267 -0.2225  1.1239  0.5800
  571MPD2    H1 8525   1.431   2.847   0.255 -0.8135 -1.1438 -0.0952
  571MPD2    H2 8526   1.439   2.547  17.739 -3.0981  2.1071  1.5963
  571MPD2    H3 8527   1.333   2.749   0.083  0.0294 -0.9285 -3.2737
  571MPD2     N 8528   1.662   2.799   0.385 -0.5652  0.0883 -0.0795
  571MPD2    H5 8529   1.745   2.765   0.433  0.3278 -0.5021 -2.0160
  571MPD2    N1 8530   1.651   2.424   0.063 -0.2917 -0.0091 -0.1088
  571MPD2    H7 8531   1.609   2.400  17.727 -1.5776 -0.0349  0.4949
  572TMC3    C1 8532   1.717   3.004   0.508  1.0215  0.2012  1.0665
  572TMC3    C2 8533   1.843   2.943   0.518 -0.8502 -0.2291 -0.2448
  572TMC3    C3 8534   1.942   3.025   0.567  0.2300 -0.5691  0.3042
  572TMC3    C4 8535   1.689   3.123   0.563  0.3095  0.2427  0.3586
  572TMC3    C5 8536   1.790   3.192   0.622  0.0456  0.3989 -0.0111
  572TMC3    C6 8537   1.918   3.148   0.623  0.0225  0.0535  0.2093
  572TMC3     C 8538   1.626   2.928   0.418  0.4509 -0.1513  0.1684
  572TMC3     O 8539   1.549   3.002   0.361 -0.4011 -0.3605  0.0314
  572TMC3     H 8540   1.877   2.864   0.452 -0.6221  0.1068 -0.5363
  572TMC3    H1 8541   1.590   3.165   0.550  0.5332  1.0350  1.2751
  572TMC3    H2 8542   1.994   3.210   0.670  0.7172 -0.6069 -0.0522
  572TMC3    C7 8543   1.765   3.337   0.645  0.0828  0.3637  0.2388
  572TMC3    C8 8544   2.079   2.990   0.542  0.4141 -0.3416  0.3205
  572TMC3    O1 8545   1.653   3.375   0.627 -0.3049 -0.2735  0.6470
  572TMC3    O2 8546   2.156   3.084   0.557 -0.0868 -0.0788 -0.1751
  573MPD2     C 8547   3.268   3.036   0.441 -0.0365 -0.2143  0.4896
  573MPD2    C1 8548   3.158   3.013   0.516  0.1455  0.1605  0.1367
  573MPD2    C2 8549   3.037   2.975   0.452 -0.0374 -0.2841 -0.1888
  573MPD2    C3 8550   3.033   2.961   0.314  0.5687  0.3974 -0.6999
  573MPD2    C4 8551   3.149   2.987   0.233 -0.8258 -0.0413  0.3269
  573MPD2    C5 8552   3.259   3.025   0.299 -0.4970  0.0653 -0.0640
  573MPD2     H 8553   2.956   2.940   0.515  0.9849 -2.6183 -0.1612
  573MPD2    H1 8554   3.143   2.983   0.125  2.6364  1.0394  0.0796
  573MPD2    H2 8555   3.366   3.067   0.475 -0.5168  2.1082 -0.2384
  573MPD2    H3 8556   3.347   3.064   0.249 -1.5834  0.8047 -1.3949
  573MPD2     N 8557   2.915   2.923   0.241  0.6234  0.0914 -0.4243
  573MPD2    H5 8558   2.923   2.922   0.140 -0.6486 -1.9561 -0.4989
  573MPD2    N1 8559   3.172   3.025   0.654 -1.2170  0.5453 -0.0126
  573MPD2    H7 8560   3.254   3.077   0.683  0.1402 -0.7361 -1.5054
  574TMC3    C1 8561   2.712   2.827   0.203  0.5723  0.5360 -0.3280
  574TMC3    C2 8562   2.583   2.808   0.240 -0.8800 -0.3174  0.4277
  574TMC3    C3 8563   2.514   2.719   0.172  0.0329 -0.2664  0.2887
  574TMC3    C4 8564   2.772   2.749   0.112  0.5435 -0.2783 -0.0702
  574TMC3    C5 8565   2.699   2.647   0.059  0.0106  0.1550 -0.1270
  574TMC3    C6 8566   2.565   2.633   0.085  0.9571 -0.1652  0.4541
  574TMC3     C 8567   2.795   2.884   0.298  0.1929  0.2409  0.1870
  574TMC3     O 8568   2.750   2.911   0.409  0.2555  0.0476 -0.1864
  574TMC3     H 8569   2.535   2.867   0.317 -1.0606  1.7609 -1.2667
  574TMC3    H1 8570   2.880   2.747   0.104  0.6333 -0.0528  1.1004
  574TMC3    H2 8571   2.498   2.567   0.031  0.3138  1.6419 -0.9211
  574TMC3    C7 8572   2.740   2.589  17.687  0.7107  0.2628 -0.4774
  574TMC3    C8 8573   2.373   2.728   0.170 -0.0487 -0.3616 -0.6301
  574TMC3    O1 8574   2.721   2.471  17.678 -0.5143  0.5408 -0.2743
  574TMC3    O2 8575   2.316   2.627   0.149  0.3684  0.2335  0.6611
  575TMC3    C1 8576   1.696   4.723   9.869 -0.0266  0.0182  0.0212
  575TMC3    C2 8577   1.608   4.633   9.914  0.2735 -0.8950 -0.0470
  575TMC3    C3 8578   1.485   4.679   9.955  0.0009  0.6349  0.0339
  575TMC3    C4 8579   1.675   0.119   9.861  0.2769  0.6349 -0.7989
  575TMC3    C5 8580   1.547   0.162   9.896 -0.0772  1.1124  0.1361
  575TMC3    C6 8581   1.450   0.073   9.937 -0.7437  0.0635  0.4114
  575TMC3     C 8582   1.820   4.660   9.812 -0.6542 -0.2669  0.8074
  575TMC3     O 8583   1.824   4.537   9.794 -0.2232 -0.3079 -0.0749
  575TMC3     H 8584   1.639   4.529   9.908  1.0250 -0.5486 -2.1331
  575TMC3    H1 8585   1.753   0.191   9.840 -0.8632  1.7956 -1.0153
  575TMC3    H2 8586   1.350   0.109   9.958 -1.1606 -1.4127  1.0190
  575TMC3    C7 8587   1.511   0.297   9.896 -0.0265  0.5066 -0.2370
  575TMC3    C8 8588   1.377   4.585   9.981 -0.2576  0.3785 -0.1605
  575TMC3    O1 8589   1.392   0.317   9.912  0.6940 -0.8575  0.1950
  575TMC3    O2 8590   1.267   4.634  10.011 -0.5041  0.0700  0.1061
  576MPD2     C 8591   0.189   0.501  13.099  0.2504  0.1735 -0.2555
  576MPD2    C1 8592   0.261   0.585  13.015 -0.3494 -0.2462  0.0918
  576MPD2    C2 8593   0.257   0.722  13.033  0.1647  0.8469  0.2270
  576MPD2    C3 8594   0.187   0.783  13.128 -0.1139 -0.2640 -0.7772
  576MPD2    C4 8595   0.113   0.703  13.217  0.4870  0.4716  0.2087
  576MPD2    C5 8596   0.115   0.567  13.199  0.8023 -0.2181  0.0167
  576MPD2     H 8597   0.314   0.781  12.962  1.5720  0.0720  0.7205
  576MPD2    H1 8598   0.052   0.738  13.299  1.7735 -0.8100  1.7199
  576MPD2    H2 8599   0.186   0.394  13.086 -2.7353  0.0631  1.4183
  576MPD2    H3 8600   0.048   0.511  13.264  0.0553  1.0907  0.3730
  576MPD2     N 8601   0.193   0.922  13.142 -0.1749 -0.0441  0.7605
  576MPD2    H5 8602   0.247   0.965  13.067 -0.8207 -0.4800  0.0496
  576MPD2    N1 8603   0.331   0.536  12.903 -0.9465  0.8909 -0.2369
  576MPD2    H7 8604   0.353   0.604  12.830  1.7145  0.0021 -0.2403
  577TMC3    C1 8605   0.466   0.412  12.771 -0.1694  0.4906 -0.1506
  577TMC3    C2 8606   0.571   0.326  12.775  0.2605  0.8892  0.6118
  577TMC3    C3 8607   0.643   0.322  12.654 -0.0676 -1.0000 -0.6314
  577TMC3    C4 8608   0.429   0.484  12.659  0.6936  0.3528 -0.1067
  577TMC3    C5 8609   0.501   0.471  12.544 -0.4070 -0.3962 -0.1698
  577TMC3    C6 8610   0.612   0.389  12.535  0.2095  0.0061 -0.2282
  577TMC3     C 8611   0.383   0.413  12.888  0.8360 -0.2842 -0.3352
  577TMC3     O 8612   0.398   0.324  12.971 -0.1493  0.6196 -0.5759
  577TMC3     H 8613   0.606   0.282  12.868 -0.0754  0.0544  0.3423
  577TMC3    H1 8614   0.366   0.573  12.665  1.3172  0.8615 -1.0308
  577TMC3    H2 8615   0.650   0.349  12.441 -0.7415  2.7014 -1.7795
  577TMC3    C7 8616   0.475   0.562  12.428  0.2725  0.1547 -0.4211
  577TMC3    C8 8617   0.763   0.238  12.661  0.4867 -0.3008  0.3338
  577TMC3    O1 8618   0.369   0.617  12.430 -0.6250 -0.3703 -0.3010
  577TMC3    O2 8619   0.769   0.158  12.752 -0.3169  0.2495  0.1329
  578MPD2     C 8620   3.745   0.581   1.404  0.2659 -0.3204  0.5056
  578MPD2    C1 8621   3.799   0.502   1.304  0.3240  0.9139 -0.0048
  578MPD2    C2 8622   3.919   0.434   1.324  0.8093  0.0403 -0.4222
  578MPD2    C3 8623   3.983   0.449   1.447  0.7730  0.5719  0.5163
  578MPD2    C4 8624   3.923   0.518   1.548  0.2472 -0.6170 -0.4625
  578MPD2    C5 8625   3.809   0.593   1.520  0.2039  0.1490 -0.7515
  578MPD2     H 8626   3.965   0.370   1.250  1.5570  1.2000 -0.9549
  578MPD2    H1 8627   3.960   0.519   1.650  2.4544 -0.6327 -1.2566
  578MPD2    H2 8628   3.654   0.638   1.391  1.4351  1.1466 -1.2647
  578MPD2    H3 8629   3.762   0.645   1.603 -0.9056 -1.8127 -0.1583
  578MPD2     N 8630   4.097   0.373   1.468 -0.1865 -0.1769 -0.0042
  578MPD2    H5 8631   4.141   0.345   1.381  1.7474 -0.1519  0.9681
  578MPD2    N1 8632   3.725   0.495   1.180  0.0566  0.1836  0.2779
  578MPD2    H7 8633   3.647   0.556   1.158  0.3834  0.4238 -0.2004
  579TMC3    C1 8634   4.284   0.273   1.555  0.0131  0.8231 -0.0790
  579TMC3    C2 8635   4.387   0.308   1.639  0.1772  0.2625 -0.0993
  579TMC3    C3 8636   4.514   0.257   1.603 -0.1848 -0.4897 -0.5735
  579TMC3    C4 8637   4.291   0.196   1.442  0.1346  0.4563 -0.5259
  579TMC3    C5 8638   4.420   0.165   1.407  0.1453 -0.4883  0.0134
  579TMC3    C6 8639   4.531   0.195   1.480  0.0982  0.3687  0.2975
  579TMC3     C 8640   4.164   0.353   1.586  0.3040  0.2907 -0.5081
  579TMC3     O 8641   4.140   0.374   1.704 -0.3099 -0.1949 -0.7491
  579TMC3     H 8642   4.365   0.362   1.730 -0.5370 -1.7291  0.9288
  579TMC3    H1 8643   4.217   0.182   1.365 -0.0394  0.0357 -0.2859
  579TMC3    H2 8644   4.622   0.141   1.458  0.1788 -0.0084  1.5474
  579TMC3    C7 8645   4.455   0.117   1.269  0.5066  0.1795  0.5484
  579TMC3    C8 8646   4.639   0.318   1.651 -0.1156 -0.3082  0.5698
  579TMC3    O1 8647   4.574   0.131   1.240  0.4650 -0.3767 -0.0081
  579TMC3    O2 8648   4.630   0.371   1.759  0.3144 -0.1118 -0.6301
  580TMC3    C1 8649   3.288   4.223  12.817 -0.3141 -0.0206  0.2637
  580TMC3    C2 8650   3.411   4.257  12.792 -0.4751 -0.0903  0.5069
  580TMC3    C3 8651   3.507   4.155  12.816 -0.9117  0.0178  0.3585
  580TMC3    C4 8652   3.240   4.101  12.859  0.3570  1.1817 -0.1891
  580TMC3    C5 8653   3.339   4.009  12.881 -0.0755 -0.7518  0.2199
  580TMC3    C6 8654   3.474   4.032  12.865 -0.1106 -0.4635  0.4090
  580TMC3     C 8655   3.182   4.316  12.776 -0.1818 -0.1748 -0.3594
  580TMC3     O 8656   3.074   4.314  12.840  0.2425  0.6751  0.5031
  580TMC3     H 8657   3.435   4.354  12.749  3.1405 -1.6260 -0.9575
  580TMC3    H1 8658   3.136   4.086  12.886  0.8812  1.8617  2.2076
  580TMC3    H2 8659   3.548   3.956  12.885  0.3697  0.5869  2.6792
  580TMC3    C7 8660   3.299   3.872  12.911 -0.5615 -0.0963  0.4348
  580TMC3    C8 8661   3.638   4.167  12.769  0.0359  0.6022 -0.2294
  580TMC3    O1 8662   3.391   3.798  12.947 -0.0781 -0.6145  1.0024
  580TMC3    O2 8663   3.723   4.093  12.818 -0.4981  0.1801 -0.3548
  581MPD2     C 8664   1.197   3.879  15.202  0.1111  1.1507  1.0998
  581MPD2    C1 8665   1.073   3.829  15.227  0.2455 -0.7823 -0.4885
  581MPD2    C2 8666   0.966   3.886  15.151  0.2241  0.4732 -0.2951
  581MPD2    C3 8667   0.993   3.981  15.053  0.0766 -0.1132 -0.2269
  581MPD2    C4 8668   1.119   4.035  15.044 -0.2712  0.2489  1.0515
  581MPD2    C5 8669   1.223   3.989  15.118 -0.3083  0.1976 -0.2842
  581MPD2     H 8670   0.864   3.857  15.176  0.9960 -0.2506  2.0095
  581MPD2    H1 8671   1.135   4.121  14.980  0.9948 -0.5220  0.3390
  581MPD2    H2 8672   1.275   3.840  15.267 -0.6934  1.2432  2.1122
  581MPD2    H3 8673   1.319   4.038  15.118 -0.6870  0.9424 -0.8403
  581MPD2     N 8674   0.898   4.040  14.967 -0.5580  0.2113  0.6779
  581MPD2    H5 8675   0.921   4.112  14.899  3.0648 -1.7016 -0.1559
  581MPD2    N1 8676   1.050   3.720  15.323 -0.8256 -0.2539  0.2484
  581MPD2    H7 8677   1.133   3.680  15.365 -0.3556  0.4859  0.0292
  582TMC3    C1 8678   0.954   3.540  15.437  0.2632 -0.1382 -0.5337
  582TMC3    C2 8679   1.021   3.573  15.551  0.0268  0.2370  0.1652
  582TMC3    C3 8680   1.000   3.487  15.663  0.1502 -0.9869  0.5793
  582TMC3    C4 8681   0.864   3.439  15.428  0.8410  0.5497  0.3807
  582TMC3    C5 8682   0.838   3.362  15.535 -0.9094  0.4604 -0.7882
  582TMC3    C6 8683   0.900   3.391  15.656  0.4939  0.2212 -0.4254
  582TMC3     C 8684   0.932   3.649  15.347 -1.0667  0.0452 -0.4787
  582TMC3     O 8685   0.824   3.666  15.291  0.0266 -0.6131 -0.3092
  582TMC3     H 8686   1.080   3.662  15.568  0.6424 -0.3734  1.1955
  582TMC3    H1 8687   0.829   3.424  15.327 -2.9594 -0.1836  1.8230
  582TMC3    H2 8688   0.856   3.348  15.746 -0.9208  0.0726 -1.1845
  582TMC3    C7 8689   0.695   3.371  15.559  0.6118 -0.1450 -0.7079
  582TMC3    C8 8690   1.039   3.525  15.797  0.1688 -0.0974 -0.2176
  582TMC3    O1 8691   0.658   3.306  15.655 -0.0029 -0.2857  0.6892
  582TMC3    O2 8692   0.968   3.480  15.888  0.0893  0.6696 -0.0752
  583MPD2     C 8693   1.140   0.981  17.152  0.6668 -0.5278  0.3720
  583MPD2    C1 8694   1.114   1.090  17.063 -0.1879  0.4635 -0.2986
  583MPD2    C2 8695   1.074   1.218  17.108  0.6269  0.2247 -0.4642
  583MPD2    C3 8696   1.054   1.233  17.247 -0.3764  0.0536  0.4592
  583MPD2    C4 8697   1.095   1.128  17.334 -0.2221 -0.3025 -0.3463
  583MPD2    C5 8698   1.150   1.014  17.289  0.2681  0.4631  0.1223
  583MPD2     H 8699   1.067   1.299  17.036  0.9627  1.9002  1.3917
  583MPD2    H1 8700   1.089   1.141  17.441  0.3370  1.6236 -0.5518
  583MPD2    H2 8701   1.159   0.878  17.124  0.6123  0.0411 -1.7714
  583MPD2    H3 8702   1.172   0.933  17.359  0.4655 -0.1124 -0.6053
  583MPD2     N 8703   1.018   1.360  17.296 -0.1793 -0.1310  0.4694
  583MPD2    H5 8704   1.025   1.428  17.222 -0.8493  1.1655  1.5930
  583MPD2    N1 8705   1.136   1.081  16.922  1.2170 -0.0777  0.7972
  583MPD2    H7 8706   1.122   1.164  16.865 -1.4843  0.1793  1.8495
  584TMC3    C1 8707   1.007   1.542  17.441  0.3046 -0.3917 -0.0031
  584TMC3    C2 8708   1.029   1.628  17.341  0.7066  0.3461 -0.3745
  584TMC3    C3 8709   1.023   1.764  17.364 -0.2764  0.9061  0.5670
  584TMC3    C4 8710   0.987   1.584  17.570 -0.0607  0.1140 -0.1318
  584TMC3    C5 8711   0.968   1.714  17.592 -0.0669 -0.1626  0.1134
  584TMC3    C6 8712   0.995   1.806  17.493 -0.5035  0.7510  0.3999
  584TMC3     C 8713   1.004   1.400  17.427 -0.3255  0.7254 -0.3101
  584TMC3     O 8714   1.004   1.332  17.533  0.1689 -0.4126  0.2650
  584TMC3     H 8715   1.050   1.582  17.245  1.0060 -1.6444  0.6474
  584TMC3    H1 8716   0.954   1.516  17.648 -0.1974  1.4536  0.9808
  584TMC3    H2 8717   0.989   1.909  17.523 -1.8195  0.2621  1.8139
  584TMC3    C7 8718   0.991   1.748  17.736 -0.2610 -0.5562 -0.7001
  584TMC3    C8 8719   1.008   1.852  17.254 -0.8136 -0.9631  0.2449
  584TMC3    O1 8720   1.035   1.649   0.041  0.0818 -0.8945 -1.2183
  584TMC3    O2 8721   0.976   1.808  17.143 -0.2934  0.1693 -0.0474
  585MPD2     C 8722   0.749   0.655   0.061 -0.2978 -0.0118 -0.5473
  585MPD2    C1 8723   0.643   0.683  17.734 -0.1347  0.2000 -0.0856
  585MPD2    C2 8724   0.621   0.585  17.632  0.4247  0.1796  0.1979
  585MPD2    C3 8725   0.698   0.476  17.617  0.2931 -0.8082  0.5967
  585MPD2    C4 8726   0.798   0.451  17.704 -0.1716 -0.5719 -0.4076
  585MPD2    C5 8727   0.824   0.545   0.047  0.4190  0.0226 -0.3378
  585MPD2     H 8728   0.532   0.608  17.573  1.2279 -0.7992 -1.3803
  585MPD2    H1 8729   0.867   0.368  17.699 -0.9992 -1.3066  0.4643
  585MPD2    H2 8730   0.779   0.728   0.136 -0.3633 -0.6214  0.0725
  585MPD2    H3 8731   0.920   0.539   0.097  0.3327  0.8818 -0.0579
  585MPD2     N 8732   0.673   0.374  17.522 -0.3713 -0.1663 -0.3113
  585MPD2    H5 8733   0.744   0.301  17.516 -4.0371 -3.6009 -2.3908
  585MPD2    N1 8734   0.561   0.795   0.010  0.1093 -0.6813  0.3251
  585MPD2    H7 8735   0.567   0.833   0.104 -0.0925 -0.3217  0.1956
  586TMC3    C1 8736   0.560   0.265  17.350  1.1795 -0.1405 -0.1096
  586TMC3    C2 8737   0.676   0.202  17.300  0.2143  0.7085 -0.9763
  586TMC3    C3 8738   0.646   0.104  17.208 -0.5596 -0.1278  0.2982
  586TMC3    C4 8739   0.436   0.259  17.287  0.1148  0.3198  0.3199
  586TMC3    C5 8740   0.414   0.154  17.199  0.3620  0.0409  0.2375
  586TMC3    C6 8741   0.517   0.071  17.169 -0.0697  0.1072 -0.3636
  586TMC3     C 8742   0.575   0.383  17.429  0.9355 -0.0780 -0.2218
  586TMC3     O 8743   0.508   0.484  17.401  0.8941  0.2199  0.6136
  586TMC3     H 8744   0.777   0.228  17.327  0.0637  2.0685 -1.6849
  586TMC3    H1 8745   0.356   0.323  17.324 -0.1419  2.0627 -3.2865
  586TMC3    H2 8746   0.503   4.720  17.109  0.9599 -0.1473 -0.2180
  586TMC3    C7 8747   0.274   0.101  17.197  0.2042  0.0215 -0.1950
  586TMC3    C8 8748   0.761   0.018  17.171  0.3242 -0.4913  0.3246
  586TMC3    O1 8749   0.263   4.720  17.173  0.3312  0.4194  0.1058
  586TMC3    O2 8750   0.876   0.055  17.178 -0.1976  0.1355  0.0844
  587TMC3    C1 8751   2.782   3.426  17.009  0.0991  0.2370 -0.4776
  587TMC3    C2 8752   2.728   3.541  16.962  0.4600 -0.4958  0.0059
  587TMC3    C3 8753   2.815   3.640  16.926  0.4300 -0.4498 -0.4554
  587TMC3    C4 8754   2.914   3.400  17.036  0.6864 -0.7731 -0.4516
  587TMC3    C5 8755   2.990   3.507  17.003  0.6429 -0.4779  0.1901
  587TMC3    C6 8756   2.945   3.629  16.948 -0.0234 -0.1684  0.6628
  587TMC3     C 8757   2.686   3.322  17.051 -0.8801  0.0689 -0.4040
  587TMC3     O 8758   2.736   3.214  17.085  0.0983 -0.5971  0.2636
  587TMC3     H 8759   2.627   3.543  16.922  0.1517 -1.1596  0.7443
  587TMC3    H1 8760   2.957   3.307  17.070  0.1480 -0.3064  1.4731
  587TMC3    H2 8761   2.995   3.724  16.934  0.3818 -0.1809  2.0475
  587TMC3    C7 8762   3.117   3.519  17.072 -0.8160 -0.2411 -0.1197
  587TMC3    C8 8763   2.764   3.755  16.859 -0.3983  0.1851 -0.6966
  587TMC3    O1 8764   3.129   3.458  17.178  0.1788 -0.1883  0.3941
  587TMC3    O2 8765   2.835   3.798  16.767 -0.1424  0.1358  0.1493
  588TMC3    C1 8766   0.047   1.165  10.272  0.2928 -0.5654  0.0397
  588TMC3    C2 8767   4.737   1.044  10.307 -0.0853 -0.2472  0.4150
  588TMC3    C3 8768   0.060   0.986  10.416  0.1890  0.3553 -0.5526
  588TMC3    C4 8769   0.148   1.231  10.343  0.3420  0.4292 -0.3371
  588TMC3    C5 8770   0.196   1.170  10.450 -0.0345  0.1598 -0.4522
  588TMC3    C6 8771   0.148   1.051  10.497  0.0835  0.4862 -0.1480
  588TMC3     C 8772   4.704   1.242  10.181 -0.7027  0.3619  0.8113
  588TMC3     O 8773   4.625   1.184  10.106 -0.3221 -0.2378  0.1493
  588TMC3     H 8774   4.657   0.996  10.251  0.0686  2.6598 -2.3202
  588TMC3    H1 8775   0.197   1.320  10.306 -0.2904  0.5381 -0.9062
  588TMC3    H2 8776   0.175   1.016  10.596  1.0634  2.5685  0.3201
  588TMC3    C7 8777   0.293   1.242  10.526  0.1934 -0.0347  0.3037
  588TMC3    C8 8778   0.020   0.859  10.471 -0.4413  0.2012  0.3772
  588TMC3    O1 8779   0.390   1.181  10.574  0.3433  0.3377  0.5776
  588TMC3    O2 8780   4.643   0.830  10.444  0.1798 -0.4261  0.1164
  589TMC3    C1 8781   4.365   2.958   1.021  0.4143 -0.1661 -0.5084
  589TMC3    C2 8782   4.489   2.929   1.069 -0.1350 -0.5915  0.1989
  589TMC3    C3 8783   4.522   2.800   1.088 -0.1614  0.1787  0.8288
  589TMC3    C4 8784   4.286   2.854   0.975  0.2700 -0.5093  0.1114
  589TMC3    C5 8785   4.326   2.726   0.995  0.9891 -0.4554  0.0540
  589TMC3    C6 8786   4.445   2.691   1.062  0.2564  0.6690 -0.1559
  589TMC3     C 8787   4.323   3.090   1.001 -0.5703 -1.0392 -0.9268
  589TMC3     O 8788   4.226   3.103   0.925 -0.1502 -0.1601 -0.4179
  589TMC3     H 8789   4.558   3.008   1.096 -0.8248  0.1645 -0.2544
  589TMC3    H1 8790   4.188   2.878   0.935  1.8153  3.7377 -1.1738
  589TMC3    H2 8791   4.481   2.591   1.085  0.4902  0.2682 -2.2655
  589TMC3    C7 8792   4.222   2.625   0.986  0.2317  0.9523 -0.1295
  589TMC3    C8 8793   4.650   2.773   1.151 -1.2195  0.0149 -0.5609
  589TMC3    O1 8794   4.237   2.518   1.047  0.1651 -0.8785 -1.1311
  589TMC3    O2 8795   4.655   2.678   1.227 -0.1090  0.4690 -0.1976
  590MPD2     C 8796   3.421   1.490  16.702  0.2178 -0.7846 -0.2101
  590MPD2    C1 8797   3.381   1.588  16.619  0.4152 -0.1618  0.7349
  590MPD2    C2 8798   3.456   1.701  16.608  0.3835  1.3562 -0.4553
  590MPD2    C3 8799   3.570   1.718  16.681  0.0230 -0.6802  0.5615
  590MPD2    C4 8800   3.603   1.623  16.772  0.0609 -0.0021 -0.0559
  590MPD2    C5 8801   3.527   1.510  16.777  0.0452  0.6004 -0.7514
  590MPD2     H 8802   3.430   1.779  16.537 -2.3758  0.6571 -0.2164
  590MPD2    H1 8803   3.665   1.643  16.859 -0.4611  0.2326  0.2648
  590MPD2    H2 8804   3.370   1.397  16.726 -1.4061  0.0437 -0.4554
  590MPD2    H3 8805   3.566   1.430  16.839  0.9449 -0.2059 -2.3464
  590MPD2     N 8806   3.638   1.844  16.673 -0.7602 -0.0964  0.5467
  590MPD2    H5 8807   3.586   1.925  16.640  1.5370  1.7464  1.4596
  590MPD2    N1 8808   3.269   1.577  16.538  0.3053  0.0229 -0.1527
  590MPD2    H7 8809   3.251   1.649  16.468  0.2187 -0.5091 -0.6832
  591TMC3    C1 8810   3.814   1.985  16.670  0.4435 -0.0273  0.0637
  591TMC3    C2 8811   3.942   1.977  16.613 -0.6717  0.6445 -0.8666
  591TMC3    C3 8812   3.972   2.055  16.503 -0.4922 -0.5220 -0.0662
  591TMC3    C4 8813   3.726   2.083  16.631  0.3050  0.1031 -0.6869
  591TMC3    C5 8814   3.774   2.170  16.537  0.0839  0.9299 -0.0091
  591TMC3    C6 8815   3.894   2.159  16.476  0.3314  0.0574 -0.0977
  591TMC3     C 8816   3.766   1.856  16.711 -0.3015 -0.0633  0.5854
  591TMC3     O 8817   3.853   1.775  16.739 -0.8510  0.0684 -0.1090
  591TMC3     H 8818   4.004   1.892  16.640  1.2038  1.6875 -1.8883
  591TMC3    H1 8819   3.631   2.097  16.681  0.7807  0.9923 -0.0290
  591TMC3    H2 8820   3.916   2.216  16.387 -2.2806 -0.2931 -0.9736
  591TMC3    C7 8821   3.677   2.271  16.498 -0.6125  0.6825 -0.4274
  591TMC3    C8 8822   4.058   1.994  16.395  0.2740 -0.6872 -0.3631
  591TMC3    O1 8823   3.563   2.261  16.533  0.1469 -0.1485  0.5058
  591TMC3    O2 8824   4.078   1.873  16.390  0.3983 -0.0280  0.0549
  592MPD2     C 8825   4.191   3.890  11.664  0.7079  0.3073  0.2906
  592MPD2    C1 8826   4.174   3.935  11.793 -0.8258  0.4874 -0.1294
  592MPD2    C2 8827   4.082   3.870  11.874  0.8482 -0.4117 -0.4408
  592MPD2    C3 8828   4.009   3.756  11.833  0.0348 -0.9329 -0.7863
  592MPD2    C4 8829   4.036   3.712  11.704 -0.4273 -0.0688  0.8991
  592MPD2    C5 8830   4.126   3.779  11.627 -0.4289 -0.1143 -0.0039
  592MPD2     H 8831   4.067   3.898  11.978 -0.5047  1.5066 -1.1618
  592MPD2    H1 8832   3.986   3.629  11.655  1.0695  0.4700 -1.5577
  592MPD2    H2 8833   4.260   3.933  11.593  0.0707 -0.5248 -0.8286
  592MPD2    H3 8834   4.156   3.736  11.532  0.2521 -1.9108  1.0184
  592MPD2     N 8835   3.932   3.674  11.918  0.0306  0.3287  0.2294
  592MPD2    H5 8836   3.933   3.698  12.017 -2.2791 -2.1734  0.8765
  592MPD2    N1 8837   4.260   4.033  11.850 -0.2531 -0.1210  0.7292
  592MPD2    H7 8838   4.332   4.068  11.787 -1.0263 -1.9632 -1.1511
  593TMC3    C1 8839   4.376   4.167  12.007  0.2002 -0.1619 -0.0206
  593TMC3    C2 8840   4.380   4.256  12.111 -0.2040  0.7813 -0.2287
  593TMC3    C3 8841   4.506   4.307  12.148 -0.2530 -0.5199 -1.0306
  593TMC3    C4 8842   4.486   4.151  11.926  0.2969  0.5771  0.4902
  593TMC3    C5 8843   4.607   4.201  11.964  0.1530 -0.5087 -0.4486
  593TMC3    C6 8844   4.622   4.272  12.082  0.3873  0.1136 -0.0752
  593TMC3     C 8845   4.258   4.096  11.974  0.2050 -0.2680 -0.4927
  593TMC3     O 8846   4.172   4.091  12.062 -0.2807 -0.4788  0.4503
  593TMC3     H 8847   4.302   4.247  12.186 -1.4986  1.5873 -1.4750
  593TMC3    H1 8848   4.488   4.071  11.852  1.9118 -0.5261  1.6997
  593TMC3    H2 8849   4.714   4.325  12.100  0.6209 -0.0542 -0.7876
  593TMC3    C7 8850   4.724   4.206  11.873 -0.0394 -0.0047 -0.0344
  593TMC3    C8 8851   4.515   4.442  12.203  0.7038 -0.3525 -0.2062
  593TMC3    O1 8852   4.711   4.225  11.756  0.5699  0.3747 -0.1107
  593TMC3    O2 8853   4.622   4.482  12.248 -0.2919 -0.2901 -0.1130
  594MPD2     C 8854   3.154   2.546  14.763 -0.3482  0.4571 -0.1332
  594MPD2    C1 8855   3.031   2.575  14.709 -0.1878  0.2474  0.0822
  594MPD2    C2 8856   3.022   2.673  14.611 -0.2085  1.0088  1.0105
  594MPD2    C3 8857   3.137   2.729  14.549  0.1687  0.1501  0.2952
  594MPD2    C4 8858   3.255   2.689  14.598 -0.0867 -0.4799 -0.4188
  594MPD2    C5 8859   3.267   2.592  14.697 -0.1938 -0.3109  0.0433
  594MPD2     H 8860   2.925   2.703  14.574 -0.6988  0.4119  1.8101
  594MPD2    H1 8861   3.348   2.729  14.558 -0.6413 -0.0351 -1.2764
  594MPD2    H2 8862   3.167   2.480  14.848 -3.9642  0.7511  0.6357
  594MPD2    H3 8863   3.366   2.573  14.736  0.8010  2.4985 -1.1689
  594MPD2     N 8864   3.124   2.833  14.452 -0.1941 -0.0330  0.5691
  594MPD2    H5 8865   3.026   2.860  14.444  0.3037  0.8964 -2.2545
  594MPD2    N1 8866   2.913   2.522  14.775 -0.6806  0.4222  0.0801
  594MPD2    H7 8867   2.926   2.481  14.867 -1.1267  0.0361 -0.0247
  595TMC3    C1 8868   3.308   3.215  14.265 -0.3812 -0.1911 -0.1011
  595TMC3    C2 8869   3.281   3.080  14.249 -0.1057 -0.1968 -0.0487
  595TMC3    C3 8870   3.176   3.027  14.320  0.9246  0.5719 -0.9857
  595TMC3    C4 8871   3.234   3.303  14.331  0.3442  0.6734 -0.5106
  595TMC3    C5 8872   3.127   3.246  14.403 -0.9646  0.5244 -0.2585
  595TMC3    C6 8873   3.097   3.113  14.391 -0.4320 -0.2915  0.1804
  595TMC3     C 8874   3.437   3.246  14.224 -0.2026  0.0673 -0.0009
  595TMC3     O 8875   3.492   3.190  14.132  0.0757  0.1980  0.2778
  595TMC3     H 8876   3.334   3.016  14.179  0.5853  0.3916 -0.0621
  595TMC3    H1 8877   3.242   3.411  14.326  0.7054  0.6073 -1.4023
  595TMC3    H2 8878   3.031   3.068  14.464  0.3139  0.9766  1.6372
  595TMC3    C7 8879   3.051   3.322  14.503 -0.4616 -0.4476 -0.2385
  595TMC3    C8 8880   3.222   2.900  14.376 -0.0838  0.4471  0.1050
  595TMC3    O1 8881   2.933   3.292  14.515  0.7070 -0.5369  0.2208
  595TMC3    O2 8882   3.340   2.875  14.351  0.0615 -0.7079 -0.2642
  596MPD2     C 8883   1.860   0.949  16.904  0.3139  0.4941 -0.2074
  596MPD2    C1 8884   1.822   1.050  16.810  0.3688 -0.0360  0.3031
  596MPD2    C2 8885   1.815   1.023  16.674  0.8033 -0.0748  0.7280
  596MPD2    C3 8886   1.824   0.893  16.632  0.1170 -0.2451  0.0309
  596MPD2    C4 8887   1.851   0.793  16.724 -0.7517 -0.1120 -0.2956
  596MPD2    C5 8888   1.867   0.822  16.858  0.0093  0.4759 -0.1447
  596MPD2     H 8889   1.793   1.108  16.610 -1.4095 -1.0318  0.2367
  596MPD2    H1 8890   1.865   0.698  16.673 -0.5401 -0.7383  0.9251
  596MPD2    H2 8891   1.854   0.963  17.011  0.9335 -1.1029  0.0401
  596MPD2    H3 8892   1.876   0.742  16.931  0.3244 -1.9657 -2.8469
  596MPD2     N 8893   1.793   0.860  16.499 -0.1367 -0.0287  0.6880
  596MPD2    H5 8894   1.777   0.762  16.474 -0.1371 -0.2953  1.7576
  596MPD2    N1 8895   1.808   1.178  16.852  0.4963 -0.2554 -0.6618
  596MPD2    H7 8896   1.805   1.251  16.781  0.6836 -0.8520 -1.2806
  597TMC3    C1 8897   1.823   1.368  16.977  0.5577 -0.6863 -0.4041
  597TMC3    C2 8898   1.891   1.430  16.881 -0.6997 -0.5807 -0.4511
  597TMC3    C3 8899   1.919   1.558  16.889  0.5334  0.1319  0.0686
  597TMC3    C4 8900   1.776   1.435  17.083 -0.3827  0.2598  0.3218
  597TMC3    C5 8901   1.803   1.570  17.085 -0.0525 -0.3777 -0.2121
  597TMC3    C6 8902   1.876   1.634  16.990  0.3111 -0.1394  0.2394
  597TMC3     C 8903   1.819   1.230  16.980  0.0899  0.6600 -0.4491
  597TMC3     O 8904   1.804   1.172  17.088 -0.4481 -0.4049  0.1289
  597TMC3     H 8905   1.927   1.379  16.793  1.2813 -0.7308  0.4514
  597TMC3    H1 8906   1.716   1.381  17.156  1.9858 -0.6803  1.5421
  597TMC3    H2 8907   1.901   1.739  16.991  0.2224 -0.1234  0.6421
  597TMC3    C7 8908   1.740   1.639  17.192  0.6117 -0.3827  0.2075
  597TMC3    C8 8909   1.988   1.603  16.771 -0.0272  0.0987 -0.2244
  597TMC3    O1 8910   1.718   1.574  17.299 -0.1582 -0.1516 -0.0086
  597TMC3    O2 8911   2.065   1.526  16.720 -0.6169 -0.0921  0.0114
  598TMC3    C1 8912   0.150   2.518  15.770 -0.8894  0.2511  0.1036
  598TMC3    C2 8913   0.049   2.444  15.715 -0.5348  0.4289 -0.1146
  598TMC3    C3 8914   0.018   2.455  15.582  0.5826  0.2451 -0.7990
  598TMC3    C4 8915   0.210   2.614  15.689 -0.7639 -0.2557 -0.7845
  598TMC3    C5 8916   0.168   2.628  15.560 -0.4048 -0.9530 -1.0510
  598TMC3    C6 8917   0.074   2.551  15.503 -0.4418  0.6865 -0.1995
  598TMC3     C 8918   0.199   2.492  15.903 -0.2179  0.6643 -0.3509
  598TMC3     O 8919   0.254   2.587  15.960 -0.1626  0.1694 -0.2959
  598TMC3     H 8920   4.736   2.370  15.775 -3.0633  1.6308 -0.8422
  598TMC3    H1 8921   0.294   2.665  15.733 -0.0214 -2.6147  0.5227
  598TMC3    H2 8922   0.036   2.555  15.402 -2.6906  1.8120  0.6919
  598TMC3    C7 8923   0.251   2.697  15.463 -0.1576  0.1755 -0.0998
  598TMC3    C8 8924   4.655   2.369  15.521 -0.2131  0.7224  0.3994
  598TMC3    O1 8925   0.180   2.772  15.394  0.4706  0.0325  0.1508
  598TMC3    O2 8926   4.673   2.348  15.400  0.9813 -0.2865 -0.0901
  599MPD2     C 8927   0.171   0.103  16.088  0.3125 -0.8547  0.0264
  599MPD2    C1 8928   0.116   4.720  16.117  0.2325  0.2921 -0.0649
  599MPD2    C2 8929   4.731   4.724  16.188  0.7064 -0.1391  0.6710
  599MPD2    C3 8930   4.665   0.105  16.198 -0.0311 -0.1127 -0.0831
  599MPD2    C4 8931   4.723   0.223  16.168  0.0962 -0.2935  0.1343
  599MPD2    C5 8932   0.099   0.224  16.104  0.3459  0.2899 -0.1945
  599MPD2     H 8933   4.684   4.631  16.220  2.6318 -1.5193 -0.5251
  599MPD2    H1 8934   4.683   0.318  16.202 -1.6207 -1.0852  0.2849
  599MPD2    H2 8935   0.259   0.112  16.025  1.1417  0.2566  1.3221
  599MPD2    H3 8936   0.147   0.317  16.075  3.4918 -1.6102 -1.0709
  599MPD2     N 8937   4.543   0.115  16.270  0.6124  0.3947  0.6244
  599MPD2    H5 8938   4.505   0.206  16.293 -1.1358  0.1142 -1.1407
  599MPD2    N1 8939   0.190   4.601  16.093 -0.2744 -0.0373 -0.3578
  599MPD2    H7 8940   0.283   4.612  16.055  1.0895 -1.0941  2.6303
  600TMC3    C1 8941   4.371   0.052  16.407 -0.5455 -0.4348 -0.2508
  600TMC3    C2 8942   4.282   4.692  16.448 -0.2853  0.4907  0.2913
  600TMC3    C3 8943   4.226   4.704  16.566  0.1079 -0.2184  0.1663
  600TMC3    C4 8944   4.400   0.156  16.486 -0.3043 -0.1162 -0.2148
  600TMC3    C5 8945   4.328   0.163  16.605 -0.4070  0.0361 -0.2476
  600TMC3    C6 8946   4.239   0.073  16.650 -0.4204  0.0350  0.1746
  600TMC3     C 8947   4.462   0.015  16.307  0.1154  0.2449  1.0182
  600TMC3     O 8948   4.446   4.643  16.257 -0.2899  0.5362 -0.1175
  600TMC3     H 8949   4.288   4.598  16.396 -0.5297  0.5950  0.0764
  600TMC3    H1 8950   4.482   0.225  16.471 -1.9532  1.9416  0.3598
  600TMC3    H2 8951   4.196   0.080  16.749  1.1074  0.2099  0.8176
  600TMC3    C7 8952   4.305   0.294  16.665 -0.6399  0.0243 -0.2331
  600TMC3    C8 8953   4.222   4.582  16.641  0.0157 -0.3958 -0.2917
  600TMC3    O1 8954   4.220   0.306  16.745  0.3469 -0.0834 -0.0311
  600TMC3    O2 8955   4.264   4.577  16.755  0.0918 -0.2268  0.0547
  601MPD2     C 8956   1.897   3.829   0.728 -0.3248 -0.3263  0.0944
  601MPD2    C1 8957   1.784   3.776   0.666  1.0341 -0.1836  1.3207
  601MPD2    C2 8958   1.773   3.639   0.655  0.2557 -0.9824  0.0890
  601MPD2    C3 8959   1.871   3.551   0.712  0.4896  0.1568  0.1037
  601MPD2    C4 8960   1.983   3.604   0.770  0.1782  0.2365 -0.2086
  601MPD2    C5 8961   1.994   3.743   0.777 -0.2348 -0.7049 -0.7090
  601MPD2     H 8962   1.685   3.598   0.605 -0.6700 -0.5302  1.3426
  601MPD2    H1 8963   2.065   3.541   0.801  0.8323  0.5662 -1.2705
  601MPD2    H2 8964   1.914   3.935   0.742  1.3317 -0.7215  0.9975
  601MPD2    H3 8965   2.081   3.782   0.827 -0.5563  0.2584 -0.8907
  601MPD2     N 8966   1.869   3.411   0.701 -0.3209 -0.2058  0.1283
  601MPD2    H5 8967   1.950   3.360   0.735 -0.2084  0.6762  1.1861
  601MPD2    N1 8968   1.685   3.852   0.597 -0.2330 -0.6813 -0.2560
  601MPD2    H7 8969   1.604   3.799   0.565 -1.2574  1.9637 -1.9854
  602TMC3    C1 8970   1.566   4.025   0.496 -1.3127  0.2173  0.5339
  602TMC3    C2 8971   1.584   4.129   0.408  0.7571  0.5359 -0.2893
  602TMC3    C3 8972   1.522   4.129   0.287 -0.2444 -0.1588  0.0703
  602TMC3    C4 8973   1.478   3.924   0.464  0.5214  0.3785 -1.4410
  602TMC3    C5 8974   1.417   3.922   0.341 -0.6985  0.0252  0.7003
  602TMC3    C6 8975   1.446   4.018   0.242 -0.2606 -0.2909 -0.4060
  602TMC3     C 8976   1.684   3.990   0.573  0.1679 -0.1654 -0.2387
  602TMC3     O 8977   1.774   4.067   0.591 -0.1398 -0.4534 -0.2029
  602TMC3     H 8978   1.638   4.219   0.433  1.5284 -0.3029  1.0621
  602TMC3    H1 8979   1.430   3.865   0.542  0.6727  1.0232 -0.8632
  602TMC3    H2 8980   1.414   3.999   0.141 -0.4098 -2.8158  0.1117
  602TMC3    C7 8981   1.330   3.807   0.319 -0.7412  0.4743 -0.5695
  602TMC3    C8 8982   1.505   4.248   0.204 -0.3242 -0.1751  0.7155
  602TMC3    O1 8983   1.326   3.709   0.391 -0.8062 -0.1287  0.4062
  602TMC3    O2 8984   1.538   4.357   0.251  0.5722 -0.2953 -0.7708
  603TMC3    C1 8985   0.316   2.942  11.075  0.0756  0.2816  0.2521
  603TMC3    C2 8986   0.342   2.961  11.205  0.2207 -0.2559 -0.0619
  603TMC3    C3 8987   0.307   3.083  11.260  0.4178 -0.6444 -0.4585
  603TMC3    C4 8988   0.270   3.036  10.993  0.5721 -0.1376  0.0557
  603TMC3    C5 8989   0.240   3.160  11.043  0.4278  0.0392 -0.0505
  603TMC3    C6 8990   0.251   3.180  11.182  0.3984 -0.1996 -0.3819
  603TMC3     C 8991   0.346   2.809  11.025 -0.0432  0.2974  0.2992
  603TMC3     O 8992   0.390   2.729  11.106  0.1597 -0.4533 -0.1477
  603TMC3     H 8993   0.380   2.880  11.266 -2.7398  0.0554  2.1739
  603TMC3    H1 8994   0.264   3.015  10.886 -0.5451 -2.4935  0.5757
  603TMC3    H2 8995   0.198   3.265  11.224  0.5375  1.2369 -3.0994
  603TMC3    C7 8996   0.219   3.268  10.949 -0.3939  0.6252  0.5578
  603TMC3    C8 8997   0.326   3.112  11.398  0.2592  0.6321  0.0231
  603TMC3    O1 8998   0.236   3.375  11.002 -0.3984 -0.4275 -0.1650
  603TMC3    O2 8999   0.356   3.015  11.468 -0.5182  0.4809  0.1915
  604MPD2     C 9000   0.521   1.952  16.706 -0.1171 -0.3322  0.0478
  604MPD2    C1 9001   0.498   2.078  16.651 -0.6534 -0.3220 -0.0128
  604MPD2    C2 9002   0.529   2.111  16.516 -0.1978  0.3060  0.2894
  604MPD2    C3 9003   0.572   2.007  16.436 -0.0502  0.0781 -0.3315
  604MPD2    C4 9004   0.585   1.886  16.497 -0.6279 -0.1121 -0.2527
  604MPD2    C5 9005   0.565   1.859  16.624  0.4758  0.1311 -0.4222
  604MPD2     H 9006   0.522   2.209  16.471 -1.1517  0.4828  0.8256
  604MPD2    H1 9007   0.617   1.805  16.432 -0.3158  0.2680 -0.5732
  604MPD2    H2 9008   0.486   1.925  16.805  0.0510 -1.0010 -0.0779
  604MPD2    H3 9009   0.568   1.755  16.655 -2.3118  0.6584  1.6061
  604MPD2     N 9010   0.605   2.036  16.300 -0.4608  0.0049  0.7317
  604MPD2    H5 9011   0.571   2.126  16.266  3.9998  1.1341 -0.7276
  604MPD2    N1 9012   0.447   2.173  16.740 -0.6656  0.0113  0.9948
  604MPD2    H7 9013   0.448   2.144  16.837 -4.4025  0.5883  1.2174
  605TMC3    C1 9014   0.419   2.402  16.798 -0.4405  0.1051  0.6409
  605TMC3    C2 9015   0.541   2.408  16.859  0.1317  0.0291  0.1062
  605TMC3    C3 9016   0.571   2.519  16.924  0.1979  0.0094 -0.8268
  605TMC3    C4 9017   0.351   2.513  16.757 -0.3458 -0.1483  0.1317
  605TMC3    C5 9018   0.397   2.633  16.804 -0.3958  0.5292  0.0218
  605TMC3    C6 9019   0.503   2.641  16.890  0.2167  0.2353 -0.1329
  605TMC3     C 9020   0.406   2.297  16.702 -0.3804  0.0294 -0.4825
  605TMC3     O 9021   0.371   2.336  16.593  0.4796 -0.5562  0.0276
  605TMC3     H 9022   0.605   2.321  16.869 -0.7648 -0.5460  0.8375
  605TMC3    H1 9023   0.256   2.506  16.707  0.0229 -0.1535 -0.5702
  605TMC3    H2 9024   0.544   2.738  16.917  0.8244  0.0831 -0.5201
  605TMC3    C7 9025   0.373   2.741  16.706  1.1454  0.1592 -0.2449
  605TMC3    C8 9026   0.711   2.524  16.963 -0.1654 -0.4320  0.0732
  605TMC3    O1 9027   0.362   2.850  16.758  0.3362  0.3933 -0.0550
  605TMC3    O2 9028   0.780   2.431  16.929  0.2705  0.5332  0.4527
  606TMC3    C1 9029   2.224   1.182   0.685  0.4541  0.7927  0.0871
  606TMC3    C2 9030   2.336   1.232   0.745  0.5778 -0.4515 -0.4005
  606TMC3    C3 9031   2.454   1.240   0.676  0.3367 -0.1980 -0.2137
  606TMC3    C4 9032   2.219   1.146   0.555 -0.2881  0.2204 -0.2214
  606TMC3    C5 9033   2.339   1.152   0.487 -0.3263  0.0052 -0.8324
  606TMC3    C6 9034   2.456   1.190   0.552 -0.1049  0.2097 -0.3530
  606TMC3     C 9035   2.104   1.192   0.758  0.2150  0.2791  0.1098
  606TMC3     O 9036   2.109   1.264   0.856  0.1460  0.3811 -0.3013
  606TMC3     H 9037   2.346   1.256   0.850 -1.6451 -0.6122 -0.1600
  606TMC3    H1 9038   2.124   1.149   0.503 -0.7147  0.9316  0.5949
  606TMC3    H2 9039   2.551   1.193   0.501  0.5818 -0.3580  0.9014
  606TMC3    C7 9040   2.350   1.121   0.344  0.1212 -0.1105 -0.2398
  606TMC3    C8 9041   2.568   1.197   0.750 -0.2004  0.6455  0.3201
  606TMC3    O1 9042   2.458   1.151   0.290  0.0688  0.7515 -0.2805
  606TMC3    O2 9043   2.624   1.099   0.703 -0.1967 -0.0875  0.4654
  607MPD2     C 9044   4.097   3.211  11.822 -0.3541 -0.1379 -0.1404
  607MPD2    C1 9045   4.131   3.300  11.918  0.0800  0.0590 -0.5406
  607MPD2    C2 9046   4.092   3.271  12.042 -0.0597 -0.5715 -0.4589
  607MPD2    C3 9047   4.040   3.154  12.083  0.4243  0.2138  0.0098
  607MPD2    C4 9048   4.017   3.057  11.988  0.3658  0.4578  0.8535
  607MPD2    C5 9049   4.049   3.091  11.853  0.6242 -0.6367  0.3869
  607MPD2     H 9050   4.107   3.341  12.124  1.8383  0.2217 -1.4926
  607MPD2    H1 9051   3.973   2.963  12.019 -0.2590  0.3048 -0.4915
  607MPD2    H2 9052   4.118   3.232  11.718 -1.0571 -0.9378 -0.4453
  607MPD2    H3 9053   4.023   3.028  11.769 -0.0586  0.5798 -0.3063
  607MPD2     N 9054   4.017   3.140  12.225 -0.7877  0.0905  0.0007
  607MPD2    H5 9055   4.029   3.221  12.284 -0.1691 -0.2132  0.2815
  607MPD2    N1 9056   4.185   3.425  11.898  0.3643  0.2080  0.0258
  607MPD2    H7 9057   4.229   3.471  11.978 -2.0885 -1.0571  2.1229
  608TMC3    C1 9058   4.333   3.585  11.813 -0.4173 -0.0388 -0.9946
  608TMC3    C2 9059   4.313   3.650  11.929  0.2755 -0.1323 -0.4942
  608TMC3    C3 9060   4.419   3.722  11.969 -0.2073 -0.1438  0.3788
  608TMC3    C4 9061   4.450   3.589  11.737 -0.8896  0.0803 -0.1390
  608TMC3    C5 9062   4.551   3.675  11.789 -0.1029 -0.0533 -0.5220
  608TMC3    C6 9063   4.537   3.741  11.905 -0.2683  0.4291  0.2859
  608TMC3     C 9064   4.241   3.474  11.783  0.0565 -1.0784  0.0232
  608TMC3     O 9065   4.254   3.435  11.670 -0.2318 -0.3565  0.1247
  608TMC3     H 9066   4.216   3.647  11.977  0.0851 -0.8573 -0.9196
  608TMC3    H1 9067   4.469   3.534  11.645 -1.8043  0.9209 -0.8291
  608TMC3    H2 9068   4.600   3.822  11.942 -0.9777  0.4786  1.3710
  608TMC3    C7 9069   4.647   3.718  11.695  0.1121  0.0165 -0.2731
  608TMC3    C8 9070   4.414   3.776  12.108  0.0426  0.4727  0.3710
  608TMC3    O1 9071   4.638   3.676  11.582 -0.1685  0.2604 -0.3334
  608TMC3    O2 9072   4.481   3.868  12.148 -0.3809  0.0159  0.0180
  609TMC3    C1 9073   2.936   2.102   9.803 -0.6408 -0.1521  0.0034
  609TMC3    C2 9074   2.967   1.989   9.739  0.5022 -0.1092  0.2792
  609TMC3    C3 9075   3.095   1.958   9.704 -0.4740 -0.3637  0.7646
  609TMC3    C4 9076   3.037   2.187   9.838 -0.2012  0.0919  0.0235
  609TMC3    C5 9077   3.161   2.150   9.818 -0.6183  0.6648 -0.5486
  609TMC3    C6 9078   3.198   2.032   9.761 -0.7182  0.4630  0.1749
  609TMC3     C 9079   2.797   2.144   9.822  0.0336 -0.2325  0.0539
  609TMC3     O 9080   2.716   2.051   9.823  0.0000 -0.1921  0.0286
  609TMC3     H 9081   2.891   1.924   9.695  0.5377  0.4242 -0.5862
  609TMC3    H1 9082   3.012   2.284   9.880 -3.4664  0.1416 -2.0404
  609TMC3    H2 9083   3.297   2.000   9.731 -1.7110 -0.9698 -1.5928
  609TMC3    C7 9084   3.271   2.233   9.869 -0.1714  0.9573  0.0776
  609TMC3    C8 9085   3.124   1.833   9.644  0.0657 -0.4937 -0.1068
  609TMC3    O1 9086   3.252   2.353   9.865  0.3769 -0.2665  0.1456
  609TMC3    O2 9087   3.226   1.777   9.689  0.0278  0.4058 -0.1567
  610TMC3    C1 9088   4.270   3.836  13.039  0.5176  0.3365  0.4395
  610TMC3    C2 9089   4.361   3.890  12.957 -0.6304 -0.5569 -0.5231
  610TMC3    C3 9090   4.476   3.822  12.933 -0.1617 -0.6006 -0.0959
  610TMC3    C4 9091   4.294   3.729  13.119 -0.5311  0.5734 -0.7870
  610TMC3    C5 9092   4.411   3.659  13.091  0.1078 -1.0446 -0.2718
  610TMC3    C6 9093   4.504   3.701  13.000 -0.6940 -0.2676  0.2080
  610TMC3     C 9094   4.144   3.912  13.058  0.1542 -0.2247 -0.4730
  610TMC3     O 9095   4.106   3.974  12.957  0.2398  0.1925  0.3012
  610TMC3     H 9096   4.333   3.975  12.896  1.2603  1.4653  1.4389
  610TMC3    H1 9097   4.223   3.690  13.191 -0.6622  1.6607 -0.3288
  610TMC3    H2 9098   4.602   3.656  13.000 -1.2352 -1.4353 -0.7648
  610TMC3    C7 9099   4.455   3.560  13.186  0.0979  0.1613  0.1983
  610TMC3    C8 9100   4.557   3.851  12.817  0.0648  0.0792 -0.1317
  610TMC3    O1 9101   4.546   3.491  13.144  0.0676  0.5540  0.6024
  610TMC3    O2 9102   4.573   3.969  12.795 -0.3466  0.5721 -0.3132
  611MPD2     C 9103   3.994   3.534  10.242  0.0787  0.2740 -0.0071
  611MPD2    C1 9104   4.000   3.418  10.164 -0.0985  0.4677  0.6091
  611MPD2    C2 9105   4.127   3.382  10.124 -0.3733 -0.4996  0.0803
  611MPD2    C3 9106   4.237   3.458  10.146  0.5826  0.1775  0.1811
  611MPD2    C4 9107   4.219   3.589  10.203 -0.3770 -0.3005  0.2239
  611MPD2    C5 9108   4.097   3.617  10.253 -0.0869  0.3156  0.2428
  611MPD2     H 9109   4.134   3.280  10.088  0.6676 -1.2567  2.4139
  611MPD2    H1 9110   4.305   3.655  10.209  0.1973 -0.6068 -4.2605
  611MPD2    H2 9111   3.896   3.557  10.283 -0.1796 -0.1481 -0.3854
  611MPD2    H3 9112   4.097   3.710  10.309  0.1258  0.4258  0.0619
  611MPD2     N 9113   4.367   3.431  10.113  0.2985 -0.1436  0.2775
  611MPD2    H5 9114   4.435   3.505  10.128  1.6457 -1.3209 -0.0467
  611MPD2    N1 9115   3.890   3.333  10.161 -0.3958  0.4113 -0.2949
  611MPD2    H7 9116   3.796   3.370  10.173 -0.4137  0.5850 -1.0010
  612TMC3    C1 9117   4.560   3.289  10.063 -0.0192  0.2971 -0.2975
  612TMC3    C2 9118   4.642   3.389  10.113 -0.0457  0.3504 -0.0013
  612TMC3    C3 9119   0.027   3.350  10.142 -0.6209  0.6806  0.2038
  612TMC3    C4 9120   4.604   3.164  10.037  0.4455 -0.2432  0.2552
  612TMC3    C5 9121   4.730   3.135  10.065 -0.1202 -0.0688  0.1147
  612TMC3    C6 9122   0.080   3.227  10.122  0.4407  0.1731  0.7361
  612TMC3     C 9123   4.413   3.313  10.056 -0.0069 -1.3345  0.7267
  612TMC3     O 9124   4.346   3.218  10.013  0.5350 -0.1278  0.3059
  612TMC3     H 9125   4.603   3.487  10.135  0.1592  1.3038 -3.8515
  612TMC3    H1 9126   4.544   3.103   9.969  0.1066  1.4875 -0.9888
  612TMC3    H2 9127   0.184   3.199  10.138  1.0081  2.5488  1.1316
  612TMC3    C7 9128   0.027   2.998  10.081  0.4462  0.6901 -0.2528
  612TMC3    C8 9129   0.091   3.419  10.253  1.1235 -0.2135  0.3057
  612TMC3    O1 9130   0.143   2.970  10.102  0.5870  0.1643 -0.2804
  612TMC3    O2 9131   0.103   3.541  10.242  0.2635 -0.0002 -0.3150
  613MPD2     C 9132   3.650   0.699  16.943  0.1591  0.0299  0.0137
  613MPD2    C1 9133   3.588   0.817  16.903 -0.3780 -0.2760  0.0544
  613MPD2    C2 9134   3.498   0.876  16.986 -1.3650  0.0154 -0.3244
  613MPD2    C3 9135   3.466   0.814  17.109  0.1526 -0.1321  0.0299
  613MPD2    C4 9136   3.526   0.697  17.144  0.7296  0.0581 -0.2735
  613MPD2    C5 9137   3.616   0.636  17.065  0.0900  0.7359 -0.5793
  613MPD2     H 9138   3.455   0.971  16.956  3.2881  1.6482 -1.7732
  613MPD2    H1 9139   3.491   0.646  17.234  1.2049  1.2074  0.5617
  613MPD2    H2 9140   3.723   0.654  16.877  0.3318 -0.7129  0.7106
  613MPD2    H3 9141   3.657   0.542  17.101  2.7923  2.1889  0.1876
  613MPD2     N 9142   3.360   0.854  17.194  0.0780  0.2918 -0.2795
  613MPD2    H5 9143   3.384   0.829  17.289  0.3031  3.3038  0.4522
  613MPD2    N1 9144   3.616   0.860  16.771 -0.1506  0.4770 -0.0883
  613MPD2    H7 9145   3.685   0.811  16.714  0.3410  1.3739 -0.2571
  614TMC3    C1 9146   3.577   0.957  16.566  0.2726 -0.3761  0.4670
  614TMC3    C2 9147   3.574   0.823  16.521 -0.2867  0.1524 -0.6070
  614TMC3    C3 9148   3.503   0.783  16.417  0.2833  0.2322 -0.6667
  614TMC3    C4 9149   3.502   1.046  16.493  0.3031  0.1854  0.0531
  614TMC3    C5 9150   3.434   1.001  16.381  0.2255  0.1535 -0.2371
  614TMC3    C6 9151   3.440   0.873  16.340 -0.2443  0.0123 -0.3863
  614TMC3     C 9152   3.557   0.968  16.707  1.1122 -0.0590 -0.3251
  614TMC3     O 9153   3.471   1.050  16.740  0.4185  0.0040 -0.1125
  614TMC3     H 9154   3.644   0.753  16.565  0.2287  0.3236 -1.1594
  614TMC3    H1 9155   3.514   1.151  16.520  0.5514  0.5187 -1.3560
  614TMC3    H2 9156   3.392   0.841  16.248  1.1138 -0.6849 -0.8429
  614TMC3    C7 9157   3.402   1.112  16.284 -1.0632 -0.1404 -0.5448
  614TMC3    C8 9158   3.548   0.653  16.359 -0.4151  0.9191  0.4779
  614TMC3    O1 9159   3.419   1.229  16.317  0.4119  0.0851 -0.2131
  614TMC3    O2 9160   3.571   0.651  16.239  0.0073 -0.2684  0.1243
  615MPD2     C 9161   2.485   2.698  16.579  0.3254  0.4564  0.0718
  615MPD2    C1 9162   2.496   2.817  16.504  0.2880  0.2376  0.1806
  615MPD2    C2 9163   2.496   2.814  16.368 -0.1849 -0.2061 -0.0012
  615MPD2    C3 9164   2.500   2.696  16.298 -1.3243 -0.2820  0.2715
  615MPD2    C4 9165   2.500   2.578  16.374  0.0311  0.3649 -0.1361
  615MPD2    C5 9166   2.492   2.581  16.511 -0.8589 -0.0431  0.0596
  615MPD2     H 9167   2.504   2.914  16.325  3.1553  0.6889  2.7129
  615MPD2    H1 9168   2.515   2.485  16.320  1.0536  0.7185 -0.4593
  615MPD2    H2 9169   2.485   2.704  16.687 -0.5653  2.2855 -0.0215
  615MPD2    H3 9170   2.505   2.484  16.558 -1.5001 -0.6053 -0.9137
  615MPD2     N 9171   2.502   2.700  16.151 -0.3528 -0.0047  0.3622
  615MPD2    H5 9172   2.522   2.791  16.112 -0.0002 -0.3083 -0.1678
  615MPD2    N1 9173   2.497   2.948  16.557 -0.1906 -0.8915 -0.6696
  615MPD2    H7 9174   2.517   3.029  16.500 -0.7569  1.1160  1.9618
  616TMC3    C1 9175   2.468   3.114  16.723 -0.0658  0.0889 -0.1853
  616TMC3    C2 9176   2.580   3.178  16.680 -0.1616  0.4477 -0.9052
  616TMC3    C3 9177   2.585   3.312  16.703  0.4357  0.2779  0.1661
  616TMC3    C4 9178   2.352   3.180  16.763 -0.5166  0.0394  0.1341
  616TMC3    C5 9179   2.356   3.316  16.760 -0.0793  0.4043  0.3377
  616TMC3    C6 9180   2.477   3.382  16.740  0.5067  0.3425 -0.0712
  616TMC3     C 9181   2.454   2.976  16.685  0.4383  0.5483 -0.4646
  616TMC3     O 9182   2.382   2.923  16.764 -0.2383 -0.5950  0.0613
  616TMC3     H 9183   2.661   3.119  16.641  0.4586 -1.2680  2.9401
  616TMC3    H1 9184   2.256   3.131  16.771 -0.0417 -0.8778  0.1280
  616TMC3    H2 9185   2.486   3.481  16.784  2.3326  0.5276 -0.8695
  616TMC3    C7 9186   2.233   3.386  16.778  0.4780 -0.1065  0.5734
  616TMC3    C8 9187   2.695   3.390  16.664 -0.0882  0.5724 -0.1286
  616TMC3    O1 9188   2.129   3.320  16.783  0.3341 -0.8446 -0.1398
  616TMC3    O2 9189   2.680   3.509  16.643  0.1048  0.2376  0.1333
  617MPD2     C 9190   0.694   0.830  13.858  0.2924  0.1520 -0.3112
  617MPD2    C1 9191   0.739   0.773  13.976  0.2382 -0.1835 -0.2189
  617MPD2    C2 9192   0.660   0.673  14.030  0.1274 -0.7762  0.6103
  617MPD2    C3 9193   0.532   0.640  13.978 -0.0203  0.2794  0.2393
  617MPD2    C4 9194   0.489   0.706  13.865  0.6836  0.3652 -0.5027
  617MPD2    C5 9195   0.569   0.797  13.802 -0.1918  0.1799 -0.3838
  617MPD2     H 9196   0.702   0.620  14.114  3.0903  1.4509  0.5391
  617MPD2    H1 9197   0.399   0.672  13.815  0.0839 -0.2563  1.0265
  617MPD2    H2 9198   0.762   0.896  13.806 -0.2944  0.7496 -0.3197
  617MPD2    H3 9199   0.539   0.829  13.703 -0.9966  0.2317 -0.1177
  617MPD2     N 9200   0.441   0.545  14.036 -0.1788  0.1748 -0.0920
  617MPD2    H5 9201   0.356   0.521  13.987 -0.0490  0.0116 -0.2374
  617MPD2    N1 9202   0.863   0.808  14.023  0.4220 -0.0848  0.0667
  617MPD2    H7 9203   0.923   0.854  13.956 -0.5876  1.5494  0.2924
  618TMC3    C1 9204   1.068   0.800  14.119 -0.2488  0.1544  0.0699
  618TMC3    C2 9205   1.145   0.696  14.115 -0.5532 -0.0578 -0.8534
  618TMC3    C3 9206   1.231   0.678  14.000 -0.0503 -0.0830 -0.3728
  618TMC3    C4 9207   1.092   0.906  14.027 -0.6700 -0.1923  1.1876
  618TMC3    C5 9208   1.193   0.894  13.937 -0.5076  0.7804 -0.2554
  618TMC3    C6 9209   1.257   0.778  13.917 -0.3115 -0.4904 -0.2095
  618TMC3     C 9210   0.931   0.765  14.137  0.3934  0.0019  0.0291
  618TMC3     O 9211   0.904   0.674  14.218 -0.1034 -0.4964  0.1267
  618TMC3     H 9212   1.118   0.612  14.178 -2.2104  0.1315 -1.3093
  618TMC3    H1 9213   1.024   0.991  14.030  1.9782  2.0325 -1.8739
  618TMC3    H2 9214   1.323   0.762  13.832 -0.6223 -1.2128 -0.3121
  618TMC3    C7 9215   1.124   0.918  13.807  0.7858  0.3009  0.0755
  618TMC3    C8 9216   1.219   0.544  13.951  0.0140  0.4146  0.4582
  618TMC3    O1 9217   1.004   0.932  13.810  0.4778  0.1224 -0.1423
  618TMC3    O2 9218   1.146   0.471  14.015 -0.0634  0.1297 -0.0051
  619MPD2     C 9219   2.063   1.776  14.343  0.6387  0.3343  0.3869
  619MPD2    C1 9220   1.944   1.823  14.293  0.3400 -0.2927 -0.2260
  619MPD2    C2 9221   1.826   1.774  14.343 -0.6204 -0.3189 -0.2522
  619MPD2    C3 9222   1.826   1.672  14.432 -0.1431  0.3870  0.3523
  619MPD2    C4 9223   1.944   1.621  14.483 -0.6650 -0.3979  0.0495
  619MPD2    C5 9224   2.061   1.675  14.440 -0.0688  0.1634  0.0397
  619MPD2     H 9225   1.729   1.806  14.307 -1.5224 -0.6944  1.8111
  619MPD2    H1 9226   1.953   1.547  14.562 -1.3365 -1.2412 -0.6622
  619MPD2    H2 9227   2.148   1.830  14.302  1.5505 -1.3022  0.1359
  619MPD2    H3 9228   2.152   1.645  14.490 -0.9147  0.3480  1.6914
  619MPD2     N 9229   1.705   1.628  14.487 -0.2338  0.1666  0.1918
  619MPD2    H5 9230   1.621   1.685  14.491  1.0410  2.0747 -0.5768
  619MPD2    N1 9231   1.948   1.911  14.185  0.3247  0.5634 -0.2383
  619MPD2    H7 9232   2.036   1.943  14.147  1.3119 -0.6799  1.0470
  620TMC3    C1 9233   1.868   2.050  14.014 -0.7901  0.5909 -0.0947
  620TMC3    C2 9234   1.765   2.071  13.931  0.7063 -0.3194 -0.4622
  620TMC3    C3 9235   1.762   2.183  13.862 -0.7518 -0.3022 -0.2252
  620TMC3    C4 9236   1.964   2.144  14.031 -0.0652 -0.0449 -0.6596
  620TMC3    C5 9237   1.960   2.259  13.958 -0.2995 -0.5330 -0.7623
  620TMC3    C6 9238   1.858   2.284  13.868 -0.3742 -0.3856  0.0510
  620TMC3     C 9239   1.835   1.952  14.118  0.8414 -0.5050 -0.4116
  620TMC3     O 9240   1.717   1.921  14.120 -0.3985 -0.5119  0.5743
  620TMC3     H 9241   1.705   1.986  13.902  1.1123 -1.1143  1.0341
  620TMC3    H1 9242   2.043   2.119  14.101  1.4532  0.2954 -2.2688
  620TMC3    H2 9243   1.849   2.376  13.810  0.8262 -0.8316 -0.8385
  620TMC3    C7 9244   2.075   2.350  13.981  0.7005  0.9342 -0.1117
  620TMC3    C8 9245   1.671   2.182  13.744  0.0933 -0.2505 -0.6271
  620TMC3    O1 9246   2.181   2.292  14.006  0.0066 -0.1760  0.2557
  620TMC3    O2 9247   1.714   2.244  13.649 -0.5104 -0.2020  1.0461
  621MPD2     C 9248   2.215   2.488  10.575  0.2629  0.1409 -0.5646
  621MPD2    C1 9249   2.311   2.383  10.551  0.1028 -0.6184 -0.9010
  621MPD2    C2 9250   2.401   2.399  10.443  0.8536  0.3019  0.1218
  621MPD2    C3 9251   2.394   2.512  10.366 -0.5203  0.1975 -0.2552
  621MPD2    C4 9252   2.302   2.615  10.396 -0.0916 -0.2046  0.2515
  621MPD2    C5 9253   2.214   2.599  10.504  0.0714  0.4030  0.2976
  621MPD2     H 9254   2.469   2.319  10.419 -0.1849 -0.0962 -1.4857
  621MPD2    H1 9255   2.276   2.704  10.340 -1.1075 -0.2181  0.7046
  621MPD2    H2 9256   2.149   2.475  10.660 -0.1535  0.7598 -0.7925
  621MPD2    H3 9257   2.147   2.681  10.530 -1.2389 -0.1970 -1.2132
  621MPD2     N 9258   2.472   2.525  10.248 -0.0133 -0.1417 -0.0008
  621MPD2    H5 9259   2.552   2.463  10.259 -1.8470 -2.9149 -2.3764
  621MPD2    N1 9260   2.307   2.248  10.599 -0.3250 -1.1709  0.2396
  621MPD2    H7 9261   2.372   2.186  10.552  1.3087 -1.1459  2.4803
  622TMC3    C1 9262   2.233   2.047  10.704 -0.1537  0.1939 -0.3208
  622TMC3    C2 9263   2.111   1.982  10.716  0.3359 -0.8187 -0.2676
  622TMC3    C3 9264   2.102   1.859  10.668 -0.6115 -0.0516  0.4053
  622TMC3    C4 9265   2.346   1.989  10.660 -0.9882  0.0473  0.0729
  622TMC3    C5 9266   2.336   1.863  10.626 -0.2976  0.3724 -0.0682
  622TMC3    C6 9267   2.215   1.796  10.619 -0.2776  0.0894  0.6309
  622TMC3     C 9268   2.218   2.191  10.691  0.4742 -0.6905  1.1139
  622TMC3     O 9269   2.130   2.249  10.753 -0.2228  0.6138  0.2204
  622TMC3     H 9270   2.026   2.048  10.727 -0.1267 -1.2903 -1.1199
  622TMC3    H1 9271   2.439   2.044  10.652 -0.9113  0.0203  0.7471
  622TMC3    H2 9272   2.211   1.695  10.582  2.8359 -0.7204  2.5189
  622TMC3    C7 9273   2.436   1.819  10.534 -0.7120 -0.2717  0.5957
  622TMC3    C8 9274   1.978   1.787  10.645  0.5386  0.0489  1.1425
  622TMC3    O1 9275   2.531   1.768  10.587  0.5808 -0.0094 -0.2583
  622TMC3    O2 9276   1.979   1.688  10.577 -0.1522  0.3328  0.2040
  623MPD2     C 9277   1.113   2.401  15.895  0.2480 -0.4999 -0.0221
  623MPD2    C1 9278   1.034   2.444  15.997  0.3550 -0.3421 -0.2693
  623MPD2    C2 9279   1.089   2.469  16.121  0.4055 -0.2371  0.0239
  623MPD2    C3 9280   1.222   2.466  16.147 -0.5829  0.0766  0.1595
  623MPD2    C4 9281   1.299   2.446  16.039  0.2776 -0.0175 -0.4828
  623MPD2    C5 9282   1.246   2.407  15.919 -0.5122 -0.7712 -0.1711
  623MPD2     H 9283   1.037   2.478  16.215  0.4213  1.7625 -0.1629
  623MPD2    H1 9284   1.407   2.461  16.042  0.2477  0.2549 -0.8070
  623MPD2    H2 9285   1.070   2.371  15.800  1.2783 -0.2713 -0.5593
  623MPD2    H3 9286   1.318   2.399  15.839 -1.0225  0.5676 -0.7728
  623MPD2     N 9287   1.269   2.496  16.277 -0.2026  0.2029 -0.2615
  623MPD2    H5 9288   1.200   2.514  16.350  1.7570  0.0291  1.6388
  623MPD2    N1 9289   0.892   2.447  15.999 -0.4807  0.4630 -0.1317
  623MPD2    H7 9290   0.851   2.473  16.088 -0.0565  0.9647 -0.0805
  624TMC3    C1 9291   1.544   2.579  16.647 -0.1796 -0.8135 -0.3421
  624TMC3    C2 9292   1.439   2.556  16.731 -0.6011  0.5426  0.2655
  624TMC3    C3 9293   1.320   2.515  16.674 -0.0120 -0.2265  0.1069
  624TMC3    C4 9294   1.529   2.568  16.509  0.4237 -0.2119  0.3411
  624TMC3    C5 9295   1.413   2.511  16.465 -0.1759  0.0555 -0.1889
  624TMC3    C6 9296   1.302   2.484  16.542  0.0158 -0.3249  0.6574
  624TMC3     C 9297   1.673   2.574  16.712 -0.4147  0.3869  0.4987
  624TMC3     O 9298   1.686   2.527  16.826 -0.9913 -0.4652 -0.4180
  624TMC3     H 9299   1.438   2.569  16.838 -0.8912 -0.9793  0.4557
  624TMC3    H1 9300   1.602   2.579  16.429  0.3610 -0.9586  0.1804
  624TMC3    H2 9301   1.203   2.456  16.507 -0.7368  0.9859  1.7353
  624TMC3    C7 9302   1.397   2.501  16.318  0.6601  0.1845 -0.3594
  624TMC3    C8 9303   1.196   2.545  16.737  0.4058 -0.3810  0.3448
  624TMC3    O1 9304   1.496   2.490  16.254 -0.0206  0.1663  0.4613
  624TMC3    O2 9305   1.099   2.478  16.700  0.0143  0.0231 -0.5743
  625MPD2     C 9306   1.791   4.337   1.443 -0.0990 -0.7008 -0.2304
  625MPD2    C1 9307   1.812   4.390   1.317  0.5298  0.1320 -0.5553
  625MPD2    C2 9308   1.922   4.345   1.240 -0.3030 -0.0393  0.0774
  625MPD2    C3 9309   2.014   4.254   1.291  0.1466  0.1106 -0.7903
  625MPD2    C4 9310   1.990   4.198   1.416 -0.1725 -0.3784 -0.5463
  625MPD2    C5 9311   1.875   4.235   1.481  0.9117 -0.6612 -0.7108
  625MPD2     H 9312   1.921   4.364   1.134 -2.0875  1.8245  0.4289
  625MPD2    H1 9313   2.047   4.120   1.466  0.7586  1.4357  1.2143
  625MPD2    H2 9314   1.702   4.360   1.500 -0.5110 -0.6412 -0.9063
  625MPD2    H3 9315   1.853   4.187   1.575  0.0202 -0.1612 -0.6716
  625MPD2     N 9316   2.130   4.221   1.218 -0.0380 -0.3095  0.1039
  625MPD2    H5 9317   2.152   4.269   1.132  3.0629  2.4537  2.4390
  625MPD2    N1 9318   1.717   4.472   1.249 -0.5433  0.8122 -0.0075
  625MPD2    H7 9319   1.727   4.486   1.149  2.0434  0.9193  0.2583
  626TMC3    C1 9320   1.527   4.613   1.225 -0.0263  0.3222 -0.6701
  626TMC3    C2 9321   1.538   4.616   1.087 -0.3953 -0.5307 -0.0323
  626TMC3    C3 9322   1.449   4.699   1.025  0.5438  0.3746 -0.0057
  626TMC3    C4 9323   1.433   4.695   1.288 -0.1087  1.0123  1.1803
  626TMC3    C5 9324   1.340   0.028   1.220  0.3580 -0.3979 -0.4879
  626TMC3    C6 9325   1.347   0.027   1.087 -0.0187  0.0563 -0.6170
  626TMC3     C 9326   1.615   4.541   1.314  1.0491  0.5288 -0.2357
  626TMC3     O 9327   1.603   4.561   1.435 -0.2785  0.2470 -0.0536
  626TMC3     H 9328   1.597   4.550   1.025  4.2089 -1.1384  4.9757
  626TMC3    H1 9329   1.419   4.694   1.395 -0.8217  1.5415  1.0916
  626TMC3    H2 9330   1.285   0.102   1.040 -0.7772 -0.0032  0.2853
  626TMC3    C7 9331   1.226   0.083   1.289 -0.2741 -0.0858  0.2201
  626TMC3    C8 9332   1.453   4.705   0.876  0.1674  0.2031 -0.4976
  626TMC3    O1 9333   1.233   0.100   1.412  0.2552 -0.2578  0.6955
  626TMC3    O2 9334   1.556   4.686   0.812 -0.2165  0.0197 -0.5145
  627MPD2     C 9335   0.243   4.049  14.454 -0.0738 -0.5241 -0.8066
  627MPD2    C1 9336   0.279   4.014  14.587  0.8554 -0.4735  0.6171
  627MPD2    C2 9337   0.187   3.950  14.677  0.4966 -1.2484 -0.3205
  627MPD2    C3 9338   0.066   3.907  14.626 -0.0535 -0.3271 -0.5805
  627MPD2    C4 9339   0.036   3.938  14.491  0.7833 -0.0570 -0.2730
  627MPD2    C5 9340   0.119   4.013  14.415 -0.1191 -0.2159  0.1688
  627MPD2     H 9341   0.217   3.934  14.780  1.8379  2.4894 -0.1179
  627MPD2    H1 9342   4.686   3.904  14.440 -0.3963  0.1362  1.6773
  627MPD2    H2 9343   0.310   4.096  14.383  1.1224  0.5293  1.0145
  627MPD2    H3 9344   0.089   4.024  14.311 -0.1037 -3.4346 -0.1931
  627MPD2     N 9345   4.712   3.838  14.707  0.0150 -0.1603  0.0060
  627MPD2    H5 9346   0.002   3.832  14.804  0.1845 -0.9505 -0.0894
  627MPD2    N1 9347   0.406   4.043  14.640  0.2426 -0.1134 -0.4608
  627MPD2    H7 9348   0.429   4.010  14.733  2.0237  1.3186 -0.3957
  628TMC3    C1 9349   0.609   4.165  14.665 -0.6178 -0.2212 -0.3057
  628TMC3    C2 9350   0.634   4.071  14.760  0.3057 -0.3786 -0.5771
  628TMC3    C3 9351   0.714   4.107  14.865  0.2424 -1.0203 -0.2022
  628TMC3    C4 9352   0.651   4.293  14.672  0.1170 -0.0457  0.8510
  628TMC3    C5 9353   0.721   4.328  14.784 -0.4315 -0.3098  0.2124
  628TMC3    C6 9354   0.765   4.234  14.870 -0.0578  0.1132  0.6763
  628TMC3     C 9355   0.493   4.139  14.589 -0.2103  0.2259  0.6263
  628TMC3     O 9356   0.466   4.219  14.505 -0.1993  0.9209 -0.4459
  628TMC3     H 9357   0.598   3.969  14.757 -1.8694  0.4020 -1.0695
  628TMC3    H1 9358   0.621   4.370  14.603  0.4921 -0.4711  0.2109
  628TMC3    H2 9359   0.813   4.271  14.960  1.6266 -0.0353 -0.1711
  628TMC3    C7 9360   0.674   4.455  14.847 -0.0890  0.4323 -0.5714
  628TMC3    C8 9361   0.768   4.011  14.962  0.2641 -0.6183  0.9745
  628TMC3    O1 9362   0.683   4.465  14.968  0.0459  0.0509 -0.0493
  628TMC3    O2 9363   0.704   3.908  14.985 -0.4694 -0.0508 -0.4144
  629MPD2     C 9364   3.174   3.436  16.472 -0.1150  0.1411 -0.6314
  629MPD2    C1 9365   3.151   3.303  16.505 -0.0897 -0.5453  0.6784
  629MPD2    C2 9366   3.034   3.272  16.570 -0.1530  0.3021 -0.7794
  629MPD2    C3 9367   2.934   3.364  16.594  0.2044 -0.1641 -0.7756
  629MPD2    C4 9368   2.958   3.499  16.556 -0.4981  0.4559 -0.0219
  629MPD2    C5 9369   3.078   3.525  16.494 -0.1171  1.0338 -0.4183
  629MPD2     H 9370   3.014   3.172  16.604  1.8364  0.8947  2.1148
  629MPD2    H1 9371   2.892   3.584  16.566  0.0764  0.7990  0.8766
  629MPD2    H2 9372   3.261   3.474  16.420  0.7432  0.9401  1.3861
  629MPD2    H3 9373   3.088   3.630  16.466  0.8861  0.5621 -1.7982
  629MPD2     N 9374   2.812   3.312  16.643 -0.7598  0.1572  0.1026
  629MPD2    H5 9375   2.817   3.215  16.673  1.0160  0.4078  0.6201
  629MPD2    N1 9376   3.250   3.202  16.461  0.0125 -0.1255  0.7584
  629MPD2    H7 9377   3.333   3.241  16.416  1.2170 -0.5887  2.5889
  630TMC3    C1 9378   3.331   2.992  16.407  0.3049 -0.5515 -0.4500
  630TMC3    C2 9379   3.434   3.050  16.337 -0.1122 -0.6091  0.4351
  630TMC3    C3 9380   3.547   2.974  16.317  0.0334 -0.2972  0.3744
  630TMC3    C4 9381   3.348   2.870  16.458  0.1120 -0.2087  0.9380
  630TMC3    C5 9382   3.476   2.813  16.469  0.1488  0.6192  0.5511
  630TMC3    C6 9383   3.576   2.851  16.380 -0.0196  0.2336 -0.1056
  630TMC3     C 9384   3.219   3.070  16.450 -0.2047  0.4850  0.3606
  630TMC3     O 9385   3.113   3.017  16.474 -0.1296 -0.7911  0.3894
  630TMC3     H 9386   3.419   3.148  16.293  0.6452  0.2965  2.1751
  630TMC3    H1 9387   3.274   2.848  16.534 -0.3505  0.4125  0.6696
  630TMC3    H2 9388   3.669   2.799  16.363 -0.6301 -0.3912 -1.5737
  630TMC3    C7 9389   3.512   2.759  16.595 -0.0927 -0.1107  0.2925
  630TMC3    C8 9390   3.647   3.017  16.220 -0.1362  0.1696  0.6623
  630TMC3    O1 9391   3.419   2.740  16.674 -0.2223  0.2902  0.0661
  630TMC3    O2 9392   3.757   2.967  16.233  0.0946  0.5466  0.1767
  631MPD2     C 9393   1.763   2.605  15.589 -0.0603 -0.1933 -0.1659
  631MPD2    C1 9394   1.833   2.704  15.525 -0.2454 -0.2793 -0.2060
  631MPD2    C2 9395   1.975   2.701  15.528  0.2853 -0.5185  0.2707
  631MPD2    C3 9396   2.050   2.608  15.602 -0.5436 -0.2165 -0.1644
  631MPD2    C4 9397   1.974   2.505  15.660 -0.4917 -0.0698  0.2926
  631MPD2    C5 9398   1.838   2.505  15.645  0.0729  0.1475  0.2364
  631MPD2     H 9399   2.019   2.795  15.497 -2.2644  0.5514 -0.0849
  631MPD2    H1 9400   2.007   2.432  15.733  2.5934 -0.5392 -1.5589
  631MPD2    H2 9401   1.656   2.595  15.588 -0.2428  1.2937  2.9621
  631MPD2    H3 9402   1.782   2.437  15.709 -0.5781 -0.2794 -0.7871
  631MPD2     N 9403   2.184   2.630  15.627 -0.1081 -1.0074 -0.1776
  631MPD2    H5 9404   2.226   2.715  15.589 -0.2957 -0.5101  0.7260
  631MPD2    N1 9405   1.763   2.806  15.458  0.2608 -0.6642 -0.4372
  631MPD2    H7 9406   1.663   2.794  15.469  0.2069  1.8777  2.0501
  632TMC3    C1 9407   1.720   3.010  15.363 -0.0257 -0.0104  0.3323
  632TMC3    C2 9408   1.665   3.067  15.480 -0.2687  0.1342  0.6149
  632TMC3    C3 9409   1.573   3.172  15.455 -0.1021  0.0709  0.5931
  632TMC3    C4 9410   1.680   3.042  15.235 -0.2059 -0.4996 -0.2399
  632TMC3    C5 9411   1.577   3.133  15.218  1.6505  0.6626  0.0348
  632TMC3    C6 9412   1.524   3.194  15.332 -0.3199  0.7479  0.0705
  632TMC3     C 9413   1.814   2.910  15.382 -0.2849  0.0087 -0.2713
  632TMC3     O 9414   1.925   2.932  15.334  0.1053  0.0188 -0.0531
  632TMC3     H 9415   1.704   3.036  15.576  1.9575 -2.9924 -1.2631
  632TMC3    H1 9416   1.734   3.006  15.148  0.7150  0.2704  0.0100
  632TMC3    H2 9417   1.464   3.283  15.320 -0.2395  1.0405  1.8152
  632TMC3    C7 9418   1.545   3.162  15.080  0.6493 -0.2915 -0.3654
  632TMC3    C8 9419   1.516   3.231  15.574 -0.8214  0.0177 -0.5014
  632TMC3    O1 9420   1.551   3.072  14.996  0.0244  0.2104 -0.0365
  632TMC3    O2 9421   1.398   3.257  15.568 -0.9210 -0.3152 -0.1250
  633MPD2     C 9422   1.441   0.839  17.734  0.9250 -0.2033  0.0213
  633MPD2    C1 9423   1.477   0.762  17.630  0.4994  0.2449 -0.4151
  633MPD2    C2 9424   1.522   0.634  17.650  0.1168  0.2464  0.4975
  633MPD2    C3 9425   1.540   0.583   0.029 -0.1470 -0.4079 -0.0588
  633MPD2    C4 9426   1.518   0.662   0.132 -0.0928 -0.4578  0.0436
  633MPD2    C5 9427   1.466   0.793   0.110 -0.2662  0.0271 -0.1103
  633MPD2     H 9428   1.555   0.577  17.564  1.1176 -0.1538  1.1441
  633MPD2    H1 9429   1.546   0.628   0.231 -0.5787  2.1527  1.0806
  633MPD2    H2 9430   1.414   0.944  17.733 -0.0570 -0.4642 -0.9944
  633MPD2    H3 9431   1.452   0.854   0.199  1.2805  2.5091 -1.5579
  633MPD2     N 9432   1.621   0.476   0.057 -0.2122 -0.4778  0.2963
  633MPD2    H5 9433   1.661   0.468   0.150  1.4018  0.8203 -0.2849
  633MPD2    N1 9434   1.494   0.822  17.504  0.8608 -0.0332 -0.9781
  633MPD2    H7 9435   1.524   0.749  17.440 -0.2924 -2.5629  1.3635
  634TMC3    C1 9436   1.466   0.964  17.327  0.4403 -0.1689  0.4080
  634TMC3    C2 9437   1.477   0.859  17.247 -0.8751 -0.4497 -1.5135
  634TMC3    C3 9438   1.480   0.876  17.109 -0.1712  0.1113  0.3203
  634TMC3    C4 9439   1.442   1.090  17.275 -0.1058  0.0751 -0.1895
  634TMC3    C5 9440   1.446   1.105  17.141 -0.0782 -0.5727 -0.4088
  634TMC3    C6 9441   1.460   0.999  17.058  0.4567  0.5108  0.4227
  634TMC3     C 9442   1.457   0.948  17.467 -0.0722  0.6818 -0.1386
  634TMC3     O 9443   1.416   1.047  17.531  0.3508 -0.1829 -0.4327
  634TMC3     H 9444   1.497   0.757  17.275  1.2109  0.8564  1.7644
  634TMC3    H1 9445   1.424   1.170  17.345  2.1742  1.7891 -1.5617
  634TMC3    H2 9446   1.460   1.011  16.950  1.8671  3.9181  0.7808
  634TMC3    C7 9447   1.420   1.238  17.082 -0.1091 -0.3210  0.2791
  634TMC3    C8 9448   1.519   0.763  17.034  0.1093 -0.1450  0.1863
  634TMC3    O1 9449   1.414   1.236  16.957 -0.1831 -0.4490 -0.3750
  634TMC3    O2 9450   1.598   0.688  17.091  0.4557 -0.4534 -0.3638
  635TMC3    C1 9451   1.773   2.226   0.032 -0.3628  0.3408  0.0000
  635TMC3    C2 9452   1.782   2.247  17.645  0.1520 -0.2656 -0.0586
  635TMC3    C3 9453   1.792   2.124  17.578 -0.7467  0.2198  0.5487
  635TMC3    C4 9454   1.780   2.106   0.096  0.6745  0.9234  0.2418
  635TMC3    C5 9455   1.790   1.994   0.016 -0.3695  0.2733  0.2327
  635TMC3    C6 9456   1.801   1.994  17.635 -0.6321  0.0590  0.7743
  635TMC3     C 9457   1.742   2.342   0.124  1.2483  0.5757  0.5132
  635TMC3     O 9458   1.755   2.327   0.245 -0.1934 -0.3820 -0.1482
  635TMC3     H 9459   1.796   2.341  17.594  0.3493 -0.3646 -0.1861
  635TMC3    H1 9460   1.786   2.102   0.204 -0.2114 -0.4624  0.2351
  635TMC3    H2 9461   1.784   1.911  17.567 -0.1506  0.0136  0.7091
  635TMC3    C7 9462   1.763   1.869   0.081 -0.2000 -0.1278  0.1474
  635TMC3    C8 9463   1.827   2.140  17.436  0.2800  0.2015  0.2337
  635TMC3    O1 9464   1.721   1.870   0.196 -0.0109  0.4982  0.0175
  635TMC3    O2 9465   1.787   2.241  17.375 -0.3502 -0.6484 -0.0386
  636MPD2     C 9466   2.722   1.322  16.421 -0.0934 -0.3489 -0.1963
  636MPD2    C1 9467   2.690   1.321  16.557 -0.2000 -0.1973 -0.4862
  636MPD2    C2 9468   2.767   1.253  16.642 -0.8240  0.1109 -0.3411
  636MPD2    C3 9469   2.885   1.186  16.600 -0.0774 -0.2748  0.5567
  636MPD2    C4 9470   2.922   1.194  16.467  0.5069  0.4197  0.3337
  636MPD2    C5 9471   2.847   1.263  16.377 -0.4161 -0.2029 -0.1967
  636MPD2     H 9472   2.735   1.242  16.745 -0.8212  0.0945 -0.3420
  636MPD2    H1 9473   3.007   1.146  16.420 -0.3359  0.5006 -1.2903
  636MPD2    H2 9474   2.666   1.378  16.347 -0.0675  0.3473  0.3088
  636MPD2    H3 9475   2.878   1.260  16.274  0.8967 -0.1152  0.1929
  636MPD2     N 9476   2.956   1.102  16.686  0.2522 -0.5239  0.0385
  636MPD2    H5 9477   3.032   1.048  16.647  1.2193 -0.2471  1.5590
  636MPD2    N1 9478   2.583   1.393  16.617 -0.2376 -0.1792  0.6756
  636MPD2    H7 9479   2.579   1.400  16.718  0.4520 -0.4421  0.7230
  637TMC3    C1 9480   3.025   0.990  16.873 -0.1454 -0.2833 -0.5591
  637TMC3    C2 9481   3.093   1.013  16.991  0.2763  0.0219  0.2366
  637TMC3    C3 9482   3.182   0.918  17.035  0.3822  0.2305  1.1184
  637TMC3    C4 9483   3.037   0.871  16.803 -0.0603  0.0929  0.3070
  637TMC3    C5 9484   3.115   0.772  16.861  0.0394 -0.2402 -0.2624
  637TMC3    C6 9485   3.188   0.792  16.983 -0.1061 -0.4928 -0.0952
  637TMC3     C 9486   2.949   1.106  16.822 -0.4211  0.1840  0.2767
  637TMC3     O 9487   2.908   1.199  16.896  0.5951  0.0241 -0.6567
  637TMC3     H 9488   3.100   1.112  17.034 -2.0355  0.4006 -0.2641
  637TMC3    H1 9489   2.983   0.854  16.711  3.3412  0.7750 -1.7856
  637TMC3    H2 9490   3.244   0.708  17.024  1.6486  1.5493  1.7277
  637TMC3    C7 9491   3.189   0.704  16.759  0.1206 -0.7974  0.4618
  637TMC3    C8 9492   3.258   0.946  17.158 -0.1779  0.6132  0.7994
  637TMC3    O1 9493   3.188   0.765  16.653  0.1752  0.0484 -0.2941
  637TMC3    O2 9494   3.192   1.016  17.232  0.1571 -0.7020  0.2089
  638MPD2     C 9495   2.455   0.055  15.036 -0.0895 -0.1273 -1.4426
  638MPD2    C1 9496   2.433   4.697  14.948  1.3437  0.1589 -1.0122
  638MPD2    C2 9497   2.375   4.582  14.985  0.4632  0.8088  0.4609
  638MPD2    C3 9498   2.336   4.560  15.113  0.1181  0.0975 -0.0640
  638MPD2    C4 9499   2.354   4.660  15.203 -0.3447 -0.1695  0.2153
  638MPD2    C5 9500   2.404   0.042  15.160  0.0211  0.4510  0.4153
  638MPD2     H 9501   2.355   4.500  14.918  2.4536 -0.2116  1.1225
  638MPD2    H1 9502   2.329   4.655  15.309  0.1831  1.6712  0.4275
  638MPD2    H2 9503   2.504   0.149  15.013  0.0116  0.2251  0.2524
  638MPD2    H3 9504   2.416   0.115  15.239 -1.0039  0.0704  0.9267
  638MPD2     N 9505   2.279   4.433  15.140  0.4617 -0.5739 -0.7793
  638MPD2    H5 9506   2.294   4.372  15.060  0.9561 -1.1810 -0.2200
  638MPD2    N1 9507   2.478   4.725  14.811 -0.1547 -0.3112  0.8845
  638MPD2    H7 9508   2.514   0.080  14.793  1.1635 -0.8662  0.6683
  639TMC3    C1 9509   2.176   4.242  15.233  0.1381 -0.8190  0.0769
  639TMC3    C2 9510   2.148   4.200  15.106  0.2716  0.6031  0.0360
  639TMC3    C3 9511   2.170   4.069  15.086  1.0430 -0.1733  0.1683
  639TMC3    C4 9512   2.212   4.168  15.334  0.8619 -0.0495  0.2744
  639TMC3    C5 9513   2.234   4.033  15.311 -0.4228 -0.2550 -0.5167
  639TMC3    C6 9514   2.222   3.991  15.181 -0.5150  0.1829  0.6271
  639TMC3     C 9515   2.209   4.387  15.249 -0.2833 -0.2096 -0.0346
  639TMC3     O 9516   2.181   4.436  15.357  0.8589 -0.2708  0.5161
  639TMC3     H 9517   2.140   4.268  15.023 -1.0533  0.1952 -0.1770
  639TMC3    H1 9518   2.234   4.205  15.433 -1.0364 -2.4433  1.6003
  639TMC3    H2 9519   2.242   3.887  15.157 -1.0993 -0.2508  1.9843
  639TMC3    C7 9520   2.356   3.987  15.368 -0.5661  0.5915  0.1108
  639TMC3    C8 9521   2.156   4.020  14.947 -0.4073 -0.8538 -0.7374
  639TMC3    O1 9522   2.373   3.965  15.483  0.7441 -0.1168  0.1483
  639TMC3    O2 9523   2.215   3.912  14.926 -0.0294  0.1488 -0.1589
  640MPD2     C 9524   2.881   3.769  10.001  0.1125  0.1988 -0.4114
  640MPD2    C1 9525   2.811   3.662  10.045  0.4043 -0.5405  0.0041
  640MPD2    C2 9526   2.731   3.669  10.156  0.2607  0.0007  0.0909
  640MPD2    C3 9527   2.710   3.792  10.216 -0.9531  0.8611  0.5384
  640MPD2    C4 9528   2.779   3.896  10.164 -0.3242 -0.3891  0.6719
  640MPD2    C5 9529   2.866   3.892  10.057 -0.0967 -0.6460 -0.7627
  640MPD2     H 9530   2.686   3.579  10.197  2.3137 -1.7638 -1.5168
  640MPD2    H1 9531   2.774   3.988  10.221  1.2512 -0.9778  1.7923
  640MPD2    H2 9532   2.942   3.764   9.912 -3.0030 -2.2017 -2.4135
  640MPD2    H3 9533   2.923   3.975  10.016 -1.2399  0.1297 -0.7992
  640MPD2     N 9534   2.637   3.819  10.333  0.7043  0.2777  0.3421
  640MPD2    H5 9535   2.635   3.914  10.370  0.2574 -0.1685  1.4808
  640MPD2    N1 9536   2.830   3.540   9.982 -0.3042  0.2543  0.0515
  640MPD2    H7 9537   2.915   3.530   9.928 -0.1701 -0.6885  0.4323
  641TMC3    C1 9538   2.785   3.337   9.899  0.9154  0.2721 -0.9220
  641TMC3    C2 9539   2.913   3.314   9.897 -0.4325  0.0119 -0.2916
  641TMC3    C3 9540   2.954   3.204   9.826 -0.2690  0.0361  0.0705
  641TMC3    C4 9541   2.695   3.254   9.834 -0.0618 -0.5734  0.8236
  641TMC3    C5 9542   2.746   3.140   9.776 -0.1729 -0.7320  0.5183
  641TMC3    C6 9543   2.882   3.124   9.757 -0.5937 -0.4020  0.6960
  641TMC3     C 9544   2.733   3.443   9.977  0.7637  0.9017  0.0036
  641TMC3     O 9545   2.613   3.443  10.000  0.1960  0.3779  0.1813
  641TMC3     H 9546   2.978   3.356   9.972 -2.0669 -0.5139  1.4153
  641TMC3    H1 9547   2.590   3.279   9.843 -0.5605 -2.7268  1.0147
  641TMC3    H2 9548   2.923   3.034   9.713 -0.9529 -0.4676  0.4992
  641TMC3    C7 9549   2.659   3.042   9.714  0.4884  0.1475  0.8316
  641TMC3    C8 9550   3.100   3.173   9.821  0.3266  0.1077 -0.7785
  641TMC3    O1 9551   2.715   2.938   9.675 -0.0725 -0.8212  0.3060
  641TMC3    O2 9552   3.133   3.061   9.793 -0.2093 -0.8299  0.2460
  642TMC3    C1 9553   4.285   4.231  12.805 -0.2037 -0.1048  0.0157
  642TMC3    C2 9554   4.411   4.237  12.754 -0.9694  0.4554 -0.2169
  642TMC3    C3 9555   4.415   4.210  12.623 -0.0438  0.8413 -0.6709
  642TMC3    C4 9556   4.172   4.195  12.734  0.1377 -0.1973  0.1873
  642TMC3    C5 9557   4.187   4.156  12.605  0.1953  0.5076  0.3514
  642TMC3    C6 9558   4.311   4.165  12.547  0.6391 -0.7102  0.2180
  642TMC3     C 9559   4.269   4.289  12.937 -0.5644 -0.1922 -0.5239
  642TMC3     O 9560   4.364   4.336  12.992  0.0584 -0.1700  0.2402
  642TMC3     H 9561   4.493   4.272  12.816 -1.2494 -0.9095  0.9402
  642TMC3    H1 9562   4.075   4.181  12.781 -0.6062 -1.2689 -1.6570
  642TMC3    H2 9563   4.319   4.128  12.446 -1.6227  0.3434 -0.3361
  642TMC3    C7 9564   4.098   4.054  12.550 -0.3209  0.2261 -0.4071
  642TMC3    C8 9565   4.541   4.214  12.556  0.0838  0.0974  0.1499
  642TMC3    O1 9566   4.098   4.041  12.429  0.2152 -0.3584 -0.6357
  642TMC3    O2 9567   4.536   4.223  12.433 -0.4056  0.5380  0.2209
  643TMC3    C1 9568   3.629   3.986   0.887 -0.5094 -0.1957  1.0796
  643TMC3    C2 9569   3.500   3.979   0.930  0.2972 -0.1251 -0.2774
  643TMC3    C3 9570   3.409   3.908   0.849 -0.1644 -0.6833  0.0444
  643TMC3    C4 9571   3.680   3.902   0.793  0.3596  0.5604  0.0910
  643TMC3    C5 9572   3.587   3.817   0.727  0.1191  0.3655 -0.2501
  643TMC3    C6 9573   3.452   3.830   0.750  0.1684 -0.0533  0.1553
  643TMC3     C 9574   3.693   4.107   0.932 -0.6822  0.3037  0.0317
  643TMC3     O 9575   3.623   4.193   0.981 -0.0122 -0.6292 -0.1576
  643TMC3     H 9576   3.464   4.047   1.005 -0.3258  0.0372 -0.7236
  643TMC3    H1 9577   3.781   3.923   0.759  0.3765 -2.2761 -1.5802
  643TMC3    H2 9578   3.380   3.791   0.679  2.7328 -1.5364 -1.6291
  643TMC3    C7 9579   3.618   3.792   0.591 -0.0074  0.1709  0.2181
  643TMC3    C8 9580   3.304   3.992   0.800  0.5950  0.1097  0.4088
  643TMC3    O1 9581   3.653   3.890   0.534 -0.2548  0.5845  0.3820
  643TMC3    O2 9582   3.231   4.056   0.876  0.0619 -0.4713 -0.0621
  644MPD2     C 9583   2.979   3.655   9.469 -0.0818  0.0080 -0.3863
  644MPD2    C1 9584   2.908   3.544   9.505 -0.0333  0.7619 -0.0031
  644MPD2    C2 9585   2.795   3.558   9.574 -0.4661  0.1935  0.5835
  644MPD2    C3 9586   2.750   3.681   9.621  0.3746 -0.5523  0.1256
  644MPD2    C4 9587   2.826   3.792   9.591  0.8550  1.5124 -0.0278
  644MPD2    C5 9588   2.936   3.780   9.508  0.1022  0.1073 -0.5413
  644MPD2     H 9589   2.741   3.475   9.618 -0.7446 -0.2289 -0.5688
  644MPD2    H1 9590   2.805   3.890   9.632 -1.3269  0.4716  1.3463
  644MPD2    H2 9591   3.071   3.636   9.415  0.0792 -2.1374  0.6283
  644MPD2    H3 9592   2.985   3.871   9.474  2.2788  0.0887  2.5452
  644MPD2     N 9593   2.629   3.682   9.691  0.1149 -0.5695  0.2149
  644MPD2    H5 9594   2.576   3.596   9.683 -1.5893  0.6236 -1.0309
  644MPD2    N1 9595   2.953   3.416   9.460  0.1767 -0.7279 -0.1503
  644MPD2    H7 9596   3.038   3.425   9.406  0.9590 -1.5561  0.9517
  645TMC3    C1 9597   2.433   3.784   9.783 -0.2519 -0.2072  1.2046
  645TMC3    C2 9598   2.365   3.905   9.797 -0.0078  0.2107 -0.3905
  645TMC3    C3 9599   2.235   3.895   9.834  0.0468 -0.5605  0.1030
  645TMC3    C4 9600   2.383   3.664   9.819  0.2466 -0.0556  0.4225
  645TMC3    C5 9601   2.254   3.662   9.868 -0.5585 -0.0734  0.2824
  645TMC3    C6 9602   2.179   3.774   9.869  0.2832  0.0358  0.1321
  645TMC3     C 9603   2.565   3.801   9.727 -0.2313  0.6511 -0.0753
  645TMC3     O 9604   2.604   3.919   9.721 -0.0880  0.4860 -0.4166
  645TMC3     H 9605   2.411   4.002   9.780  1.1197 -0.3601 -0.5816
  645TMC3    H1 9606   2.445   3.575   9.808 -0.0544 -0.3875  1.4178
  645TMC3    H2 9607   2.073   3.774   9.891  0.1253 -0.8474 -0.6589
  645TMC3    C7 9608   2.189   3.532   9.879  0.8018  0.4775 -0.3730
  645TMC3    C8 9609   2.168   4.024   9.864  0.0494  0.0057  1.3649
  645TMC3    O1 9610   2.087   3.512   9.809  0.8106  0.1090  0.4718
  645TMC3    O2 9611   2.221   4.122   9.807  0.3585  0.1610  0.7745
  646MPD2     C 9612   2.361   3.034  14.551 -0.1278 -0.2039  0.0042
  646MPD2    C1 9613   2.393   3.152  14.605 -0.8529  0.0002  0.8076
  646MPD2    C2 9614   2.356   3.268  14.543 -0.6141 -0.0690  0.3304
  646MPD2    C3 9615   2.289   3.262  14.422  0.4456  0.3244  0.6170
  646MPD2    C4 9616   2.265   3.141  14.366  0.0411  0.2072  0.1970
  646MPD2    C5 9617   2.298   3.025  14.435  0.4142 -0.2003  0.0255
  646MPD2     H 9618   2.357   3.366  14.591  1.6989 -0.3035  0.7885
  646MPD2    H1 9619   2.222   3.111  14.271  0.2484  0.3922  0.0451
  646MPD2    H2 9620   2.382   2.946  14.612 -0.7607  2.0195  3.4469
  646MPD2    H3 9621   2.275   2.927  14.395  1.5115 -0.8200  0.9084
  646MPD2     N 9622   2.259   3.380  14.352 -0.4829  0.5655 -0.2139
  646MPD2    H5 9623   2.273   3.469  14.400 -2.2332 -0.2102  1.7455
  646MPD2    N1 9624   2.449   3.144  14.737  0.4966 -0.7590 -0.7099
  646MPD2    H7 9625   2.469   3.052  14.774 -1.4737 -1.1753 -0.6650
  647TMC3    C1 9626   2.588   3.197  14.925 -0.3642  0.0451 -0.0353
  647TMC3    C2 9627   2.543   3.095  15.006 -0.2609 -0.3096 -0.9566
  647TMC3    C3 9628   2.581   3.100  15.140 -0.1190 -0.8550  0.0508
  647TMC3    C4 9629   2.685   3.281  14.966  0.7610 -0.5785 -0.3810
  647TMC3    C5 9630   2.737   3.277  15.092  0.7203 -0.4261 -0.5151
  647TMC3    C6 9631   2.664   3.203  15.180 -0.1928  0.0846 -0.1536
  647TMC3     C 9632   2.514   3.245  14.806 -0.2224 -0.3539  0.7188
  647TMC3     O 9633   2.533   3.360  14.770 -0.7400 -0.4360 -0.7367
  647TMC3     H 9634   2.452   3.041  14.979 -0.3171 -1.9046  2.4527
  647TMC3    H1 9635   2.725   3.352  14.894 -1.9532 -0.6151 -1.9197
  647TMC3    H2 9636   2.699   3.206  15.282  1.5445  0.4156 -0.7508
  647TMC3    C7 9637   2.879   3.249  15.102  0.3132  0.2435 -0.3317
  647TMC3    C8 9638   2.635   2.981  15.195  0.1136  0.5184 -0.4840
  647TMC3    O1 9639   2.919   3.226  15.217  0.5852 -0.3205  0.5890
  647TMC3    O2 9640   2.650   2.979  15.317  0.0422 -0.2558  0.0194
  648TMC3    C1 9641   1.686   0.893  16.298  0.7951  0.4543  0.0867
  648TMC3    C2 9642   1.626   0.774  16.308 -0.5723  0.2795 -0.2886
  648TMC3    C3 9643   1.538   0.724  16.211 -0.0922  0.5518  0.5442
  648TMC3    C4 9644   1.651   0.976  16.189 -0.0375 -0.2550  0.1801
  648TMC3    C5 9645   1.553   0.929  16.105  0.4364 -0.1168  0.3067
  648TMC3    C6 9646   1.489   0.807  16.114  0.4524  0.0626  0.2097
  648TMC3     C 9647   1.768   0.955  16.404 -0.5248 -0.6596  0.1643
  648TMC3     O 9648   1.801   1.074  16.390 -0.1023 -0.2633 -0.0331
  648TMC3     H 9649   1.650   0.714  16.394  1.5065 -0.5284 -1.4365
  648TMC3    H1 9650   1.703   1.068  16.164 -0.0552 -0.4199 -0.4794
  648TMC3    H2 9651   1.405   0.780  16.051  1.3362 -0.1311 -0.8883
  648TMC3    C7 9652   1.487   1.028  16.032  0.0349 -0.1841  0.4173
  648TMC3    C8 9653   1.559   0.583  16.177 -0.2724 -0.2952  0.5327
  648TMC3    O1 9654   1.427   1.002  15.930  0.0888 -0.1706  0.2102
  648TMC3    O2 9655   1.467   0.510  16.225 -0.2824 -0.2090 -0.4899
  649TMC3    C1 9656   0.910   2.236  13.251  0.2331 -0.2588  0.3363
  649TMC3    C2 9657   1.033   2.267  13.205  0.5636  0.0781 -0.0393
  649TMC3    C3 9658   1.147   2.222  13.272 -0.0205 -0.0770 -1.1396
  649TMC3    C4 9659   0.896   2.175  13.368 -0.8343 -0.0599 -0.4152
  649TMC3    C5 9660   1.015   2.123  13.432  0.3638 -0.5477 -0.6851
  649TMC3    C6 9661   1.136   2.148  13.382  0.2935 -0.0421 -0.9702
  649TMC3     C 9662   0.796   2.299  13.188  0.2723  0.4259 -0.2146
  649TMC3     O 9663   0.700   2.323  13.259 -0.1038 -0.3061 -0.8843
  649TMC3     H 9664   1.035   2.333  13.120 -0.5046  0.0853 -0.0537
  649TMC3    H1 9665   0.795   2.156  13.401 -0.2059 -0.1124  1.4504
  649TMC3    H2 9666   1.216   2.108  13.443  1.4296 -0.5768 -2.7983
  649TMC3    C7 9667   0.990   2.036  13.542 -0.5994 -0.6751 -0.1567
  649TMC3    C8 9668   1.276   2.256  13.218  0.0368  0.5992  0.2818
  649TMC3    O1 9669   0.884   2.045  13.599 -0.4601 -0.0338  0.4502
  649TMC3    O2 9670   1.279   2.312  13.112 -0.0505  0.1181  0.3774
  650TMC3    C1 9671   3.489   3.303  13.155 -0.2186 -0.7086  1.4522
  650TMC3    C2 9672   3.536   3.398  13.248 -0.7555 -0.2076  0.2750
  650TMC3    C3 9673   3.439   3.437  13.337  0.9086  0.5956  0.6017
  650TMC3    C4 9674   3.365   3.252  13.155  0.6801  0.2912  0.2350
  650TMC3    C5 9675   3.277   3.290  13.244 -0.1098 -0.2103 -0.1107
  650TMC3    C6 9676   3.322   3.371  13.346 -0.9122  0.2997 -0.3486
  650TMC3     C 9677   3.599   3.230  13.087 -0.3376  0.5646 -0.7114
  650TMC3     O 9678   3.713   3.275  13.085 -0.4576  0.3722 -0.1182
  650TMC3     H 9679   3.634   3.442  13.237  0.1194 -2.4736 -0.8092
  650TMC3    H1 9680   3.337   3.198  13.065 -0.4791 -0.0154  0.7758
  650TMC3    H2 9681   3.249   3.395  13.422  0.2057  1.7208  0.2782
  650TMC3    C7 9682   3.154   3.334  13.190 -0.0877  0.9407  0.0226
  650TMC3    C8 9683   3.426   3.584  13.341 -0.2724  0.7937 -0.3383
  650TMC3    O1 9684   3.070   3.367  13.275  0.2371 -1.3824 -0.2541
  650TMC3    O2 9685   3.523   3.656  13.314  0.0791  0.1714  0.2577
  651MPD2     C 9686   2.018   0.990  11.136  0.1420  0.2789 -0.6878
  651MPD2    C1 9687   2.005   1.104  11.210 -0.4997 -0.3589 -0.1091
  651MPD2    C2 9688   2.114   1.172  11.260  0.0223 -0.4995 -0.1435
  651MPD2    C3 9689   2.236   1.122  11.247  0.0124 -0.5391 -0.0302
  651MPD2    C4 9690   2.245   1.008  11.172  0.0911  0.3197  0.8394
  651MPD2    C5 9691   2.142   0.934  11.118  0.6169 -0.0312  0.9678
  651MPD2     H 9692   2.085   1.252  11.327 -1.1808 -0.2927 -0.9074
  651MPD2    H1 9693   2.339   0.956  11.156  1.2571  2.4550  0.7824
  651MPD2    H2 9694   1.936   0.930  11.097 -1.6335  1.6776  0.8802
  651MPD2    H3 9695   2.151   0.835  11.074 -0.6885  0.4726 -0.4454
  651MPD2     N 9696   2.347   1.190  11.299 -0.0764  0.5991 -0.6268
  651MPD2    H5 9697   2.322   1.262  11.366  1.7977 -0.5982  1.3524
  651MPD2    N1 9698   1.872   1.166  11.227  0.6059 -0.2909  0.2826
  651MPD2    H7 9699   1.872   1.260  11.266 -1.4863 -0.5211  0.8324
  652TMC3    C1 9700   2.796   1.267  11.331 -0.2221  0.2416 -0.2636
  652TMC3    C2 9701   2.690   1.194  11.374 -0.0065 -0.2364 -0.7329
  652TMC3    C3 9702   2.559   1.241  11.353  0.1773  0.3579 -0.5137
  652TMC3    C4 9703   2.783   1.396  11.285 -0.5445  0.1966  0.3914
  652TMC3    C5 9704   2.651   1.439  11.279 -0.0553 -0.5695  0.7749
  652TMC3    C6 9705   2.540   1.366  11.309 -0.1724  0.3354  0.0069
  652TMC3     C 9706   2.926   1.199  11.330 -0.4291  0.3359 -0.3044
  652TMC3     O 9707   2.950   1.117  11.418  0.2056 -0.1359 -0.4790
  652TMC3     H 9708   2.706   1.091  11.404  1.7112  0.2452 -0.0220
  652TMC3    H1 9709   2.868   1.460  11.263  0.5593 -1.5805 -0.5366
  652TMC3    H2 9710   2.442   1.402  11.283 -1.1048 -1.6745  0.7291
  652TMC3    C7 9711   2.636   1.572  11.222 -0.6950  0.0541  0.9334
  652TMC3    C8 9712   2.473   1.147  11.287  0.4495 -0.6016 -0.2543
  652TMC3    O1 9713   2.544   1.639  11.266  0.1818 -0.2677  0.4759
  652TMC3    O2 9714   2.531   1.066  11.210  1.0009  0.0469 -0.6128
  653MPD2     C 9715   1.354   1.309   0.218 -0.5376 -0.4468  0.3946
  653MPD2    C1 9716   1.265   1.388   0.149 -0.4804  0.2786 -0.4483
  653MPD2    C2 9717   1.177   1.324   0.061  0.3836 -0.5614  0.9480
  653MPD2    C3 9718   1.180   1.185   0.052  0.3996  0.5458 -0.1207
  653MPD2    C4 9719   1.276   1.112   0.117  0.0266 -0.3537 -0.2970
  653MPD2    C5 9720   1.360   1.174   0.202 -0.5141 -0.7545 -0.7547
  653MPD2     H 9721   1.112   1.376  17.744  0.9346 -1.3505 -0.1524
  653MPD2    H1 9722   1.275   1.004   0.104 -1.6427 -0.0729 -2.4343
  653MPD2    H2 9723   1.420   1.350   0.293  1.4021 -3.2984  0.2561
  653MPD2    H3 9724   1.434   1.118   0.258 -0.4568  0.6929  0.6094
  653MPD2     N 9725   1.069   1.132  17.726 -0.4814  0.5204 -0.0050
  653MPD2    H5 9726   1.021   1.201  17.669 -0.0936  0.3933 -0.4779
  653MPD2    N1 9727   1.270   1.525   0.150  0.0938 -0.0342 -0.0723
  653MPD2    H7 9728   1.212   1.568   0.079 -0.0801 -1.5370 -0.8282
  654TMC3    C1 9729   0.936   0.958  17.626 -0.8506 -0.1260  0.0295
  654TMC3    C2 9730   0.848   1.048  17.575 -0.0689 -0.2478  0.0591
  654TMC3    C3 9731   0.781   1.009  17.458 -0.7302  0.1287 -0.5674
  654TMC3    C4 9732   0.949   0.838  17.571  0.8252  0.2562 -0.0062
  654TMC3    C5 9733   0.863   0.797  17.471  0.8497 -0.2836  0.7754
  654TMC3    C6 9734   0.776   0.884  17.414  0.0392 -0.2063  0.5488
  654TMC3     C 9735   1.040   0.996  17.722  0.5757 -0.7029  0.3920
  654TMC3     O 9736   1.090   0.899   0.022  0.0231 -0.2321 -0.2115
  654TMC3     H 9737   0.844   1.148  17.616  0.9949  0.2009 -0.9296
  654TMC3    H1 9738   1.039   0.779  17.587  0.9293  0.6073  0.6739
  654TMC3    H2 9739   0.707   0.850  17.337  0.4128  2.0634 -0.7784
  654TMC3    C7 9740   0.905   0.689  17.380 -0.4056 -0.2493 -0.1951
  654TMC3    C8 9741   0.703   1.106  17.379 -0.4900  0.2124  0.5339
  654TMC3    O1 9742   0.852   0.688  17.270  0.6003  0.2947  0.3711
  654TMC3    O2 9743   0.645   1.195  17.426 -0.7356 -0.1497  0.2781
  655MPD2     C 9744   2.311   1.722  15.829 -0.1970  0.1156 -0.0227
  655MPD2    C1 9745   2.205   1.635  15.838  0.1277 -0.0064 -0.7965
  655MPD2    C2 9746   2.196   1.521  15.760 -0.3546  0.8455 -0.4084
  655MPD2    C3 9747   2.292   1.502  15.661  1.0193 -0.5596 -0.4618
  655MPD2    C4 9748   2.393   1.594  15.647  0.5059  0.4237 -0.2930
  655MPD2    C5 9749   2.399   1.704  15.726 -0.0165  0.2984  1.1129
  655MPD2     H 9750   2.109   1.457  15.775  2.5701 -2.8289  0.9339
  655MPD2    H1 9751   2.470   1.575  15.573 -0.1125 -1.7161 -0.3712
  655MPD2    H2 9752   2.320   1.809  15.893 -0.9608  1.2379 -1.4620
  655MPD2    H3 9753   2.479   1.776  15.718 -0.2479  0.3602 -0.5685
  655MPD2     N 9754   2.307   1.393  15.573  0.3927 -0.4884 -0.3925
  655MPD2    H5 9755   2.389   1.391  15.513  1.4593 -0.1896  1.0519
  655MPD2    N1 9756   2.102   1.646  15.930  0.7988  0.1445  0.1902
  655MPD2    H7 9757   2.017   1.592  15.917 -0.4324  2.1488 -0.1314
  656TMC3    C1 9758   1.948   1.744  16.088 -0.7640 -0.1820  0.1895
  656TMC3    C2 9759   1.893   1.626  16.132  0.3976 -0.0398 -0.2716
  656TMC3    C3 9760   1.761   1.631  16.150 -0.8675 -0.3993  0.4680
  656TMC3    C4 9761   1.883   1.854  16.070 -0.1748 -0.3122 -0.0021
  656TMC3    C5 9762   1.743   1.849  16.081  0.6104 -0.6227  0.3720
  656TMC3    C6 9763   1.687   1.738  16.132  0.2430 -0.0480 -0.6826
  656TMC3     C 9764   2.080   1.742  16.024 -0.2651 -0.5453  0.0852
  656TMC3     O 9765   2.162   1.820  16.065 -0.0483  0.0708  0.0061
  656TMC3     H 9766   1.959   1.549  16.170 -0.0550 -1.2302 -1.9130
  656TMC3    H1 9767   1.941   1.943  16.045 -0.4763 -0.2304 -0.4121
  656TMC3    H2 9768   1.579   1.734  16.143  0.5627 -0.6792  2.2984
  656TMC3    C7 9769   1.657   1.919  15.983 -0.2630 -0.0358  1.2027
  656TMC3    C8 9770   1.708   1.537  16.246 -0.3794  0.5659  0.4092
  656TMC3    O1 9771   1.723   1.987  15.906  0.0653  0.1448 -0.4536
  656TMC3    O2 9772   1.725   1.419  16.226  0.0529  0.3197 -0.1777
  657TMC3    C1 9773   1.129   0.069  15.228  0.0792  0.2687  0.6634
  657TMC3    C2 9774   1.077   0.194  15.254  0.0028  0.7123 -0.1884
  657TMC3    C3 9775   1.127   0.295  15.178 -0.1112  0.6174  0.8346
  657TMC3    C4 9776   1.220   0.051  15.122  0.3823  0.2832  0.4400
  657TMC3    C5 9777   1.266   0.161  15.052 -0.4003  0.0278  0.7488
  657TMC3    C6 9778   1.218   0.285  15.077 -0.1334  0.3945 -0.3315
  657TMC3     C 9779   1.082   4.701  15.318 -0.5352  0.0718 -0.1743
  657TMC3     O 9780   1.003   4.732  15.408  0.1269 -0.4441  0.5769
  657TMC3     H 9781   1.000   0.211  15.328 -0.3572  0.6533 -0.5445
  657TMC3    H1 9782   1.270   4.693  15.114  0.7562  0.5156 -0.0996
  657TMC3    H2 9783   1.271   0.370  15.036 -0.3136 -0.1900 -1.7613
  657TMC3    C7 9784   1.399   0.156  14.989  0.0987  0.5815 -0.5574
  657TMC3    C8 9785   1.075   0.431  15.198 -0.0290  0.0149  0.9217
  657TMC3    O1 9786   1.475   0.067  15.033  0.0839  0.2747 -0.6356
  657TMC3    O2 9787   1.105   0.516  15.116  0.6024 -0.3595 -0.3821
  658MPD2     C 9788   2.596   1.379  15.024 -0.3059 -0.6698 -0.5840
  658MPD2    C1 9789   2.502   1.290  15.026 -0.4184 -0.7364  0.5323
  658MPD2    C2 9790   2.426   1.264  14.914 -0.3655 -0.0209 -0.8302
  658MPD2    C3 9791   2.455   1.335  14.798  0.2363  0.2636 -0.1392
  658MPD2    C4 9792   2.555   1.428  14.796  0.9605 -0.6280 -0.0075
  658MPD2    C5 9793   2.632   1.448  14.914 -0.4095 -0.8146 -0.5115
  658MPD2     H 9794   2.339   1.200  14.913 -0.3260 -0.0865  0.7948
  658MPD2    H1 9795   2.585   1.489  14.712 -0.2541 -2.9795 -2.1346
  658MPD2    H2 9796   2.649   1.416  15.112 -0.2308 -2.5766  0.1681
  658MPD2    H3 9797   2.712   1.520  14.906 -1.3736  0.4690  1.5580
  658MPD2     N 9798   2.370   1.303  14.689  0.1100 -0.5391  0.4130
  658MPD2    H5 9799   2.304   1.228  14.706 -0.6261  0.0508  0.1497
  658MPD2    N1 9800   2.472   1.227  15.152 -0.5025 -0.8273  0.7659
  658MPD2    H7 9801   2.515   1.260  15.238  0.3014 -0.1231  0.0924
  659TMC3    C1 9802   2.354   1.098  15.298  0.5802 -0.0063 -0.0195
  659TMC3    C2 9803   2.315   1.210  15.369  0.4698 -0.3943 -0.1474
  659TMC3    C3 9804   2.236   1.191  15.474 -0.6987  0.2235  0.2096
  659TMC3    C4 9805   2.306   0.974  15.328 -0.9189  0.5141 -0.2500
  659TMC3    C5 9806   2.235   0.964  15.446  0.0839  0.1059  0.6334
  659TMC3    C6 9807   2.199   1.069  15.522  0.4263  0.2837 -1.1407
  659TMC3     C 9808   2.380   1.123  15.165  0.5517 -0.1012 -0.1058
  659TMC3     O 9809   2.329   1.046  15.084 -0.5533 -0.3926  0.2533
  659TMC3     H 9810   2.333   1.313  15.340 -1.2639 -0.3086 -0.9096
  659TMC3    H1 9811   2.321   0.888  15.263  0.4845  0.0540  0.6812
  659TMC3    H2 9812   2.129   1.059  15.605  1.7516 -0.3287 -0.1064
  659TMC3    C7 9813   2.184   0.832  15.483  0.4248  0.2485  0.4097
  659TMC3    C8 9814   2.205   1.302  15.563 -0.1870 -0.1914  0.4414
  659TMC3    O1 9815   2.083   0.819  15.554  0.5363 -0.6549 -0.1701
  659TMC3    O2 9816   2.109   1.278  15.633 -0.3946 -0.1527  0.1274
  660MPD2     C 9817   0.473   0.083  12.441  0.3632 -0.3431 -0.2694
  660MPD2    C1 9818   0.355   0.142  12.474  0.3418 -0.1751  0.7617
  660MPD2    C2 9819   0.301   0.116  12.600 -0.3262 -0.3512  0.2546
  660MPD2    C3 9820   0.371   0.047  12.695 -0.0482  0.0010 -0.7345
  660MPD2    C4 9821   0.493   4.725  12.655 -0.2055  0.0834 -0.4921
  660MPD2    C5 9822   0.543   4.737  12.528 -0.9046 -0.0487 -0.4523
  660MPD2     H 9823   0.201   0.153  12.620 -0.5976 -1.2337  0.5151
  660MPD2    H1 9824   0.534   4.640  12.709  0.3961  0.6683 -0.0308
  660MPD2    H2 9825   0.511   0.096  12.341  1.4243  2.4857  0.5077
  660MPD2    H3 9826   0.635   4.690  12.498 -0.6948  0.9969 -1.4425
  660MPD2     N 9827   0.336   0.020  12.831 -0.0180 -0.2991  0.2620
  660MPD2    H5 9828   0.402   4.701  12.883 -3.0361 -1.1447  3.1973
  660MPD2    N1 9829   0.283   0.222  12.386 -0.2527 -0.8523 -0.1442
  660MPD2    H7 9830   0.190   0.254  12.413 -0.3683  1.3616 -3.0768
  661TMC3    C1 9831   0.213   0.356  12.218 -0.0653 -0.3265 -0.7014
  661TMC3    C2 9832   0.246   0.449  12.127 -0.3021  0.1047 -0.1744
  661TMC3    C3 9833   0.140   0.514  12.068  0.0782 -0.4416 -0.2544
  661TMC3    C4 9834   0.085   0.319  12.250 -0.0554  0.5547  0.2071
  661TMC3    C5 9835   4.723   0.394  12.185 -0.0510 -0.1921  1.0717
  661TMC3    C6 9836   0.010   0.497  12.102 -0.4722  0.5906 -0.7738
  661TMC3     C 9837   0.323   0.270  12.264  0.5509 -0.0374 -0.2171
  661TMC3     O 9838   0.433   0.289  12.221  0.3151  0.8275 -0.1226
  661TMC3     H 9839   0.347   0.457  12.089 -0.7633  1.2333 -1.1557
  661TMC3    H1 9840   0.062   0.228  12.305  1.2297  0.8490  1.2543
  661TMC3    H2 9841   4.666   0.535  12.043  0.5235 -0.2684 -2.7367
  661TMC3    C7 9842   4.590   0.349  12.184  0.2852  0.5783  0.4310
  661TMC3    C8 9843   0.171   0.598  11.958 -0.6969 -0.7342  0.0809
  661TMC3    O1 9844   4.502   0.432  12.156 -0.4581 -0.0279  0.3049
  661TMC3    O2 9845   0.285   0.598  11.930  0.3869 -0.5411  0.3713
  662MPD2     C 9846   0.936   4.297  17.075  0.8657 -0.0136  0.4392
  662MPD2    C1 9847   0.801   4.290  17.116 -0.5433  0.1936 -0.0679
  662MPD2    C2 9848   0.725   4.412  17.119 -0.2684 -0.6374  0.4859
  662MPD2    C3 9849   0.786   4.532  17.089 -0.1104  0.1778 -0.6143
  662MPD2    C4 9850   0.921   4.533  17.060  0.5076  0.4981 -0.7725
  662MPD2    C5 9851   0.993   4.416  17.056  0.2661 -0.7408  0.0321
  662MPD2     H 9852   0.623   4.413  17.154 -0.4148  1.6851 -0.0005
  662MPD2    H1 9853   0.969   4.626  17.032  1.3883  0.8469  1.8725
  662MPD2    H2 9854   0.992   4.204  17.081  1.6895  0.3591 -1.5866
  662MPD2    H3 9855   1.097   4.422  17.026 -0.2706  2.5415 -1.1898
  662MPD2     N 9856   0.709   4.636  17.136 -0.3463 -0.5323  0.2884
  662MPD2    H5 9857   0.616   4.614  17.171 -0.5956  0.9333  0.5726
  662MPD2    N1 9858   0.726   4.175  17.151 -0.2931  0.0940  0.0532
  662MPD2    H7 9859   0.625   4.188  17.151 -0.2814  0.1928  0.3293
  663TMC3    C1 9860   0.694   3.952  17.214 -0.7484  0.0274  0.0169
  663TMC3    C2 9861   0.556   3.963  17.187  0.2246 -0.3656 -0.3772
  663TMC3    C3 9862   0.464   3.874  17.244  0.4789 -0.0412  0.3921
  663TMC3    C4 9863   0.750   3.841  17.273  0.9280 -0.2072 -0.1288
  663TMC3    C5 9864   0.657   3.746  17.313 -0.9476  0.3634 -0.4304
  663TMC3    C6 9865   0.521   3.768  17.317 -0.1645 -0.6293  0.4495
  663TMC3     C 9866   0.784   4.049  17.149  0.1335  0.2899 -0.4679
  663TMC3     O 9867   0.899   4.011  17.135 -0.0913 -0.5276  0.4403
  663TMC3     H 9868   0.508   4.056  17.158  0.1564  0.3736  2.0708
  663TMC3    H1 9869   0.857   3.824  17.279  1.0624  0.5322 -0.3758
  663TMC3    H2 9870   0.445   3.698  17.350  0.3618 -2.4501 -2.1854
  663TMC3    C7 9871   0.719   3.639  17.401  0.5313 -0.7906  0.5988
  663TMC3    C8 9872   0.356   3.953  17.296  0.5279  0.2982  0.0825
  663TMC3    O1 9873   0.838   3.642  17.419  0.3008  0.0666 -0.3521
  663TMC3    O2 9874   0.288   4.017  17.211 -0.9541 -0.0404 -0.8280
  664MPD2     C 9875   3.084   2.505  17.731  0.0766  0.1888  0.3438
  664MPD2    C1 9876   3.163   2.616  17.743  0.2563 -0.0374  0.1760
  664MPD2    C2 9877   3.191   2.669   0.114  1.0146 -1.0199  0.0716
  664MPD2    C3 9878   3.142   2.606   0.227 -0.2787 -0.6052  0.5106
  664MPD2    C4 9879   3.062   2.490   0.212  0.5880  0.9113 -0.8040
  664MPD2    C5 9880   3.030   2.445   0.088  1.1728 -0.0104  0.3587
  664MPD2     H 9881   3.252   2.759   0.118 -1.7315  0.7955  1.9109
  664MPD2    H1 9882   3.021   2.428   0.291  0.2164 -0.6360 -2.2090
  664MPD2    H2 9883   3.053   2.464  17.636 -2.2122 -0.2591  1.2996
  664MPD2    H3 9884   2.979   2.350   0.075  0.4588  0.0878  2.3955
  664MPD2     N 9885   3.181   2.662   0.350  0.2218 -0.3387  0.1355
  664MPD2    H5 9886   3.262   2.724   0.342 -0.2983  0.2407 -0.6654
  664MPD2    N1 9887   3.228   2.668  17.628 -0.1640  0.0211  0.1573
  664MPD2    H7 9888   3.283   2.753  17.636  0.0549 -0.0620 -0.4563
  665TMC3    C1 9889   3.226   2.677   0.578  0.6692 -0.1243 -0.7818
  665TMC3    C2 9890   3.192   2.638   0.708  0.4034 -0.0375 -0.5785
  665TMC3    C3 9891   3.297   2.644   0.798  0.4165 -0.3163 -0.5441
  665TMC3    C4 9892   3.346   2.734   0.543 -0.2721  0.6569  0.4254
  665TMC3    C5 9893   3.439   2.751   0.638 -1.1160 -0.0073 -0.3034
  665TMC3    C6 9894   3.422   2.700   0.766 -0.0785 -0.4452  0.3838
  665TMC3     C 9895   3.139   2.626   0.474  0.1349  0.3573  0.1474
  665TMC3     O 9896   3.047   2.553   0.498  0.7013  0.3171 -0.4196
  665TMC3     H 9897   3.097   2.588   0.722  0.4162 -0.3168 -1.4839
  665TMC3    H1 9898   3.368   2.776   0.446 -1.9835  2.7107  0.9237
  665TMC3    H2 9899   3.503   2.703   0.838 -1.9646  1.6410  2.3943
  665TMC3    C7 9900   3.563   2.819   0.603  0.3824 -0.3417  0.7608
  665TMC3    C8 9901   3.275   2.630   0.934  0.3075 -0.5520  0.0577
  665TMC3    O1 9902   3.585   2.819   0.484 -0.5808  0.0048  0.2987
  665TMC3    O2 9903   3.377   2.628   1.008 -0.6526  0.4773 -0.2944
  666TMC3    C1 9904   2.570   2.630  10.060  0.4393 -0.1556  0.1895
  666TMC3    C2 9905   2.670   2.540  10.077 -0.5082  0.0099  0.3239
  666TMC3    C3 9906   2.797   2.586  10.063 -0.6708  0.2757 -0.4294
  666TMC3    C4 9907   2.596   2.755  10.013 -0.3749  0.7068  0.0885
  666TMC3    C5 9908   2.725   2.802  10.012  0.3306 -0.4730 -0.8583
  666TMC3    C6 9909   2.826   2.713  10.030 -0.5009 -0.2699  0.4184
  666TMC3     C 9910   2.459   2.622  10.151 -0.2537 -0.2054 -0.5062
  666TMC3     O 9911   2.385   2.721  10.141  0.4123  0.4975 -0.4209
  666TMC3     H 9912   2.650   2.434  10.089 -0.7112  0.1863  1.4724
  666TMC3    H1 9913   2.516   2.827  10.001  0.2103  1.4665  0.8030
  666TMC3    H2 9914   2.929   2.744  10.019 -0.5696  0.5090  2.0102
  666TMC3    C7 9915   2.748   2.940  10.051 -0.9129  0.0375 -0.0396
  666TMC3    C8 9916   2.904   2.489  10.071 -0.1468  0.1617  0.6199
  666TMC3    O1 9917   2.643   3.005  10.056 -0.5115  0.3244 -0.1561
  666TMC3    O2 9918   2.863   2.375  10.083 -0.2566 -0.4946  0.4771
  667MPD2     C 9919   4.405   2.155  15.017 -0.0883  0.6263  0.0513
  667MPD2    C1 9920   4.291   2.208  15.071 -0.5800 -0.6787  1.0124
  667MPD2    C2 9921   4.165   2.150  15.059 -0.5431  0.0806  0.3220
  667MPD2    C3 9922   4.159   2.032  14.987  0.9687  0.6095 -0.3605
  667MPD2    C4 9923   4.275   1.982  14.931 -0.1395  0.3978 -0.4138
  667MPD2    C5 9924   4.400   2.038  14.946 -0.5080  0.0303  0.0966
  667MPD2     H 9925   4.081   2.197  15.108 -2.0544 -0.0826 -2.1545
  667MPD2    H1 9926   4.274   1.888  14.878  3.8894  0.3982 -0.4863
  667MPD2    H2 9927   4.505   2.194  15.037  0.2292  0.4809 -1.2345
  667MPD2    H3 9928   4.483   1.975  14.916 -0.3304  0.6598 -0.7283
  667MPD2     N 9929   4.037   1.959  14.962 -0.5379  0.3700 -0.1382
  667MPD2    H5 9930   4.048   1.864  14.930  0.6908 -0.0405  1.5138
  667MPD2    N1 9931   4.305   2.323  15.151  0.2265 -0.3624  0.0861
  667MPD2    H7 9932   4.236   2.321  15.226 -0.3086 -0.2968 -0.4096
  668TMC3    C1 9933   4.372   2.529  15.246 -0.9363  0.4291 -1.0086
  668TMC3    C2 9934   4.449   2.643  15.227 -0.4271 -0.0039 -0.3216
  668TMC3    C3 9935   4.461   2.729  15.336  0.1875  0.3081  0.2353
  668TMC3    C4 9936   4.311   2.500  15.364  0.0997  0.3225  0.0979
  668TMC3    C5 9937   4.339   2.577  15.477 -0.0260  0.0034  0.7079
  668TMC3    C6 9938   4.417   2.692  15.463  0.0156  0.0092  0.0284
  668TMC3     C 9939   4.407   2.416  15.154  0.1421 -1.0383  0.3083
  668TMC3     O 9940   4.494   2.420  15.067 -0.3772  0.1290 -0.1854
  668TMC3     H 9941   4.506   2.670  15.139 -0.5817  0.2928 -0.3325
  668TMC3    H1 9942   4.261   2.405  15.376 -0.3018  0.1770 -2.6726
  668TMC3    H2 9943   4.439   2.753  15.550  0.9910 -1.7364  0.9955
  668TMC3    C7 9944   4.260   2.566  15.602 -0.4648 -0.5134 -0.4207
  668TMC3    C8 9945   4.516   2.859  15.334  0.2479  0.4805  0.4318
  668TMC3    O1 9946   4.306   2.633  15.696 -0.8004  0.1157  0.4731
  668TMC3    O2 9947   4.531   2.926  15.436 -0.3157  0.4315 -0.1304
  669TMC3    C1 9948   2.588   2.429  15.022 -0.7261 -0.2076  0.5936
  669TMC3    C2 9949   2.472   2.406  14.962 -0.0764 -0.1652  0.3691
  669TMC3    C3 9950   2.459   2.435  14.828  0.2614 -0.1770  0.4535
  669TMC3    C4 9951   2.699   2.466  14.949 -0.2586  0.0254  0.1189
  669TMC3    C5 9952   2.683   2.483  14.812  0.2352  0.6508 -0.0220
  669TMC3    C6 9953   2.561   2.474  14.751 -0.3599  0.4690 -0.6016
  669TMC3     C 9954   2.609   2.381  15.156 -0.3294 -0.6829 -0.3956
  669TMC3     O 9955   2.509   2.375  15.231 -0.4316  0.0098 -0.2208
  669TMC3     H 9956   2.395   2.368  15.028 -0.4918 -0.6411 -0.3852
  669TMC3    H1 9957   2.797   2.478  14.994  0.3194 -2.8774 -0.3412
  669TMC3    H2 9958   2.550   2.499  14.647 -3.9726 -1.4831 -0.6720
  669TMC3    C7 9959   2.785   2.531  14.723 -0.9638 -0.3036 -0.0947
  669TMC3    C8 9960   2.323   2.436  14.781 -0.3190 -0.2512 -0.0985
  669TMC3    O1 9961   2.753   2.567  14.611 -0.0865  0.0808  0.2191
  669TMC3    O2 9962   2.251   2.354  14.841 -0.0826 -0.1035 -0.1952
  670MPD2     C 9963   0.779   0.063  13.414  0.1284 -0.1763 -0.3305
  670MPD2    C1 9964   0.762   0.183  13.482 -0.5715  0.2111 -0.9371
  670MPD2    C2 9965   0.781   0.185  13.620  0.5372  0.7345  0.0048
  670MPD2    C3 9966   0.821   0.071  13.689 -0.5483 -0.1722  0.6165
  670MPD2    C4 9967   0.845   4.694  13.618 -0.5807 -0.1725  0.1598
  670MPD2    C5 9968   0.821   4.690  13.481 -0.2234  0.0692  0.3093
  670MPD2     H 9969   0.786   0.278  13.676  0.0106  0.3092  0.7489
  670MPD2    H1 9970   0.865   4.599  13.665  0.0783 -0.2068 -0.1783
  670MPD2    H2 9971   0.763   0.052  13.308 -1.0538 -0.4154 -0.1293
  670MPD2    H3 9972   0.837   4.604  13.418  1.7707 -0.6995  1.8549
  670MPD2     N 9973   0.812   0.067  13.828  0.7894 -0.4253 -0.1704
  670MPD2    H5 9974   0.760   0.144  13.869  0.0687 -0.4876 -0.9829
  670MPD2    N1 9975   0.722   0.302  13.414 -0.1117 -0.3407 -0.9379
  670MPD2    H7 9976   0.710   0.385  13.472  1.5946  0.7514 -2.1497
  671TMC3    C1 9977   0.789   4.703  14.040 -0.1954  0.2848  0.1913
  671TMC3    C2 9978   0.843   4.640  14.145  0.9585  1.3052  0.0100
  671TMC3    C3 9979   0.769   4.634  14.260  0.7140  0.0468  0.3316
  671TMC3    C4 9980   0.654   4.738  14.028  0.3893  0.8553 -0.1303
  671TMC3    C5 9981   0.577   4.694  14.135 -0.4161 -0.5645  0.1655
  671TMC3    C6 9982   0.634   4.646  14.248  0.1158  0.0286  0.1343
  671TMC3     C 9983   0.856   4.704  13.913  0.7789 -0.9261 -0.0081
  671TMC3     O 9984   0.942   4.621  13.890 -0.5938 -0.2381 -0.2048
  671TMC3     H 9985   0.948   4.617  14.139  1.1212  2.0590 -0.0193
  671TMC3    H1 9986   0.615   0.041  13.936  0.1531  1.4579  0.2439
  671TMC3    H2 9987   0.569   4.602  14.323 -0.0324  0.2613  0.1408
  671TMC3    C7 9988   0.491   4.585  14.086  0.6297 -0.0310  1.1126
  671TMC3    C8 9989   0.794   4.536  14.356 -0.1608 -0.0935 -0.5186
  671TMC3    O1 9990   0.506   4.561  13.966 -0.0337  0.4081 -0.1065
  671TMC3    O2 9991   0.722   4.514  14.452  0.6725  0.2757  0.0225
  672MPD2     C 9992   1.282   1.065   1.290  0.1773 -0.5679 -0.2562
  672MPD2    C1 9993   1.385   1.002   1.216  0.8956 -0.0231 -0.2792
  672MPD2    C2 9994   1.508   1.067   1.206  0.4033  0.3764 -0.1067
  672MPD2    C3 9995   1.533   1.182   1.271  0.4223  0.0653 -0.4258
  672MPD2    C4 9996   1.435   1.246   1.342  0.0454 -0.6735  0.0352
  672MPD2    C5 9997   1.309   1.184   1.349  0.4800  0.6062  0.1287
  672MPD2     H 9998   1.581   1.011   1.149  1.5466  0.5875  1.1482
  672MPD2    H1 9999   1.455   1.339   1.394 -2.6955 -1.1215  1.9038
  672MPD2    H210000   1.177   1.036   1.290 -0.2812  1.1145  0.0381
  672MPD2    H310001   1.231   1.238   1.402  0.0877  0.2807 -0.1146
  672MPD2     N10002   1.656   1.244   1.272 -0.2657 -0.6382  0.5185
  672MPD2    H510003   1.665   1.329   1.327 -0.1702 -1.5423  1.8917
  672MPD2    N110004   1.364   0.888   1.141 -0.1655  0.0822 -0.5546
  672MPD2    H710005   1.428   0.861   1.067  1.4660  1.9639  0.1631
  673TMC3    C110006   1.228   0.741   1.027 -0.4286  0.2792  0.1178
  673TMC3    C210007   1.338   0.694   0.960  0.3562  0.5337  0.2287
  673TMC3    C310008   1.329   0.670   0.827  0.1920  0.0222 -0.4901
  673TMC3    C410009   1.110   0.760   0.967  0.3014 -0.0073  0.0842
  673TMC3    C510010   1.100   0.710   0.840  0.5159  0.5072 -0.0843
  673TMC3    C610011   1.205   0.673   0.764  0.3001  0.0579 -0.7403
  673TMC3     C10012   1.246   0.813   1.146  0.2095 -0.1084 -0.3652
  673TMC3     O10013   1.159   0.819   1.229  0.3143  0.7445  0.6974
  673TMC3     H10014   1.433   0.702   1.011 -0.5132  0.8763  1.8021
  673TMC3    H110015   1.026   0.793   1.026 -0.8691  1.1992 -2.2548
  673TMC3    H210016   1.185   0.634   0.664 -1.6565 -0.1150 -0.2967
  673TMC3    C710017   0.984   0.749   0.770 -0.0605 -0.2762 -0.4763
  673TMC3    C810018   1.431   0.587   0.763  0.6615  0.2948 -0.2425
  673TMC3    O110019   0.966   0.700   0.660  0.0199 -0.2824  0.7434
  673TMC3    O210020   1.398   0.545   0.651  0.2045 -0.1233  0.3536
  674MPD2     C10021   0.808   1.415   0.189  0.0944  0.4534 -0.3683
  674MPD2    C110022   0.791   1.277   0.198 -0.2710 -0.0980  0.1399
  674MPD2    C210023   0.699   1.219   0.121  0.8749  0.0235  0.3071
  674MPD2    C310024   0.603   1.294   0.055  0.5030 -0.3319 -0.6867
  674MPD2    C410025   0.606   1.431   0.063  0.2375  0.0115  0.4119
  674MPD2    C510026   0.722   1.489   0.115 -0.3903  0.4145  0.6140
  674MPD2     H10027   0.688   1.112   0.108  0.0042  0.1040  0.3809
  674MPD2    H110028   0.535   1.500   0.020  0.6289  0.3823  0.3502
  674MPD2    H210029   0.889   1.468   0.239  0.3815 -1.9060  1.6493
  674MPD2    H310030   0.725   1.597   0.103 -3.2594  0.3952 -0.4440
  674MPD2     N10031   0.496   1.221  17.752  0.4066 -0.2481 -0.0545
  674MPD2    H510032   0.499   1.122  17.734  1.4768 -0.2758  0.2836
  674MPD2    N110033   0.888   1.197   0.279  0.4224  0.0352  0.3002
  674MPD2    H710034   0.958   1.250   0.330  0.0696 -0.2166  1.0525
  675TMC3    C110035   1.005   1.000   0.353  0.4794  0.2655 -0.4898
  675TMC3    C210036   1.028   0.870   0.328  0.0578  0.6252  0.5924
  675TMC3    C310037   1.140   0.818   0.389  0.0641  0.6255 -0.3408
  675TMC3    C410038   1.062   1.068   0.463 -0.4608 -0.0812 -0.1981
  675TMC3    C510039   1.160   0.999   0.531  0.2016  0.4117  0.1491
  675TMC3    C610040   1.202   0.875   0.497  0.0139 -0.0773 -0.1748
  675TMC3     C10041   0.889   1.054   0.285 -0.0578 -0.2679 -0.6248
  675TMC3     O10042   0.805   0.970   0.250  0.1517 -0.3918  0.5297
  675TMC3     H10043   0.982   0.818   0.245  0.2937  2.3269 -0.6040
  675TMC3    H110044   1.018   1.165   0.480 -1.1544 -0.5571  0.7332
  675TMC3    H210045   1.282   0.823   0.549  0.0567 -0.7078 -0.8565
  675TMC3    C710046   1.212   1.061   0.651 -0.0551 -0.2640 -0.4999
  675TMC3    C810047   1.153   0.677   0.367 -0.2503 -0.2677 -0.1421
  675TMC3    O110048   1.283   0.991   0.721  0.2122 -0.1772  0.2134
  675TMC3    O210049   1.239   0.632   0.296 -0.1448  0.3005 -0.2574
  676MPD2     C10050   3.594   3.193  11.280 -0.4115  0.6300 -0.2738
  676MPD2    C110051   3.488   3.154  11.354  0.4827  0.8558  0.0214
  676MPD2    C210052   3.448   3.024  11.335  0.2045  0.1518 -0.2313
  676MPD2    C310053   3.516   2.939  11.249  1.0379 -0.6645  0.0831
  676MPD2    C410054   3.615   2.992  11.170 -0.4560  0.1409 -0.4426
  676MPD2    C510055   3.653   3.122  11.177  0.6335  0.4076  0.0245
  676MPD2     H10056   3.376   2.984  11.405  0.7046 -3.8186 -1.9838
  676MPD2    H110057   3.665   2.934  11.093 -1.3340  0.2815 -1.1224
  676MPD2    H210058   3.630   3.292  11.303  1.1236 -0.0373  0.1524
  676MPD2    H310059   3.731   3.164  11.114 -1.1420  2.0949 -1.0561
  676MPD2     N10060   3.490   2.801  11.231  0.7199  0.1833 -0.2205
  676MPD2    H510061   3.538   2.752  11.156  0.9966  1.1849 -0.6981
  676MPD2    N110062   3.421   3.229  11.455  0.2607  0.2134 -0.0721
  676MPD2    H710063   3.340   3.187  11.499  2.0599 -3.0266  0.1336
  677TMC3    C110064   3.356   3.390  11.604 -0.6938  0.2625 -0.6781
  677TMC3    C210065   3.244   3.305  11.633  0.0406  0.4913 -0.0501
  677TMC3    C310066   3.164   3.346  11.735 -0.8638 -0.1383 -0.4240
  677TMC3    C410067   3.381   3.502  11.677 -0.6980  0.6288  0.1396
  677TMC3    C510068   3.305   3.533  11.778  0.1619  0.0333  0.0059
  677TMC3    C610069   3.193   3.459  11.807  0.0670  0.4023 -0.3483
  677TMC3     C10070   3.471   3.337  11.524 -0.1593  0.4069 -0.0810
  677TMC3     O10071   3.579   3.398  11.513 -0.3256 -0.2784  0.3239
  677TMC3     H10072   3.211   3.222  11.571 -0.7162  0.3751  0.5135
  677TMC3    H110073   3.459   3.566  11.638 -0.6080  0.1338 -0.4849
  677TMC3    H210074   3.118   3.484  11.882  0.0950 -1.4128  0.2951
  677TMC3    C710075   3.348   3.631  11.879 -0.3272 -0.4666 -0.1080
  677TMC3    C810076   3.047   3.268  11.764  0.4635 -0.6288  0.0047
  677TMC3    O110077   3.271   3.637  11.976  0.3738  0.0768 -0.5926
  677TMC3    O210078   3.004   3.212  11.665 -0.2452 -0.1522 -0.2433
  678MPD2     C10079   0.389   2.854   1.295  0.2726  0.2444  1.0481
  678MPD2    C110080   0.374   2.922   1.176  0.0540  0.2631  0.5408
  678MPD2    C210081   0.245   2.921   1.117 -0.1439 -0.2972  0.2100
  678MPD2    C310082   0.140   2.853   1.175 -0.0452 -0.7556 -0.5929
  678MPD2    C410083   0.164   2.781   1.289  0.2467 -0.1979 -0.3667
  678MPD2    C510084   0.286   2.779   1.340  0.4597  0.1189  0.1169
  678MPD2     H10085   0.226   2.979   1.027 -0.3261 -0.7155 -0.0219
  678MPD2    H110086   0.089   2.729   1.348  0.0367 -0.8388 -1.1881
  678MPD2    H210087   0.476   2.857   1.360  0.2860 -1.5933  1.1355
  678MPD2    H310088   0.295   2.733   1.438 -1.2657  1.8201  1.0673
  678MPD2     N10089   0.009   2.855   1.108 -0.5507 -0.7385  0.1873
  678MPD2    H510090   4.730   2.923   1.034  0.3435  1.1745  1.7365
  678MPD2    N110091   0.482   2.993   1.116 -0.3006 -0.2450  0.8129
  678MPD2    H710092   0.464   3.033   1.024  2.4871 -0.4167  0.1885
  679TMC3    C110093   0.909   3.130   0.977  0.5348 -0.4065 -1.0660
  679TMC3    C210094   0.827   3.038   1.034 -0.1484 -0.1829  0.0408
  679TMC3    C310095   0.697   3.063   1.047  0.1394  0.5298 -0.5038
  679TMC3    C410096   0.868   3.245   0.912 -0.5921 -0.3763 -0.0194
  679TMC3    C510097   0.734   3.263   0.923  0.5121 -0.1010 -0.0304
  679TMC3    C610098   0.647   3.185   0.994 -0.4834 -0.0069  0.1413
  679TMC3     C10099   1.053   3.097   0.966 -0.0378 -0.5315 -0.0781
  679TMC3     O10100   1.084   2.979   0.958  0.7690 -0.0846 -0.4164
  679TMC3     H10101   0.878   2.962   1.093  1.6322 -0.7091 -2.1506
  679TMC3    H110102   0.933   3.306   0.849 -0.4647  0.5408  0.9985
  679TMC3    H210103   0.547   3.225   1.006 -1.1721 -2.5552  2.8143
  679TMC3    C710104   0.682   3.386   0.872  0.1214  0.7323  0.1369
  679TMC3    C810105   0.616   2.984   1.136 -0.4013  0.0139 -0.5288
  679TMC3    O110106   0.560   3.406   0.871 -0.2525 -0.0741  0.8432
  679TMC3    O210107   0.664   2.889   1.199 -0.2259 -0.2239  0.3186
  680MPD2     C10108   0.199   1.806  14.038  0.6224 -0.4020 -0.6175
  680MPD2    C110109   0.338   1.818  14.063 -0.7190  0.5182 -0.3671
  680MPD2    C210110   0.389   1.939  14.103 -0.1390 -0.1230  0.5331
  680MPD2    C310111   0.308   2.041  14.152  0.5977  0.0306 -0.1771
  680MPD2    C410112   0.170   2.024  14.129 -0.0373 -0.3086 -0.2279
  680MPD2    C510113   0.122   1.910  14.081 -0.4117  0.8144 -0.3912
  680MPD2     H10114   0.497   1.944  14.116 -0.0031  1.3086 -1.0725
  680MPD2    H110115   0.099   2.099  14.161 -0.6740  0.2911 -3.0322
  680MPD2    H210116   0.147   1.714  14.013  1.8989 -1.0170 -1.0093
  680MPD2    H310117   0.014   1.907  14.081 -0.4284  1.6412  0.4542
  680MPD2     N10118   0.359   2.160  14.210 -0.7902 -0.2891  0.4310
  680MPD2    H510119   0.292   2.233  14.229  0.5543  0.7456  1.2282
  680MPD2    N110120   0.433   1.718  14.041  0.1342 -0.3161  0.4426
  680MPD2    H710121   0.532   1.742  14.040  0.2975 -1.0644 -1.1941
  681TMC3    C110122   0.513   1.516  14.011  0.1135 -0.1820 -0.3531
  681TMC3    C210123   0.504   1.437  14.123  0.2447  0.1852 -0.3496
  681TMC3    C310124   0.607   1.439  14.210  0.2606 -0.3275 -0.2614
  681TMC3    C410125   0.627   1.583  13.978 -0.1982  0.5820  0.4836
  681TMC3    C510126   0.736   1.567  14.059  0.1192 -0.7402 -0.2739
  681TMC3    C610127   0.728   1.494  14.182 -0.2285  0.2335 -0.4073
  681TMC3     C10128   0.395   1.589  14.012 -0.5275 -0.0098 -0.1769
  681TMC3     O10129   0.282   1.538  14.021  0.2463  0.3055 -0.4022
  681TMC3     H10130   0.412   1.382  14.142  0.2628 -0.0106 -0.8159
  681TMC3    H110131   0.637   1.639  13.886 -2.0544  0.1434  0.0325
  681TMC3    H210132   0.806   1.473  14.253  0.4270  0.6015 -1.0226
  681TMC3    C710133   0.873   1.595  14.019  0.4864  0.2136  0.3311
  681TMC3    C810134   0.568   1.479  14.343  0.2893 -0.1491 -0.3141
  681TMC3    O110135   0.955   1.524  14.078 -0.7305 -0.1878 -0.8403
  681TMC3    O210136   0.638   1.476  14.443  0.3650 -0.1634  0.0157
  682MPD2     C10137   2.713   3.690  11.177 -0.0395  0.4068 -0.2742
  682MPD2    C110138   2.602   3.608  11.142 -0.0362 -0.4470 -1.0482
  682MPD2    C210139   2.500   3.592  11.234 -0.9950 -0.5633  0.1501
  682MPD2    C310140   2.507   3.667  11.349  0.0752 -0.7603 -0.0961
  682MPD2    C410141   2.607   3.754  11.385 -0.4126 -0.7677  0.7148
  682MPD2    C510142   2.714   3.767  11.294  0.1571  0.4978 -0.0933
  682MPD2     H10143   2.415   3.526  11.218 -1.5695 -0.2304  1.8737
  682MPD2    H110144   2.610   3.813  11.476 -1.3845  0.0200  0.2514
  682MPD2    H210145   2.800   3.687  11.111  0.5191 -2.1102  0.5922
  682MPD2    H310146   2.806   3.823  11.309 -0.1811  1.1223 -0.3536
  682MPD2     N10147   2.424   3.636  11.461  0.2199  0.7767  0.7849
  682MPD2    H510148   2.434   3.692  11.545 -0.5039  1.5245  0.3653
  682MPD2    N110149   2.579   3.548  11.018  0.1749  1.0593 -0.4685
  682MPD2    H710150   2.487   3.510  11.001  0.4653  0.0809  0.1630
  683TMC3    C110151   2.389   3.485  11.821 -1.1019  0.1075 -0.3410
  683TMC3    C210152   2.323   3.365  11.839 -0.7479 -0.5672  0.2420
  683TMC3    C310153   2.234   3.329  11.747 -0.5062  0.5811 -0.2099
  683TMC3    C410154   2.383   3.553  11.713 -0.8035 -0.9218 -0.0773
  683TMC3    C510155   2.300   3.508  11.615  0.1927  0.4912 -0.7123
  683TMC3    C610156   2.209   3.400  11.634  0.4142  0.7116  0.0151
  683TMC3     C10157   2.490   3.533  11.920 -0.1620  0.0832 -0.2760
  683TMC3     O10158   2.541   3.643  11.898 -0.7585 -0.3428 -0.3855
  683TMC3     H10159   2.327   3.316  11.936 -1.0892 -0.2047  0.4401
  683TMC3    H110160   2.436   3.647  11.709 -1.5063 -0.5591 -0.8866
  683TMC3    H210161   2.137   3.370  11.558 -1.0480 -3.1438  2.9482
  683TMC3    C710162   2.327   3.544  11.479  0.4867  0.1290  0.1912
  683TMC3    C810163   2.201   3.187  11.731 -0.5787 -0.5636 -0.1169
  683TMC3    O110164   2.258   3.486  11.393 -0.4248 -0.2328 -0.3121
  683TMC3    O210165   2.093   3.164  11.673 -0.4006  0.1729 -0.0148
  684MPD2     C10166   0.728   2.637  16.546  0.2731  0.6090 -0.1935
  684MPD2    C110167   0.665   2.722  16.454  0.0525  0.2117  0.2165
  684MPD2    C210168   0.661   2.860  16.476  0.7377  0.5881 -0.1385
  684MPD2    C310169   0.730   2.915  16.581  0.1598 -0.6435 -0.0707
  684MPD2    C410170   0.809   2.837  16.661  0.2014 -0.0747  0.2499
  684MPD2    C510171   0.809   2.697  16.640 -0.2333 -0.2171 -0.0348
  684MPD2     H10172   0.585   2.913  16.418 -0.1380 -0.2456  0.2535
  684MPD2    H110173   0.871   2.885  16.735  1.3839  0.0819 -0.8408
  684MPD2    H210174   0.728   2.529  16.545 -0.8956  0.6346 -2.5420
  684MPD2    H310175   0.870   2.631  16.700  1.1574  1.3822  0.3175
  684MPD2     N10176   0.757   3.051  16.583  0.3552 -0.8909  0.0302
  684MPD2    H510177   0.825   3.092  16.646 -1.8911  1.5795  0.7968
  684MPD2    N110178   0.613   2.672  16.326  0.2502  0.0178  0.3532
  684MPD2    H710179   0.599   2.741  16.254  1.9128  1.0540  1.0324
  685TMC3    C110180   0.596   2.548  16.143  0.1044  1.5472  0.1257
  685TMC3    C210181   0.562   2.659  16.075 -0.0892 -0.1816  0.2048
  685TMC3    C310182   0.592   2.664  15.939 -0.1033 -0.0719  0.1358
  685TMC3    C410183   0.648   2.439  16.072  0.0844  0.4782  0.1892
  685TMC3    C510184   0.675   2.447  15.939  0.3944 -0.1328 -0.1127
  685TMC3    C610185   0.639   2.558  15.870  0.1518  0.2131  0.4901
  685TMC3     C10186   0.607   2.542  16.283  0.0590 -0.1264  0.4509
  685TMC3     O10187   0.624   2.434  16.345 -0.3214 -0.3441 -0.2225
  685TMC3     H10188   0.516   2.745  16.123 -1.5892 -1.4443  1.0610
  685TMC3    H110189   0.662   2.344  16.123 -1.3108  0.9505  1.4622
  685TMC3    H210190   0.676   2.567  15.769 -1.3025 -0.9708 -0.1442
  685TMC3    C710191   0.808   2.405  15.897  0.2011  0.2595  0.5261
  685TMC3    C810192   0.517   2.754  15.857 -0.5404  0.3820 -0.0141
  685TMC3    O110193   0.826   2.392  15.776 -0.2181  0.4859  0.3232
  685TMC3    O210194   0.510   2.712  15.745  0.0486  0.5577  0.4569
  686MPD2     C10195   2.078   3.028  15.632 -0.4636 -0.0447 -0.6090
  686MPD2    C110196   2.133   2.943  15.732 -0.3236 -0.2881 -0.2464
  686MPD2    C210197   2.271   2.931  15.748  0.8354  0.7746 -0.3795
  686MPD2    C310198   2.353   3.002  15.666  0.1867 -0.6361  0.5022
  686MPD2    C410199   2.301   3.090  15.576 -0.4506  0.1860  0.4195
  686MPD2    C510200   2.170   3.095  15.557  0.4524 -0.1517  0.2020
  686MPD2     H10201   2.317   2.876  15.829 -0.2144 -1.5116 -1.3073
  686MPD2    H110202   2.373   3.136  15.509 -0.3972 -1.3931 -0.5843
  686MPD2    H210203   1.970   3.040  15.625 -0.5091  0.3782  0.7935
  686MPD2    H310204   2.144   3.157  15.472 -1.8811  0.7168  1.5461
  686MPD2     N10205   2.491   2.981  15.657  0.1745  0.3287 -0.1266
  686MPD2    H510206   2.527   3.058  15.602 -0.4069  1.0798  0.5501
  686MPD2    N110207   2.040   2.877  15.809  0.3364 -0.2741  0.3431
  686MPD2    H710208   1.947   2.916  15.802  0.4997 -0.6986 -3.8828
  687TMC3    C110209   2.517   2.774  15.770  0.3081 -0.1266 -0.0556
  687TMC3    C210210   2.442   2.696  15.681 -0.9355 -0.0553 -0.4833
  687TMC3    C310211   2.394   2.577  15.737  0.3381  0.1238 -0.3839
  687TMC3    C410212   2.555   2.735  15.896 -0.3881 -0.3189 -0.0427
  687TMC3    C510213   2.511   2.608  15.938  0.5023  0.9574 -0.7849
  687TMC3    C610214   2.436   2.529  15.860 -0.8214 -0.0970  0.7100
  687TMC3     C10215   2.578   2.894  15.720  0.8610  0.1400  0.1048
  687TMC3     O10216   2.699   2.897  15.713  0.2725 -0.2813  0.0208
  687TMC3     H10217   2.412   2.742  15.587 -1.4474 -0.0887 -0.3359
  687TMC3    H110218   2.621   2.807  15.945 -2.6720  0.3609  2.0594
  687TMC3    H210219   2.408   2.427  15.885  0.1896 -0.0405  2.0334
  687TMC3    C710220   2.467   2.594  16.073 -0.3667  0.9825 -1.0037
  687TMC3    C810221   2.264   2.528  15.692  0.0339  0.1981 -0.4301
  687TMC3    O110222   2.417   2.490  16.104 -0.3280 -0.1836  0.1095
  687TMC3    O210223   2.240   2.419  15.724 -0.1197  0.2229 -0.7326
  688MPD2     C10224   1.453   2.017  17.394  0.4771  0.1583 -0.0319
  688MPD2    C110225   1.520   1.908  17.453  1.2006  0.2536  0.2073
  688MPD2    C210226   1.605   1.827  17.377  0.0752 -0.1299 -0.1047
  688MPD2    C310227   1.617   1.851  17.244 -0.4039 -0.2377  0.0295
  688MPD2    C410228   1.554   1.957  17.183  0.9890  0.3674  0.2963
  688MPD2    C510229   1.480   2.040  17.264  0.4116 -0.1093 -0.2835
  688MPD2     H10230   1.656   1.748  17.431  1.6154  1.3478  0.5974
  688MPD2    H110231   1.560   1.969  17.075 -0.8113  2.1014  0.4011
  688MPD2    H210232   1.377   2.082  17.437 -0.1229 -0.5084 -0.0764
  688MPD2    H310233   1.431   2.118  17.207 -0.9024  0.4796  1.6947
  688MPD2     N10234   1.683   1.761  17.156 -0.2812  0.6551  0.6644
  688MPD2    H510235   1.692   1.795  17.061  2.8599  0.0224  0.7138
  688MPD2    N110236   1.489   1.870  17.589  0.2560  0.4437  0.3392
  688MPD2    H710237   1.519   1.778  17.620 -1.6134 -0.1257  0.4501
  689TMC3    C110238   1.411   1.903   0.056 -0.3375 -0.0347  0.3248
  689TMC3    C210239   1.433   1.987   0.159 -0.0110  0.4138  0.3833
  689TMC3    C310240   1.403   1.947   0.288  0.6197  1.2339  0.0346
  689TMC3    C410241   1.369   1.769   0.076  0.3940  0.5345 -0.2427
  689TMC3    C510242   1.346   1.737   0.209 -0.1664  0.0627 -0.2222
  689TMC3    C610243   1.364   1.817   0.315 -0.1705 -0.0879 -0.4215
  689TMC3     C10244   1.430   1.955  17.683 -0.2676  0.2626 -0.5769
  689TMC3     O10245   1.408   2.075  17.680 -0.2847  0.1783  0.5976
  689TMC3     H10246   1.475   2.086   0.146  1.7957 -0.2430  1.2251
  689TMC3    H110247   1.359   1.694  17.751 -2.2829  0.6150  0.0198
  689TMC3    H210248   1.336   1.782   0.414  3.3166 -1.3309  0.1314
  689TMC3    C710249   1.337   1.595   0.242 -0.4994  0.0251  0.1285
  689TMC3    C810250   1.441   2.024   0.412  0.1632 -0.3396  0.0668
  689TMC3    O110251   1.367   1.560   0.360  0.2081  0.1993 -0.2481
  689TMC3    O210252   1.443   1.965   0.519  0.2309  0.2700 -0.6170
  690MPD2     C10253   2.982   3.578  15.840  0.1730  0.1970 -0.4156
  690MPD2    C110254   3.072   3.474  15.863  0.1980  0.0077  0.4184
  690MPD2    C210255   3.174   3.447  15.768 -0.2817  0.3844  0.3719
  690MPD2    C310256   3.175   3.518  15.649  0.4133 -0.6848  0.5875
  690MPD2    C410257   3.076   3.609  15.632 -0.4629 -0.6637 -0.1104
  690MPD2    C510258   2.985   3.644  15.722  0.1243 -0.3325 -0.6913
  690MPD2     H10259   3.245   3.367  15.789 -1.4303 -0.3936  1.3068
  690MPD2    H110260   3.081   3.668  15.541 -0.5416 -2.7214 -1.4424
  690MPD2    H210261   2.904   3.597  15.913  0.5830 -0.9065  0.3155
  690MPD2    H310262   2.915   3.725  15.705 -0.0587  0.4927  3.9820
  690MPD2     N10263   3.280   3.509  15.553  0.0276 -0.0936 -0.0380
  690MPD2    H510264   3.267   3.560  15.466  0.6013  0.8259  0.4120
  690MPD2    N110265   3.063   3.389  15.976 -0.0812 -0.2134 -0.6904
  690MPD2    H710266   3.120   3.305  15.986 -0.2420 -0.1375  0.8704
  691TMC3    C110267   2.964   3.308  16.179 -0.1297  1.2602  0.1883
  691TMC3    C210268   2.865   3.332  16.270 -0.4463  0.2110 -0.3305
  691TMC3    C310269   2.781   3.226  16.298 -1.2494  0.2135  0.1846
  691TMC3    C410270   2.998   3.184  16.130 -0.0012  0.2122  0.7425
  691TMC3    C510271   2.919   3.083  16.178  0.3987  0.7585 -0.0706
  691TMC3    C610272   2.810   3.097  16.260  0.5839 -0.5014 -0.3934
  691TMC3     C10273   3.001   3.425  16.098 -0.7660 -0.5769  0.3009
  691TMC3     O10274   2.957   3.534  16.131 -0.5275 -0.1769 -0.1661
  691TMC3     H10275   2.853   3.431  16.314 -1.0697 -0.2374  0.5120
  691TMC3    H110276   3.063   3.155  16.048  0.8702 -3.3963  2.6872
  691TMC3    H210277   2.738   3.021  16.288  2.3532 -1.4141  1.6646
  691TMC3    C710278   2.935   2.954  16.118 -0.0691  0.1754  0.2209
  691TMC3    C810279   2.640   3.245  16.328 -0.3060 -0.1452  0.0241
  691TMC3    O110280   2.991   2.948  16.010  0.2124 -0.6102  0.0026
  691TMC3    O210281   2.571   3.150  16.369 -0.4953 -0.6664 -0.0232
  692TMC3    C110282   0.264   4.398  16.079 -0.1472  0.4988 -0.4024
  692TMC3    C210283   0.371   4.436  16.151  0.6793  0.5751 -0.4121
  692TMC3    C310284   0.480   4.354  16.167  0.1119  0.1522 -0.1479
  692TMC3    C410285   0.257   4.280  16.014  0.1873  0.2144 -0.2717
  692TMC3    C510286   0.361   4.190  16.039 -0.0360  0.4804  0.5642
  692TMC3    C610287   0.473   4.235  16.096  0.0607  0.0571 -0.0584
  692TMC3     C10288   0.143   4.476  16.095  0.3375  0.0473 -0.1803
  692TMC3     O10289   0.026   4.432  16.096 -0.0826  0.1917  0.3268
  692TMC3     H10290   0.348   4.505  16.231 -1.0316  0.2633 -0.6393
  692TMC3    H110291   0.161   4.253  15.971  0.5069 -1.8252  0.3234
  692TMC3    H210292   0.562   4.173  16.103 -0.9240 -1.0653  2.3563
  692TMC3    C710293   0.347   4.046  16.007 -0.2594 -0.1785  0.6476
  692TMC3    C810294   0.519   4.320  16.306  0.1933  0.6188  0.0385
  692TMC3    O110295   0.252   4.010  15.941 -0.1353  0.1175  0.3448
  692TMC3    O210296   0.504   4.204  16.344 -0.3754 -0.0654  0.1512
  693MPD2     C10297   4.639   2.185  10.697 -0.8604  0.0439  0.2525
  693MPD2    C110298   4.587   2.217  10.826 -0.2171 -0.0781 -1.0848
  693MPD2    C210299   4.673   2.210  10.937 -0.3761  0.3109  0.1459
  693MPD2    C310300   0.068   2.195  10.918 -0.2889  0.3086 -0.0055
  693MPD2    C410301   0.113   2.169  10.790  0.6289 -0.1087  0.2849
  693MPD2    C510302   0.033   2.172  10.679  0.4433 -0.0524  0.3552
  693MPD2     H10303   4.630   2.215  11.037 -0.5776 -0.5349  0.0960
  693MPD2    H110304   0.219   2.149  10.780  0.8169  0.6174  0.8075
  693MPD2    H210305   4.587   2.199  10.603 -1.1907 -3.7522 -0.1307
  693MPD2    H310306   0.064   2.149  10.577 -2.1276 -0.2485 -0.3798
  693MPD2     N10307   0.164   2.171  11.018 -0.3464  0.2024  0.4226
  693MPD2    H510308   0.250   2.138  10.975 -0.7764 -0.7281  0.2916
  693MPD2    N110309   4.451   2.246  10.847  0.2692  0.0910  0.6922
  693MPD2    H710310   4.430   2.288  10.937 -1.9301  2.1240 -0.7808
  694TMC3    C110311   4.225   2.206  10.818  0.5280 -0.8156 -0.7596
  694TMC3    C210312   4.151   2.093  10.795 -0.3951 -0.3063 -0.6315
  694TMC3    C310313   4.055   2.070  10.892  0.5019 -0.3938 -0.1570
  694TMC3    C410314   4.201   2.284  10.931  0.2741  0.3962  0.5857
  694TMC3    C510315   4.105   2.259  11.016 -0.9828 -0.4420 -0.8633
  694TMC3    C610316   4.033   2.142  11.006 -0.4265 -0.6515  0.3302
  694TMC3     C10317   4.354   2.208  10.760  0.0313  0.1716 -0.7454
  694TMC3     O10318   4.364   2.128  10.668 -0.2697 -0.9590  0.4605
  694TMC3     H10319   4.177   2.036  10.706 -2.5227  1.0597 -2.1261
  694TMC3    H110320   4.263   2.368  10.961 -0.9401  0.8954  1.7187
  694TMC3    H210321   3.942   2.118  11.058 -0.2184 -0.1989  0.8988
  694TMC3    C710322   4.107   2.324  11.153 -0.3630 -0.2173 -0.3818
  694TMC3    C810323   3.982   1.946  10.888  0.3157 -0.3068 -0.1176
  694TMC3    O110324   4.145   2.440  11.168 -0.2721 -0.3433 -0.1124
  694TMC3    O210325   3.902   1.926  10.982  0.0682 -0.4671  0.3966
  695MPD2     C10326   0.845   3.799  13.446 -0.4112 -0.0374 -0.4092
  695MPD2    C110327   0.781   3.768  13.558  0.1948  0.4268  0.8832
  695MPD2    C210328   0.644   3.780  13.564 -0.4280 -0.4215  0.3981
  695MPD2    C310329   0.571   3.830  13.458  0.0239  0.1343 -0.0597
  695MPD2    C410330   0.641   3.868  13.346  0.1467 -0.2603  0.2735
  695MPD2    C510331   0.780   3.858  13.340  0.1544  0.4072 -0.1424
  695MPD2     H10332   0.581   3.762  13.651 -0.4390 -0.8666  0.2966
  695MPD2    H110333   0.595   3.912  13.258 -0.5981 -0.5793  0.5050
  695MPD2    H210334   0.952   3.802  13.427 -0.5006  1.2366 -0.7318
  695MPD2    H310335   0.832   3.868  13.245  0.4105 -0.1565 -0.0579
  695MPD2     N10336   0.437   3.870  13.483  0.1487 -0.0640 -0.5697
  695MPD2    H510337   0.407   3.861  13.579  0.9896 -5.5294 -0.8085
  695MPD2    N110338   0.859   3.741  13.676 -0.5907  0.4418  1.0484
  695MPD2    H710339   0.808   3.703  13.755 -1.4434  0.9850  0.7455
  696TMC3    C110340   0.265   4.026  13.463 -0.6817  0.0274  0.4679
  696TMC3    C210341   0.235   4.000  13.596 -0.5813  0.2526 -0.2689
  696TMC3    C310342   0.176   4.103  13.662  0.7079 -0.5876  0.3789
  696TMC3    C410343   0.246   4.146  13.407 -0.2445  0.6661 -0.6872
  696TMC3    C510344   0.193   4.249  13.479 -0.2575  0.5251  0.5656
  696TMC3    C610345   0.143   4.224  13.603  0.2811  0.3135 -0.0564
  696TMC3     C10346   0.360   3.941  13.390  0.0888 -0.0938 -0.3958
  696TMC3     O10347   0.365   3.953  13.271 -0.6353 -1.1500 -0.0233
  696TMC3     H10348   0.247   3.897  13.628  0.3438  0.3522 -0.3071
  696TMC3    H110349   0.284   4.160  13.306  1.4940 -0.5900 -0.2155
  696TMC3    H210350   0.088   4.296  13.663 -0.0527 -0.0458  0.0705
  696TMC3    C710351   0.262   4.380  13.464 -0.0407  0.2019 -0.2469
  696TMC3    C810352   0.148   4.102  13.800  0.0971  0.5597  0.2968
  696TMC3    O110353   0.343   4.382  13.374 -0.4203 -0.0161  0.5787
  696TMC3    O210354   0.076   4.019  13.850 -0.0563  0.2001 -0.0116
  697MPD2     C10355   4.705   1.089  16.091  0.5216 -0.2388  0.2017
  697MPD2    C110356   4.732   1.057  15.960  0.5432 -0.3479 -0.6731
  697MPD2    C210357   0.026   1.163  15.873  0.1016 -1.0791 -0.0658
  697MPD2    C310358   0.029   1.298  15.909  0.3497 -0.2942  0.0770
  697MPD2    C410359   4.734   1.330  16.044  0.1299 -0.2392  0.1274
  697MPD2    C510360   4.717   1.222  16.130  0.1889 -0.0295  0.4044
  697MPD2     H10361   0.059   1.137  15.773 -1.3219  1.3229 -1.1526
  697MPD2    H110362   4.728   1.431  16.085  1.0030 -0.1326 -0.0034
  697MPD2    H210363   4.684   1.018  16.170 -1.8204 -1.9374 -1.9148
  697MPD2    H310364   4.683   1.248  16.229  0.0343  0.1188  0.3118
  697MPD2     N10365   0.060   1.397  15.812 -0.6430  0.0324  0.5677
  697MPD2    H510366   0.080   1.365  15.718  4.3507  2.1298  0.9300
  697MPD2    N110367   4.727   0.922  15.923  0.6532 -0.5742 -0.4665
  697MPD2    H710368   4.706   0.852  15.994 -0.1166 -0.4882 -0.6125
  698TMC3    C110369   0.213   1.550  15.742  0.0749  0.1865  0.3200
  698TMC3    C210370   0.330   1.602  15.789  0.3278  0.2385  0.1681
  698TMC3    C310371   0.429   1.637  15.697 -0.1534 -0.4383 -0.1393
  698TMC3    C410372   0.193   1.506  15.616 -0.0431 -0.2860 -0.0742
  698TMC3    C510373   0.301   1.529  15.530  0.1947 -0.3456  0.4406
  698TMC3    C610374   0.408   1.598  15.569 -0.1459  0.0576  0.9631
  698TMC3     C10375   0.119   1.508  15.844 -0.8228  1.3641 -0.2062
  698TMC3     O10376   0.144   1.554  15.955  0.1975 -0.2954  0.8598
  698TMC3     H10377   0.352   1.613  15.895  0.0473  1.4048  0.1045
  698TMC3    H110378   0.095   1.482  15.576  1.3414 -0.6262 -3.3165
  698TMC3    H210379   0.473   1.634  15.490 -0.8142 -1.3471 -0.2203
  698TMC3    C710380   0.275   1.514  15.383  0.3773  0.1352  0.1569
  698TMC3    C810381   0.562   1.681  15.740 -0.6771 -0.2960 -0.6097
  698TMC3    O110382   0.158   1.478  15.350 -0.0728 -0.2503 -0.2972
  698TMC3    O210383   0.587   1.656  15.859  0.1212 -0.5773 -0.6504
  699TMC3    C110384   0.217   4.728  13.020  0.5906  0.2062  0.2789
  699TMC3    C210385   0.236   4.593  13.010  0.4616  0.3167  1.0439
  699TMC3    C310386   0.164   4.518  13.102 -0.5624 -0.0835  0.2691
  699TMC3    C410387   0.139   0.049  13.115  0.2010  0.3837 -0.4483
  699TMC3    C510388   0.080   4.715  13.215 -0.1772  1.2491 -0.4111
  699TMC3    C610389   0.083   4.572  13.205 -0.2294 -0.1053 -0.2004
  699TMC3     C10390   0.234   0.070  12.899  0.2669  0.2038 -0.4680
  699TMC3     O10391   0.144   0.144  12.871 -0.5923 -0.3246 -0.2934
  699TMC3     H10392   0.299   4.543  12.937  1.1936  0.1638  1.7824
  699TMC3    H110393   0.131   0.157  13.107 -1.1980  0.3483  0.4670
  699TMC3    H210394   0.044   4.515  13.288  0.2020 -1.6648 -1.0720
  699TMC3    C710395   0.056   0.035  13.345  0.2018 -0.0304  0.7830
  699TMC3    C810396   0.166   4.371  13.092  0.3013 -0.1439  0.2862
  699TMC3    O110397   4.715   4.709  13.415  0.0229 -0.2203 -0.4055
  699TMC3    O210398   0.254   4.320  13.021  0.4370  0.2326  0.4139
  700TMC3    C110399   3.725   1.774  17.167 -0.4112  0.3358  0.2382
  700TMC3    C210400   3.830   1.718  17.105  0.4159 -0.1074 -0.0217
  700TMC3    C310401   3.900   1.620  17.169 -0.2286  0.5042  0.4380
  700TMC3    C410402   3.685   1.745  17.296 -0.4073  0.0498 -0.4986
  700TMC3    C510403   3.772   1.662  17.367 -0.8671  0.5954  1.4865
  700TMC3    C610404   3.872   1.589  17.294 -0.6113  0.2704  0.4016
  700TMC3     C10405   3.656   1.878  17.095 -0.4561  0.3738 -0.2694
  700TMC3     O10406   3.540   1.891  17.124  0.2484 -0.0522  0.2774
  700TMC3     H10407   3.870   1.752  17.010 -1.9704  3.3537  0.2216
  700TMC3    H110408   3.590   1.782  17.332  1.1117  1.0486  2.5116
  700TMC3    H210409   3.942   1.531  17.353  1.1063  1.9367 -0.0030
  700TMC3    C710410   3.788   1.695  17.502 -0.0930  0.0727  0.0427
  700TMC3    C810411   4.034   1.597  17.129  0.3311  0.0831  0.2152
  700TMC3    O110412   3.901   1.682  17.548  0.2696 -0.6635  0.3238
  700TMC3    O210413   4.113   1.681  17.085 -0.0441 -0.6696  0.2726
  701TMC3    C110414   4.035   0.379  15.883  0.2793  0.0204 -0.2542
  701TMC3    C210415   4.102   0.314  15.776 -0.7056  0.1620 -0.0514
  701TMC3    C310416   4.214   0.371  15.722  0.3343  0.0017 -0.7354
  701TMC3    C410417   4.081   0.501  15.932  1.2359 -0.1665  0.1985
  701TMC3    C510418   4.190   0.552  15.870  0.1874 -0.0216 -0.3338
  701TMC3    C610419   4.254   0.492  15.766 -0.1850 -0.2805  0.2337
  701TMC3     C10420   3.906   0.326  15.941 -0.3939  0.0608 -0.2380
  701TMC3     O10421   3.862   0.363  16.049 -0.9937 -0.4831  0.6980
  701TMC3     H10422   4.067   0.217  15.743  3.5431 -1.8441  1.3107
  701TMC3    H110423   4.035   0.546  16.020 -0.3021  0.5131 -0.9534
  701TMC3    H210424   4.329   0.542  15.706  0.5032 -1.7061 -0.1112
  701TMC3    C710425   4.245   0.675  15.917 -0.0610 -0.1606  0.0839
  701TMC3    C810426   4.253   0.350  15.581 -0.1915 -0.1823 -0.1939
  701TMC3    O110427   4.287   0.748  15.824 -0.8286  0.2631  0.2976
  701TMC3    O210428   4.356   0.391  15.532 -0.0203 -0.0939 -0.2854
  702MPD2     C10429   3.577   2.429  10.652  0.0824  0.3347  0.3859
  702MPD2    C110430   3.528   2.533  10.725  0.0972  0.5072 -0.1677
  702MPD2    C210431   3.536   2.656  10.670 -0.0742 -0.2579 -0.1943
  702MPD2    C310432   3.590   2.679  10.541  0.1182 -0.2730 -0.0364
  702MPD2    C410433   3.621   2.571  10.467  0.4995  0.5645 -0.4961
  702MPD2    C510434   3.629   2.447  10.523  0.2914  0.2124  0.2045
  702MPD2     H10435   3.518   2.726  10.751  0.3591  0.3179 -0.5974
  702MPD2    H110436   3.642   2.584  10.361 -0.9452 -0.9337 -0.9805
  702MPD2    H210437   3.577   2.328  10.691 -0.9073  0.7097  1.3603
  702MPD2    H310438   3.663   2.361  10.466 -1.2677 -0.8517  0.8653
  702MPD2     N10439   3.602   2.810  10.488  0.1669  0.5976 -0.1787
  702MPD2    H510440   3.566   2.888  10.541  0.1939  0.2501  0.3534
  702MPD2    N110441   3.483   2.525  10.859 -0.0958 -0.4206 -0.0039
  702MPD2    H710442   3.442   2.607  10.903 -0.3470 -1.0938  1.0305
  703TMC3    C110443   3.682   2.983  10.362  0.1541 -0.3848  0.3022
  703TMC3    C210444   3.568   3.062  10.370  0.1592  0.2973 -0.5598
  703TMC3    C310445   3.548   3.162  10.276 -0.6665 -0.1615  0.4106
  703TMC3    C410446   3.778   3.016  10.275  0.0735  0.0211  1.2102
  703TMC3    C510447   3.767   3.129  10.200 -0.7275  0.2329 -0.0067
  703TMC3    C610448   3.652   3.209  10.202  0.0445 -0.5011  0.7297
  703TMC3     C10449   3.679   2.837  10.380  0.3680  0.8304  0.1461
  703TMC3     O10450   3.742   2.767  10.298 -0.4160 -0.2623 -0.0371
  703TMC3     H10451   3.483   3.022  10.424 -0.6689 -0.0751 -2.1282
  703TMC3    H110452   3.872   2.961  10.269  0.4749  0.7210  1.0867
  703TMC3    H210453   3.645   3.282  10.122  2.1638 -1.1511 -0.0392
  703TMC3    C710454   3.892   3.192  10.166  0.5273  0.3717 -0.6973
  703TMC3    C810455   3.442   3.257  10.291 -1.1165  1.0683 -0.6323
  703TMC3    O110456   3.991   3.116  10.161  0.8181  0.3118 -0.0155
  703TMC3    O210457   3.439   3.349  10.207 -0.1510 -0.3474 -0.0249
  704TMC3    C110458   1.187   0.706  13.112  0.0836 -0.2781  0.0861
  704TMC3    C210459   1.303   0.760  13.128  0.0817  0.8622  0.1057
  704TMC3    C310460   1.385   0.692  13.211  0.5621 -0.0725  0.0954
  704TMC3    C410461   1.151   0.588  13.156 -0.2734  0.8644  0.1947
  704TMC3    C510462   1.243   0.518  13.230  0.6124 -0.3578  0.4746
  704TMC3    C610463   1.362   0.569  13.265 -0.1470 -0.0816 -0.1413
  704TMC3     C10464   1.098   0.765  13.012  0.6173 -0.1085 -0.8331
  704TMC3     O10465   0.975   0.772  13.033 -0.5234  0.1279  0.0310
  704TMC3     H10466   1.330   0.846  13.067  3.5420 -0.3846 -0.1274
  704TMC3    H110467   1.053   0.543  13.140 -0.0181 -0.0512  1.1926
  704TMC3    H210468   1.426   0.513  13.332 -0.1962 -0.9419 -0.8097
  704TMC3    C710469   1.270   0.389  13.175  0.0839  0.3356  0.2991
  704TMC3    C810470   1.526   0.709  13.188  0.3335  0.6341  0.3954
  704TMC3    O110471   1.389   0.360  13.144  0.4212  0.2870  0.2056
  704TMC3    O210472   1.549   0.776  13.086  0.2706  0.7181 -0.0682
  705MPD2     C10473   0.626   3.742  16.863  0.1399  0.5763  0.9256
  705MPD2    C110474   0.620   3.870  16.812  0.1672  0.3851 -0.0970
  705MPD2    C210475   0.496   3.939  16.814 -0.4928  0.7329  0.4663
  705MPD2    C310476   0.388   3.880  16.862  0.3278 -0.0081 -0.1416
  705MPD2    C410477   0.391   3.748  16.904  0.7674  0.5686  0.0383
  705MPD2    C510478   0.512   3.682  16.908  0.0091  0.2906 -0.0919
  705MPD2     H10479   0.487   4.037  16.769 -1.7670 -0.7893 -2.5339
  705MPD2    H110480   0.305   3.695  16.944  0.4298 -0.8609 -2.5535
  705MPD2    H210481   0.717   3.683  16.863 -1.2987 -1.6493  1.9065
  705MPD2    H310482   0.522   3.580  16.943 -0.9939  0.4657  0.6925
  705MPD2     N10483   0.261   3.936  16.866  0.2150  0.8427 -0.3041
  705MPD2    H510484   0.182   3.880  16.897  0.2290  1.9540  1.7631
  705MPD2    N110485   0.722   3.925  16.737  0.2853 -0.3365  1.0245
  705MPD2    H710486   0.687   3.994  16.673  0.5352 -0.8593  0.3258
  706TMC3    C110487   1.025   3.893  16.417  0.4005 -0.2168  0.8211
  706TMC3    C210488   0.971   4.001  16.355 -0.5563  0.6502  0.7177
  706TMC3    C310489   0.881   4.080  16.428  0.1985  0.0853  0.3052
  706TMC3    C410490   1.008   3.879  16.548  0.1383 -0.1859  0.1513
  706TMC3    C510491   0.927   3.957  16.621 -0.3738  0.2112 -0.3619
  706TMC3    C610492   0.861   4.060  16.560  0.9163 -0.2576  0.5722
  706TMC3     C10493   1.145   3.827  16.356 -0.8875  0.0148  0.1872
  706TMC3     O10494   1.239   3.820  16.431  0.3169  0.2460  0.0046
  706TMC3     H10495   0.997   4.019  16.251  1.4307 -1.7594  0.8096
  706TMC3    H110496   1.060   3.796  16.594 -1.2329 -1.3550 -0.4102
  706TMC3    H210497   0.792   4.128  16.610  0.3117  0.1438 -0.8192
  706TMC3    C710498   0.851   3.878  16.720 -0.9916 -0.6204 -0.0215
  706TMC3    C810499   0.860   4.217  16.370  0.2354 -0.5672 -0.2886
  706TMC3    O110500   0.906   3.787  16.773 -0.1169  0.2402 -0.3913
  706TMC3    O210501   0.861   4.213  16.246 -0.2025  0.3049 -0.3274
  707TMC3    C110502   2.771   3.637   1.632 -0.1029  0.5239  0.2715
  707TMC3    C210503   2.884   3.672   1.704 -0.1682  0.4531  0.2739
  707TMC3    C310504   2.862   3.723   1.833 -0.0245 -0.0691 -0.0767
  707TMC3    C410505   2.647   3.674   1.672  0.4567  0.2010 -0.2747
  707TMC3    C510506   2.635   3.739   1.791 -0.1240 -0.0066 -0.3492
  707TMC3    C610507   2.738   3.746   1.876 -0.5376  0.0941 -0.2840
  707TMC3     C10508   2.790   3.538   1.527  0.2008  0.6131 -0.6900
  707TMC3     O10509   2.902   3.499   1.509 -0.3520  0.7100  0.3971
  707TMC3     H10510   2.983   3.649   1.668 -0.6821  1.9191 -2.0981
  707TMC3    H110511   2.564   3.672   1.603 -0.5787  1.5027  0.9329
  707TMC3    H210512   2.728   3.762   1.983  0.5363 -0.3387 -0.1162
  707TMC3    C710513   2.495   3.759   1.836 -0.0619 -0.2806 -0.5701
  707TMC3    C810514   2.966   3.677   1.927 -0.3817 -0.5465 -0.3215
  707TMC3    O110515   2.413   3.684   1.780 -0.1115 -0.0082 -0.7914
  707TMC3    O210516   2.970   3.728   2.038  0.4295 -0.2313 -0.7746
  708MPD2     C10517   4.023   2.680  13.658 -0.6016  0.3513  0.7504
  708MPD2    C110518   3.895   2.675  13.717 -1.0776 -0.7007 -0.9163
  708MPD2    C210519   3.883   2.612  13.841  0.4130  0.0194  0.0085
  708MPD2    C310520   3.991   2.558  13.904  0.1204 -0.0456  0.4303
  708MPD2    C410521   4.117   2.567  13.846 -0.3115 -0.1641 -0.6735
  708MPD2    C510522   4.133   2.642  13.728 -0.1964 -0.3868  0.0981
  708MPD2     H10523   3.789   2.602  13.894 -0.3137  1.0338 -1.0820
  708MPD2    H110524   4.207   2.520  13.884  0.3815  0.6160 -1.3451
  708MPD2    H210525   4.051   2.731  13.566  0.4445  0.2345  1.0057
  708MPD2    H310526   4.234   2.645  13.688 -0.6370 -0.3405 -1.0075
  708MPD2     N10527   3.960   2.483  14.011 -0.5873  0.2673 -0.6259
  708MPD2    H510528   3.860   2.478  14.031 -0.5602 -1.8300 -1.0462
  708MPD2    N110529   3.780   2.737  13.660  0.4019 -0.3494 -0.2213
  708MPD2    H710530   3.702   2.743  13.724  0.9800 -0.4875  0.4927
  709TMC3    C110531   3.629   2.792  13.505  0.6943 -0.2265  0.0691
  709TMC3    C210532   3.574   2.689  13.430 -0.3155  0.1199 -0.5618
  709TMC3    C310533   3.450   2.638  13.476  0.8119  0.1090  0.5261
  709TMC3    C410534   3.572   2.844  13.615 -0.0660  0.2921 -1.0693
  709TMC3    C510535   3.449   2.795  13.655 -0.1639 -0.4793 -0.1054
  709TMC3    C610536   3.386   2.697  13.587  0.1578  0.4890  0.5929
  709TMC3     C10537   3.767   2.764  13.530  0.1463 -0.0865 -0.5116
  709TMC3     O10538   3.838   2.733  13.433  0.1664 -0.0528 -0.6755
  709TMC3     H10539   3.627   2.648  13.344 -0.4872 -0.9901 -0.1379
  709TMC3    H110540   3.607   2.936  13.659  1.0503 -0.9169  0.5775
  709TMC3    H210541   3.289   2.657  13.614  0.5977 -0.8609  0.1808
  709TMC3    C710542   3.454   2.783  13.798 -0.4045 -0.4537 -1.1866
  709TMC3    C810543   3.409   2.505  13.426  0.0262  0.5009 -0.2115
  709TMC3    O110544   3.564   2.791  13.852 -0.5661 -0.8060  0.0499
  709TMC3    O210545   3.340   2.435  13.500 -0.7192  0.0141  0.1677
  710TMC3    C110546   0.180   4.018   0.487 -0.7895 -0.0959  0.1113
  710TMC3    C210547   0.137   3.990   0.357 -0.2101  0.1505  0.2791
  710TMC3    C310548   0.198   3.881   0.301  0.0579 -0.5950 -0.2633
  710TMC3    C410549   0.297   3.966   0.542  0.2221  0.1772  0.4659
  710TMC3    C510550   0.354   3.867   0.470 -0.1714 -0.0329 -0.4004
  710TMC3    C610551   0.306   3.812   0.355 -0.4175 -0.1880 -0.6976
  710TMC3     C10552   0.100   4.113   0.562  0.6039  0.5343 -0.9452
  710TMC3     O10553   4.730   4.141   0.512 -0.5714  0.0409  0.0926
  710TMC3     H10554   0.046   4.035   0.320  0.4600  1.8279  0.6684
  710TMC3    H110555   0.318   3.977   0.648 -0.9717 -1.0804  0.8384
  710TMC3    H210556   0.339   3.720   0.309  0.4679 -1.9716  3.4513
  710TMC3    C710557   0.443   3.778   0.541 -0.2962  0.1018  0.2285
  710TMC3    C810558   0.184   3.851   0.164  0.6504  0.0023 -0.4126
  710TMC3    O110559   0.423   3.652   0.537  0.2712  0.2849  0.3051
  710TMC3    O210560   0.242   3.753   0.118  0.8239  0.1026  1.2691
  711TMC3    C110561   4.603   0.011  14.986  0.4910 -0.3944  0.0777
  711TMC3    C210562   4.539   0.052  15.103 -0.1769  0.0812  0.1030
  711TMC3    C310563   4.623   0.117  15.195  0.1346  0.4156  0.2797
  711TMC3    C410564   4.728   0.039  14.942 -0.1831 -0.2848 -0.2503
  711TMC3    C510565   0.066   0.115  15.029 -0.3883 -0.0812  0.0127
  711TMC3    C610566   0.012   0.149  15.154 -0.3422  0.2482 -0.5674
  711TMC3     C10567   4.560   4.622  14.944  0.1241  0.5294 -0.0429
  711TMC3     O10568   4.458   4.583  14.995 -0.1263 -0.2000 -0.2559
  711TMC3     H10569   4.434   0.043  15.131 -0.2287  2.1662  0.5265
  711TMC3    H110570   0.028   0.007  14.846  0.1098 -0.4593 -0.0751
  711TMC3    H210571   0.066   0.208  15.227  0.2962  0.7024 -1.4098
  711TMC3    C710572   0.184   0.037  15.069 -0.6631 -0.4487  0.6233
  711TMC3    C810573   4.618   0.056  15.328  0.3932  0.0044  0.0524
  711TMC3    O110574   0.211   0.039  15.188 -0.0588  0.6465  0.2545
  711TMC3    O210575   4.507   0.020  15.361  0.1364  0.3046 -0.4369
  712MPD2     C10576   1.478   1.281  13.769  0.3331  0.2687  0.0106
  712MPD2    C110577   1.359   1.278  13.839  0.5427 -0.2632  0.1577
  712MPD2    C210578   1.360   1.287  13.974  0.3193  0.4706  0.6029
  712MPD2    C310579   1.477   1.296  14.046  0.5310 -1.0560  0.4801
  712MPD2    C410580   1.598   1.272  13.983  0.2771 -0.2687 -0.6115
  712MPD2    C510581   1.597   1.258  13.843  0.1401 -0.0242 -0.0650
  712MPD2     H10582   1.268   1.290  14.030 -0.3997  1.7403 -0.6576
  712MPD2    H110583   1.684   1.265  14.049 -2.6268  1.4265  3.3594
  712MPD2    H210584   1.486   1.278  13.661  2.5139  0.5973  0.1652
  712MPD2    H310585   1.690   1.237  13.790 -1.6578 -1.1199 -2.7911
  712MPD2     N10586   1.469   1.337  14.188 -0.8369  0.1796  1.2898
  712MPD2    H510587   1.556   1.332  14.240  0.5090  0.0467 -0.9764
  712MPD2    N110588   1.230   1.295  13.786  0.0798  0.3812 -0.0689
  712MPD2    H710589   1.160   1.277  13.858  0.9625 -0.5126  0.5691
  713TMC3    C110590   1.366   1.442  14.386 -0.5671  0.0825 -0.0899
  713TMC3    C210591   1.474   1.397  14.460  0.0224  0.1121  0.8350
  713TMC3    C310592   1.537   1.481  14.555  0.1774  0.4301 -0.4759
  713TMC3    C410593   1.307   1.563  14.413  0.7702  0.4597  0.3769
  713TMC3    C510594   1.360   1.637  14.516 -0.5556  0.1270 -0.5979
  713TMC3    C610595   1.476   1.603  14.574 -0.5707 -0.0557  0.1334
  713TMC3     C10596   1.356   1.396  14.248  0.0870  0.0019  0.1463
  713TMC3     O10597   1.261   1.450  14.192  0.3169 -0.5250  0.5899
  713TMC3     H10598   1.518   1.304  14.428 -0.5605 -0.7057  2.3853
  713TMC3    H110599   1.213   1.592  14.366  0.7710  0.2045  0.2115
  713TMC3    H210600   1.520   1.661  14.655 -0.8086 -1.1262  1.0228
  713TMC3    C710601   1.305   1.772  14.541  0.3286 -0.2269  0.0078
  713TMC3    C810602   1.681   1.496  14.526 -0.1723 -0.0519  0.3943
  713TMC3    O110603   1.343   1.822  14.645  0.3878  0.2258  0.2246
  713TMC3    O210604   1.744   1.393  14.496 -0.1378  0.3855 -0.1928
  714MPD2     C10605   4.386   0.323   2.166 -0.1111 -0.1672  0.1581
  714MPD2    C110606   4.381   0.254   2.047  0.4059  0.2610  0.7069
  714MPD2    C210607   4.266   0.263   1.969  0.3627 -0.1789  0.3700
  714MPD2    C310608   4.158   0.336   2.019  0.2183 -0.4146  0.0427
  714MPD2    C410609   4.168   0.392   2.145 -0.0232 -0.6171 -0.2917
  714MPD2    C510610   4.283   0.399   2.216 -0.0631 -0.3269 -0.0654
  714MPD2     H10611   4.261   0.212   1.874 -1.4579 -0.9553  0.8708
  714MPD2    H110612   4.083   0.448   2.183  0.5982  0.7306 -0.8668
  714MPD2    H210613   4.478   0.324   2.224  1.3040 -0.1994 -2.1065
  714MPD2    H310614   4.285   0.452   2.311  0.5860  1.1862 -0.9307
  714MPD2     N10615   4.037   0.339   1.949 -0.2291 -0.6472  0.4635
  714MPD2    H510616   4.047   0.318   1.850  0.9761  1.2825  0.1692
  714MPD2    N110617   4.495   0.181   1.996 -0.2313 -0.7574 -0.0865
  714MPD2    H710618   4.581   0.200   2.047 -0.8947  2.0310 -0.0229
  715TMC3    C110619   4.637   0.046   1.861  0.3834  0.0386  0.0396
  715TMC3    C210620   4.647   4.675   1.774  0.2191  0.1627  0.2154
  715TMC3    C310621   0.032   4.640   1.721 -0.0151  0.2842 -0.5340
  715TMC3    C410622   0.004   0.124   1.885  0.1596 -0.3753  0.0513
  715TMC3    C510623   0.126   0.089   1.830 -0.0562 -0.0567 -0.5124
  715TMC3    C610624   0.146   4.715   1.755 -0.0869  0.5581 -0.2484
  715TMC3     C10625   4.503   0.090   1.899  0.0000 -0.5979  0.4098
  715TMC3     O10626   4.407   0.046   1.838 -0.2741  0.0380 -0.0175
  715TMC3     H10627   4.569   4.600   1.766  1.2661 -0.9331  0.2342
  715TMC3    H110628   4.722   0.221   1.930 -0.8878 -0.3270 -0.5369
  715TMC3    H210629   0.238   4.704   1.699  1.1992  1.7712  1.6412
  715TMC3    C710630   0.244   0.153   1.881 -0.0438 -0.5564 -0.0353
  715TMC3    C810631   0.032   4.525   1.633 -0.0670  0.1293  0.1481
  715TMC3    O110632   0.350   0.094   1.858 -0.1548 -0.1384  0.7985
  715TMC3    O210633   4.663   4.498   1.579  0.4419  0.6538 -0.1591
  716MPD2     C10634   3.372   3.422   9.793  0.4537 -0.1524  0.2385
  716MPD2    C110635   3.312   3.300   9.820  0.2515 -0.9342  0.0661
  716MPD2    C210636   3.395   3.192   9.828  0.5772 -0.0941  0.1302
  716MPD2    C310637   3.533   3.206   9.850 -0.1246  0.5015 -0.6453
  716MPD2    C410638   3.584   3.332   9.832  0.1912  0.1940 -0.0725
  716MPD2    C510639   3.506   3.440   9.796  0.1205 -0.0015 -0.3552
  716MPD2     H10640   3.353   3.092   9.825 -0.1506  0.1790  1.4620
  716MPD2    H110641   3.690   3.351   9.842  0.5499 -1.3055 -1.1833
  716MPD2    H210642   3.313   3.512   9.779  0.6945 -0.4439 -2.6804
  716MPD2    H310643   3.552   3.537   9.787 -2.6672  1.2032 -1.5508
  716MPD2     N10644   3.602   3.087   9.866 -0.3124  0.0770 -0.4816
  716MPD2    H510645   3.540   3.008   9.882 -0.0067 -0.0919 -0.1125
  716MPD2    N110646   3.175   3.286   9.821  0.0164  0.2184 -0.0978
  716MPD2    H710647   3.118   3.370   9.817 -0.6956 -0.4134 -2.8926
  717TMC3    C110648   3.784   2.933   9.876 -0.6459  0.5348  0.1431
  717TMC3    C210649   3.695   2.830   9.914  0.0329 -0.1071 -0.0356
  717TMC3    C310650   3.744   2.716   9.979 -0.1608  0.1706 -0.7519
  717TMC3    C410651   3.916   2.922   9.909  0.5672 -0.0282 -0.4896
  717TMC3    C510652   3.957   2.806   9.965 -0.5644 -0.4433  0.4088
  717TMC3    C610653   3.876   2.703  10.005 -0.4918  0.2859  0.2535
  717TMC3     C10654   3.734   3.064   9.839 -0.1188 -0.0743  0.2028
  717TMC3     O10655   3.811   3.148   9.799 -0.3357  0.0606 -0.1703
  717TMC3     H10656   3.592   2.823   9.879 -0.0231 -0.9880  0.3178
  717TMC3    H110657   3.977   3.010   9.890  0.0602  0.6460  1.0462
  717TMC3    H210658   3.916   2.614  10.053  1.2984  1.2006  0.4695
  717TMC3    C710659   4.102   2.777   9.962 -0.2093 -0.3062 -0.6870
  717TMC3    C810660   3.658   2.602   9.969 -0.7709  0.3124  0.8018
  717TMC3    O110661   4.129   2.671  10.023 -0.9679 -0.2866 -0.4286
  717TMC3    O210662   3.572   2.608   9.883  0.0715 -0.0061  0.5589
  718MPD2     C10663   2.320   1.946  13.072  0.0289  0.0309 -0.3730
  718MPD2    C110664   2.392   1.917  12.953 -0.6643  0.0787 -0.4830
  718MPD2    C210665   2.441   1.787  12.939 -0.0960 -0.2403  0.1978
  718MPD2    C310666   2.409   1.684  13.034 -0.4178 -0.9601 -0.5181
  718MPD2    C410667   2.341   1.723  13.143 -0.2479  0.4091 -0.0112
  718MPD2    C510668   2.289   1.845  13.158  0.0672  0.3849 -0.2470
  718MPD2     H10669   2.477   1.759  12.841 -4.1711 -0.8084 -1.1469
  718MPD2    H110670   2.323   1.645  13.216 -1.1166 -1.6169 -2.4122
  718MPD2    H210671   2.272   2.041  13.090  2.0962  1.0856 -0.4260
  718MPD2    H310672   2.220   1.866  13.238  0.8730 -2.9748  1.3204
  718MPD2     N10673   2.451   1.557  13.014 -1.0075 -0.6555  0.1925
  718MPD2    H510674   2.426   1.490  13.086  0.6056 -2.2878 -0.7674
  718MPD2    N110675   2.422   2.007  12.845  0.4100 -0.9229  0.1911
  718MPD2    H710676   2.482   1.962  12.775  1.3820  3.7372 -1.9774
  719TMC3    C110677   2.404   2.183  12.696 -0.2308 -0.6207 -0.3739
  719TMC3    C210678   2.349   2.089  12.614 -0.0562  0.3423  0.4073
  719TMC3    C310679   2.419   2.039  12.502 -0.4487 -0.4141 -0.4529
  719TMC3    C410680   2.520   2.243  12.657  0.2095 -0.3984 -0.8770
  719TMC3    C510681   2.580   2.199  12.542  0.0302  0.0195 -0.5098
  719TMC3    C610682   2.536   2.097  12.469 -1.0022 -0.1904  0.7046
  719TMC3     C10683   2.383   2.136  12.838 -0.4030  0.2709  0.4256
  719TMC3     O10684   2.335   2.219  12.917  0.0501  1.0970  0.6507
  719TMC3     H10685   2.256   2.042  12.643  0.0772  0.0628  0.3798
  719TMC3    H110686   2.565   2.309  12.730  1.5584  0.2916 -2.3333
  719TMC3    H210687   2.598   2.057  12.389  0.2389  1.5837  0.7748
  719TMC3    C710688   2.698   2.267  12.490  0.4692 -0.5087  0.6213
  719TMC3    C810689   2.420   1.899  12.484 -0.5284  0.2180  0.3142
  719TMC3    O110690   2.764   2.218  12.398 -0.5215  0.0813  0.2041
  719TMC3    O210691   2.367   1.841  12.582  0.7034  0.0716  0.5550
  720MPD2     C10692   1.081   2.887  13.696 -0.0493  0.8832  0.3094
  720MPD2    C110693   1.131   3.018  13.692 -0.1890  0.6898  0.1103
  720MPD2    C210694   1.233   3.060  13.769  0.7153 -0.0787 -0.1276
  720MPD2    C310695   1.289   2.969  13.857  0.0193  0.2738 -0.0219
  720MPD2    C410696   1.255   2.834  13.853  0.6399 -0.8019  0.4500
  720MPD2    C510697   1.146   2.798  13.774  0.7763 -0.1154 -0.2084
  720MPD2     H10698   1.257   3.166  13.766  1.4172 -0.2577 -0.8677
  720MPD2    H110699   1.289   2.762  13.926  1.0977 -0.0766  0.9461
  720MPD2    H210700   0.999   2.852  13.634  1.1929 -0.4300 -0.5896
  720MPD2    H310701   1.115   2.694  13.782  0.8134 -0.1211 -0.1391
  720MPD2     N10702   1.361   3.010  13.976  0.7603  0.0887 -0.1918
  720MPD2    H510703   1.399   2.938  14.036  0.6625  1.1366  1.1389
  720MPD2    N110704   1.087   3.119  13.608 -0.0085 -0.0417 -0.3160
  720MPD2    H710705   1.133   3.210  13.603  0.3547 -0.3528 -2.4969
  721TMC3    C110706   1.461   3.165  14.128 -0.1213 -0.7494 -0.2987
  721TMC3    C210707   1.408   3.241  14.227  0.3519  0.4484 -0.8848
  721TMC3    C310708   1.447   3.215  14.352  0.0810 -0.2286 -0.3199
  721TMC3    C410709   1.550   3.068  14.145 -0.5368 -0.2165  0.8213
  721TMC3    C510710   1.591   3.047  14.275 -0.1487  0.1325  0.5222
  721TMC3    C610711   1.539   3.118  14.385 -0.4036  0.2151  0.2214
  721TMC3     C10712   1.379   3.145  14.015 -0.4216  0.1356 -0.5636
  721TMC3     O10713   1.323   3.243  13.972  0.3574  0.1379  0.2920
  721TMC3     H10714   1.328   3.309  14.199  1.6896  1.9637 -1.0068
  721TMC3    H110715   1.589   3.015  14.058  0.8182 -0.1545  1.3795
  721TMC3    H210716   1.589   3.102  14.479 -1.0264  1.8816  0.8413
  721TMC3    C710717   1.710   2.971  14.304 -0.2023  0.0729 -0.5372
  721TMC3    C810718   1.415   3.314  14.452  1.1257 -0.2262  0.0240
  721TMC3    O110719   1.722   2.903  14.402  0.1788 -0.8034  0.5145
  721TMC3    O210720   1.357   3.416  14.413  0.6161 -0.2639  0.4260
  722MPD2     C10721   0.465   1.748  13.688  0.2372  0.1577  0.1718
  722MPD2    C110722   0.412   1.872  13.722  0.4633 -0.1600  0.0480
  722MPD2    C210723   0.280   1.897  13.706 -0.4742 -0.6155  0.3764
  722MPD2    C310724   0.192   1.806  13.659  0.3094 -0.3574 -0.4985
  722MPD2    C410725   0.245   1.683  13.640  0.3307  0.2977 -0.7303
  722MPD2    C510726   0.374   1.649  13.648  0.2683 -0.8236  0.4127
  722MPD2     H10727   0.250   1.997  13.732 -1.2732 -0.6773 -0.3354
  722MPD2    H110728   0.175   1.606  13.608 -2.2045  2.2013  0.2710
  722MPD2    H210729   0.567   1.714  13.701 -1.2901 -4.3974  0.1344
  722MPD2    H310730   0.404   1.550  13.618 -0.1031 -0.5863 -0.7516
  722MPD2     N10731   0.056   1.838  13.634  0.3340 -0.7743  0.0790
  722MPD2    H510732   0.032   1.934  13.656  0.2763 -0.6448 -0.5540
  722MPD2    N110733   0.493   1.973  13.784  0.2350 -0.9980  0.0032
  722MPD2    H710734   0.434   2.051  13.813 -0.4131 -1.1053 -1.0424
  723TMC3    C110735   4.582   1.822  13.547 -1.2666  0.3792 -0.0727
  723TMC3    C210736   4.483   1.733  13.499 -0.0575  0.2500 -0.2036
  723TMC3    C310737   4.371   1.793  13.452 -0.2466 -0.2045 -0.7537
  723TMC3    C410738   4.576   1.958  13.530 -0.4889  0.2778 -0.1393
  723TMC3    C510739   4.462   2.013  13.486  0.3128 -0.0739  0.3710
  723TMC3    C610740   4.356   1.935  13.445 -0.2766 -0.2571  0.5826
  723TMC3     C10741   4.693   1.753  13.607 -0.3305 -0.6753 -0.6591
  723TMC3     O10742   4.702   1.633  13.578 -0.0126 -0.9097 -0.0051
  723TMC3     H10743   4.491   1.625  13.498 -0.6077  0.2258 -1.7623
  723TMC3    H110744   4.656   2.026  13.553 -0.5631  0.3607 -0.1286
  723TMC3    H210745   4.260   1.978  13.419  0.4957  1.2227  0.1770
  723TMC3    C710746   4.446   2.157  13.486 -0.0741 -0.1758  0.0696
  723TMC3    C810747   4.294   1.723  13.352  0.0236  0.1994  0.4477
  723TMC3    O110748   4.371   2.197  13.404 -0.4830 -0.0520 -0.0062
  723TMC3    O210749   4.213   1.787  13.291  0.2214 -0.3946  0.3227
  724TMC3    C110750   2.280   4.668  10.151 -1.1651  0.2198  0.0968
  724TMC3    C210751   2.141   4.680  10.169 -0.0157  0.6847  0.8451
  724TMC3    C310752   2.094   0.068  10.186  0.4459 -0.1974  0.2252
  724TMC3    C410753   2.359   0.042  10.159  0.1173 -0.3690  0.6001
  724TMC3    C510754   2.303   0.159  10.179  0.2810 -0.1324 -0.2164
  724TMC3    C610755   2.177   0.180  10.200  0.6663  0.9909 -0.1584
  724TMC3     C10756   2.330   4.541  10.117 -0.9335  0.5144  0.6623
  724TMC3     O10757   2.255   4.447  10.140  0.4496 -1.0910 -0.1141
  724TMC3     H10758   2.079   4.599  10.133  0.2493  0.4581  0.8961
  724TMC3    H110759   2.462   0.046  10.124  0.0549  0.5780  0.5198
  724TMC3    H210760   2.142   0.276  10.237 -1.8918  0.3515 -0.9415
  724TMC3    C710761   2.392   0.278  10.177 -0.5538  0.1211 -0.8167
  724TMC3    C810762   1.951   0.066  10.203 -0.1672 -0.5443  0.2133
  724TMC3    O110763   2.347   0.382  10.133 -0.3391 -0.3904 -0.1420
  724TMC3    O210764   1.898   4.698  10.221  0.1927  1.5293  0.0289
  725TMC3    C110765   2.150   3.449  13.003  0.2297  0.0600 -0.0669
  725TMC3    C210766   2.089   3.491  12.890 -0.5976  0.1778 -0.4636
  725TMC3    C310767   2.001   3.403  12.827  0.5996 -0.2979 -0.5848
  725TMC3    C410768   2.109   3.336  13.067 -0.0778 -0.6409  0.9161
  725TMC3    C510769   2.007   3.260  13.014  0.0940 -0.1155 -0.3267
  725TMC3    C610770   1.957   3.292  12.892 -0.2719  0.6102 -1.1815
  725TMC3     C10771   2.248   3.538  13.069  0.5139 -0.1169  0.9767
  725TMC3     O10772   2.261   3.649  13.026 -0.2951 -0.0694  0.2061
  725TMC3     H10773   2.120   3.588  12.853 -0.0313  0.0189 -0.3963
  725TMC3    H110774   2.169   3.292  13.146  3.1235 -0.1508 -1.2292
  725TMC3    H210775   1.879   3.233  12.846 -2.1719  1.5290  0.8944
  725TMC3    C710776   1.924   3.160  13.088 -0.4323  1.0368 -0.4726
  725TMC3    C810777   1.916   3.449  12.720  0.1480 -0.2534  0.0948
  725TMC3    O110778   1.834   3.104  13.026 -0.0249  0.3267 -0.4095
  725TMC3    O210779   1.805   3.407  12.705  0.1723  0.7545 -0.1018
  726MPD2     C10780   0.337   0.185  10.963 -0.2773  0.3343  0.3996
  726MPD2    C110781   0.259   0.300  10.978 -1.0628  0.4560  0.1037
  726MPD2    C210782   0.117   0.293  11.001  0.2534 -0.6589  0.2137
  726MPD2    C310783   0.067   0.169  11.017  0.0558  0.1427 -0.5634
  726MPD2    C410784   0.141   0.057  10.990  0.1365 -0.0209 -0.0768
  726MPD2    C510785   0.269   0.065  10.961  0.2569 -0.0115 -0.8245
  726MPD2     H10786   0.055   0.378  11.025  0.9313 -0.7431  2.2437
  726MPD2    H110787   0.089   4.701  10.980  1.3116 -0.5587 -1.1386
  726MPD2    H210788   0.444   0.195  10.953 -0.2597  1.5438  1.6223
  726MPD2    H310789   0.324   4.711  10.947 -0.7381 -0.8531  0.8424
  726MPD2     N10790   4.679   0.152  11.057 -0.1557  0.0385  0.5800
  726MPD2    H510791   4.647   0.058  11.078  2.5121 -0.6467  1.6583
  726MPD2    N110792   0.314   0.429  10.979  0.4222 -0.0401  0.2764
  726MPD2    H710793   0.248   0.506  10.988  0.7880  0.2106  0.8135
  727TMC3    C110794   0.472   0.601  10.924  0.3279 -0.1198  0.3484
  727TMC3    C210795   0.601   0.639  10.905  0.0270 -0.3854 -0.1822
  727TMC3    C310796   0.632   0.767  10.859 -0.7276 -0.0308  0.0361
  727TMC3    C410797   0.369   0.688  10.902 -0.2621 -0.5095 -0.1017
  727TMC3    C510798   0.396   0.815  10.859 -0.3939 -0.4880  0.0170
  727TMC3    C610799   0.527   0.855  10.836 -0.4976 -0.6851 -0.3485
  727TMC3     C10800   0.446   0.463  10.956  0.1662  0.8680  0.7034
  727TMC3     O10801   0.548   0.393  10.940  0.0851 -0.7029  0.0323
  727TMC3     H10802   0.683   0.577  10.940 -0.4530 -1.2637 -0.5983
  727TMC3    H110803   0.264   0.664  10.917 -0.5471  2.2346  2.2191
  727TMC3    H210804   0.543   0.950  10.785  1.4025 -1.5329 -1.3470
  727TMC3    C710805   0.283   0.912  10.866 -0.1082 -0.3571  0.1578
  727TMC3    C810806   0.769   0.807  10.849  0.6003  0.3878  0.0339
  727TMC3    O110807   0.174   0.859  10.846 -0.3199 -0.9546 -0.5754
  727TMC3    O210808   0.849   0.719  10.872  0.2491 -0.2219  0.4993
  728TMC3    C110809   3.488   3.471  15.454  0.6820 -0.0613  0.1543
  728TMC3    C210810   3.619   3.480  15.498 -0.3179 -0.6514  0.2008
  728TMC3    C310811   3.711   3.527  15.414  0.2081  0.0419 -0.1102
  728TMC3    C410812   3.448   3.503  15.328 -0.4007  0.2002  0.3337
  728TMC3    C510813   3.548   3.560  15.250 -0.2789 -0.4731  0.1856
  728TMC3    C610814   3.677   3.575  15.293 -0.9104 -0.2191 -0.5688
  728TMC3     C10815   3.393   3.432  15.558 -0.2820  0.1867  0.2096
  728TMC3     O10816   3.444   3.362  15.640 -0.0110 -0.2636  0.2917
  728TMC3     H10817   3.651   3.434  15.590  0.1032 -1.3355 -0.2897
  728TMC3    H110818   3.347   3.484  15.294 -0.2513 -1.3745  0.7651
  728TMC3    H210819   3.752   3.616  15.226 -1.8938  1.6682 -0.5260
  728TMC3    C710820   3.504   3.619  15.125  0.1710 -0.2678 -0.4514
  728TMC3    C810821   3.847   3.549  15.470 -0.1458 -0.5786  0.4172
  728TMC3    O110822   3.381   3.629  15.121 -0.6276  0.5330  0.6573
  728TMC3    O210823   3.868   3.496  15.576 -0.0893 -0.1915  0.2447
  729MPD2     C10824   1.899   4.620  17.060  0.4016  0.3767  0.2008
  729MPD2    C110825   1.960   0.003  17.054 -1.0688  0.3079 -0.0556
  729MPD2    C210826   1.960   0.069  17.178 -0.1787 -0.2736  0.4381
  729MPD2    C310827   1.905   0.013  17.293 -0.0039  0.3771 -0.2134
  729MPD2    C410828   1.848   4.627  17.290  0.4545 -0.0400 -0.4014
  729MPD2    C510829   1.839   4.564  17.169  0.1034 -0.1728  0.1477
  729MPD2     H10830   1.999   0.169  17.170 -0.7295 -0.3952 -3.6025
  729MPD2    H110831   1.786   4.584  17.368 -1.6770  1.0074 -1.5191
  729MPD2    H210832   1.885   4.561  16.970  0.9730 -0.9714  1.0122
  729MPD2    H310833   1.804   4.464  17.147 -4.4372  1.3527  0.4468
  729MPD2     N10834   1.904   0.085  17.415 -0.1648  0.0655  0.0701
  729MPD2    H510835   1.870   0.044  17.502 -1.5798 -0.9806 -0.9794
  729MPD2    N110836   1.997   0.055  16.935  0.6293  0.5593  0.1726
  729MPD2    H710837   1.973   4.735  16.856  0.4625  1.1512 -0.2165
  730TMC3    C110838   1.959   0.255  17.568  0.9024  0.9245  0.0815
  730TMC3    C210839   2.043   0.361  17.596  0.2042  0.8744  1.0385
  730TMC3    C310840   2.002   0.465  17.684 -0.9959 -0.0040  0.7781
  730TMC3    C410841   1.837   0.249  17.631 -0.4960 -0.0899  0.1793
  730TMC3    C510842   1.801   0.347  17.725 -0.2842  0.5006 -0.3301
  730TMC3    C610843   1.885   0.458  17.752 -0.9978  0.9825 -0.4043
  730TMC3     C10844   1.973   0.202  17.434 -0.0236 -0.6556 -0.3011
  730TMC3     O10845   2.037   0.274  17.353 -0.1705  0.7473 -0.2407
  730TMC3     H10846   2.130   0.362  17.532  0.2676  2.1753  1.1413
  730TMC3    H110847   1.762   0.175  17.605  0.2201 -0.6828 -0.2083
  730TMC3    H210848   1.852   0.549   0.049 -0.7355  0.4356  0.7731
  730TMC3    C710849   1.663   0.388  17.711 -0.1437 -0.8654  0.4243
  730TMC3    C810850   2.076   0.586  17.670  0.3712 -0.5454 -0.2857
  730TMC3    O110851   1.605   0.343  17.615  0.3567 -0.6798 -0.1610
  730TMC3    O210852   2.134   0.606  17.563  0.2033 -0.3809  0.4814
  731MPD2     C10853   0.766   3.292  12.840  0.6245 -0.6938 -0.1109
  731MPD2    C110854   0.829   3.169  12.816  0.0821 -0.0971 -0.0387
  731MPD2    C210855   0.821   3.067  12.910 -0.2092 -0.0516  0.1239
  731MPD2    C310856   0.751   3.079  13.027 -0.5566 -0.0048  0.0293
  731MPD2    C410857   0.688   3.202  13.050 -0.0296 -0.2086  0.6999
  731MPD2    C510858   0.702   3.305  12.962  0.5304  0.1165 -0.5226
  731MPD2     H10859   0.867   2.972  12.884 -1.7255 -0.4590 -1.0318
  731MPD2    H110860   0.632   3.223  13.140  1.1827  0.5195  1.2888
  731MPD2    H210861   0.767   3.373  12.767 -0.1866  1.4533  2.2333
  731MPD2    H310862   0.664   3.402  12.991  1.3310  0.3351 -0.1992
  731MPD2     N10863   0.737   2.976  13.122 -0.0560 -0.1803 -0.6828
  731MPD2    H510864   0.766   2.883  13.094 -3.8052 -1.7924  0.7597
  731MPD2    N110865   0.885   3.154  12.684 -0.3973  0.5117 -0.5191
  731MPD2    H710866   0.875   3.230  12.617 -3.2483  0.1787 -0.4583
  732TMC3    C110867   1.014   3.052  12.512 -0.1569  0.3002  0.3177
  732TMC3    C210868   0.924   3.090  12.416  0.7407  0.3710 -0.2371
  732TMC3    C310869   0.965   3.076  12.281 -0.4323  0.1179 -0.6945
  732TMC3    C410870   1.136   3.002  12.484  0.2943  0.5795  0.0936
  732TMC3    C510871   1.176   2.985  12.354  0.0974  0.1988 -0.6460
  732TMC3    C610872   1.092   3.035  12.250 -0.4728  0.6144 -0.6309
  732TMC3     C10873   0.973   3.053  12.647 -0.3327 -0.1384  0.5440
  732TMC3     O10874   1.008   2.957  12.711 -0.1023 -0.1164 -0.3412
  732TMC3     H10875   0.824   3.094  12.459  1.2817 -0.8644  1.1451
  732TMC3    H110876   1.197   2.981  12.571 -0.2668 -3.7350 -0.5509
  732TMC3    H210877   1.130   3.035  12.148  2.5950 -2.1735  0.4909
  732TMC3    C710878   1.292   2.910  12.317  0.1613 -0.9807 -0.5561
  732TMC3    C810879   0.892   3.152  12.182  0.3467  0.1595  0.0606
  732TMC3    O110880   1.331   2.911  12.203  0.3996  0.2452 -0.1916
  732TMC3    O210881   0.913   3.127  12.064 -0.4491  0.1079  0.0787
  733TMC3    C110882   2.359   1.208  12.825 -0.0622 -0.6300 -0.3789
  733TMC3    C210883   2.399   1.304  12.916 -0.0132 -0.4864  0.1790
  733TMC3    C310884   2.523   1.365  12.897  0.9391 -0.4148  0.2873
  733TMC3    C410885   2.434   1.171  12.713 -0.3032 -0.2761 -0.0594
  733TMC3    C510886   2.555   1.238  12.694  0.1355  0.2949  0.6641
  733TMC3    C610887   2.599   1.327  12.788 -0.0903  0.4009  0.4507
  733TMC3     C10888   2.233   1.140  12.846  0.1739  0.3540  0.0727
  733TMC3     O10889   2.178   1.097  12.742 -0.7957  0.0919 -0.0649
  733TMC3     H10890   2.334   1.348  12.991  0.0630  2.4084 -1.4329
  733TMC3    H110891   2.388   1.101  12.645 -1.7918  2.3693 -1.7839
  733TMC3    H210892   2.692   1.378  12.765 -0.4104  0.3669 -0.9611
  733TMC3    C710893   2.583   1.277  12.556  0.3188  0.3946  0.7190
  733TMC3    C810894   2.525   1.505  12.906  0.1266  0.4176 -0.4171
  733TMC3    O110895   2.577   1.187  12.474  0.1804 -0.1516 -0.4413
  733TMC3    O210896   2.582   1.573  12.820  0.3181 -0.0595  0.1712
  734MPD2     C10897   4.252   3.669  12.597 -0.2132 -0.0527 -0.3219
  734MPD2    C110898   4.210   3.567  12.510 -0.6595  0.5792  0.4201
  734MPD2    C210899   4.240   3.585  12.371  0.0494  0.5415  0.3516
  734MPD2    C310900   4.294   3.702  12.317 -0.0444  0.1447  0.0625
  734MPD2    C410901   4.325   3.800  12.408  0.9029 -0.2438 -0.0877
  734MPD2    C510902   4.307   3.784  12.543 -0.8839  0.0255  0.2132
  734MPD2     H10903   4.216   3.508  12.299 -0.3517 -0.4994  1.5793
  734MPD2    H110904   4.373   3.893  12.378  0.3717  0.3064  0.8096
  734MPD2    H210905   4.238   3.657  12.704  0.1410  2.1837 -0.0312
  734MPD2    H310906   4.335   3.865  12.609 -0.1283  0.4300 -0.6090
  734MPD2     N10907   4.336   3.691  12.183  0.4068 -0.1389 -0.7937
  734MPD2    H510908   4.334   3.594  12.153 -2.4025 -0.2593 -0.2536
  734MPD2    N110909   4.143   3.453  12.564  0.2398  0.2512  0.0025
  734MPD2    H710910   4.136   3.457  12.666 -0.0033 -1.2806  0.0375
  735TMC3    C110911   4.022   3.251  12.545 -0.1200  0.2583 -0.2570
  735TMC3    C210912   3.949   3.181  12.460 -0.4074 -0.1088 -0.2760
  735TMC3    C310913   3.984   3.055  12.426  0.2615  0.2722  0.1772
  735TMC3    C410914   4.123   3.178  12.601  0.1484 -0.2207  0.2228
  735TMC3    C510915   4.151   3.044  12.578  0.4302 -0.1954 -0.2583
  735TMC3    C610916   4.083   2.977  12.482  0.0415 -0.1440  0.1546
  735TMC3     C10917   4.064   3.374  12.483  0.2803 -0.2724  0.5962
  735TMC3     O10918   4.040   3.382  12.362 -0.2054 -0.5461  0.0057
  735TMC3     H10919   3.875   3.238  12.404  0.4968  0.3726 -0.9904
  735TMC3    H110920   4.185   3.230  12.673  0.8991 -0.0775 -0.5262
  735TMC3    H210921   4.111   2.878  12.448 -0.1324  0.0117 -0.4420
  735TMC3    C710922   4.271   2.992  12.628  0.1179  0.3599 -0.3196
  735TMC3    C810923   3.984   3.033  12.289 -0.0075  0.4171 -0.0841
  735TMC3    O110924   4.347   3.067  12.689 -0.0206 -0.0901 -0.2413
  735TMC3    O210925   3.992   2.916  12.250  0.0488  0.1247  0.1543
  736MPD2     C10926   4.419   2.645  12.638  0.1804  0.4361  0.2463
  736MPD2    C110927   4.413   2.785  12.609 -0.4023 -0.1680  0.1842
  736MPD2    C210928   4.530   2.849  12.565  0.1278 -0.0055  0.0307
  736MPD2    C310929   4.650   2.780  12.543 -1.1862 -0.2080  0.1656
  736MPD2    C410930   4.656   2.645  12.571  0.1240  0.1547  0.4028
  736MPD2    C510931   4.546   2.582  12.621 -0.4124  0.2999 -0.1150
  736MPD2     H10932   4.524   2.954  12.540 -0.3511  0.3998  1.8635
  736MPD2    H110933   0.011   2.592  12.557  1.1307  1.5924  1.7130
  736MPD2    H210934   4.325   2.594  12.658  0.8970 -1.6980 -1.8737
  736MPD2    H310935   4.554   2.476  12.642 -2.3602  0.0318 -0.7436
  736MPD2     N10936   0.013   2.842  12.465 -0.7457  0.3781 -0.4536
  736MPD2    H510937   0.093   2.779  12.457 -1.8442 -0.8922 -1.2598
  736MPD2    N110938   4.288   2.853  12.616 -0.5183 -0.0319 -0.1726
  736MPD2    H710939   4.205   2.795  12.607  0.1688 -1.4418  2.7961
  737TMC3    C110940   0.121   2.967  12.305 -0.4813 -0.2922  0.2400
  737TMC3    C210941   0.095   3.076  12.228  0.3410  0.1665 -0.2526
  737TMC3    C310942   0.123   3.067  12.094 -0.2380  0.2436 -0.0305
  737TMC3    C410943   0.178   2.856  12.256  0.5673  0.1939  0.1841
  737TMC3    C510944   0.195   2.843  12.121  0.1433 -1.1889  0.1737
  737TMC3    C610945   0.168   2.948  12.037  0.1221  1.1390 -0.6662
  737TMC3     C10946   0.024   2.964  12.417 -0.0698  0.2194 -0.4789
  737TMC3     O10947   4.689   3.063  12.415  0.3033 -0.6093  0.1985
  737TMC3     H10948   0.065   3.169  12.274  2.8034  0.9049 -0.1314
  737TMC3    H110949   0.179   2.769  12.322 -0.8597 -0.3206 -0.4542
  737TMC3    H210950   0.167   2.930  11.930 -0.9962  2.1048 -0.8040
  737TMC3    C710951   0.279   2.736  12.070  0.1314  0.1475  0.3746
  737TMC3    C810952   0.135   3.186  12.016  0.3228 -0.6327  0.2487
  737TMC3    O110953   0.260   2.621  12.112 -0.3254  0.0763  0.1390
  737TMC3    O210954   0.105   3.293  12.067  0.1411 -0.4437  0.2581
  738MPD2     C10955   0.856   1.682  15.743  0.3684  0.2988 -0.7312
  738MPD2    C110956   0.779   1.744  15.647  0.5476 -0.2357 -0.3553
  738MPD2    C210957   0.835   1.824  15.554 -0.8037 -0.2196 -0.0787
  738MPD2    C310958   0.974   1.837  15.554 -0.3189 -0.5413 -1.2823
  738MPD2    C410959   1.056   1.765  15.641 -0.5990  0.3607 -0.8145
  738MPD2    C510960   0.993   1.696  15.738 -0.2954  0.0330 -0.5467
  738MPD2     H10961   0.770   1.889  15.497  0.9703 -0.2710 -2.1289
  738MPD2    H110962   1.164   1.768  15.644 -0.5689 -1.6668  0.1418
  738MPD2    H210963   0.819   1.615  15.820  1.6049  1.0500  0.5166
  738MPD2    H310964   1.050   1.637  15.809  1.0665  1.6641 -0.2862
  738MPD2     N10965   1.045   1.922  15.462  0.3650  0.5322  0.2672
  738MPD2    H510966   1.145   1.931  15.478  0.0277  1.2563  1.9278
  738MPD2    N110967   0.638   1.732  15.641 -0.9395 -0.3927  0.0684
  738MPD2    H710968   0.595   1.772  15.558 -1.1548  1.3523  1.0314
  739TMC3    C110969   1.077   2.100  15.302  0.5307  0.2587  0.2190
  739TMC3    C210970   1.026   2.156  15.186 -0.1896 -0.9676 -0.1372
  739TMC3    C310971   1.110   2.246  15.124 -0.4336  0.2610 -0.2879
  739TMC3    C410972   1.201   2.117  15.354 -0.8370 -0.2678 -0.3305
  739TMC3    C510973   1.277   2.212  15.284  0.3889 -0.6573 -0.9341
  739TMC3    C610974   1.239   2.274  15.166  0.6402  0.0941  0.2897
  739TMC3     C10975   0.984   2.011  15.371 -0.6675  0.2886  0.0388
  739TMC3     O10976   0.866   2.012  15.331 -0.1592  0.5593 -0.7686
  739TMC3     H10977   0.926   2.137  15.149 -0.4389 -1.9011  1.0132
  739TMC3    H110978   1.237   2.069  15.444  0.9298  0.2291 -0.7754
  739TMC3    H210979   1.291   2.350  15.109  2.1108 -2.5953 -2.0046
  739TMC3    C710980   1.419   2.215  15.322 -0.2448  0.0685 -0.6912
  739TMC3    C810981   1.063   2.313  15.008 -0.1209  0.5692  0.0461
  739TMC3    O110982   1.465   2.109  15.362 -0.5754 -0.2767  0.2120
  739TMC3    O210983   0.940   2.307  14.998 -0.4847  0.4760 -0.1169
  740TMC3    C110984   1.208   3.773  14.515  0.2842 -0.0704 -0.7126
  740TMC3    C210985   1.227   3.864  14.615  0.0531  0.3870 -0.6345
  740TMC3    C310986   1.342   3.942  14.609 -0.1834 -0.2016  0.1813
  740TMC3    C410987   1.311   3.748  14.422  0.2159 -0.3757  0.4243
  740TMC3    C510988   1.431   3.813  14.437  0.3141 -0.3179 -0.3249
  740TMC3    C610989   1.445   3.922  14.517  0.3896 -0.3419 -0.3021
  740TMC3     C10990   1.071   3.730  14.488  0.0787 -0.5034 -0.0597
  740TMC3     O10991   1.028   3.738  14.371 -0.4342 -0.5120 -0.2309
  740TMC3     H10992   1.140   3.889  14.676  1.5609  3.4148  0.2801
  740TMC3    H110993   1.300   3.666  14.353  0.1434  0.3556 -0.4374
  740TMC3    H210994   1.542   3.970  14.516  1.3731 -2.3109  0.8386
  740TMC3    C710995   1.554   3.739  14.420 -0.1371  0.3717 -0.3182
  740TMC3    C810996   1.362   4.045  14.708 -0.6900  0.2989  0.0517
  740TMC3    O110997   1.623   3.748  14.520 -0.3330 -0.8502 -0.1729
  740TMC3    O210998   1.317   4.027  14.820 -0.1964  0.1086  0.0130
  741TMC3    C110999   0.788   2.805  14.682 -0.2365 -0.2616 -0.9229
  741TMC3    C211000   0.667   2.741  14.683 -0.1812  0.1600  0.2921
  741TMC3    C311001   0.626   2.676  14.793  0.8919 -0.2485  0.7792
  741TMC3    C411002   0.871   2.798  14.791 -0.0035 -0.2753 -0.0264
  741TMC3    C511003   0.827   2.738  14.903 -0.3272  0.7232 -0.4004
  741TMC3    C611004   0.705   2.674  14.903 -0.1426 -0.1343  1.0930
  741TMC3     C11005   0.814   2.914  14.582  0.5429  0.2780 -0.4210
  741TMC3     O11006   0.932   2.936  14.567  0.5919  0.8601 -0.2897
  741TMC3     H11007   0.610   2.746  14.591 -1.3123 -0.0109  0.9850
  741TMC3    H111008   0.966   2.851  14.787  0.1090 -0.4033  0.9309
  741TMC3    H211009   0.675   2.631  14.998  2.1326  0.3789  2.0271
  741TMC3    C711010   0.897   2.757  15.030  0.5271 -0.5046 -0.0533
  741TMC3    C811011   0.486   2.639  14.806 -0.0645  0.8939  1.1927
  741TMC3    O111012   0.973   2.859  15.034  0.0520 -0.5629  0.1585
  741TMC3    O211013   0.407   2.693  14.730  0.1453 -0.2204 -0.3747
  742TMC3    C111014   0.999   1.190  15.732  1.6484  0.6519  0.1206
  742TMC3    C211015   0.913   1.183  15.627 -0.3629  1.0948 -0.3808
  742TMC3    C311016   0.936   1.100  15.525 -0.3653 -0.4245 -0.3691
  742TMC3    C411017   1.106   1.102  15.744 -0.2978  0.1523  1.0533
  742TMC3    C511018   1.126   1.021  15.636 -0.6818 -0.1946 -0.1162
  742TMC3    C611019   1.041   1.008  15.532 -0.2571  0.3678  0.0479
  742TMC3     C11020   0.965   1.290  15.834 -0.3270 -0.6315  0.1628
  742TMC3     O11021   0.882   1.368  15.788  0.1862 -0.2599 -0.6180
  742TMC3     H11022   0.854   1.269  15.597 -1.9840 -0.6031 -2.0660
  742TMC3    H111023   1.185   1.112  15.817  0.5496 -0.5368  0.2482
  742TMC3    H211024   1.045   0.933  15.454  2.8945 -1.4568  1.9698
  742TMC3    C711025   1.207   0.912  15.666  0.2076 -0.3326 -0.1621
  742TMC3    C811026   0.843   1.087  15.415  1.0104 -0.1365 -0.3378
  742TMC3    O111027   1.282   0.871  15.581 -0.2601  0.3901 -0.6221
  742TMC3    O211028   0.880   1.047  15.307  0.1417 -0.2736  0.5934
  743MPD2     C11029   3.898   2.955   2.022  0.2757 -0.2958  0.2907
  743MPD2    C111030   3.838   2.857   1.943 -0.1897  0.3335 -0.1159
  743MPD2    C211031   3.893   2.733   1.938 -0.3849 -0.1513 -0.0972
  743MPD2    C311032   4.011   2.706   2.008  0.0060 -0.4169 -0.3286
  743MPD2    C411033   4.065   2.800   2.095  0.0219 -0.0159  0.5523
  743MPD2    C511034   4.009   2.926   2.095  0.5546 -0.0550 -0.1073
  743MPD2     H11035   3.858   2.657   1.869 -1.3708 -0.2168  0.4744
  743MPD2    H111036   4.151   2.778   2.157  1.7202  1.8841 -1.1296
  743MPD2    H211037   3.859   3.056   2.016 -0.1996 -0.6227 -2.1582
  743MPD2    H311038   4.055   3.004   2.155  1.6995  0.6993 -1.9837
  743MPD2     N11039   4.050   2.571   2.004  0.0438  0.3434  0.1790
  743MPD2    H511040   4.011   2.518   1.927  0.6301  0.9273 -0.5164
  743MPD2    N111041   3.716   2.893   1.874 -0.1032  0.5369 -0.2240
  743MPD2    H711042   3.694   2.992   1.877 -0.0610  0.4951  1.4010
  744TMC3    C111043   3.534   2.870   1.729  0.0946 -0.0063  0.2880
  744TMC3    C211044   3.474   2.982   1.764  0.8401  0.0720 -0.3145
  744TMC3    C311045   3.373   3.038   1.688  0.4061  0.8553 -0.3888
  744TMC3    C411046   3.494   2.808   1.613  0.5972  0.4592 -0.2039
  744TMC3    C511047   3.386   2.862   1.546  0.4697 -0.0193  0.4650
  744TMC3    C611048   3.319   2.974   1.579 -0.9876  0.0704  0.0809
  744TMC3     C11049   3.640   2.803   1.804 -0.0907  0.6985  0.5530
  744TMC3     O11050   3.651   2.687   1.764  0.6388 -0.4580  0.4312
  744TMC3     H11051   3.508   3.020   1.860 -1.9475  0.6156  0.4389
  744TMC3    H111052   3.548   2.728   1.565 -2.9192 -1.6421 -0.6369
  744TMC3    H211053   3.260   3.019   1.500  1.3364 -0.2652 -1.8481
  744TMC3    C711054   3.332   2.780   1.440 -0.5230  0.1801  0.4042
  744TMC3    C811055   3.306   3.164   1.722 -0.8860  0.5513  0.1247
  744TMC3    O111056   3.407   2.701   1.379 -0.4781  0.1603  0.2919
  744TMC3    O211057   3.214   3.191   1.646  0.1498 -0.4785 -0.0026
  745TMC3    C111058   1.071   1.294  13.615  0.1376 -0.4802  0.0514
  745TMC3    C211059   0.974   1.248  13.704  0.2710  0.4701 -0.3222
  745TMC3    C311060   0.844   1.277  13.669  0.4355  0.4765  0.7430
  745TMC3    C411061   1.041   1.335  13.493 -0.1236 -0.0175  0.1251
  745TMC3    C511062   0.904   1.342  13.456 -0.6450 -0.5017 -0.0126
  745TMC3    C611063   0.805   1.323  13.545  0.0296  0.5306 -0.1860
  745TMC3     C11064   1.211   1.304  13.648 -0.0885 -0.0748  0.2574
  745TMC3     O11065   1.294   1.326  13.566  0.5952  0.1926 -0.0278
  745TMC3     H11066   1.004   1.196  13.794 -0.6190  2.3733  1.0854
  745TMC3    H111067   1.123   1.369  13.431  0.5956  1.0725  1.6882
  745TMC3    H211068   0.700   1.327  13.519  0.5570  0.2838 -2.2950
  745TMC3    C711069   0.885   1.357  13.306  0.2705 -0.3998  0.1529
  745TMC3    C811070   0.739   1.233  13.757  1.0135  0.1186  0.0642
  745TMC3    O111071   0.770   1.396  13.282  0.0892  0.0564 -0.3243
  745TMC3    O211072   0.626   1.222  13.713  0.3527 -0.0152  0.4361
  746TMC3    C111073   3.409   2.579  11.253  0.6547 -0.6683 -0.1187
  746TMC3    C211074   3.458   2.560  11.130 -0.1560 -0.7597  0.2424
  746TMC3    C311075   3.443   2.434  11.079 -0.1981  1.3159 -0.6590
  746TMC3    C411076   3.328   2.489  11.314  0.3134 -0.1866 -0.2086
  746TMC3    C511077   3.321   2.359  11.262 -0.5868 -0.0316 -0.3941
  746TMC3    C611078   3.388   2.332  11.148  0.0175  0.1526  0.0391
  746TMC3     C11079   3.402   2.721  11.299 -0.1997  0.6075 -0.3194
  746TMC3     O11080   3.321   2.755  11.388 -0.2016 -0.1970  0.0498
  746TMC3     H11081   3.512   2.625  11.063 -1.9747 -0.3608 -0.8236
  746TMC3    H111082   3.278   2.513  11.407 -0.7592 -1.9351 -0.3556
  746TMC3    H211083   3.364   2.241  11.095 -2.4948  0.9673 -0.2569
  746TMC3    C711084   3.189   2.304  11.277  0.7316 -0.1265  0.7983
  746TMC3    C811085   3.460   2.410  10.937 -0.3298  0.1662 -0.5774
  746TMC3    O111086   3.155   2.264  11.163 -0.4915 -0.1569  0.3012
  746TMC3    O211087   3.459   2.301  10.889  0.0055 -0.6039  0.9210
  747TMC3    C111088   0.641   3.125  11.217  0.5581  0.3724 -0.2681
  747TMC3    C211089   0.662   3.001  11.270  0.2253 -0.1717 -0.0530
  747TMC3    C311090   0.664   2.980  11.405 -0.1564  0.0401  0.4838
  747TMC3    C411091   0.629   3.234  11.293 -0.9109  0.0647 -0.0593
  747TMC3    C511092   0.645   3.211  11.432 -0.5051 -0.2049 -1.1639
  747TMC3    C611093   0.668   3.087  11.489  0.2480  0.2028  0.4580
  747TMC3     C11094   0.606   3.139  11.081  0.3518 -0.2409 -0.0349
  747TMC3     O11095   0.542   3.235  11.049 -0.3368  0.5991  0.6173
  747TMC3     H11096   0.656   2.917  11.201  1.1039 -0.1768 -0.1203
  747TMC3    H111097   0.654   3.325  11.240  0.8903  1.1111  2.6002
  747TMC3    H211098   0.693   3.084  11.595 -3.0725 -2.6847  1.1702
  747TMC3    C711099   0.651   3.335  11.512  0.3776 -0.3107 -0.1512
  747TMC3    C811100   0.624   2.847  11.450  0.2111 -0.1329  0.4182
  747TMC3    O111101   0.721   3.330  11.612 -0.2205  0.0399  0.4904
  747TMC3    O211102   0.615   2.751  11.372  0.0658 -0.2852  0.3342
  748MPD2     C11103   2.475   3.933   1.488 -0.2611  0.2059  0.5006
  748MPD2    C111104   2.568   3.869   1.414  0.3491  0.4209 -0.4188
  748MPD2    C211105   2.698   3.912   1.424 -0.6894 -0.0214 -0.8456
  748MPD2    C311106   2.744   3.986   1.528  0.4947  0.1918 -0.0087
  748MPD2    C411107   2.654   4.048   1.607 -0.2733  0.6489 -0.4676
  748MPD2    C511108   2.524   4.029   1.576 -0.0391 -0.6166 -0.3020
  748MPD2     H11109   2.775   3.867   1.363 -0.5340  0.7263 -1.1967
  748MPD2    H111110   2.681   4.126   1.677  0.0312 -0.3595  0.5285
  748MPD2    H211111   2.367   3.921   1.485 -0.2515  0.0508  0.7057
  748MPD2    H311112   2.458   4.092   1.636 -0.2829 -0.7012 -0.4827
  748MPD2     N11113   2.884   3.996   1.536 -0.2181  0.1128 -0.0836
  748MPD2    H511114   2.945   3.951   1.468 -0.3777  0.3993 -0.4167
  748MPD2    N111115   2.524   3.765   1.325  0.7959 -0.3516  0.1018
  748MPD2    H711116   2.424   3.747   1.326  1.1670 -2.3025  2.7500
  749TMC3    C111117   3.092   4.089   1.623  0.0308 -0.0465 -0.1545
  749TMC3    C211118   3.183   4.020   1.697  0.5651 -0.1872  0.3382
  749TMC3    C311119   3.302   4.011   1.638 -0.0538 -0.5283 -0.6992
  749TMC3    C411120   3.124   4.145   1.496  0.0867 -0.0915  0.4149
  749TMC3    C511121   3.242   4.123   1.440  0.2332  0.4818  0.6591
  749TMC3    C611122   3.335   4.052   1.509 -0.1503 -0.1940  0.0006
  749TMC3     C11123   2.945   4.058   1.647  0.3087 -0.2000  0.3458
  749TMC3     O11124   2.911   4.068   1.763  0.1468 -0.0380  0.3160
  749TMC3     H11125   3.162   3.960   1.785 -0.6526 -1.9181 -1.1383
  749TMC3    H111126   3.044   4.191   1.439 -0.0961 -1.4054 -0.3805
  749TMC3    H211127   3.437   4.040   1.475  0.0925  0.6671  0.4057
  749TMC3    C711128   3.286   4.177   1.317  0.1610 -0.2529 -0.0346
  749TMC3    C811129   3.391   3.920   1.705 -0.1441  0.3679  0.5410
  749TMC3    O111130   3.396   4.136   1.273 -0.4674 -0.1529 -0.1732
  749TMC3    O211131   3.398   3.941   1.824 -0.3338  0.2460  0.3961
  750MPD2     C11132   3.799   4.571  11.694 -0.5871 -0.0404 -0.0956
  750MPD2    C111133   3.674   4.532  11.744  0.0792  0.8742 -0.3924
  750MPD2    C211134   3.601   4.432  11.681 -0.6607  0.0954 -0.0708
  750MPD2    C311135   3.668   4.363  11.581  0.3722  0.1772  0.0122
  750MPD2    C411136   3.793   4.404  11.540 -0.1422  0.3643  0.6073
  750MPD2    C511137   3.863   4.507  11.597  0.4175  0.0422  0.5088
  750MPD2     H11138   3.500   4.407  11.713 -0.4507  1.3854  1.6545
  750MPD2    H111139   3.842   4.357  11.455 -1.9306 -0.7641  0.2141
  750MPD2    H211140   3.849   4.652  11.746 -1.3669  0.5633 -0.2892
  750MPD2    H311141   3.958   4.536  11.554 -0.3778 -0.0360 -1.3121
  750MPD2     N11142   3.611   4.243  11.521  0.2518 -0.1581  0.2887
  750MPD2    H511143   3.666   4.191  11.453  1.0770 -0.1963  0.9854
  750MPD2    N111144   3.617   4.609  11.850 -0.4172  0.0005  0.4308
  750MPD2    H711145   3.673   4.680  11.898 -2.4910  1.2367  1.0112
  751TMC3    C111146   3.474   4.087  11.429 -0.0101 -0.8823  0.8352
  751TMC3    C211147   3.395   3.979  11.473 -0.3268  0.3818  0.0310
  751TMC3    C311148   3.390   3.869  11.390  0.8176  0.2652  0.4818
  751TMC3    C411149   3.547   4.080  11.312  0.2173  0.2774  0.3049
  751TMC3    C511150   3.536   3.975  11.232 -0.5987  0.0362 -0.4212
  751TMC3    C611151   3.448   3.872  11.264 -0.4076 -0.3463 -0.2155
  751TMC3     C11152   3.491   4.187  11.539  0.4564  0.7489  0.3733
  751TMC3     O11153   3.405   4.198  11.626  0.5963  0.0579 -0.2204
  751TMC3     H11154   3.361   3.981  11.576 -1.7271 -1.3517 -0.3965
  751TMC3    H111155   3.603   4.163  11.272 -0.5478  0.1297 -1.0557
  751TMC3    H211156   3.456   3.780  11.208  0.9082 -0.7460  0.6135
  751TMC3    C711157   3.602   3.973  11.104 -0.3019  0.6270  0.0040
  751TMC3    C811158   3.295   3.755  11.406 -0.3868  0.1943 -0.4607
  751TMC3    O111159   3.696   4.052  11.096  0.1035  0.1395  0.0693
  751TMC3    O211160   3.316   3.659  11.331  0.0109  0.4420  0.4837
  752TMC3    C111161   2.449   0.544  17.563 -0.0634 -0.1648 -0.2301
  752TMC3    C211162   2.403   0.415  17.559 -0.0542  0.1298 -0.1805
  752TMC3    C311163   2.389   0.356  17.681  0.2723 -0.3247 -0.1439
  752TMC3    C411164   2.472   0.613  17.681 -0.6129 -0.1261 -0.0130
  752TMC3    C511165   2.464   0.549   0.047 -0.1292  0.3712  0.3071
  752TMC3    C611166   2.418   0.419   0.048  0.1070  0.1502  0.8248
  752TMC3     C11167   2.460   0.626  17.448  0.2452  0.0207 -0.0104
  752TMC3     O11168   2.489   0.741  17.471 -0.0434 -0.1390  0.2775
  752TMC3     H11169   2.386   0.362  17.466  0.6572  1.4169 -1.0395
  752TMC3    H111170   2.507   0.714  17.695 -0.3932 -0.3554  1.0793
  752TMC3    H211171   2.428   0.365   0.142 -1.6517 -1.0625  0.3242
  752TMC3    C711172   2.494   0.625   0.167  0.3384 -0.3301  0.0246
  752TMC3    C811173   2.336   0.218  17.669 -0.3894 -0.7892  0.4046
  752TMC3    O111174   2.599   0.691   0.158  0.4190 -0.0284  0.3615
  752TMC3    O211175   2.296   0.179  17.561  0.5355 -0.7439 -0.4441
  753TMC3    C111176   4.239   1.115  13.647 -0.0104  0.4087  0.0271
  753TMC3    C211177   4.302   1.082  13.770 -0.4076  0.8628 -0.4045
  753TMC3    C311178   4.287   0.949  13.815 -0.4245  0.2330 -0.8290
  753TMC3    C411179   4.152   1.029  13.580 -0.1902  0.4234  0.4986
  753TMC3    C511180   4.128   0.906  13.646 -0.3914  0.0201 -0.5921
  753TMC3    C611181   4.191   0.866  13.754 -0.0387  0.0149 -0.5807
  753TMC3     C11182   4.242   1.255  13.604 -0.7435 -0.5656  0.8324
  753TMC3     O11183   4.144   1.294  13.542 -0.1502 -0.0384  0.1861
  753TMC3     H11184   4.371   1.151  13.817 -1.5273  1.3802  0.4866
  753TMC3    H111185   4.099   1.048  13.488  0.1673 -1.0604 -0.0198
  753TMC3    H211186   4.170   0.765  13.788 -0.7179  0.5890  0.6851
  753TMC3    C711187   4.038   0.809  13.579 -0.6582 -0.3486 -0.2655
  753TMC3    C811188   4.347   0.891  13.927 -0.6176  0.3432  0.3715
  753TMC3    O111189   4.028   0.812  13.453 -0.4789 -0.1089  0.3497
  753TMC3    O211190   4.365   0.772  13.911 -0.0663  0.1321  0.2635
  754MPD2     C11191   3.328   4.430  13.550  0.4838  0.2544  0.5533
  754MPD2    C111192   3.288   4.295  13.552 -1.0018  0.5759  0.4626
  754MPD2    C211193   3.165   4.267  13.497 -0.1399 -0.1937 -0.4767
  754MPD2    C311194   3.076   4.367  13.475 -0.4206  0.5562 -0.0983
  754MPD2    C411195   3.107   4.498  13.498  0.1884  0.4265  0.2573
  754MPD2    C511196   3.235   4.528  13.528  0.7295 -0.3127  0.1895
  754MPD2     H11197   3.137   4.163  13.483 -1.2458 -0.0137  0.3675
  754MPD2    H111198   3.035   4.577  13.481 -0.2186  0.2101  0.9596
  754MPD2    H211199   3.430   4.457  13.577  0.8666  0.7679 -1.3677
  754MPD2    H311200   3.265   4.628  13.558 -0.9002  0.3650 -0.4460
  754MPD2     N11201   2.944   4.348  13.426  0.2609 -0.0997 -0.0745
  754MPD2    H511202   2.894   4.428  13.389 -1.6706 -1.2547  0.0348
  754MPD2    N111203   3.386   4.198  13.582 -0.1582 -0.3461  0.0151
  754MPD2    H711204   3.480   4.234  13.594 -0.0154 -1.0197  0.9173
  755MPD2     C11205   2.303   0.178  13.480  0.7532 -0.7607  0.1378
  755MPD2    C111206   2.240   0.079  13.418  0.1541 -0.4425  0.1429
  755MPD2    C211207   2.303   4.705  13.381  0.3952 -0.6868  0.1222
  755MPD2    C311208   2.432   4.667  13.432  0.4078  0.2638 -0.0443
  755MPD2    C411209   2.497   0.032  13.498 -0.1859  0.0350  0.5418
  755MPD2    C511210   2.436   0.151  13.523 -0.0655  0.0570  0.4618
  755MPD2     H11211   2.242   4.628  13.335  0.2696 -1.7344  2.0673
  755MPD2    H111212   2.594   0.017  13.545 -1.2791  0.3748  2.9281
  755MPD2    H211213   2.255   0.270  13.511 -0.2209 -0.4460 -2.3303
  755MPD2    H311214   2.485   0.224  13.586  0.0911 -1.4355  2.0634
  755MPD2     N11215   2.499   4.540  13.418 -0.0355  0.0024 -0.4194
  755MPD2    H511216   2.593   4.541  13.454 -0.4861  2.6876  0.6431
  755MPD2    N111217   2.098   0.089  13.383  0.3583 -0.1380 -0.1298
  755MPD2    H711218   2.056   0.008  13.340  0.1291 -0.9046  1.5270
  756MPD2     C11219   2.915   0.866  10.634  0.2843  0.2770  0.5326
  756MPD2    C111220   2.826   0.840  10.736 -0.0747 -0.9147 -0.3096
  756MPD2    C211221   2.697   0.800  10.703 -0.3694  0.1047  0.1564
  756MPD2    C311222   2.658   0.792  10.571  0.0563 -0.3394  0.5966
  756MPD2    C411223   2.753   0.812  10.474 -0.1705  0.4926  0.6546
  756MPD2    C511224   2.877   0.841  10.510 -0.0967  0.2958  0.1893
  756MPD2     H11225   2.624   0.782  10.781 -1.9859 -0.7163 -1.5375
  756MPD2    H111226   2.730   0.803  10.369  0.6058  0.8998  0.4504
  756MPD2    H211227   3.019   0.887  10.654  1.1708 -3.0119 -0.5682
  756MPD2    H311228   2.949   0.847  10.429 -0.2272  1.1588  0.1365
  756MPD2     N11229   2.523   0.755  10.537  0.2677  0.4478  0.3558
  756MPD2    H511230   2.465   0.713  10.609 -0.7012  1.0532 -0.0718
  756MPD2    N111231   2.863   0.861  10.869 -0.1697 -0.6212  1.1926
  756MPD2    H711232   2.798   0.819  10.934 -2.9098  0.6622 -0.7367
  757MPD2     C11233   2.135   4.716  10.546  0.1402  0.4068  0.5313
  757MPD2    C111234   2.267   0.014  10.533  0.7761 -0.6712  0.2506
  757MPD2    C211235   2.287   0.151  10.525 -0.7543 -0.1513  0.6681
  757MPD2    C311236   2.180   0.243  10.540  0.5336  0.8000 -0.6634
  757MPD2    C411237   2.050   0.194  10.580  0.2458 -1.0264 -0.1348
  757MPD2    C511238   2.032   0.060  10.573  0.1134  0.0510 -0.5199
  757MPD2     H11239   2.386   0.190  10.505 -1.1006  0.5126  0.2710
  757MPD2    H111240   1.974   0.259  10.622 -2.0069 -2.7740 -1.5510
  757MPD2    H211241   2.117   4.610  10.532  1.4910  0.4957 -2.0475
  757MPD2    H311242   1.930   0.025  10.587 -0.5093  1.4900 -1.3860
  757MPD2     N11243   2.204   0.379  10.507  0.0636 -0.3365 -0.3022
  757MPD2    H511244   2.300   0.410  10.497 -0.1920  0.2558 -0.9397
  757MPD2    N111245   2.362   4.653  10.506  0.2893 -0.0794 -0.1447
  757MPD2    H711246   2.339   4.557  10.530  0.0223 -0.4969 -2.1263
  758MPD2     C11247   2.973   4.191  15.997 -0.0127  0.7384 -0.0950
  758MPD2    C111248   3.012   4.079  16.068 -0.6704 -0.3897  0.4655
  758MPD2    C211249   2.968   4.073  16.201 -0.6739  0.4002 -0.4796
  758MPD2    C311250   2.917   4.184  16.269  0.5848 -0.0296  0.7505
  758MPD2    C411251   2.896   4.298  16.190  0.1667  0.0786 -0.4328
  758MPD2    C511252   2.904   4.295  16.051  0.1874  0.0275 -0.3384
  758MPD2     H11253   2.976   3.974  16.245 -0.4790 -0.2776 -2.0675
  758MPD2    H111254   2.853   4.389  16.231  1.0981 -0.2068  1.1647
  758MPD2    H211255   2.990   4.189  15.890 -2.9840  0.7923 -0.5608
  758MPD2    H311256   2.892   4.386  15.993 -1.5773  0.3384  0.5353
  758MPD2     N11257   2.880   4.190  16.405 -0.2981  0.4190 -0.3604
  758MPD2    H511258   2.863   4.283  16.440  1.4002  0.3605  0.6222
  758MPD2    N111259   3.084   3.974  15.995 -0.4155  0.1802 -0.6882
  758MPD2    H711260   3.085   3.985  15.894 -0.3799  1.0559 -0.5918
  759MPD2     C11261   1.459   2.682  10.532  0.0782  0.5226 -0.1168
  759MPD2    C111262   1.493   2.555  10.574 -0.7034  0.0789  0.2060
  759MPD2    C211263   1.615   2.498  10.539 -0.3571 -0.4933  0.4330
  759MPD2    C311264   1.706   2.574  10.463 -0.4481 -0.4400 -0.1358
  759MPD2    C411265   1.671   2.696  10.419  0.1579 -0.2646 -0.5429
  759MPD2    C511266   1.550   2.748  10.455  0.8325 -0.1555  0.5137
  759MPD2     H11267   1.634   2.398  10.576 -2.2059 -0.9178  0.2582
  759MPD2    H111268   1.733   2.759  10.357  0.2769  2.4547  2.3647
  759MPD2    H211269   1.367   2.736  10.550 -0.3218 -0.3599  0.4780
  759MPD2    H311270   1.519   2.846  10.420  4.4688  0.0441 -2.1740
  759MPD2     N11271   1.831   2.518  10.430 -0.3477  0.4261  0.3159
  759MPD2    H511272   1.848   2.425  10.466  0.6371  0.7241  0.6421
  759MPD2    N111273   1.402   2.472  10.638 -0.1044 -0.4616 -0.5254
  759MPD2    H711274   1.419   2.372  10.637 -0.6971 -0.5760  0.2212
  760MPD2     C11275   1.706   0.110  12.028 -0.1359 -0.8197  0.5375
  760MPD2    C111276   1.838   0.122  12.068  0.0339  0.3418 -0.8098
  760MPD2    C211277   1.907   0.005  12.094 -0.0660  0.4142 -0.0743
  760MPD2    C311278   1.841   4.620  12.088  0.4863 -0.4183  0.1178
  760MPD2    C411279   1.708   4.616  12.060  0.0133 -0.0292  0.1892
  760MPD2    C511280   1.644   4.731  12.035 -0.5335  0.6324  0.1577
  760MPD2     H11281   2.013   0.001  12.118  0.1938 -1.2923 -1.4577
  760MPD2    H111282   1.657   4.524  12.032 -1.7191  0.4380  1.7897
  760MPD2    H211283   1.657   0.201  11.997  2.5793  0.7030  0.6938
  760MPD2    H311284   1.542   4.718  12.000 -0.9984 -1.0540  2.1805
  760MPD2     N11285   1.897   4.495  12.112  0.5897  0.6321 -0.2791
  760MPD2    H511286   1.832   4.419  12.131  0.7204  0.3036 -1.1153
  760MPD2    N111287   1.911   0.242  12.077 -0.2484  0.1805 -0.1742
  760MPD2    H711288   2.009   0.238  12.100 -0.0315  0.3863 -1.0705
  761MPD2     C11289   2.873   3.516  11.552  0.6095  0.0159 -0.3215
  761MPD2    C111290   2.940   3.516  11.434 -0.3400 -0.6354  0.2399
  761MPD2    C211291   3.049   3.599  11.423 -0.5786 -0.5041  0.4250
  761MPD2    C311292   3.095   3.682  11.528 -0.3795  0.1102  0.4011
  761MPD2    C411293   3.017   3.683  11.647 -0.5212 -0.1154  0.8394
  761MPD2    C511294   2.911   3.594  11.664 -0.1167 -0.4090 -0.2889
  761MPD2     H11295   3.095   3.606  11.326  0.2616 -1.7096  0.7356
  761MPD2    H111296   3.046   3.739  11.735 -0.4875 -3.0251  2.6566
  761MPD2    H211297   2.789   3.448  11.557 -0.2552  1.0694 -0.4191
  761MPD2    H311298   2.861   3.589  11.760  1.1223  0.2197  0.3982
  761MPD2     N11299   3.204   3.768  11.508  0.1781  0.0777  0.6515
  761MPD2    H511300   3.217   3.841  11.577 -0.9450  0.4877  0.4431
  761MPD2    N111301   2.897   3.434  11.325  0.2775  0.1265  0.0069
  761MPD2    H711302   2.838   3.352  11.337 -1.9926  1.6247 -1.1008
  762MPD2     C11303   3.133   3.535  10.584 -0.3548 -1.3247 -0.1360
  762MPD2    C111304   3.112   3.400  10.616 -0.8778  0.5106 -0.3456
  762MPD2    C211305   3.193   3.301  10.558 -0.7054  0.3714 -0.6890
  762MPD2    C311306   3.283   3.336  10.457 -0.2041 -0.5337 -0.0973
  762MPD2    C411307   3.303   3.471  10.430 -0.6384  0.4734 -0.3513
  762MPD2    C511308   3.232   3.567  10.492 -0.3531  0.6001 -0.1416
  762MPD2     H11309   3.180   3.197  10.587  2.5472  0.7086  1.9873
  762MPD2    H111310   3.364   3.511  10.349 -2.0215  0.5260 -1.3683
  762MPD2    H211311   3.084   3.612  10.643 -1.6065 -2.8083  0.7449
  762MPD2    H311312   3.244   3.668  10.456 -0.7332  1.2052  1.4598
  762MPD2     N11313   3.374   3.238  10.409 -0.1941 -0.5195  0.2932
  762MPD2    H511314   3.393   3.153  10.461 -0.3153 -0.1862  0.8903
  762MPD2    N111315   3.028   3.367  10.726  0.2317  0.3641  0.3248
  762MPD2    H711316   2.989   3.450  10.770 -1.9138 -0.5538  0.1825
  763MPD2     C11317   0.130   4.057  16.337 -0.3963  0.3759  0.1263
  763MPD2    C111318   0.064   4.164  16.295  0.0354 -0.0544 -0.0400
  763MPD2    C211319   0.064   4.282  16.365  0.9527 -1.1803 -0.5246
  763MPD2    C311320   0.137   4.299  16.483  0.3189 -0.8893  0.0202
  763MPD2    C411321   0.217   4.197  16.520  0.5902  0.6015  0.7417
  763MPD2    C511322   0.211   4.077  16.444 -0.2481  0.7333 -0.6897
  763MPD2     H11323   0.003   4.362  16.325 -0.0631 -1.2600  0.8743
  763MPD2    H111324   0.271   4.218  16.612 -2.3955 -0.4353  2.6980
  763MPD2    H211325   0.117   3.958  16.296 -0.7104  0.0256  1.0828
  763MPD2    H311326   0.258   3.991  16.491  1.5585  1.4829 -1.1548
  763MPD2     N11327   0.143   4.413  16.566  0.1485 -0.5802  0.3252
  763MPD2    H511328   0.220   4.416  16.632 -1.0194 -1.1465  1.7055
  763MPD2    N111329   4.707   4.148  16.186  0.1872 -0.1088 -0.6574
  763MPD2    H711330   4.663   4.237  16.163 -0.7412 -0.7548 -1.3603
  764MPD2     C11331   3.258   0.419   0.224  0.0458  0.1753 -0.0820
  764MPD2    C111332   3.161   0.518   0.237 -0.0279  0.1851 -0.0469
  764MPD2    C211333   3.141   0.578   0.363 -0.5447  0.0406 -0.4085
  764MPD2    C311334   3.205   0.533   0.475  0.5200 -0.1811 -0.0018
  764MPD2    C411335   3.306   0.443   0.458  0.8668  0.5938  0.4559
  764MPD2    C511336   3.328   0.383   0.335 -0.1227 -0.1572 -0.0777
  764MPD2     H11337   3.059   0.647   0.374 -1.5167 -0.9108 -1.6613
  764MPD2    H111338   3.372   0.403   0.534 -0.9581 -0.9530  1.2233
  764MPD2    H211339   3.270   0.361   0.134  0.3894 -0.3865  0.3252
  764MPD2    H311340   3.394   0.297   0.324 -0.4784 -0.4174 -0.1619
  764MPD2     N11341   3.168   0.589   0.600 -0.6672 -0.1988 -0.6689
  764MPD2    H511342   3.096   0.660   0.592  0.2687  0.8083 -0.1625
  764MPD2    N111343   3.085   0.564   0.132 -0.0542  0.4611 -0.3126
  764MPD2    H711344   3.014   0.632   0.158 -1.7062 -1.0778 -0.7942
  765MPD2     C11345   2.205   3.520  16.312 -0.3030  0.1299 -1.2216
  765MPD2    C111346   2.299   3.588  16.245  0.5163 -0.4435  0.3231
  765MPD2    C211347   2.424   3.539  16.243  0.4265  0.2269 -0.2208
  765MPD2    C311348   2.459   3.415  16.296  0.4445 -0.5334  0.5217
  765MPD2    C411349   2.362   3.346  16.360 -0.2641 -0.4052  0.1292
  765MPD2    C511350   2.236   3.396  16.371  0.5245 -0.0401  0.5994
  765MPD2     H11351   2.501   3.596  16.191 -0.0192  0.9859 -0.0478
  765MPD2    H111352   2.385   3.245  16.390  0.4441 -0.0390  0.8431
  765MPD2    H211353   2.106   3.562  16.311  0.3506  1.6406 -1.4671
  765MPD2    H311354   2.162   3.337  16.424  0.8456 -1.2131 -0.2575
  765MPD2     N11355   2.589   3.367  16.281  0.1934  1.1389  0.4025
  765MPD2    H511356   2.652   3.430  16.233 -1.8128  0.6182 -2.9081
  765MPD2    N111357   2.262   3.703  16.169 -0.2772 -0.6023  0.4600
  765MPD2    H711358   2.162   3.722  16.160  0.5739  3.7802 -0.1192
  766MPD2     C11359   2.024   3.616  15.476 -0.5046 -0.3387  0.2557
  766MPD2    C111360   2.151   3.674  15.485 -0.7568 -0.0763 -0.3598
  766MPD2    C211361   2.236   3.667  15.375  0.5485 -0.4872  0.4080
  766MPD2    C311362   2.184   3.618  15.258  0.7185  0.5235  0.5251
  766MPD2    C411363   2.052   3.584  15.240 -0.4318  0.4272  0.4093
  766MPD2    C511364   1.977   3.581  15.357 -0.1306 -0.3116  0.7897
  766MPD2     H11365   2.337   3.704  15.382  0.3780 -0.4653  2.6897
  766MPD2    H111366   2.011   3.529  15.156 -1.4236 -0.7323  1.6608
  766MPD2    H211367   1.957   3.613  15.562 -0.0863  1.4450  0.6601
  766MPD2    H311368   1.876   3.543  15.349  0.0308 -0.8612  1.3939
  766MPD2     N11369   2.273   3.604  15.149  0.2398  0.4505  0.0186
  766MPD2    H511370   2.369   3.617  15.179  0.0278  1.9033  0.0649
  766MPD2    N111371   2.198   3.739  15.600 -0.4674  0.4744 -1.1547
  766MPD2    H711372   2.290   3.782  15.598  0.7625 -2.0278  1.0372
  767MPD2     C11373   1.889   4.127  14.720 -0.3468 -0.7477 -0.8070
  767MPD2    C111374   2.007   4.058  14.753  0.1809 -0.3591  0.3785
  767MPD2    C211375   2.054   3.957  14.669  0.5580  0.3997 -0.8405
  767MPD2    C311376   1.978   3.909  14.561  0.2177 -0.3074  0.2134
  767MPD2    C411377   1.856   3.975  14.541 -0.4768  0.2346  0.1621
  767MPD2    C511378   1.822   4.082  14.613 -0.0217 -0.5502  0.3000
  767MPD2     H11379   2.131   3.885  14.697 -0.8222 -0.6522  0.2720
  767MPD2    H111380   1.781   3.946  14.468 -1.3045  2.1864  0.2349
  767MPD2    H211381   1.847   4.208  14.779  0.8576  1.0199 -2.3614
  767MPD2    H311382   1.731   4.136  14.587 -0.9234 -1.9272  0.5914
  767MPD2     N11383   2.023   3.813  14.472  1.2181 -0.1575 -0.4273
  767MPD2    H511384   2.111   3.767  14.494 -0.3886 -1.0839  4.0029
  767MPD2    N111385   2.056   4.081  14.886 -0.2808 -0.1393 -0.2659
  767MPD2    H711386   2.012   4.155  14.939 -2.0934  0.4669 -2.5846
  768MPD2     C11387   3.056   2.217  10.612  0.4890  0.0583  0.6665
  768MPD2    C111388   2.993   2.157  10.720 -0.1009  0.1902  0.6329
  768MPD2    C211389   3.060   2.077  10.813 -0.1931 -0.7021 -0.2547
  768MPD2    C311390   3.201   2.080  10.810  0.3025 -0.8162 -0.3229
  768MPD2    C411391   3.268   2.133  10.700 -0.4255  0.1535  0.0365
  768MPD2    C511392   3.195   2.206  10.607 -0.7377  0.0955 -0.3280
  768MPD2     H11393   3.006   2.034  10.896  2.2571 -0.3854  1.4857
  768MPD2    H111394   3.376   2.137  10.707 -0.3539 -0.8774 -0.6085
  768MPD2    H211395   2.998   2.287  10.553  0.2755 -0.8157 -0.1620
  768MPD2    H311396   3.239   2.268  10.530  1.7129  0.3065  1.2341
  768MPD2     N11397   3.278   2.031  10.920 -0.1841 -0.0766 -0.3197
  768MPD2    H511398   3.379   2.042  10.910 -0.1921  2.1732  2.0663
  768MPD2    N111399   2.860   2.192  10.751  0.5735  0.3613 -0.8014
  768MPD2    H711400   2.827   2.158  10.841  1.9990 -0.0160 -0.4270
  769MPD2     C11401   4.091   0.216  15.109  0.5709 -0.1652  0.5504
  769MPD2    C111402   3.985   0.203  15.192  0.9618 -0.2732  0.2670
  769MPD2    C211403   4.006   0.223  15.331  0.0642  0.2453  0.1876
  769MPD2    C311404   4.128   0.275  15.374 -0.2383 -0.5404 -0.6505
  769MPD2    C411405   4.235   0.290  15.290 -0.3712 -0.3127 -0.6162
  769MPD2    C511406   4.220   0.251  15.162  0.4110 -0.2719 -0.0947
  769MPD2     H11407   3.923   0.211  15.399 -1.0918 -0.8668 -1.4068
  769MPD2    H111408   4.334   0.326  15.315 -0.3052 -0.5110 -0.5848
  769MPD2    H211409   4.086   0.191  15.004  0.0269 -3.2884  1.3011
  769MPD2    H311410   4.299   0.262  15.088  0.1928 -2.3275 -0.6266
  769MPD2     N11411   4.144   0.302  15.515  0.0242 -0.3169  0.4956
  769MPD2    H511412   4.065   0.291  15.579  0.4601  1.3418  1.3004
  769MPD2    N111413   3.854   0.181  15.137  0.5492  0.1503  0.0533
  769MPD2    H711414   3.856   0.159  15.038  1.0626 -2.2635  0.6109
  770MPD2     C11415   2.895   4.576  14.949 -0.1941  0.0826  0.0998
  770MPD2    C111416   3.023   4.533  14.980 -0.9853 -0.1795  0.5814
  770MPD2    C211417   3.114   4.626  15.039 -0.5654  0.2223  1.2270
  770MPD2    C311418   3.073   0.018  15.065  0.2518  0.4156  0.3822
  770MPD2    C411419   2.949   0.053  15.032 -0.0944 -0.0881  0.0256
  770MPD2    C511420   2.867   4.708  14.971 -0.3033  0.4809 -0.1404
  770MPD2     H11421   3.215   4.589  15.054  0.3995  1.7406 -1.3262
  770MPD2    H111422   2.900   0.149  15.043  0.0326  0.0576 -0.6933
  770MPD2    H211423   2.819   4.518  14.898  0.4744 -1.2376  0.6141
  770MPD2    H311424   2.766   0.003  14.954 -1.2186 -1.8469  0.7131
  770MPD2     N11425   3.159   0.112  15.115 -0.5423 -0.1689  0.9038
  770MPD2    H511426   3.131   0.210  15.115 -0.4408 -0.1434  1.8098
  770MPD2    N111427   3.064   4.398  14.944  0.2150 -0.2617  0.0779
  770MPD2    H711428   2.992   4.347  14.894 -0.8393  2.0543 -0.7148
  771MPD2     C11429   0.062   3.481  13.993 -0.1939  0.2131 -0.6582
  771MPD2    C111430   4.673   3.460  13.946 -0.0296  0.5314 -0.0315
  771MPD2    C211431   4.607   3.345  13.994  0.6538 -0.1280  0.1090
  771MPD2    C311432   4.665   3.265  14.095  0.2004 -0.4456  0.0149
  771MPD2    C411433   0.054   3.291  14.137 -0.1504  0.5078 -0.1628
  771MPD2    C511434   0.116   3.403  14.090 -0.7433  0.7101  0.0782
  771MPD2     H11435   4.512   3.312  13.953  1.8113 -2.6595 -0.4877
  771MPD2    H111436   0.107   3.231  14.210  0.1688  1.4121  0.3421
  771MPD2    H211437   0.112   3.576  13.977 -0.3693  0.1911 -1.3411
  771MPD2    H311438   0.210   3.437  14.133 -1.5782  1.9350  0.9192
  771MPD2     N11439   4.599   3.143  14.123 -0.0177 -0.1017  0.0815
  771MPD2    H511440   4.520   3.121  14.064  0.8095 -0.1001 -1.0228
  771MPD2    N111441   4.617   3.543  13.853  0.5572  0.5728 -0.4854
  771MPD2    H711442   4.684   3.609  13.814 -0.5577  1.2314 -1.2924
  772MPD2     C11443   3.951   3.598  13.514 -1.7419 -0.1345 -0.6323
  772MPD2    C111444   3.962   3.681  13.621 -0.7090 -1.0483  0.5099
  772MPD2    C211445   3.857   3.688  13.708  0.1220  0.6388 -0.2087
  772MPD2    C311446   3.736   3.631  13.687 -0.5156  0.5968 -1.3233
  772MPD2    C411447   3.723   3.551  13.571 -0.0060 -0.3965  0.1135
  772MPD2    C511448   3.834   3.532  13.490  0.0150 -0.1004 -0.0964
  772MPD2     H11449   3.862   3.772  13.776  2.2459  1.1333 -0.9665
  772MPD2    H111450   3.628   3.507  13.546 -0.5925 -0.2706  2.1862
  772MPD2    H211451   4.030   3.583  13.443 -0.4875 -0.7431  0.8914
  772MPD2    H311452   3.822   3.475  13.398  0.8934  0.5216 -0.5995
  772MPD2     N11453   3.627   3.629  13.777 -0.1312  0.0823 -0.6250
  772MPD2    H511454   3.550   3.567  13.754 -0.9758  1.2303 -0.8894
  772MPD2    N111455   4.080   3.755  13.647  0.4605 -0.2240  0.7649
  772MPD2    H711456   4.084   3.805  13.735 -1.5384  2.8606 -0.8802
  773MPD2     C11457   3.981   4.562   0.271  0.4680 -0.4025 -0.3040
  773MPD2    C111458   3.951   4.434   0.244 -0.4577 -0.2511  0.4277
  773MPD2    C211459   4.009   4.331   0.326 -0.1027 -0.0740  0.1382
  773MPD2    C311460   4.103   4.364   0.427  0.4660 -0.5673 -0.4906
  773MPD2    C411461   4.137   4.498   0.444  0.1085  0.0949 -0.0871
  773MPD2    C511462   4.067   4.592   0.372 -0.7578  0.3813 -0.2094
  773MPD2     H11463   3.979   4.227   0.314  0.7271 -0.0538 -2.2308
  773MPD2    H111464   4.213   4.527   0.516  1.5727  2.0546 -2.3963
  773MPD2    H211465   3.936   4.643   0.215  1.4605  1.2174  1.2416
  773MPD2    H311466   4.085   4.696   0.395  0.3638 -0.7220  3.9233
  773MPD2     N11467   4.162   4.253   0.492  0.5035  0.5031  0.4029
  773MPD2    H511468   4.149   4.160   0.453 -1.2338  1.0132 -0.2743
  773MPD2    N111469   3.842   4.398   0.154 -0.1909  0.3156 -0.2071
  773MPD2    H711470   3.810   4.302   0.161 -0.3795  0.3597 -0.4757
  774MPD2     C11471   2.901   3.186  13.719 -0.3475 -0.9701  0.6935
  774MPD2    C111472   2.809   3.284  13.730 -0.4067 -0.1045 -0.2056
  774MPD2    C211473   2.847   3.417  13.701  0.2402  0.0113  0.5004
  774MPD2    C311474   2.974   3.458  13.670  0.0409  0.5681  0.2343
  774MPD2    C411475   3.067   3.359  13.656  0.3474  0.7733 -0.3364
  774MPD2    C511476   3.027   3.227  13.682  0.0187  0.0850  0.1966
  774MPD2     H11477   2.777   3.500  13.699  0.1409 -0.0377  2.5799
  774MPD2    H111478   3.171   3.366  13.625  0.7966  0.1755  1.0263
  774MPD2    H211479   2.886   3.080  13.734 -0.5084 -0.9969  0.3566
  774MPD2    H311480   3.096   3.154  13.641 -0.5050 -0.1278 -0.3004
  774MPD2     N11481   2.997   3.600  13.684 -0.1060 -0.1481 -0.4533
  774MPD2    H511482   2.916   3.653  13.714  1.7020  2.2851  0.1172
  774MPD2    N111483   2.680   3.237  13.759  0.2595  0.1740  0.3378
  774MPD2    H711484   2.675   3.140  13.788 -1.8380  0.0623 -0.3391
  775MPD2     C11485   4.216   0.099  16.075 -0.3488 -0.2695 -0.3145
  775MPD2    C111486   4.227   0.231  16.120 -0.2312 -0.1408 -0.1124
  775MPD2    C211487   4.320   0.308  16.067 -0.6920 -0.1755  0.3663
  775MPD2    C311488   4.412   0.258  15.973 -0.0561 -0.7837  0.2658
  775MPD2    C411489   4.396   0.129  15.927 -0.3547  0.8795  0.3674
  775MPD2    C511490   4.297   0.047  15.976  0.3282  0.3671  0.1034
  775MPD2     H11491   4.321   0.414  16.088 -2.1126  0.5610 -3.2640
  775MPD2    H111492   4.460   0.082  15.853 -0.2466 -1.4799  1.9548
  775MPD2    H211493   4.131   0.049  16.121 -1.3062  0.4085 -1.3614
  775MPD2    H311494   4.285   4.682  15.948  2.4793 -0.2540  1.4595
  775MPD2     N11495   4.511   0.340  15.911 -0.0411  0.2641 -0.0593
  775MPD2    H511496   4.563   0.291  15.839 -0.1253  4.4087 -2.9348
  775MPD2    N111497   4.131   0.273  16.215  0.0011  0.2470  0.0976
  775MPD2    H711498   4.059   0.202  16.221 -0.4647  0.8833  2.2377
  776MPD2     C11499   3.833   0.420  12.015  0.2974 -0.0602  0.0096
  776MPD2    C111500   3.696   0.436  12.006 -0.1757  0.2927 -0.1728
  776MPD2    C211501   3.645   0.567  11.995  0.5088 -0.1377 -0.3334
  776MPD2    C311502   3.722   0.674  11.978  0.0842  0.2138  0.1859
  776MPD2    C411503   3.854   0.660  11.977 -0.7697  0.1259  0.1230
  776MPD2    C511504   3.912   0.531  11.994 -0.3860  0.4545 -0.6064
  776MPD2     H11505   3.537   0.578  11.994  0.6087  0.7919 -0.6963
  776MPD2    H111506   3.914   0.747  11.954  0.2956 -1.1051 -1.8106
  776MPD2    H211507   3.873   0.320  12.025 -0.1817  0.0523  3.0800
  776MPD2    H311508   4.020   0.519  11.993 -0.4287  0.0924 -0.6557
  776MPD2     N11509   3.673   0.807  11.958  0.1324 -0.3077 -0.2619
  776MPD2    H511510   3.743   0.881  11.953 -1.3844  1.1362  0.2206
  776MPD2    N111511   3.621   0.318  12.024 -0.8008 -0.5664  0.6030
  776MPD2    H711512   3.676   0.237  12.052  1.1660 -0.3621 -2.6538
  777MPD2     C11513   3.998   3.071   0.720  0.2264  0.3580 -0.1076
  777MPD2    C111514   3.902   3.105   0.813  0.1319 -0.2001  0.1492
  777MPD2    C211515   3.777   3.033   0.813  0.2529 -0.3257  0.6006
  777MPD2    C311516   3.747   2.945   0.713  0.6686 -0.1097 -0.2544
  777MPD2    C411517   3.838   2.940   0.614 -0.7661  0.1969 -0.5061
  777MPD2    C511518   3.964   2.998   0.617 -0.6514  0.4343  0.4286
  777MPD2     H11519   3.711   3.048   0.897  2.0440  0.0891  1.9360
  777MPD2    H111520   3.825   2.873   0.529  0.9886  0.9084 -1.3253
  777MPD2    H211521   4.091   3.125   0.711  0.6366 -0.1551  1.0697
  777MPD2    H311522   4.028   2.990   0.530 -1.5482 -0.7074 -0.1302
  777MPD2     N11523   3.631   2.872   0.710 -0.5135 -0.4561  0.6729
  777MPD2    H511524   3.577   2.873   0.796 -1.8916  2.1149 -0.2417
  777MPD2    N111525   3.943   3.188   0.913  0.5178 -0.5507 -0.3690
  777MPD2    H711526   4.042   3.206   0.924  0.3773  0.4629 -0.7713
  778MPD2     C11527   4.559   3.135  15.257 -0.1381  0.0628 -0.6867
  778MPD2    C111528   4.620   3.025  15.189  0.3289 -0.3159 -0.0009
  778MPD2    C211529   4.714   3.061  15.095 -0.6635 -0.5725  0.4956
  778MPD2    C311530   4.739   3.188  15.058  0.1644 -0.1503 -0.4394
  778MPD2    C411531   4.672   3.288  15.124  0.5552 -0.0240  0.0737
  778MPD2    C511532   4.585   3.262  15.229  0.4189 -0.0686  0.7714
  778MPD2     H11533   0.022   2.988  15.031 -0.2055 -0.0790  0.2611
  778MPD2    H111534   4.698   3.391  15.104  1.8200 -0.3687 -0.0527
  778MPD2    H211535   4.488   3.120  15.338 -0.3025  0.8323 -0.6892
  778MPD2    H311536   4.532   3.343  15.277 -0.9546 -1.4942  1.6677
  778MPD2     N11537   0.097   3.219  14.965  0.2453  0.7917  0.1752
  778MPD2    H511538   0.150   3.135  14.943 -0.4658  0.9722 -2.2443
  778MPD2    N111539   4.590   2.892  15.221 -0.2076  0.4861 -0.0749
  778MPD2    H711540   4.613   2.814  15.160 -0.3461  0.6277 -0.3076
  779MPD2     C11541   4.210   1.788  14.556  0.6300 -0.7553  0.6498
  779MPD2    C111542   4.341   1.810  14.601 -0.5411 -0.1586 -0.8047
  779MPD2    C211543   4.403   1.931  14.608  0.1220  0.7418  0.1273
  779MPD2    C311544   4.323   2.042  14.578 -0.1084  0.3087  0.3069
  779MPD2    C411545   4.192   2.027  14.547  0.1732  0.7993 -0.2324
  779MPD2    C511546   4.135   1.904  14.537  0.0674 -0.5120 -0.1877
  779MPD2     H11547   4.506   1.951  14.632  0.2820  0.5216 -0.3808
  779MPD2    H111548   4.128   2.114  14.542 -3.7466 -2.0657  0.2293
  779MPD2    H211549   4.156   1.694  14.554  2.5651 -1.8303 -1.0946
  779MPD2    H311550   4.030   1.900  14.512 -0.4108 -1.3056  1.9726
  779MPD2     N11551   4.388   2.164  14.585  0.5891  0.2474  0.1764
  779MPD2    H511552   4.484   2.161  14.616  0.6262 -0.0911  0.0323
  779MPD2    N111553   4.409   1.689  14.629 -0.7919 -0.7132  0.1814
  779MPD2    H711554   4.357   1.604  14.612 -1.3776  0.4021 -3.5200
  780MPD2     C11555   4.105   1.862   1.257  0.5789 -0.1208  0.3391
  780MPD2    C111556   4.047   1.767   1.174 -0.0673 -0.0258  0.6103
  780MPD2    C211557   4.034   1.798   1.040  0.0343  0.6301  0.4091
  780MPD2    C311558   4.114   1.899   0.991  0.0929 -0.7644  0.7321
  780MPD2    C411559   4.188   1.986   1.068 -0.4561  0.2169 -0.3099
  780MPD2    C511560   4.181   1.968   1.202 -0.4890  0.7268 -0.0504
  780MPD2     H11561   3.981   1.734   0.971  0.0984 -0.3848  1.3058
  780MPD2    H111562   4.232   2.077   1.029  0.5529  0.7897  2.2285
  780MPD2    H211563   4.100   1.869   1.365 -0.8065  1.0707  0.2070
  780MPD2    H311564   4.230   2.038   1.269 -0.5344  0.5494  0.1651
  780MPD2     N11565   4.107   1.916   0.852 -0.0819  0.1623  0.4343
  780MPD2    H511566   4.054   1.847   0.799  2.2083 -0.9924 -0.3510
  780MPD2    N111567   3.982   1.649   1.219 -0.0130  0.5162 -0.6723
  780MPD2    H711568   4.000   1.624   1.316 -1.6436 -0.4061 -0.6088
  781MPD2     C11569   1.388   3.780  12.429  0.5674  0.0117 -0.7030
  781MPD2    C111570   1.257   3.735  12.431  0.4817  0.1865  0.4170
  781MPD2    C211571   1.170   3.789  12.345 -0.2517 -0.3830 -0.0380
  781MPD2    C311572   1.209   3.897  12.261 -0.5453 -0.4989  0.1781
  781MPD2    C411573   1.341   3.946  12.272  0.5221 -0.4500 -0.1851
  781MPD2    C511574   1.432   3.889  12.349 -0.2741 -0.1327 -0.3182
  781MPD2     H11575   1.067   3.756  12.358 -0.3202 -0.2815 -0.3321
  781MPD2    H111576   1.370   4.031  12.212 -1.9911 -0.0686 -0.8620
  781MPD2    H211577   1.453   3.754  12.512 -1.4728 -0.1463  0.8198
  781MPD2    H311578   1.529   3.936  12.356 -1.1355  1.8359 -1.7167
  781MPD2     N11579   1.118   3.968  12.177  0.4683  0.3093  0.6804
  781MPD2    H511580   1.153   4.046  12.121  1.3409 -0.3505  0.2904
  781MPD2    N111581   1.207   3.648  12.525  0.3658 -0.3718  0.4856
  781MPD2    H711582   1.107   3.650  12.541  0.7419  1.3460  2.6665
  782MPD2     C11583   4.087   4.701  10.427  0.1929  0.2752 -0.1122
  782MPD2    C111584   4.107   4.607  10.531  0.4485 -1.0072 -0.0150
  782MPD2    C211585   4.143   4.662  10.653  0.1219 -0.2911 -0.4221
  782MPD2    C311586   4.154   0.060  10.676 -0.4811 -0.1482  0.4455
  782MPD2    C411587   4.119   0.146  10.572  0.0269 -0.3790 -0.0767
  782MPD2    C511588   4.083   0.093  10.454  0.2552 -0.1911 -0.4897
  782MPD2     H11589   4.169   4.589  10.728 -2.0158 -1.5457 -0.8951
  782MPD2    H111590   4.122   0.253  10.589  0.3501 -0.7882  2.4927
  782MPD2    H211591   4.067   4.662  10.327  1.6177  0.8834 -0.6400
  782MPD2    H311592   4.077   0.157  10.366  1.5818  0.2176 -0.2739
  782MPD2     N11593   4.181   0.114  10.805 -0.4082 -0.4184  0.5648
  782MPD2    H511594   4.182   0.213  10.826  1.6278 -0.9217  2.8187
  782MPD2    N111595   4.104   4.463  10.518 -0.4800  0.2117 -0.0833
  782MPD2    H711596   4.136   4.413  10.600  2.0625 -0.0878 -1.2487
  783MPD2     C11597   3.473   3.825  10.799  0.7346 -0.8050  0.2030
  783MPD2    C111598   3.566   3.891  10.873  0.3581  0.1776 -0.2460
  783MPD2    C211599   3.675   3.946  10.816  0.2925  0.6225 -0.1673
  783MPD2    C311600   3.688   3.935  10.678  0.2096 -0.0202 -0.7650
  783MPD2    C411601   3.596   3.865  10.603 -0.1371  0.1416 -0.1235
  783MPD2    C511602   3.489   3.803  10.660  0.1238 -0.0878  0.0662
  783MPD2     H11603   3.755   3.994  10.870 -0.0211 -0.2350  1.0735
  783MPD2    H111604   3.620   3.841  10.500  0.5763  0.0958  0.0556
  783MPD2    H211605   3.388   3.773  10.842  0.3918 -1.5054 -1.3363
  783MPD2    H311606   3.407   3.758  10.607 -0.2802 -0.3410  0.9113
  783MPD2     N11607   3.806   3.994  10.619  0.2645  0.0939 -0.4067
  783MPD2    H511608   3.869   4.042  10.683  0.5584  2.1862 -2.2569
  783MPD2    N111609   3.536   3.895  11.012  0.2909 -0.2477 -0.0312
  783MPD2    H711610   3.456   3.840  11.038 -0.6642  0.7246 -0.9049
  784MPD2     C11611   1.797   0.236   0.783  0.2073  0.4902  0.6673
  784MPD2    C111612   1.833   0.341   0.864 -0.3532  0.1872  0.0637
  784MPD2    C211613   1.746   0.453   0.884 -0.0865 -0.1214  0.1039
  784MPD2    C311614   1.630   0.454   0.814  0.4604 -0.1041  0.0414
  784MPD2    C411615   1.598   0.359   0.726 -0.4127  0.8882  0.0421
  784MPD2    C511616   1.672   0.245   0.723 -0.6272  0.5926 -0.2793
  784MPD2     H11617   1.767   0.535   0.951 -1.5511 -0.3963  0.8935
  784MPD2    H111618   1.500   0.352   0.679  0.0592  0.6231 -0.9137
  784MPD2    H211619   1.853   0.145   0.765  0.7338  0.9878 -0.2065
  784MPD2    H311620   1.642   0.157   0.666  1.0100  0.9615 -1.7173
  784MPD2     N11621   1.543   0.564   0.838  0.2751  0.9809 -0.2928
  784MPD2    H511622   1.560   0.630   0.913  0.5976 -0.6265  1.0564
  784MPD2    N111623   1.957   0.349   0.929 -0.1658  0.0980  0.3214
  784MPD2    H711624   1.986   0.424   0.991  2.3773  0.3476 -1.1572
  785MPD2     C11625   1.072   3.619  11.359 -0.2366  0.5300 -0.2451
  785MPD2    C111626   0.997   3.725  11.309 -1.1686 -0.0605  0.2290
  785MPD2    C211627   0.898   3.700  11.222 -0.6079 -0.5616 -0.6725
  785MPD2    C311628   0.876   3.569  11.182 -0.1618 -0.6690 -0.8156
  785MPD2    C411629   0.958   3.463  11.224 -0.1354 -0.3333  0.1617
  785MPD2    C511630   1.054   3.488  11.323 -0.2589 -0.0756 -0.6123
  785MPD2     H11631   0.839   3.784  11.186 -0.3491 -0.2053 -0.2591
  785MPD2    H111632   0.951   3.364  11.181 -3.8319 -0.2100  0.4908
  785MPD2    H211633   1.142   3.634  11.440  1.2619  0.5739 -1.5431
  785MPD2    H311634   1.119   3.411  11.362 -3.8918 -2.3779  0.8500
  785MPD2     N11635   0.772   3.549  11.082  0.3097  0.0028  0.0849
  785MPD2    H511636   0.716   3.631  11.061 -2.3123 -1.5905  0.9467
  785MPD2    N111637   1.011   3.860  11.345 -0.6234 -0.4907  0.5307
  785MPD2    H711638   0.946   3.928  11.309 -1.7643 -0.7123  2.1965
  786MPD2     C11639   0.366   1.160  15.218 -0.3989  0.0950 -0.1936
  786MPD2    C111640   0.480   1.117  15.164  1.0423  1.0694 -0.3977
  786MPD2    C211641   0.597   1.104  15.232 -1.0275  0.7305 -0.2746
  786MPD2    C311642   0.599   1.128  15.370  0.0127  0.3011 -0.1580
  786MPD2    C411643   0.485   1.174  15.424 -0.0880 -0.8625  0.0447
  786MPD2    C511644   0.365   1.174  15.353 -0.3624 -0.4251  0.1124
  786MPD2     H11645   0.687   1.082  15.176 -0.6630  0.1887  0.5251
  786MPD2    H111646   0.480   1.193  15.530  1.9274 -3.3431  0.5877
  786MPD2    H211647   0.282   1.174  15.151  1.1508  0.2646 -2.0753
  786MPD2    H311648   0.275   1.196  15.409  0.6968 -1.2826  2.1802
  786MPD2     N11649   0.717   1.124  15.451  0.1154  0.2077  0.3829
  786MPD2    H511650   0.705   1.134  15.551 -1.7132  0.9335  0.1014
  786MPD2    N111651   0.481   1.076  15.026 -0.0308  0.3668 -0.0549
  786MPD2    H711652   0.569   1.054  14.980 -0.1964  0.4829 -0.4238
  787MPD2     C11653   0.627   0.519  15.120 -0.1758 -0.1200 -0.1941
  787MPD2    C111654   0.605   0.511  14.983 -0.3488  0.5172  0.3862
  787MPD2    C211655   0.669   0.414  14.915 -0.0401 -0.7695  0.2071
  787MPD2    C311656   0.736   0.309  14.982 -0.3357  0.1766 -0.4658
  787MPD2    C411657   0.736   0.301  15.119 -0.3800 -0.7563 -0.2603
  787MPD2    C511658   0.681   0.409  15.187  0.6885  0.6577 -0.4243
  787MPD2     H11659   0.676   0.437  14.809  1.0090  0.7650  0.5997
  787MPD2    H111660   0.788   0.223  15.174 -2.1228 -3.0044 -1.8234
  787MPD2    H211661   0.599   0.603  15.182  0.5344 -0.3198  0.4036
  787MPD2    H311662   0.674   0.413  15.295 -1.2884 -1.4357 -0.4674
  787MPD2     N11663   0.812   0.222  14.898  0.3468  0.2265 -0.3139
  787MPD2    H511664   0.798   0.243  14.800 -1.8015  1.3007  0.2266
  787MPD2    N111665   0.545   0.616  14.916 -0.7147  0.3197 -0.1649
  787MPD2    H711666   0.502   0.685  14.978 -1.2028  0.8673 -1.1131
  788MPD2     C11667   2.799   4.592   1.210  0.4408  0.0872  0.0077
  788MPD2    C111668   2.678   4.571   1.143 -0.2309 -0.6146  0.0533
  788MPD2    C211669   2.637   4.658   1.042  0.1739 -0.1614 -0.1503
  788MPD2    C311670   2.708   0.032   1.012  0.7378  0.6438 -0.7751
  788MPD2    C411671   2.822   0.056   1.088 -0.6762  0.5344 -0.8266
  788MPD2    C511672   2.864   4.710   1.187 -0.4233  0.5580 -0.3534
  788MPD2     H11673   2.543   4.633   0.996  0.5528  0.4923 -1.2642
  788MPD2    H111674   2.879   0.147   1.072  2.1655 -1.1401 -0.1921
  788MPD2    H211675   2.835   4.523   1.285  1.6588  1.9049  1.0971
  788MPD2    H311676   2.962   4.723   1.232 -0.3107 -3.0813  0.4842
  788MPD2     N11677   2.684   0.114   0.902  0.2116 -0.1382 -0.0773
  788MPD2    H511678   2.749   0.190   0.889  1.1271 -1.0860 -1.1116
  788MPD2    N111679   2.600   4.461   1.151 -0.4046 -0.6333 -0.9633
  788MPD2    H711680   2.506   4.464   1.113 -0.6659 -4.3893 -0.6533
  789MPD2     C11681   2.590   3.946  16.703 -0.3067 -0.5145  0.3027
  789MPD2    C111682   2.551   3.870  16.816  0.2811 -0.2434  0.2157
  789MPD2    C211683   2.429   3.889  16.877 -0.1627 -0.1826 -0.4867
  789MPD2    C311684   2.350   3.996  16.837  0.0392  0.3538  0.9775
  789MPD2    C411685   2.378   4.066  16.719 -0.8060  0.0280  0.8724
  789MPD2    C511686   2.501   4.041  16.654  0.4722  0.2179  0.1013
  789MPD2     H11687   2.411   3.846  16.974  2.1229  0.0585  0.0554
  789MPD2    H111688   2.311   4.130  16.662  0.4607 -0.2146 -0.9051
  789MPD2    H211689   2.688   3.940  16.657 -0.8329  1.8505 -1.1520
  789MPD2    H311690   2.534   4.092  16.564 -1.9438 -3.0708 -2.6566
  789MPD2     N11691   2.225   4.027  16.898 -0.1652 -1.0056 -0.6349
  789MPD2    H511692   2.170   4.099  16.853 -0.5801 -1.6843 -1.2129
  789MPD2    N111693   2.636   3.779  16.887  0.0811  0.2287 -0.3755
  789MPD2    H711694   2.591   3.724  16.960 -0.3792  1.0466 -0.0439
  790MPD2     C11695   3.297   1.207  14.122 -0.1548  0.3082  0.1605
  790MPD2    C111696   3.392   1.108  14.097 -0.0226 -0.1566 -0.0967
  790MPD2    C211697   3.388   1.048  13.975  0.2810 -0.0579 -0.5258
  790MPD2    C311698   3.292   1.078  13.872  0.8529 -0.4453  0.5052
  790MPD2    C411699   3.201   1.175  13.906 -0.0677 -0.0501 -0.1448
  790MPD2    C511700   3.206   1.237  14.027  0.7228  0.4580 -0.1137
  790MPD2     H11701   3.459   0.968  13.953  1.4499  1.1844 -1.2811
  790MPD2    H111702   3.122   1.203  13.838 -0.1098  0.4057  0.0915
  790MPD2    H211703   3.290   1.258  14.218 -0.0294  0.2395  0.2062
  790MPD2    H311704   3.135   1.317  14.045  0.6817 -0.3342  3.2105
  790MPD2     N11705   3.305   1.012  13.749 -0.0249  0.4383 -0.0829
  790MPD2    H511706   3.380   0.943  13.748  0.8949  1.4108  1.3573
  790MPD2    N111707   3.494   1.083  14.197  0.1569 -0.0759 -0.6141
  790MPD2    H711708   3.479   1.124  14.289  1.6340  0.1434 -0.4601
  791MPD2     C11709   2.751   0.877  13.177  0.4149  0.4318 -0.0684
  791MPD2    C111710   2.846   0.794  13.239 -0.5022 -0.5577 -0.1135
  791MPD2    C211711   2.816   0.664  13.251  0.7432 -0.1547  0.2713
  791MPD2    C311712   2.708   0.601  13.199 -0.1067  0.1966 -0.5543
  791MPD2    C411713   2.616   0.685  13.143 -0.0620 -0.6228  0.4800
  791MPD2    C511714   2.634   0.821  13.134 -0.0889  0.0495 -0.0938
  791MPD2     H11715   2.887   0.607  13.311 -0.8274  0.6424  2.8880
  791MPD2    H111716   2.524   0.654  13.094  0.6120  0.6569 -1.6503
  791MPD2    H211717   2.761   0.983  13.160 -0.7553  0.3183 -1.4679
  791MPD2    H311718   2.573   0.891  13.078  1.9286  1.3456 -0.6915
  791MPD2     N11719   2.699   0.453  13.207 -0.2928 -0.0597 -0.0818
  791MPD2    H511720   2.770   0.404  13.262 -2.2089 -0.9211  1.6495
  791MPD2    N111721   2.967   0.849  13.281 -0.2230 -0.4658 -0.2063
  791MPD2    H711722   2.975   0.949  13.273 -1.8620 -0.3116  0.1641
  792MPD2     C11723   3.766   0.354  11.617 -0.0285  0.3110  0.4370
  792MPD2    C111724   3.653   0.433  11.623  0.0575  0.1725  0.5476
  792MPD2    C211725   3.530   0.375  11.644 -0.2990  0.2955 -0.5731
  792MPD2    C311726   3.521   0.238  11.642  0.0215 -0.5907  0.0808
  792MPD2    C411727   3.635   0.164  11.625  0.7769 -0.0575  0.8650
  792MPD2    C511728   3.760   0.219  11.612  0.1564 -0.4615  0.2273
  792MPD2     H11729   3.439   0.433  11.642 -1.1805 -1.0473  0.8883
  792MPD2    H111730   3.631   0.059  11.653  2.0532  0.3553  2.5510
  792MPD2    H211731   3.861   0.399  11.589  0.6367 -0.7757  0.9504
  792MPD2    H311732   3.847   0.157  11.595  0.1372  0.1625 -2.1460
  792MPD2     N11733   3.399   0.168  11.659 -0.0976 -0.1040  0.2150
  792MPD2    H511734   3.406   0.068  11.646 -1.3735 -0.3862  1.6891
  792MPD2    N111735   3.673   0.575  11.614 -0.7397 -0.1993  0.3192
  792MPD2    H711736   3.767   0.609  11.597 -1.3146  1.3647  0.2534
  793MPD2     C11737   2.698   0.587  11.500  0.0265 -0.1539 -0.4383
  793MPD2    C111738   2.831   0.564  11.478  0.0789 -0.3486 -0.0981
  793MPD2    C211739   2.895   0.460  11.545  0.1652  0.2669  0.6428
  793MPD2    C311740   2.826   0.377  11.633 -0.1642  0.0069 -0.0444
  793MPD2    C411741   2.688   0.399  11.646  0.0145  0.0578 -0.6200
  793MPD2    C511742   2.629   0.499  11.584 -0.4936  0.1223  1.0507
  793MPD2     H11743   3.000   0.443  11.524  0.1061 -1.0872  1.5081
  793MPD2    H111744   2.636   0.342  11.722  1.0378 -0.9078 -0.6328
  793MPD2    H211745   2.646   0.666  11.448  0.4004 -0.2883 -1.0159
  793MPD2    H311746   2.528   0.535  11.604 -1.0524 -0.4791 -0.6710
  793MPD2     N11747   2.898   0.278  11.697  0.5609 -0.1844 -0.1755
  793MPD2    H511748   2.998   0.281  11.684  0.4374 -2.6324 -1.7291
  793MPD2    N111749   2.914   0.642  11.387  0.3710  0.2740  0.3386
  793MPD2    H711750   3.010   0.610  11.383 -0.0842 -1.3114  1.9282
  794MPD2     C11751   3.186   0.045  17.537  0.0188  0.3893  0.0988
  794MPD2    C111752   3.199   4.661  17.473  0.3635  0.4603  0.5680
  794MPD2    C211753   3.110   4.618  17.378  0.7426  0.3677  0.5119
  794MPD2    C311754   3.009   4.697  17.335 -0.1724  0.7710 -0.3938
  794MPD2    C411755   2.988   0.080  17.399 -0.0785 -0.4839  1.0581
  794MPD2    C511756   3.079   0.124  17.494  0.0651 -0.8162  0.4339
  794MPD2     H11757   3.121   4.515  17.345  2.5827  0.9079 -0.5513
  794MPD2    H111758   2.909   0.147  17.369  0.8044  0.4551  0.8376
  794MPD2    H211759   3.256   0.079  17.614 -1.1520 -1.9922  2.1903
  794MPD2    H311760   3.058   0.225  17.526  0.3413 -0.9985  1.1758
  794MPD2     N11761   2.929   4.669  17.230  0.0309  0.6432 -0.5099
  794MPD2    H511762   2.870   0.010  17.206 -2.7163 -0.5703  2.2263
  794MPD2    N111763   3.301   4.573  17.505 -0.4034 -0.5784  0.2751
  794MPD2    H711764   3.295   4.482  17.461 -1.3771 -0.1637 -0.4329
  795MPD2     C11765   1.025   2.183  14.409 -0.4474  0.6385 -0.1741
  795MPD2    C111766   0.995   2.083  14.315 -0.1460 -0.6957 -0.7375
  795MPD2    C211767   1.054   1.960  14.334 -0.3171  0.0212 -0.3800
  795MPD2    C311768   1.145   1.941  14.436  0.0599 -0.0545  0.1943
  795MPD2    C411769   1.183   2.045  14.518 -0.1108  0.2756 -0.3847
  795MPD2    C511770   1.121   2.165  14.507 -0.1117  0.0297  0.1775
  795MPD2     H11771   1.034   1.875  14.269 -0.2811 -0.3491  0.0948
  795MPD2    H111772   1.247   2.039  14.604 -2.8677  1.9010  1.7722
  795MPD2    H211773   0.973   2.277  14.403  0.7583  1.3361  0.2391
  795MPD2    H311774   1.141   2.240  14.582  0.7302 -2.3031  2.2908
  795MPD2     N11775   1.213   1.814  14.442  0.0001  0.3804 -0.4062
  795MPD2    H511776   1.197   1.746  14.368  0.8904 -1.0842  0.7226
  795MPD2    N111777   0.907   2.098  14.206  0.0379  0.3558 -1.4284
  795MPD2    H711778   0.878   2.018  14.150 -2.0135  0.9256 -1.1803
  796MPD2     C11779   0.565   3.590  16.026 -0.0115 -0.2873  0.0976
  796MPD2    C111780   0.572   3.643  16.152  0.1595  0.2059  0.4249
  796MPD2    C211781   0.518   3.770  16.165 -0.2802 -0.4095  0.2779
  796MPD2    C311782   0.454   3.836  16.062 -0.4723  0.4778 -0.7076
  796MPD2    C411783   0.440   3.769  15.943  0.3304  0.3638  0.1223
  796MPD2    C511784   0.485   3.642  15.932  1.1324  0.1409  0.2169
  796MPD2     H11785   0.541   3.829  16.253 -1.5457 -0.6208  0.7613
  796MPD2    H111786   0.389   3.806  15.855 -0.2223 -1.5228 -0.3293
  796MPD2    H211787   0.617   3.497  16.008 -1.4584 -1.1438  0.3127
  796MPD2    H311788   0.475   3.593  15.836 -0.7409  1.5961 -0.3384
  796MPD2     N11789   0.436   3.969  16.079  0.6550 -0.2686  0.2501
  796MPD2    H511790   0.469   4.020  16.160 -0.1709  3.0306 -1.4453
  796MPD2    N111791   0.643   3.571  16.251 -0.2043 -0.1714  0.1779
  796MPD2    H711792   0.688   3.485  16.220  0.6032  0.3061  0.0109
  797MPD2     C11793   1.180   3.609   0.151  0.3791  0.4812  0.4289
  797MPD2    C111794   1.201   3.740   0.117 -0.0505 -0.4564 -0.2719
  797MPD2    C211795   1.173   3.785  17.745 -0.7736  0.2452  0.1165
  797MPD2    C311796   1.129   3.714  17.650 -0.2151 -0.2349 -0.0248
  797MPD2    C411797   1.108   3.579  17.677  0.1965  0.1064  0.0590
  797MPD2    C511798   1.132   3.530   0.050 -0.0822  0.4643  0.3546
  797MPD2     H11799   1.207   3.884  17.716 -0.0326  0.4089  1.5457
  797MPD2    H111800   1.097   3.506  17.598  0.5066  0.9969 -0.8146
  797MPD2    H211801   1.198   3.568   0.249  1.2299 -0.6588 -0.2115
  797MPD2    H311802   1.115   3.428   0.085 -1.6088 -0.1522 -2.1647
  797MPD2     N11803   1.112   3.760  17.514  0.3046  0.3095  0.0507
  797MPD2    H511804   1.119   3.690  17.441 -1.2157 -0.3927  0.5730
  797MPD2    N111805   1.260   3.831   0.205 -0.6059  0.3012 -0.0365
  797MPD2    H711806   1.258   3.926   0.169  1.0619  1.0527  1.9408
  798MPD2     C11807   1.218   4.462  17.597  0.0876 -0.7258 -0.5890
  798MPD2    C111808   1.272   4.352  17.546  0.1063  0.0851 -0.3496
  798MPD2    C211809   1.358   4.278  17.618 -0.3395 -0.1163  1.3224
  798MPD2    C311810   1.383   4.315  17.750 -0.4779  0.3267 -0.7464
  798MPD2    C411811   1.335   4.431   0.048  0.4523 -0.0561  1.0940
  798MPD2    C511812   1.251   4.505  17.723  0.2146 -0.2280  0.6322
  798MPD2     H11813   1.383   4.177  17.586  0.6093  0.0431  1.5844
  798MPD2    H111814   1.358   4.472   0.146 -0.6519 -0.0556  1.3549
  798MPD2    H211815   1.145   4.519  17.540 -0.2483  0.2536  0.8261
  798MPD2    H311816   1.186   4.575   0.021 -0.5984 -0.5578  0.0364
  798MPD2     N11817   1.451   4.219   0.077  0.1120 -0.2410  0.3102
  798MPD2    H511818   1.475   4.135   0.024 -0.0348 -0.4033  0.5006
  798MPD2    N111819   1.233   4.302  17.421 -0.0601  0.0254  0.3709
  798MPD2    H711820   1.148   4.332  17.374 -1.1658 -0.5573  1.9834
  799MPD2     C11821   0.533   4.720  14.887 -0.4111  0.9607 -0.3397
  799MPD2    C111822   0.557   4.664  14.767  0.1008  0.4335  0.4736
  799MPD2    C211823   0.513   4.726  14.651  0.7602 -0.3498  0.6823
  799MPD2    C311824   0.432   0.102  14.661  0.3784  0.6026 -0.2654
  799MPD2    C411825   0.419   0.158  14.785  0.5521 -0.2884 -0.0982
  799MPD2    C511826   0.466   0.099  14.898  0.0756 -0.8404  0.0510
  799MPD2     H11827   0.546   4.680  14.559 -0.9354  0.2685 -0.2270
  799MPD2    H111828   0.361   0.250  14.788  0.6883 -0.1726 -0.8237
  799MPD2    H211829   0.566   4.678  14.981 -1.9360  1.5604  0.4743
  799MPD2    H311830   0.450   0.141  14.997 -0.7888 -3.5753  1.0753
  799MPD2     N11831   0.390   0.157  14.539 -0.0618  0.6500 -0.0338
  799MPD2    H511832   0.357   0.253  14.540 -2.1854 -0.0806 -1.6345
  799MPD2    N111833   0.633   4.547  14.750 -0.1532 -0.0638 -0.2484
  799MPD2    H711834   0.656   4.515  14.657  3.0607 -1.9532  1.1525
  800MPD2     C11835   0.589   1.067  14.221 -0.1988 -0.0945  0.2451
  800MPD2    C111836   0.711   1.134  14.229 -0.2577  0.6026 -0.4598
  800MPD2    C211837   0.762   1.174  14.107  0.0462  0.1333  0.2889
  800MPD2    C311838   0.694   1.171  13.995 -0.1054  0.3960  0.1486
  800MPD2    C411839   0.584   1.098  13.985  0.3524 -0.2477  0.0567
  800MPD2    C511840   0.529   1.052  14.101  0.2261 -0.5729 -0.4711
  800MPD2     H11841   0.848   1.239  14.111 -0.6518  1.0381  0.7280
  800MPD2    H111842   0.532   1.081  13.892 -0.1178  1.9443 -0.0835
  800MPD2    H211843   0.549   1.022  14.310 -1.2235 -0.1748 -0.2570
  800MPD2    H311844   0.429   1.012  14.092 -0.2644  0.7461 -0.7986
  800MPD2     N11845   0.768   1.208  13.888  0.2469  0.7168  0.0679
  800MPD2    H511846   0.862   1.240  13.910 -0.1123  3.3445 -2.1649
  800MPD2    N111847   0.785   1.150  14.346 -0.0734 -0.0260  0.6162
  800MPD2    H711848   0.738   1.136  14.435 -2.4207 -0.7733 -0.7527
  801MPD2     C11849   0.935   1.342  15.164  0.1249 -0.2555 -0.8569
  801MPD2    C111850   0.930   1.409  15.048 -0.2580  0.2039 -0.2980
  801MPD2    C211851   0.880   1.531  15.045  0.3708  0.2519  0.1321
  801MPD2    C311852   0.849   1.595  15.163  0.1205  1.1104 -0.0392
  801MPD2    C411853   0.869   1.536  15.282 -0.4061  0.0903 -0.5593
  801MPD2    C511854   0.912   1.408  15.281 -0.2463 -0.0889 -0.0646
  801MPD2     H11855   0.869   1.580  14.949 -1.9791 -0.3626  0.0810
  801MPD2    H111856   0.838   1.586  15.373 -0.1639  1.2502 -1.1080
  801MPD2    H211857   0.962   1.237  15.163  1.6414  0.1278  0.9697
  801MPD2    H311858   0.924   1.354  15.375 -0.0964  0.9044  0.4818
  801MPD2     N11859   0.787   1.725  15.172 -0.0036 -0.0528 -0.6365
  801MPD2    H511860   0.755   1.761  15.261 -0.1142  0.9068 -1.0662
  801MPD2    N111861   0.955   1.332  14.931 -0.2459  0.0191 -0.0496
  801MPD2    H711862   0.984   1.235  14.941  1.0705  0.4387  0.1916
  802MPD2     C11863   4.474   2.567  17.492 -0.0788  0.2858  0.2791
  802MPD2    C111864   4.554   2.594  17.601 -0.2413 -0.2989  0.5210
  802MPD2    C211865   4.662   2.507  17.632  0.3047  0.0688  0.5089
  802MPD2    C311866   4.696   2.404  17.545  0.1432  0.9631 -0.3758
  802MPD2    C411867   4.612   2.376  17.436  0.2526  0.6401 -0.7269
  802MPD2    C511868   4.496   2.452  17.422 -0.7866 -0.3407 -0.2896
  802MPD2     H11869   4.732   2.520  17.713 -0.8340  2.9052  1.0427
  802MPD2    H111870   4.614   2.288  17.374 -0.7470  0.2123 -0.1578
  802MPD2    H211871   4.385   2.625  17.470 -0.2615  1.0796  3.0592
  802MPD2    H311872   4.427   2.431  17.341 -0.8561 -0.2382 -0.2560
  802MPD2     N11873   0.080   2.329  17.564 -0.4909 -0.2474 -0.2650
  802MPD2    H511874   0.146   2.361  17.634 -0.3920 -0.8929 -0.0630
  802MPD2    N111875   4.529   2.704  17.685  0.7419  0.2741 -0.3775
  802MPD2    H711876   4.593   2.711   0.011 -0.1777 -0.5953  0.4538
  803MPD2     C11877   1.814   0.514  12.416 -0.1908 -0.0568  0.6795
  803MPD2    C111878   1.856   0.475  12.537 -0.4700  0.0003  0.1047
  803MPD2    C211879   1.800   0.364  12.599  0.0967 -0.1603 -0.4296
  803MPD2    C311880   1.702   0.297  12.528 -0.6095 -0.3109  0.6277
  803MPD2    C411881   1.645   0.351  12.414 -0.6806 -0.0164 -0.4955
  803MPD2    C511882   1.703   0.463  12.362 -0.2152 -0.2374 -0.0820
  803MPD2     H11883   1.832   0.337  12.698 -1.9558 -0.0690  0.2537
  803MPD2    H111884   1.566   0.304  12.357  0.0144  0.9225 -2.2324
  803MPD2    H211885   1.853   0.605  12.371  1.8513 -1.3782 -0.2433
  803MPD2    H311886   1.667   0.494  12.265 -0.5470  1.4783  0.5890
  803MPD2     N11887   1.666   0.162  12.562  0.6915  1.0591 -0.6784
  803MPD2    H511888   1.593   0.125  12.501 -0.0691  0.8552  0.3440
  803MPD2    N111889   1.955   0.545  12.609  0.6210 -0.1228  0.5235
  803MPD2    H711890   1.982   0.506  12.699  1.6110  2.1878  1.2311
  804MPD2     C11891   1.098   2.057  17.060  0.3242 -0.6635  0.3773
  804MPD2    C111892   1.110   2.074  17.195 -0.3458  0.4973 -0.2193
  804MPD2    C211893   1.160   2.192  17.245  1.0248  0.0932  0.0484
  804MPD2    C311894   1.189   2.296  17.161 -0.0587 -0.9451 -0.4415
  804MPD2    C411895   1.161   2.278  17.025  0.4799  0.1471  0.3719
  804MPD2    C511896   1.121   2.158  16.973 -0.2511  1.0692  0.3000
  804MPD2     H11897   1.191   2.196  17.348  1.8441 -2.5554 -0.0808
  804MPD2    H111898   1.163   2.367  16.963  0.2432  0.1373  0.3513
  804MPD2    H211899   1.049   1.975  17.008  1.6739 -1.0705 -0.2493
  804MPD2    H311900   1.115   2.151  16.865  1.3359  1.1831  0.1917
  804MPD2     N11901   1.223   2.423  17.220 -0.0051 -0.1091  0.0370
  804MPD2    H511902   1.215   2.434  17.321  4.7302 -0.4148  0.4587
  804MPD2    N111903   1.067   1.972  17.286  0.2461  0.1282 -0.0046
  804MPD2    H711904   1.079   1.995  17.384  0.9567  2.4682 -0.6391
  805MPD2     C11905   4.685   4.658  15.592  0.4245 -0.4655  0.5906
  805MPD2    C111906   0.030   4.729  15.511 -0.4252 -0.6429  0.0770
  805MPD2    C211907   0.163   0.001  15.551 -0.3069 -0.1308  0.4975
  805MPD2    C311908   0.211   4.691  15.667 -0.3653 -0.2375 -0.5254
  805MPD2    C411909   0.126   4.621  15.753  0.2848  0.7263 -0.2815
  805MPD2    C511910   4.733   4.601  15.712 -0.3051  0.7047  0.4562
  805MPD2     H11911   0.233   0.055  15.488 -2.4034 -1.9286 -3.3923
  805MPD2    H111912   0.171   4.568  15.837  0.1909  3.7667  1.6901
  805MPD2    H211913   4.581   4.635  15.571  0.2956  0.4290  0.2260
  805MPD2    H311914   4.670   4.537  15.772  0.8525 -0.5394  0.3593
  805MPD2     N11915   0.342   4.724  15.708  0.5555  0.5140  0.3089
  805MPD2    H511916   0.398   0.048  15.652 -1.1183  1.3212 -0.4607
  805MPD2    N111917   4.738   0.052  15.393 -0.1000 -0.3943  0.2056
  805MPD2    H711918   0.082   0.083  15.343  0.0034 -1.2944 -0.1785
  806MPD2     C11919   0.880   0.249   0.320 -0.8684  0.0292  0.0928
  806MPD2    C111920   0.838   0.308   0.439  0.1324  0.1633  0.6491
  806MPD2    C211921   0.900   0.430   0.480  0.7206  0.4253  0.2110
  806MPD2    C311922   0.995   0.489   0.392 -0.2238  0.3789 -0.1329
  806MPD2    C411923   1.051   0.405   0.290  0.1155 -0.4222  0.4018
  806MPD2    C511924   0.989   0.289   0.256 -0.6846  0.1099  0.1616
  806MPD2     H11925   0.866   0.484   0.567 -0.7718  0.7970 -0.5987
  806MPD2    H111926   1.133   0.440   0.228  0.9055 -0.3761  1.4672
  806MPD2    H211927   0.837   0.153   0.294 -3.2295  1.3410 -0.8479
  806MPD2    H311928   1.034   0.227   0.179  0.3107 -0.4396  1.1765
  806MPD2     N11929   1.045   0.617   0.418 -0.0363 -0.2130  0.5442
  806MPD2    H511930   1.005   0.668   0.496 -0.3830 -1.9384  1.4893
  806MPD2    N111931   0.734   0.248   0.509 -0.5107 -0.0141 -0.5057
  806MPD2    H711932   0.687   0.171   0.462  0.6339 -0.1979 -1.3668
  807MPD2     C11933   0.883   4.391   0.845 -0.2300  0.0256  0.2993
  807MPD2    C111934   0.751   4.391   0.883  0.5925 -0.2739  0.3884
  807MPD2    C211935   0.708   4.278   0.946  0.9789  0.3035  0.2175
  807MPD2    C311936   0.793   4.175   0.981 -0.1911  0.3081  0.5172
  807MPD2    C411937   0.927   4.186   0.949 -0.2708  0.1882  0.2419
  807MPD2    C511938   0.975   4.295   0.881  0.2637  0.7788  0.0597
  807MPD2     H11939   0.611   4.262   0.989  0.7212 -0.3041 -0.5926
  807MPD2    H111940   1.002   4.112   0.972 -1.1637 -0.7533  0.1735
  807MPD2    H211941   0.926   4.476   0.793 -0.6891  0.9027  1.3359
  807MPD2    H311942   1.080   4.299   0.853  0.6092  2.1844  1.4928
  807MPD2     N11943   0.730   4.064   1.037 -0.0479  0.1068 -0.1869
  807MPD2    H511944   0.628   4.064   1.036 -0.0371  0.2472 -1.4466
  807MPD2    N111945   0.660   4.485   0.838 -0.0232  0.2522  0.0016
  807MPD2    H711946   0.567   4.472   0.876  0.1287 -0.5714  0.1023
  808MPD2     C11947   1.037   1.120  10.171 -0.3568 -0.4654 -0.6320
  808MPD2    C111948   1.167   1.164  10.157  0.2127 -0.0873  0.5151
  808MPD2    C211949   1.194   1.289  10.104  0.2930 -0.8128 -0.8171
  808MPD2    C311950   1.093   1.365  10.042  0.1385 -0.4485  0.3522
  808MPD2    C411951   0.962   1.323  10.053 -0.4066  0.4305  0.1889
  808MPD2    C511952   0.935   1.200  10.114 -0.1710  0.4903  0.0523
  808MPD2     H11953   1.298   1.316  10.094  0.3354 -0.7983 -0.3268
  808MPD2    H111954   0.897   1.393  10.002  1.1281  0.7091 -1.3917
  808MPD2    H211955   1.009   1.026  10.217  1.0008  0.3163  1.7734
  808MPD2    H311956   0.838   1.157  10.093 -0.0523  0.1688  0.1702
  808MPD2     N11957   1.124   1.480   9.965 -0.2225 -0.1976 -0.2025
  808MPD2    H511958   1.054   1.525   9.906  0.7859  0.2630 -1.0594
  808MPD2    N111959   1.268   1.087  10.217  0.0397 -0.6826 -0.2862
  808MPD2    H711960   1.359   1.133  10.218 -0.0075 -0.5734 -0.8546
  809MPD2     C11961   1.827   2.262   9.582  0.0612 -0.2809  0.2602
  809MPD2    C111962   1.851   2.127   9.599  0.5981 -0.3168 -0.2240
  809MPD2    C211963   1.752   2.036   9.642 -1.2123 -0.2067 -0.3509
  809MPD2    C311964   1.625   2.090   9.669  0.3971  0.3203 -0.4767
  809MPD2    C411965   1.605   2.227   9.653  0.4104  0.7578 -0.2787
  809MPD2    C511966   1.705   2.309   9.618 -0.5282  0.6601 -0.1229
  809MPD2     H11967   1.780   1.934   9.662  1.0376  0.8137  1.6694
  809MPD2    H111968   1.506   2.267   9.667  0.1124  0.3838 -1.3558
  809MPD2    H211969   1.907   2.331   9.558  0.9101 -1.3358  0.0232
  809MPD2    H311970   1.690   2.416   9.625  0.7888  1.0415 -3.1507
  809MPD2     N11971   1.508   2.015   9.705  0.5236 -0.0328 -0.3952
  809MPD2    H511972   1.428   2.067   9.740  2.2842  2.1596  0.3969
  809MPD2    N111973   1.975   2.080   9.598  0.2787  0.1981 -0.5923
  809MPD2    H711974   1.980   1.986   9.635 -1.2949 -0.1979 -1.3814
  810MPD2     C11975   1.248   0.092  10.671 -0.5333  0.5400 -0.4405
  810MPD2    C111976   1.188   0.218  10.671 -0.4268  0.3246 -0.3658
  810MPD2    C211977   1.265   0.333  10.670 -1.1476 -0.2241  0.4051
  810MPD2    C311978   1.404   0.326  10.664  0.3647  0.0682 -0.3304
  810MPD2    C411979   1.460   0.198  10.667  0.5555 -0.0318 -0.8113
  810MPD2    C511980   1.386   0.084  10.668  1.0287  0.2229 -0.7247
  810MPD2     H11981   1.217   0.428  10.649 -1.2133  0.1631  2.2491
  810MPD2    H111982   1.565   0.175  10.678  0.3671 -1.1024 -1.3041
  810MPD2    H211983   1.188   0.001  10.673  0.2218  0.1042  2.0107
  810MPD2    H311984   1.434   4.727  10.679  0.4674 -0.0172 -0.3508
  810MPD2     N11985   1.482   0.440  10.662  0.0862 -0.2969 -0.1382
  810MPD2    H511986   1.580   0.414  10.659 -0.2390 -1.5868  0.5629
  810MPD2    N111987   1.046   0.211  10.662 -0.6931  0.2454  0.0877
  810MPD2    H711988   1.012   0.117  10.675  0.7738  0.0020  2.3154
  811MPD2     C11989   0.136   0.388  10.651 -0.0404  0.7592  0.3098
  811MPD2    C111990   0.250   0.451  10.619  0.3228 -0.2116  0.7432
  811MPD2    C211991   0.246   0.578  10.561  0.0230  0.2126  0.3482
  811MPD2    C311992   0.127   0.647  10.556 -0.5176 -0.6927 -0.4194
  811MPD2    C411993   0.008   0.590  10.601  0.5249  1.2021  0.1793
  811MPD2    C511994   0.017   0.458  10.648  0.1055  0.8584  0.1421
  811MPD2     H11995   0.333   0.633  10.528 -0.0644 -0.5229 -1.1139
  811MPD2    H111996   4.657   0.651  10.609 -0.5775 -0.2982 -0.7833
  811MPD2    H211997   0.136   0.289  10.695 -0.1980 -0.0446 -1.4887
  811MPD2    H311998   4.663   0.415  10.683  0.1798 -0.4972 -1.3162
  811MPD2     N11999   0.130   0.783  10.511 -0.1712 -0.3790  0.4686
  811MPD2    H512000   0.222   0.824  10.520 -0.6200  0.5170  1.0106
  811MPD2    N112001   0.371   0.372  10.627 -0.3351  0.6136  0.3825
  811MPD2    H712002   0.365   0.275  10.654  0.2230 -0.7934 -4.5763
  812MPD2     C12003   4.441   0.675  12.509  0.2461  0.6130  0.3901
  812MPD2    C112004   4.359   0.727  12.601  0.0177 -0.3646 -0.6025
  812MPD2    C212005   4.303   0.649  12.704  0.2518  0.7481  0.8048
  812MPD2    C312006   4.342   0.516  12.716 -0.3422 -0.0902 -0.4804
  812MPD2    C412007   4.418   0.465  12.610 -0.0380  0.3994 -0.3315
  812MPD2    C512008   4.469   0.546  12.512  0.9048  0.1483 -0.3835
  812MPD2     H12009   4.232   0.695  12.772 -1.6135 -0.6949 -0.1662
  812MPD2    H112010   4.464   0.367  12.618  1.7934  1.4021  1.4923
  812MPD2    H212011   4.479   0.723  12.420  0.8774 -0.7606 -0.0807
  812MPD2    H312012   4.539   0.510  12.438  0.9713 -1.1603  0.3247
  812MPD2     N12013   4.300   0.440  12.833  0.6238 -0.2107  0.1138
  812MPD2    H512014   4.240   0.481  12.903  1.3200 -0.7556  1.0249
  812MPD2    N112015   4.326   0.864  12.569 -0.8228 -0.2559 -0.1543
  812MPD2    H712016   4.387   0.912  12.504 -0.4060 -1.1643 -0.4414
  813MPD2     C12017   3.121   2.142  12.917  0.5755  0.9370  0.0008
  813MPD2    C112018   3.117   2.278  12.920 -0.6353  0.0577  0.1643
  813MPD2    C212019   3.109   2.339  13.045 -0.7168 -0.4703  0.5502
  813MPD2    C312020   3.088   2.261  13.158 -0.2291 -0.6260  0.7355
  813MPD2    C412021   3.090   2.128  13.155 -0.1167 -0.0931 -0.3001
  813MPD2    C512022   3.110   2.068  13.038 -1.4032 -0.1613  0.0520
  813MPD2     H12023   3.097   2.447  13.043  1.6670 -0.2227 -0.2460
  813MPD2    H112024   3.070   2.067  13.243 -0.8786  2.3261  1.1955
  813MPD2    H212025   3.139   2.080  12.830 -0.3100  1.3210 -0.4523
  813MPD2    H312026   3.126   1.962  13.030 -0.6489 -0.2068  2.1375
  813MPD2     N12027   3.066   2.334  13.280  0.0760  0.5368 -0.0897
  813MPD2    H512028   3.094   2.432  13.278 -0.4145  0.6688 -0.5826
  813MPD2    N112029   3.131   2.362  12.808 -0.5494  0.0678  0.5326
  813MPD2    H712030   3.152   2.459  12.830  1.0104 -0.4430  1.3006
  814MPD2     C12031   3.776   3.662  12.610  1.0157  0.7827  0.7830
  814MPD2    C112032   3.845   3.700  12.501  0.2825 -0.2821 -0.1498
  814MPD2    C212033   3.929   3.808  12.506  0.0681  0.5673  0.2233
  814MPD2    C312034   3.941   3.876  12.631  0.2212 -0.2552  0.4128
  814MPD2    C412035   3.871   3.839  12.743  0.7098  0.8223 -0.1018
  814MPD2    C512036   3.788   3.731  12.731 -0.4023 -0.3095 -0.4626
  814MPD2     H12037   3.982   3.833  12.415  3.1516 -0.2838  1.7621
  814MPD2    H112038   3.874   3.897  12.834 -0.7204  1.7774 -0.6675
  814MPD2    H212039   3.710   3.575  12.605  1.0768  0.7988 -0.3988
  814MPD2    H312040   3.739   3.715  12.826  1.8710 -2.4965  0.3338
  814MPD2     N12041   4.021   3.990  12.645 -0.8731  0.0688  0.4029
  814MPD2    H512042   4.029   4.013  12.743 -1.2587  0.4864  0.3350
  814MPD2    N112043   3.833   3.635  12.375  0.3221  0.7669  0.3578
  814MPD2    H712044   3.896   3.670  12.303 -1.3894 -0.4058 -1.7005
  815MPD2     C12045   4.121   2.601  11.873  0.0334  0.4930  0.3411
  815MPD2    C112046   4.100   2.472  11.914  0.0426 -0.3756 -0.3702
  815MPD2    C212047   3.977   2.435  11.968 -0.6591  0.0631 -0.1858
  815MPD2    C312048   3.873   2.525  11.973  0.2596 -1.3230  0.4083
  815MPD2    C412049   3.898   2.661  11.944 -0.5984 -1.0479 -0.0964
  815MPD2    C512050   4.020   2.699  11.892 -0.8061 -0.0494 -0.3273
  815MPD2     H12051   3.952   2.331  11.986 -0.8198  0.2620  0.7441
  815MPD2    H112052   3.820   2.737  11.940  0.1897 -0.2207  0.2270
  815MPD2    H212053   4.217   2.627  11.831 -0.0549  0.3402  0.0417
  815MPD2    H312054   4.029   2.804  11.864  0.4337 -0.4339 -1.3728
  815MPD2     N12055   3.745   2.475  12.007  0.6470 -0.0922 -0.3036
  815MPD2    H512056   3.743   2.378  12.036  1.1788 -0.3921 -1.2648
  815MPD2    N112057   4.211   2.386  11.895  0.3025 -0.9629 -0.3863
  815MPD2    H712058   4.290   2.425  11.845  1.4532 -0.7770  1.5545
  816MPD2     C12059   4.160   1.253  17.138  0.5668  0.0389 -0.8239
  816MPD2    C112060   4.171   1.389  17.116  0.2381  0.0590  0.4119
  816MPD2    C212061   4.291   1.444  17.075 -0.6730 -0.6743 -0.0375
  816MPD2    C312062   4.401   1.366  17.058 -0.1443  0.7893  0.2048
  816MPD2    C412063   4.392   1.230  17.079  0.2610 -0.6024 -0.7649
  816MPD2    C512064   4.272   1.171  17.116 -0.0710 -0.0419  0.1930
  816MPD2     H12065   4.305   1.552  17.069 -0.2747 -0.8785 -2.8713
  816MPD2    H112066   4.474   1.159  17.079  0.3380 -0.5124 -0.3717
  816MPD2    H212067   4.067   1.209  17.172 -0.7185  2.4961 -1.1557
  816MPD2    H312068   4.276   1.065  17.139 -1.0337 -0.2513 -0.6413
  816MPD2     N12069   4.522   1.425  17.030  0.4262  0.5746 -0.5879
  816MPD2    H512070   4.525   1.525  17.047  2.2427  0.2349  1.1002
  816MPD2    N112071   4.048   1.462  17.143 -0.1580  0.3092  0.1248
  816MPD2    H712072   3.968   1.407  17.173 -0.0501 -0.3187 -0.7161
  817MPD2     C12073   3.790   2.850   9.510 -1.1193  0.1144  0.2413
  817MPD2    C112074   3.687   2.772   9.557 -0.1844 -0.0823  0.8065
  817MPD2    C212075   3.557   2.820   9.570  0.3355 -0.2004  0.6154
  817MPD2    C312076   3.517   2.935   9.505  0.4541  0.2623 -0.6663
  817MPD2    C412077   3.623   3.013   9.461 -0.1177  0.3369 -0.3391
  817MPD2    C512078   3.755   2.974   9.471 -0.6039 -0.2551  0.1320
  817MPD2     H12079   3.491   2.751   9.621  1.1887  0.7601  3.0211
  817MPD2    H112080   3.612   3.110   9.412 -0.4975 -0.0049 -0.9405
  817MPD2    H212081   3.891   2.811   9.503 -0.6026  1.0758  2.2165
  817MPD2    H312082   3.837   3.036   9.437 -0.3912 -0.2713  0.6207
  817MPD2     N12083   3.386   2.968   9.490 -0.6336 -0.0578 -0.1208
  817MPD2    H512084   3.316   2.904   9.526  1.3258 -2.2965 -0.2922
  817MPD2    N112085   3.718   2.647   9.619  0.2654 -0.3804 -0.1195
  817MPD2    H712086   3.643   2.606   9.674 -0.0492  0.4194  0.0531
  818MPD2     C12087   2.981   3.346  10.269  0.1204  0.0041 -0.3274
  818MPD2    C112088   2.854   3.299  10.285  0.8393 -0.5187 -1.0658
  818MPD2    C212089   2.823   3.179  10.225  0.0605  0.4183  0.3307
  818MPD2    C312090   2.905   3.106  10.144 -0.9697 -0.8160  0.0382
  818MPD2    C412091   3.035   3.147  10.145 -0.4058 -0.1405 -0.1304
  818MPD2    C512092   3.068   3.267  10.201 -0.3997  0.1622 -0.4458
  818MPD2     H12093   2.722   3.144  10.248  0.5319 -1.8411 -1.0442
  818MPD2    H112094   3.118   3.100  10.093  1.6270  2.8145  0.4577
  818MPD2    H212095   3.007   3.440  10.315  0.2016  0.0271 -0.4207
  818MPD2    H312096   3.167   3.309  10.193 -0.0959 -0.3940  0.4744
  818MPD2     N12097   2.875   2.982  10.079 -0.0944  0.4921  0.0916
  818MPD2    H512098   2.949   2.923  10.040  0.9677  0.5595  2.0033
  818MPD2    N112099   2.749   3.348  10.365  0.1945 -0.3711  0.4606
  818MPD2    H712100   2.665   3.292  10.374  0.2891 -0.6063 -0.1515
  819MPD2     C12101   0.889   4.578  15.776  0.2087 -0.1216  0.1972
  819MPD2    C112102   0.823   4.467  15.831  0.9486  0.3317 -0.7452
  819MPD2    C212103   0.872   4.403  15.944 -0.5467 -0.9093  0.5375
  819MPD2    C312104   0.995   4.447  16.001  0.1050  0.6987  0.5102
  819MPD2    C412105   1.058   4.558  15.953 -0.0742  0.2065 -0.3181
  819MPD2    C512106   0.996   4.622  15.851  0.0861  0.7759  0.1966
  819MPD2     H12107   0.827   4.313  15.983  0.9069 -1.9223 -0.1403
  819MPD2    H112108   1.157   4.592  15.982 -1.6834  2.0508  3.0061
  819MPD2    H212109   0.845   4.636  15.696  1.0665 -0.0467 -0.2146
  819MPD2    H312110   1.036   4.712  15.806 -0.1323 -0.8179 -3.2280
  819MPD2     N12111   1.046   4.378  16.116 -0.1136  0.0304 -0.2968
  819MPD2    H512112   1.006   4.286  16.134 -1.1631  0.6122  0.3370
  819MPD2    N112113   0.713   4.418  15.758  0.2053  0.3726  1.3832
  819MPD2    H712114   0.694   4.458  15.667  0.4857 -2.6463  0.0131
  820MPD2     C12115   0.296   4.460  14.914  0.2191 -0.8096  0.1493
  820MPD2    C112116   0.263   4.547  15.012 -0.1711 -0.0778  0.2333
  820MPD2    C212117   0.283   4.509  15.146  0.8342  0.2643 -0.6117
  820MPD2    C312118   0.319   4.381  15.177  0.2727  0.2596  0.7062
  820MPD2    C412119   0.327   4.291  15.071 -0.3681  0.5833 -0.1465
  820MPD2    C512120   0.320   4.328  14.939 -0.1592 -0.4386  0.5561
  820MPD2     H12121   0.263   4.582  15.224 -0.0570  0.5047 -1.0583
  820MPD2    H112122   0.361   4.191  15.094 -1.4402  0.4077  0.6576
  820MPD2    H212123   0.297   4.486  14.809 -0.9735 -0.7426  0.1574
  820MPD2    H312124   0.339   4.262  14.855 -0.3924 -0.2969  0.3929
  820MPD2     N12125   0.332   4.335  15.307  0.1931 -0.7229  0.2949
  820MPD2    H512126   0.339   4.237  15.329  1.3838 -0.4825  1.0347
  820MPD2    N112127   0.217   4.674  14.979  0.1362  0.2048 -0.4212
  820MPD2    H712128   0.201   4.686  14.879  1.0693 -1.5125 -0.7676
  821MPD2     C12129   0.897   1.363  13.012 -0.5622 -0.5494 -0.5269
  821MPD2    C112130   0.986   1.295  13.091  0.0556  0.7656 -0.3956
  821MPD2    C212131   1.088   1.227  13.032  0.9869 -0.0756  0.2880
  821MPD2    C312132   1.096   1.223  12.897  0.7549  0.0604  0.3937
  821MPD2    C412133   0.999   1.279  12.816 -0.4773 -0.2804  0.1895
  821MPD2    C512134   0.905   1.353  12.874 -0.2012 -0.1215 -0.3312
  821MPD2     H12135   1.157   1.169  13.093  0.1892 -0.3229  0.9508
  821MPD2    H112136   1.024   1.294  12.712  1.1179 -2.8884  0.1990
  821MPD2    H212137   0.821   1.426  13.056 -0.0855 -0.5377  0.2839
  821MPD2    H312138   0.837   1.415  12.817 -2.0858 -0.6858  1.3172
  821MPD2     N12139   1.220   1.184  12.835  1.0216 -0.2952  0.8129
  821MPD2    H512140   1.215   1.208  12.736  2.5538  3.1485  1.5849
  821MPD2    N112141   0.988   1.306  13.232 -0.8027  0.8933 -0.2636
  821MPD2    H712142   1.063   1.256  13.278 -3.1938 -1.6396  0.9273
  822MPD2     C12143   1.397   1.299  15.948  1.2075  0.0152  0.2564
  822MPD2    C112144   1.416   1.260  16.081 -0.1137 -0.6850  0.6218
  822MPD2    C212145   1.391   1.352  16.180 -0.5459 -0.6225  0.2422
  822MPD2    C312146   1.344   1.482  16.164 -0.0380  0.0434  0.2000
  822MPD2    C412147   1.343   1.520  16.031  0.1817  0.2319 -0.3220
  822MPD2    C512148   1.365   1.429  15.931  0.3025 -0.2738  0.4737
  822MPD2     H12149   1.401   1.334  16.286 -1.4246 -1.1317  0.2414
  822MPD2    H112150   1.324   1.621  15.998 -2.2426  1.4782  4.8326
  822MPD2    H212151   1.427   1.239  15.863  1.0616  1.4707 -0.8341
  822MPD2    H312152   1.357   1.474  15.833  1.7205 -1.0845  0.0012
  822MPD2     N12153   1.315   1.559  16.275  0.1579 -0.0945  0.3210
  822MPD2    H512154   1.312   1.510  16.365  0.4147  1.2556  1.0585
  822MPD2    N112155   1.471   1.136  16.111  0.1813  0.3970  0.7221
  822MPD2    H712156   1.499   1.124  16.208  1.8286 -3.5984 -0.2259
  823MPD2     C12157   1.290   1.729  17.096  0.0069  0.0552 -0.0912
  823MPD2    C112158   1.276   1.643  16.991  0.1836  0.3790  0.3379
  823MPD2    C212159   1.315   1.512  17.015  0.0935 -0.8672  0.1552
  823MPD2    C312160   1.368   1.473  17.141  0.8556  0.2444 -0.1886
  823MPD2    C412161   1.374   1.564  17.239  0.4858  0.1238  1.2124
  823MPD2    C512162   1.330   1.693  17.218  0.2321  0.2676 -0.1900
  823MPD2     H12163   1.301   1.446  16.930  1.1207  0.4156 -0.9974
  823MPD2    H112164   1.399   1.524  17.336  2.9339  2.1197  1.4022
  823MPD2    H212165   1.268   1.835  17.087  1.3164  0.1479 -2.2094
  823MPD2    H312166   1.313   1.753  17.307  0.4046  1.5409 -1.0115
  823MPD2     N12167   1.411   1.341  17.172  0.7944 -0.1889  0.3782
  823MPD2    H512168   1.437   1.328  17.269  0.2294 -1.5562  0.3506
  823MPD2    N112169   1.242   1.705  16.867  0.4429 -0.0883 -0.0319
  823MPD2    H712170   1.232   1.806  16.869 -1.6475 -0.2246 -2.3774
  824MPD2     C12171   1.669   0.317  16.100  0.1962  0.8404 -0.2730
  824MPD2    C112172   1.740   0.437  16.097  0.5230 -0.2849 -0.2780
  824MPD2    C212173   1.866   0.431  16.049  0.5214 -0.4591 -0.1417
  824MPD2    C312174   1.916   0.315  15.990  0.3560 -0.2512 -0.0023
  824MPD2    C412175   1.844   0.199  15.997  0.4518  0.4616  0.0702
  824MPD2    C512176   1.720   0.204  16.049 -0.4228 -0.6733 -0.0820
  824MPD2     H12177   1.931   0.518  16.037  0.6375 -0.6247 -0.7105
  824MPD2    H112178   1.879   0.100  15.972  2.7386  1.3734 -0.3952
  824MPD2    H212179   1.564   0.318  16.126  0.6474 -1.0442  1.7272
  824MPD2    H312180   1.661   0.113  16.048  1.9703 -2.2418  2.3251
  824MPD2     N12181   2.046   0.308  15.939  0.3970  0.2011 -0.1506
  824MPD2    H512182   2.102   0.392  15.953  2.8515 -1.1048 -2.0874
  824MPD2    N112183   1.685   0.559  16.130  0.1257  0.3128 -0.2701
  824MPD2    H712184   1.737   0.644  16.106 -0.8217  1.2957  1.1569
  825MPD2     C12185   2.299   0.823  15.862  0.3398 -0.0649 -0.6990
  825MPD2    C112186   2.389   0.752  15.786 -0.2783 -0.1585 -0.5885
  825MPD2    C212187   2.485   0.814  15.714  0.2478  0.3101 -1.0369
  825MPD2    C312188   2.498   0.952  15.721 -0.0630 -0.3705  0.1012
  825MPD2    C412189   2.405   1.030  15.797 -0.0705 -0.3223 -0.4678
  825MPD2    C512190   2.312   0.959  15.871 -0.3431 -0.0223  0.7108
  825MPD2     H12191   2.565   0.766  15.659 -0.9356 -0.0926 -2.3991
  825MPD2    H112192   2.404   1.138  15.811 -0.9930 -0.3580 -0.2049
  825MPD2    H212193   2.220   0.771  15.915  0.6457 -0.5241 -0.6989
  825MPD2    H312194   2.257   1.023  15.940 -1.0218  0.4755 -0.2999
  825MPD2     N12195   2.603   1.023  15.665  1.2077 -0.3562 -0.1182
  825MPD2    H512196   2.591   1.124  15.674 -0.0692 -0.6232  1.1151
  825MPD2    N112197   2.363   0.614  15.782  0.1852  0.5839  0.1315
  825MPD2    H712198   2.276   0.581  15.822 -1.4395 -1.3428 -4.9134
  826MPD2     C12199   2.877   0.761  13.612 -0.3940  0.3001 -0.4186
  826MPD2    C112200   2.825   0.669  13.703  0.2279  0.6895  0.5399
  826MPD2    C212201   2.701   0.692  13.759 -0.2160 -0.2633  0.1955
  826MPD2    C312202   2.634   0.804  13.726  0.3735  0.7188  0.4758
  826MPD2    C412203   2.695   0.904  13.650 -0.2760 -0.4611 -1.0525
  826MPD2    C512204   2.814   0.882  13.586  0.4895  0.0073 -0.0281
  826MPD2     H12205   2.662   0.619  13.829  0.6369 -2.2520 -1.3818
  826MPD2    H112206   2.640   0.994  13.622 -0.9472 -0.7258 -0.5792
  826MPD2    H212207   2.971   0.741  13.563  0.8241  1.5093  1.4603
  826MPD2    H312208   2.868   0.950  13.521  1.1449 -0.3513  0.1456
  826MPD2     N12209   2.499   0.844  13.775 -0.1681  0.4423  0.3500
  826MPD2    H512210   2.470   0.940  13.762 -1.8362 -0.2026 -0.7484
  826MPD2    N112211   2.905   0.561  13.744  1.0235  0.3680  0.0268
  826MPD2    H712212   2.992   0.559  13.692  0.0155  0.4961 -1.6298
  827MPD2     C12213   3.222   1.425  10.394 -0.0027 -0.0308 -0.6189
  827MPD2    C112214   3.133   1.445  10.504  0.1205  0.4370 -0.0123
  827MPD2    C212215   3.001   1.470  10.477 -0.7222  0.2277  0.0034
  827MPD2    C312216   2.948   1.472  10.347  0.3864  0.6494 -0.1043
  827MPD2    C412217   3.042   1.471  10.241  0.2275  0.0947  0.2146
  827MPD2    C512218   3.175   1.448  10.265 -0.0961 -0.1792  0.7198
  827MPD2     H12219   2.941   1.502  10.561 -1.3203  0.1034 -0.3708
  827MPD2    H112220   3.013   1.487  10.138  0.1078  0.1278  0.2526
  827MPD2    H212221   3.323   1.396  10.421 -0.6226 -1.3640  0.2709
  827MPD2    H312222   3.243   1.433  10.182  1.1573 -1.1604  1.9160
  827MPD2     N12223   2.808   1.482  10.334 -0.1375  0.7526  0.6829
  827MPD2    H512224   2.758   1.495  10.422 -1.4371 -0.2865  0.0934
  827MPD2    N112225   3.199   1.446  10.629 -0.2401 -0.5441  0.3411
  827MPD2    H712226   3.297   1.421  10.625 -0.5525 -1.5573 -0.7459
  828MPD2     C12227   1.566   1.858  12.546  0.2156  0.6810 -0.2437
  828MPD2    C112228   1.556   1.989  12.497  0.2207 -0.0594 -0.4528
  828MPD2    C212229   1.573   2.023  12.360  0.4062 -0.2321 -0.1208
  828MPD2    C312230   1.616   1.923  12.279 -0.4950 -0.2943 -0.1019
  828MPD2    C412231   1.629   1.795  12.327 -0.0305  0.1286  0.1733
  828MPD2    C512232   1.600   1.762  12.455 -0.7540 -0.2119 -0.1350
  828MPD2     H12233   1.544   2.121  12.323 -1.5813  0.8622  4.3124
  828MPD2    H112234   1.656   1.712  12.263 -0.6826 -0.8922  1.2275
  828MPD2    H212235   1.554   1.819  12.647  1.8908 -1.1444 -0.7479
  828MPD2    H312236   1.610   1.656  12.477  1.6517  0.1257  0.4259
  828MPD2     N12237   1.645   1.941  12.141 -0.0215 -0.7331 -0.0374
  828MPD2    H512238   1.688   1.864  12.092  0.4445 -0.6058  0.1759
  828MPD2    N112239   1.506   2.092  12.573 -0.5439  0.4201  0.5910
  828MPD2    H712240   1.486   2.182  12.531 -3.6017 -0.2043  0.7102
  829MPD2     C12241   0.820   2.772  12.435  0.0361  0.2381  0.2784
  829MPD2    C112242   0.922   2.704  12.366 -0.2180 -1.2284 -0.0087
  829MPD2    C212243   1.009   2.626  12.434  0.4480  0.6055  0.5119
  829MPD2    C312244   0.992   2.601  12.567 -0.3036 -0.2973 -0.9579
  829MPD2    C412245   0.898   2.671  12.635  0.6178 -0.7311 -0.1494
  829MPD2    C512246   0.817   2.759  12.573  0.1235 -0.8554  0.8627
  829MPD2     H12247   1.088   2.571  12.385 -0.5704 -0.0767 -0.3760
  829MPD2    H112248   0.875   2.653  12.739  3.8531 -1.2509  0.4637
  829MPD2    H212249   0.755   2.845  12.389  1.2961  1.1484 -0.0360
  829MPD2    H312250   0.736   2.806  12.627 -0.1929 -2.4517  1.7835
  829MPD2     N12251   1.067   2.505  12.648  0.6511  0.2830 -0.6824
  829MPD2    H512252   1.047   2.507  12.747 -0.1545 -3.3511 -0.7633
  829MPD2    N112253   0.913   2.718  12.227  0.3798 -0.1933 -0.4831
  829MPD2    H712254   0.840   2.780  12.195 -0.1842 -0.1430  0.9336
  830MPD2     C12255   1.717   3.856  16.120 -0.0731  0.1677  0.0184
  830MPD2    C112256   1.600   3.905  16.064 -0.3555  0.0839  0.4826
  830MPD2    C212257   1.569   3.880  15.935 -0.5634  0.0107  0.7059
  830MPD2    C312258   1.661   3.809  15.860  0.1866  0.1318 -0.1054
  830MPD2    C412259   1.763   3.742  15.922 -0.5257  0.5270  0.0312
  830MPD2    C512260   1.788   3.763  16.059 -0.1435  0.5451 -0.3742
  830MPD2     H12261   1.473   3.912  15.896 -2.0316 -2.0166  2.6512
  830MPD2    H112262   1.837   3.679  15.875  0.6553  2.1616 -0.2898
  830MPD2    H212263   1.748   3.872  16.222 -0.4026 -0.7587  0.2665
  830MPD2    H312264   1.868   3.706  16.104 -2.1413  0.3138  2.8284
  830MPD2     N12265   1.653   3.793  15.717 -0.3483  0.0897 -0.0663
  830MPD2    H512266   1.723   3.728  15.684  1.5483  1.2105  1.8060
  830MPD2    N112267   1.516   3.981  16.140  0.3733  0.1649  0.2822
  830MPD2    H712268   1.537   4.003  16.237 -0.2227 -0.7530  0.6150
  831MPD2     C12269   1.623   1.621  16.607 -0.2552 -0.4681  0.3271
  831MPD2    C112270   1.633   1.543  16.492  0.6078 -0.0291  0.0559
  831MPD2    C212271   1.587   1.411  16.491 -0.0671  0.1388  0.3170
  831MPD2    C312272   1.532   1.365  16.608 -0.2516 -0.1368 -0.5321
  831MPD2    C412273   1.545   1.438  16.720  0.0469 -0.1199  0.0760
  831MPD2    C512274   1.584   1.569  16.727 -0.1243  0.5801  0.2039
  831MPD2     H12275   1.586   1.356  16.398  3.0281  1.2113 -0.3728
  831MPD2    H112276   1.509   1.400  16.815 -0.1377  0.2537  0.1582
  831MPD2    H212277   1.658   1.723  16.612 -0.9687 -0.1319 -1.2843
  831MPD2    H312278   1.571   1.626  16.817  0.5556  0.0334  0.6451
  831MPD2     N12279   1.478   1.234  16.622  0.5938  0.6439 -0.1753
  831MPD2    H512280   1.433   1.206  16.708  2.8945 -0.5267  0.6558
  831MPD2    N112281   1.676   1.601  16.369  0.2365  0.7950  0.0215
  831MPD2    H712282   1.697   1.700  16.367 -2.0817  1.2524 -2.0338
  832MPD2     C12283   0.206   2.506  17.115 -0.0209  0.1684 -0.7638
  832MPD2    C112284   0.113   2.582  17.186 -0.4115  0.2219  0.0300
  832MPD2    C212285   4.722   2.576  17.141 -0.1360  0.1001 -0.3570
  832MPD2    C312286   4.689   2.491  17.032  0.7922  0.4075  0.1372
  832MPD2    C412287   0.041   2.417  16.965  0.4437  0.3883  0.0956
  832MPD2    C512288   0.167   2.419  17.013 -1.0935 -0.6156  0.9659
  832MPD2     H12289   4.642   2.629  17.193  1.4343  1.2645  0.8708
  832MPD2    H112290   0.021   2.358  16.876  0.5766 -0.7320  0.8148
  832MPD2    H212291   0.305   2.483  17.153  0.1664  2.1350 -0.1064
  832MPD2    H312292   0.233   2.364  16.948  0.5358  2.7557 -0.2458
  832MPD2     N12293   4.557   2.489  16.977  0.4146  0.0456  0.1907
  832MPD2    H512294   4.545   2.438  16.890 -0.4981 -1.7867  1.3700
  832MPD2    N112295   0.158   2.649  17.306 -0.0785  0.3620  0.4526
  832MPD2    H712296   0.250   2.620  17.336  0.4809  0.6816 -0.9854
  833MPD2     C12297   2.621   4.152  12.892 -0.1508  0.3196  0.1422
  833MPD2    C112298   2.621   4.234  12.782  0.0970 -0.0931 -0.2442
  833MPD2    C212299   2.724   4.228  12.687 -1.2148  0.0695  1.0833
  833MPD2    C312300   2.814   4.125  12.694 -0.0054 -0.3608 -0.3077
  833MPD2    C412301   2.826   4.054  12.814 -0.2395 -0.1896 -0.3371
  833MPD2    C512302   2.731   4.066  12.916 -0.1716  0.0965 -0.0669
  833MPD2     H12303   2.721   4.289  12.597  0.0247 -2.0270 -0.3794
  833MPD2    H112304   2.903   3.979  12.822 -0.8005 -0.7189  0.0713
  833MPD2    H212305   2.542   4.157  12.966 -1.0450  1.1706 -0.8695
  833MPD2    H312306   2.730   4.018  13.013 -1.3026  1.3644  0.5397
  833MPD2     N12307   2.887   4.100  12.579  0.7124 -0.1100 -0.2244
  833MPD2    H512308   2.854   4.132  12.489  1.3319 -0.8029 -0.6998
  833MPD2    N112309   2.514   4.328  12.775  0.9815 -0.1436 -0.0933
  833MPD2    H712310   2.444   4.334  12.848  2.6058  1.8860  1.2994
  834MPD2     C12311   2.625   3.351  12.223  0.4333  0.5187 -0.6801
  834MPD2    C112312   2.614   3.456  12.132 -0.3338 -0.0368 -0.4494
  834MPD2    C212313   2.702   3.562  12.138  0.3201 -0.2923 -0.5305
  834MPD2    C312314   2.790   3.577  12.243 -0.2238  0.0967  0.3597
  834MPD2    C412315   2.789   3.482  12.343 -0.2059  0.1002 -0.3060
  834MPD2    C512316   2.708   3.369  12.327  0.4312 -0.0717 -0.1170
  834MPD2     H12317   2.695   3.639  12.062 -1.5056  0.0794  0.0030
  834MPD2    H112318   2.850   3.488  12.431  1.4758 -0.5780 -1.4321
  834MPD2    H212319   2.554   3.270  12.230  1.2967 -0.2655 -0.9958
  834MPD2    H312320   2.692   3.304  12.411 -0.6494  1.1688  0.6307
  834MPD2     N12321   2.872   3.690  12.255 -0.2344 -0.0667  0.1541
  834MPD2    H512322   2.953   3.681  12.315 -1.1973  1.4935  1.7095
  834MPD2    N112323   2.520   3.444  12.023  0.2394 -0.5466  0.0126
  834MPD2    H712324   2.475   3.354  12.030 -0.9378  0.0317 -0.0953
  835MPD2     C12325   2.076   1.830  11.026  0.5126  0.2893 -0.2470
  835MPD2    C112326   2.096   1.955  11.085  0.6969  0.3548 -0.2840
  835MPD2    C212327   2.209   1.973  11.163  0.4601  0.2123  0.5598
  835MPD2    C312328   2.299   1.871  11.189 -0.0995 -0.9125  0.7742
  835MPD2    C412329   2.270   1.746  11.138  0.7017 -0.4551  0.3276
  835MPD2    C512330   2.161   1.730  11.058 -0.4105  0.3646  0.0533
  835MPD2     H12331   2.229   2.071  11.205  0.6417 -0.8092  2.8961
  835MPD2    H112332   2.329   1.659  11.167  1.7171  0.3924  0.7892
  835MPD2    H212333   1.994   1.810  10.958  1.0614  0.1167 -0.8532
  835MPD2    H312334   2.143   1.635  11.008  1.7331  0.4983 -0.9729
  835MPD2     N12335   2.401   1.890  11.280 -0.1172 -0.0405  0.1007
  835MPD2    H512336   2.450   1.806  11.310  0.2731 -0.1030 -0.7306
  835MPD2    N112337   2.013   2.062  11.069  0.2000 -0.2946 -0.0600
  835MPD2    H712338   2.038   2.145  11.122  0.5633  0.1620 -0.9471
  836MPD2     C12339   2.230   2.354  11.855  0.5852 -0.1477  0.3474
  836MPD2    C112340   2.258   2.222  11.881  1.1767  0.7552  0.2506
  836MPD2    C212341   2.193   2.161  11.987  0.4350 -0.0478  0.4207
  836MPD2    C312342   2.102   2.238  12.064  0.4275  0.5632  0.1933
  836MPD2    C412343   2.074   2.370  12.042 -0.0098  1.1448 -0.5954
  836MPD2    C512344   2.130   2.421  11.924 -0.0635  0.0662 -0.0007
  836MPD2     H12345   2.218   2.058  12.011 -2.0432 -0.4811  1.1429
  836MPD2    H112346   2.007   2.424  12.108  0.2328  2.4533 -1.4116
  836MPD2    H212347   2.256   2.405  11.763  0.9738 -2.3546 -0.7668
  836MPD2    H312348   2.111   2.524  11.897 -2.2249  0.1167  1.7132
  836MPD2     N12349   2.045   2.181  12.175 -0.2723  0.3022  0.2459
  836MPD2    H512350   1.973   2.229  12.229  0.1265  2.8308 -1.4995
  836MPD2    N112351   2.349   2.172  11.794 -0.6200  0.4311  0.3495
  836MPD2    H712352   2.396   2.242  11.737 -1.9688  1.4265  0.4728
  837MPD2     C12353   0.477   1.475  10.574 -0.0537  0.1161  0.1880
  837MPD2    C112354   0.343   1.487  10.556 -0.2621  0.3477  0.2257
  837MPD2    C212355   0.288   1.614  10.534  0.0339 -0.3127  0.2176
  837MPD2    C312356   0.368   1.726  10.547  0.4065  1.0777  0.6737
  837MPD2    C412357   0.505   1.708  10.574 -0.5785  0.9527 -0.6262
  837MPD2    C512358   0.557   1.583  10.580 -1.1730 -0.4939 -0.1724
  837MPD2     H12359   0.183   1.633  10.514 -0.3467  0.2980  2.7082
  837MPD2    H112360   0.572   1.791  10.593 -1.2195  1.1778  0.6960
  837MPD2    H212361   0.517   1.376  10.592  0.8520  0.1012 -1.9678
  837MPD2    H312362   0.664   1.570  10.594 -0.9874  2.5578  1.3308
  837MPD2     N12363   0.320   1.851  10.508  0.4216 -0.6399 -0.2322
  837MPD2    H512364   0.219   1.846  10.511  0.3579  0.5388 -0.2510
  837MPD2    N112365   0.258   1.373  10.531 -0.6937 -0.0265  0.1628
  837MPD2    H712366   0.159   1.392  10.516 -1.0397  1.2564  3.9797
  838MPD2     C12367   3.976   4.413  12.473 -0.6848 -0.0096  0.3189
  838MPD2    C112368   3.875   4.378  12.391 -0.3691 -0.1503 -0.1835
  838MPD2    C212369   3.770   4.313  12.459 -0.1989  0.8899  0.1383
  838MPD2    C312370   3.763   4.278  12.588 -0.5056 -0.0658  0.3089
  838MPD2    C412371   3.868   4.317  12.667  0.1610 -0.0906  0.2801
  838MPD2    C512372   3.968   4.384  12.608  0.3208  0.4669 -0.9447
  838MPD2     H12373   3.680   4.292  12.403 -0.7274  0.3940  1.1829
  838MPD2    H112374   3.877   4.302  12.773 -0.6265  2.8851  0.7652
  838MPD2    H212375   4.061   4.471  12.440  0.1169 -1.6482 -0.4877
  838MPD2    H312376   4.045   4.421  12.674 -0.6995  1.2464 -0.1941
  838MPD2     N12377   3.644   4.230  12.644  0.6256  0.3915 -0.0807
  838MPD2    H512378   3.564   4.257  12.587  0.7523  0.3262 -0.2884
  838MPD2    N112379   3.881   4.381  12.254 -0.1740  0.0332 -0.5632
  838MPD2    H712380   3.797   4.359  12.202  1.2314 -3.0582 -1.5760
  839MPD2     C12381   3.521   3.729  12.077  0.7665  0.4475  0.7995
  839MPD2    C112382   3.533   3.765  11.946  1.0928 -0.2780  0.4902
  839MPD2    C212383   3.624   3.862  11.910 -0.3545 -0.0388 -0.2251
  839MPD2    C312384   3.685   3.939  12.007 -0.0491 -0.0115  0.1290
  839MPD2    C412385   3.680   3.902  12.139 -0.5968 -0.2852 -0.0314
  839MPD2    C512386   3.595   3.798  12.172  0.1949 -0.3021 -0.3851
  839MPD2     H12387   3.630   3.884  11.804  0.7543 -0.4499 -0.2371
  839MPD2    H112388   3.738   3.956  12.213 -0.8605 -0.8158  0.5639
  839MPD2    H212389   3.457   3.649  12.113 -1.9768  1.6387 -1.3916
  839MPD2    H312390   3.574   3.778  12.277  1.5474  1.7495  0.2707
  839MPD2     N12391   3.773   4.051  11.982  0.6695  0.3248  0.6494
  839MPD2    H512392   3.827   4.090  12.058  2.0475 -0.4961  0.0974
  839MPD2    N112393   3.462   3.700  11.849  0.3693  0.3072 -0.9002
  839MPD2    H712394   3.502   3.691  11.756  0.6176 -0.7291 -0.6967
  840MPD2     C12395   3.819   1.515  10.657 -0.0353 -0.4495 -0.3090
  840MPD2    C112396   3.756   1.593  10.755  0.6490  0.0489 -0.0372
  840MPD2    C212397   3.822   1.715  10.788  0.0568 -0.1707 -0.9518
  840MPD2    C312398   3.950   1.746  10.740  0.6362 -0.0441 -0.1274
  840MPD2    C412399   4.006   1.662  10.650  0.3133  0.5770 -0.2792
  840MPD2    C512400   3.944   1.546  10.613  0.1592  0.5924  0.2864
  840MPD2     H12401   3.778   1.793  10.849 -0.1929 -1.0396 -0.0309
  840MPD2    H112402   4.105   1.679  10.612  1.3077 -0.2454  1.9243
  840MPD2    H212403   3.774   1.421  10.627 -2.6462  0.0612  1.9338
  840MPD2    H312404   3.987   1.474  10.544 -2.4138  0.0178 -0.7107
  840MPD2     N12405   4.015   1.864  10.787  0.1931 -0.4181  0.4251
  840MPD2    H512406   4.091   1.902  10.731 -1.2594  0.9093 -0.6693
  840MPD2    N112407   3.637   1.544  10.806 -0.9927  0.1223  0.0008
  840MPD2    H712408   3.598   1.461  10.763  1.1107 -0.3472 -1.0213
  841MPD2     C12409   2.960   1.838  14.956 -0.6692  0.4154  0.0094
  841MPD2    C112410   3.016   1.798  14.831 -0.1112  0.8693  0.1678
  841MPD2    C212411   3.148   1.812  14.814 -0.8071  0.2140  0.0206
  841MPD2    C312412   3.234   1.868  14.906  0.1272  0.4024  0.1699
  841MPD2    C412413   3.180   1.934  15.009 -0.5710 -0.0937 -0.3229
  841MPD2    C512414   3.048   1.915  15.040 -0.0753 -0.0645 -0.1374
  841MPD2     H12415   3.186   1.761  14.726  0.7866  1.1143  0.1746
  841MPD2    H112416   3.244   1.978  15.085  1.1437 -1.8229 -0.7706
  841MPD2    H212417   2.857   1.818  14.981 -1.1121  1.2883 -1.1001
  841MPD2    H312418   3.017   1.960  15.133 -1.0599 -0.9768 -0.0292
  841MPD2     N12419   3.371   1.858  14.878 -0.2931 -0.3176  0.4563
  841MPD2    H512420   3.409   1.794  14.809 -1.3586 -0.5815  0.1005
  841MPD2    N112421   2.947   1.736  14.724 -0.3742  0.2108  0.1447
  841MPD2    H712422   3.011   1.709  14.651 -2.1367  0.0930 -1.3377
  842MPD2     C12423   3.853   2.774  16.736 -0.2836  0.1000  0.2891
  842MPD2    C112424   3.714   2.750  16.733  0.1358 -0.0297 -0.0269
  842MPD2    C212425   3.648   2.723  16.852  0.1100  0.2839 -0.3899
  842MPD2    C312426   3.719   2.714  16.972  0.0893  0.8535 -0.0477
  842MPD2    C412427   3.860   2.721  16.964  0.4407  0.5033  0.2550
  842MPD2    C512428   3.923   2.753  16.850  0.2402  0.1129 -0.2634
  842MPD2     H12429   3.540   2.709  16.853 -0.1725  2.2524 -3.1042
  842MPD2    H112430   3.923   2.705  17.051 -0.7602  0.0048  1.0376
  842MPD2    H212431   3.908   2.820  16.654 -0.6962 -0.1658 -0.1395
  842MPD2    H312432   4.031   2.766  16.856  0.2751 -0.0965 -0.4422
  842MPD2     N12433   3.658   2.694  17.099 -0.1104  0.3144 -0.1295
  842MPD2    H512434   3.725   2.699  17.175 -0.2894 -0.0975  0.0572
  842MPD2    N112435   3.648   2.772  16.611  0.3199 -0.0556 -0.1945
  842MPD2    H712436   3.712   2.817  16.547 -0.8386  1.0589 -0.5656
  843MPD2     C12437   0.960   4.295   0.259 -0.8983  0.4670 -0.1219
  843MPD2    C112438   1.006   4.204   0.350  0.6855  0.0545  0.9175
  843MPD2    C212439   1.115   4.232   0.427 -0.1357 -0.6700 -0.6856
  843MPD2    C312440   1.170   4.359   0.422 -0.4585 -0.5579 -0.9300
  843MPD2    C412441   1.132   4.448   0.322 -0.5503 -0.1164 -0.5151
  843MPD2    C512442   1.030   4.419   0.242 -0.3200  0.0738 -0.8117
  843MPD2     H12443   1.166   4.152   0.480  0.3833  0.4878  0.5704
  843MPD2    H112444   1.183   4.542   0.303 -1.0193  0.6702  2.0719
  843MPD2    H212445   0.880   4.278   0.188  0.0668 -1.2551 -0.7923
  843MPD2    H312446   0.996   4.480   0.158 -1.1159  1.9129  0.8433
  843MPD2     N12447   1.277   4.395   0.500 -0.2413 -0.1539  0.2633
  843MPD2    H512448   1.313   4.489   0.484  1.0946 -0.4871  1.3286
  843MPD2    N112449   0.953   4.073   0.344  0.4159 -0.6328 -0.1811
  843MPD2    H712450   0.887   4.059   0.267 -1.6736 -1.7168  1.8206
  844MPD2     C12451   4.515   2.997  16.582 -0.1079  0.3031 -0.0202
  844MPD2    C112452   4.606   2.900  16.621 -0.9891  0.3572 -0.1059
  844MPD2    C212453   4.709   2.930  16.699  0.0699 -0.4698  0.6981
  844MPD2    C312454   4.726   3.061  16.746 -0.0757 -0.2829  0.2224
  844MPD2    C412455   4.635   3.157  16.717 -0.8096 -0.6128 -0.3707
  844MPD2    C512456   4.527   3.124  16.637 -0.4077 -0.1846  0.3685
  844MPD2     H12457   0.052   2.862  16.720 -0.0034  0.0047  2.4975
  844MPD2    H112458   4.648   3.256  16.757  3.1957 -0.2431 -2.6630
  844MPD2    H212459   4.441   2.989  16.504 -1.0880 -0.6464  0.9982
  844MPD2    H312460   4.457   3.203  16.613 -0.7669 -0.2998  1.0394
  844MPD2     N12461   0.103   3.083  16.832 -0.0112 -0.5743 -0.0286
  844MPD2    H512462   0.168   3.006  16.838 -0.4889 -1.0710 -1.1807
  844MPD2    N112463   4.593   2.772  16.562 -0.1268 -0.1012 -0.0015
  844MPD2    H712464   4.512   2.765  16.502 -0.0459  1.5302 -0.3096
  845MPD2     C12465   4.688   3.555  17.428  0.1739 -0.1696  0.1557
  845MPD2    C112466   4.641   3.497  17.309 -0.1397  0.4007  0.0701
  845MPD2    C212467   4.737   3.462  17.223 -0.3410 -0.7750  0.8868
  845MPD2    C312468   0.133   3.485  17.251 -0.7085 -0.6859  0.8429
  845MPD2    C412469   0.178   3.547  17.367  0.0533  0.9480 -0.2989
  845MPD2    C512470   0.082   3.590  17.454 -0.3045 -0.4825  0.4472
  845MPD2     H12471   4.709   3.427  17.124  0.1360 -1.1669  0.8930
  845MPD2    H112472   0.282   3.571  17.387  0.5244 -0.4474 -1.1241
  845MPD2    H212473   4.620   3.580  17.509 -0.4340  0.9163 -0.6818
  845MPD2    H312474   0.118   3.634  17.546  0.1145  0.3326 -0.1082
  845MPD2     N12475   0.224   3.430  17.164  0.2413  0.4562 -0.1359
  845MPD2    H512476   0.185   3.381  17.084 -2.9204  2.5681  0.1015
  845MPD2    N112477   4.503   3.460  17.275  0.3651  0.3689  0.5423
  845MPD2    H712478   4.477   3.417  17.187 -0.6549  3.0218 -0.4543
  846MPD2     C12479   1.841   3.378  14.171  0.1580  0.4718 -0.0139
  846MPD2    C112480   1.740   3.421  14.088  0.0732  0.8438  0.0397
  846MPD2    C212481   1.649   3.512  14.134  0.6770  0.4682 -0.0654
  846MPD2    C312482   1.654   3.566  14.263  0.2940  0.5485  0.0439
  846MPD2    C412483   1.756   3.524  14.343  0.4287 -0.3777 -0.0693
  846MPD2    C512484   1.849   3.432  14.295 -0.1513 -0.7344  0.1015
  846MPD2     H12485   1.569   3.547  14.070  1.6238 -1.4950 -2.3214
  846MPD2    H112486   1.775   3.570  14.439 -3.0145  1.1173 -0.1002
  846MPD2    H212487   1.912   3.305  14.133 -1.0453  0.0598 -1.4972
  846MPD2    H312488   1.934   3.405  14.357 -0.0930  0.2205  0.4387
  846MPD2     N12489   1.563   3.670  14.298 -0.4724  0.0469 -0.2655
  846MPD2    H512490   1.497   3.693  14.224  0.0157  0.2697 -0.6294
  846MPD2    N112491   1.716   3.381  13.957 -0.0732  0.1842  0.5035
  846MPD2    H712492   1.632   3.419  13.915 -0.7376  0.1772  1.8477
  847MPD2     C12493   2.197   0.363  14.530 -0.4032 -0.0450  0.2799
  847MPD2    C112494   2.105   0.463  14.559 -0.6387  0.5137 -0.8126
  847MPD2    C212495   2.071   0.486  14.694 -0.2061  0.4329  0.0098
  847MPD2    C312496   2.107   0.400  14.793 -0.1174 -0.8397  0.0901
  847MPD2    C412497   2.195   0.296  14.763  0.3807  0.2117 -0.0176
  847MPD2    C512498   2.240   0.283  14.635  0.1700 -0.0293 -0.2978
  847MPD2     H12499   1.984   0.546  14.718  0.7196  1.9652 -0.4809
  847MPD2    H112500   2.229   0.224  14.837 -0.4505  1.1287  1.2568
  847MPD2    H212501   2.238   0.336  14.433 -0.9739 -0.6478  0.2067
  847MPD2    H312502   2.317   0.210  14.614  0.4956 -0.3113  1.9445
  847MPD2     N12503   2.057   0.422  14.922 -0.2708 -0.0233 -0.1472
  847MPD2    H512504   2.003   0.507  14.935  0.4188  0.3550  0.2455
  847MPD2    N112505   2.018   0.529  14.458  0.3063  0.0597  0.0992
  847MPD2    H712506   1.957   0.604  14.488  0.0885 -0.4442  0.9143
  848MPD2     C12507   4.334   2.549  16.299  0.0594 -0.6831 -0.3898
  848MPD2    C112508   4.316   2.638  16.400  0.2421  0.3870 -0.1421
  848MPD2    C212509   4.302   2.776  16.369 -0.5314  0.7054  0.7153
  848MPD2    C312510   4.289   2.820  16.236  0.1681 -0.0235 -0.3188
  848MPD2    C412511   4.301   2.724  16.134 -0.2483  0.0427 -0.4395
  848MPD2    C512512   4.315   2.592  16.168 -0.8298 -0.1972 -0.9657
  848MPD2     H12513   4.308   2.851  16.446  1.0937 -0.8915  2.1362
  848MPD2    H112514   4.276   2.753  16.033  1.6873 -1.2913 -1.3078
  848MPD2    H212515   4.353   2.443  16.313  2.0891 -0.0429  1.7624
  848MPD2    H312516   4.322   2.516  16.091  0.0316 -0.0801 -1.0000
  848MPD2     N12517   4.284   2.956  16.188  0.7532  0.0492 -0.3093
  848MPD2    H512518   4.281   2.971  16.088  2.0121  0.5736 -0.2694
  848MPD2    N112519   4.307   2.599  16.535 -0.4780 -0.8158 -0.0160
  848MPD2    H712520   4.289   2.669  16.606  0.9830  1.3717 -1.8329
  849MPD2     C12521   3.196   2.656  14.033  0.2309 -0.2270  0.9173
  849MPD2    C112522   3.316   2.682  13.982 -0.6138  0.1724 -0.1805
  849MPD2    C212523   3.431   2.628  14.050 -0.4529  0.8600 -0.1278
  849MPD2    C312524   3.416   2.549  14.165 -0.1210 -0.8507  0.7565
  849MPD2    C412525   3.295   2.548  14.229 -0.1354  0.5280  0.2369
  849MPD2    C512526   3.184   2.587  14.151  0.4478 -0.3099  0.3691
  849MPD2     H12527   3.529   2.649  14.010 -0.8664 -1.1263 -2.2582
  849MPD2    H112528   3.273   2.495  14.321  1.2442  0.6177  0.6045
  849MPD2    H212529   3.118   2.678  13.961 -1.6712 -0.3194  2.9426
  849MPD2    H312530   3.084   2.561  14.186  0.2549 -4.0464 -2.9154
  849MPD2     N12531   3.527   2.481  14.227  0.3464 -0.0112  0.3262
  849MPD2    H512532   3.514   2.430  14.314 -1.3169 -0.6675 -0.3192
  849MPD2    N112533   3.332   2.751  13.854  0.2795  0.3575  0.5273
  849MPD2    H712534   3.250   2.774  13.799 -0.2579  0.3536  1.3208
  850MPD2     C12535   2.221   0.325  15.406  0.1676  0.2958  0.5148
  850MPD2    C112536   2.116   0.402  15.451 -0.5360 -0.4200 -0.3856
  850MPD2    C212537   2.127   0.542  15.468  0.4133 -0.1592 -0.0315
  850MPD2    C312538   2.244   0.601  15.431 -0.0441 -0.2780 -0.6794
  850MPD2    C412539   2.351   0.525  15.381  0.5359 -0.4334  0.1438
  850MPD2    C512540   2.337   0.391  15.371 -1.0696  0.2617  0.2267
  850MPD2     H12541   2.058   0.604  15.524  4.8198  1.6443  3.3966
  850MPD2    H112542   2.444   0.573  15.351  0.0317  2.3483  3.0238
  850MPD2    H212543   2.210   0.218  15.397 -1.1316  0.4160  0.7500
  850MPD2    H312544   2.419   0.340  15.321 -1.2264 -0.8228  1.0790
  850MPD2     N12545   2.263   0.740  15.432 -1.1121  0.4180 -0.8044
  850MPD2    H512546   2.351   0.775  15.396 -0.9707  0.1358 -0.7349
  850MPD2    N112547   2.000   0.338  15.504  0.5795  0.1968  0.0279
  850MPD2    H712548   2.000   0.236  15.507  1.8948  0.2327  1.3791
  851MPD2     C12549   2.062   4.499  15.718  0.0246  0.6260 -0.2824
  851MPD2    C112550   1.943   4.533  15.661 -0.9998 -0.4052  0.2343
  851MPD2    C212551   1.881   4.432  15.581 -0.2178 -0.7744 -0.9450
  851MPD2    C312552   1.932   4.305  15.560 -0.2675 -0.6449 -0.4417
  851MPD2    C412553   2.053   4.275  15.618 -0.0966  0.4767  0.5564
  851MPD2    C512554   2.111   4.373  15.698 -0.9519 -0.4133 -0.3702
  851MPD2     H12555   1.790   4.463  15.532 -1.8989 -2.2738  1.2090
  851MPD2    H112556   2.099   4.177  15.608 -0.9423  0.0860  0.5059
  851MPD2    H212557   2.128   4.566  15.773  0.2362 -0.5056  0.8726
  851MPD2    H312558   2.208   4.349  15.741 -0.9187 -0.8269 -0.6725
  851MPD2     N12559   1.868   4.209  15.476 -0.1524 -0.2002  0.0809
  851MPD2    H512560   1.787   4.242  15.424  1.1813 -1.4971 -2.8403
  851MPD2    N112561   1.881   4.663  15.681 -0.3643 -0.1249  0.2682
  851MPD2    H712562   1.938   4.734  15.724  0.0210 -1.5171  2.0627
  852MPD2     C12563   0.923   3.668  10.301  0.4689 -0.2894 -0.8606
  852MPD2    C112564   0.960   3.663  10.438  1.0734  1.1428  0.4471
  852MPD2    C212565   1.091   3.691  10.477  0.8858 -0.4193  0.2941
  852MPD2    C312566   1.189   3.722  10.381  0.8036 -0.0046 -0.1539
  852MPD2    C412567   1.152   3.728  10.253 -0.0350 -0.7864  0.0133
  852MPD2    C512568   1.021   3.704  10.209  0.1869  0.4203  0.8963
  852MPD2     H12569   1.122   3.681  10.580  0.3014 -2.1159  0.3056
  852MPD2    H112570   1.216   3.759  10.172  0.3485 -1.1078  0.1977
  852MPD2    H212571   0.826   3.649  10.258  0.5573  2.1681 -2.2197
  852MPD2    H312572   0.994   3.718  10.105  2.1098 -0.0283  0.3212
  852MPD2     N12573   1.321   3.758  10.430  0.0330  0.3119  0.6113
  852MPD2    H512574   1.337   3.763  10.530 -2.4806 -1.5354  1.1161
  852MPD2    N112575   0.873   3.631  10.546 -0.4168 -0.2007  0.1512
  852MPD2    H712576   0.927   3.623  10.633  1.7233 -1.0682 -1.2498
  853MPD2     C12577   3.584   3.008  12.348  0.1299 -0.4885 -0.9718
  853MPD2    C112578   3.445   3.001  12.365  0.1466  0.2544 -0.4153
  853MPD2    C212579   3.368   2.947  12.260  0.1003  0.2446 -0.7069
  853MPD2    C312580   3.430   2.914  12.141 -0.1892 -0.0365  0.2238
  853MPD2    C412581   3.565   2.926  12.129  0.1854 -0.2914  0.3369
  853MPD2    C512582   3.637   2.964  12.237 -0.0940 -0.4005  0.5678
  853MPD2     H12583   3.268   2.912  12.284  1.0720 -2.3361 -0.4068
  853MPD2    H112584   3.621   2.898  12.041 -2.8161  0.8371 -1.9096
  853MPD2    H212585   3.647   3.043  12.429 -2.2522 -3.3714  2.1439
  853MPD2    H312586   3.746   2.961  12.229 -0.3156 -1.0592 -2.0773
  853MPD2     N12587   3.363   2.847  12.034 -0.1222 -0.2434  0.0420
  853MPD2    H512588   3.422   2.810  11.960 -0.4532 -0.1060 -0.2874
  853MPD2    N112589   3.394   3.058  12.486 -1.1246 -0.6747  0.0988
  853MPD2    H712590   3.461   3.112  12.538 -1.1279 -0.7717  0.2038
  854MPD2     C12591   4.313   3.432  13.503  0.0028 -0.5477  0.0035
  854MPD2    C112592   4.407   3.455  13.405 -0.5315 -0.2771  0.1521
  854MPD2    C212593   4.524   3.384  13.415 -0.0891 -0.1877  0.4621
  854MPD2    C312594   4.563   3.305  13.518 -0.1709 -0.1825  0.8423
  854MPD2    C412595   4.467   3.280  13.607 -0.3243  0.3637 -0.0283
  854MPD2    C512596   4.338   3.337  13.593 -0.3490  0.0616  0.1084
  854MPD2     H12597   4.603   3.404  13.343 -0.6662  0.0470 -0.0995
  854MPD2    H112598   4.484   3.217  13.694  0.1919  1.2814  0.5310
  854MPD2    H212599   4.213   3.475  13.507  0.8864  1.2078  3.0071
  854MPD2    H312600   4.271   3.310  13.673 -0.5935 -0.3915 -0.2465
  854MPD2     N12601   4.689   3.241  13.534 -0.0382 -0.0975  0.2202
  854MPD2    H512602   4.706   3.191  13.621  0.7491 -2.0323 -1.0304
  854MPD2    N112603   4.375   3.545  13.297 -0.1652 -0.3610  0.1832
  854MPD2    H712604   4.302   3.615  13.311 -0.1285 -0.4353  0.7558
  855MPD2     C12605   0.300   2.883  14.205 -0.4752 -0.5935 -0.1186
  855MPD2    C112606   0.358   2.786  14.115 -0.3488 -0.5567  0.1899
  855MPD2    C212607   0.346   2.813  13.977 -1.0160 -0.3795 -1.2832
  855MPD2    C312608   0.273   2.923  13.933  0.1096  0.1230 -0.0010
  855MPD2    C412609   0.226   3.014  14.021  0.4457  0.2424  0.1112
  855MPD2    C512610   0.242   2.993  14.157 -0.6314 -0.4798 -0.4577
  855MPD2     H12611   0.397   2.750  13.905  1.5827 -0.0192  0.2398
  855MPD2    H112612   0.170   3.102  13.991 -0.9795 -0.6702  0.0915
  855MPD2    H212613   0.312   2.875  14.313 -0.1241 -1.2814 -0.2130
  855MPD2    H312614   0.217   3.079  14.218  2.2938 -0.9004  1.3397
  855MPD2     N12615   0.256   2.955  13.796 -0.0274 -0.1282 -0.3054
  855MPD2    H512616   0.221   3.050  13.787 -1.3761 -0.6040 -0.0043
  855MPD2    N112617   0.436   2.673  14.153 -0.0879  0.5438  1.2149
  855MPD2    H712618   0.462   2.608  14.079 -1.2849 -0.8583  2.0289
  856MPD2     C12619   2.486   3.717  13.997 -0.2477  0.5418  0.0544
  856MPD2    C112620   2.534   3.846  13.983  0.4093  0.0817  0.2041
  856MPD2    C212621   2.480   3.918  13.876  0.0649 -0.6581  0.7579
  856MPD2    C312622   2.405   3.851  13.780  0.8448  0.5881 -0.2753
  856MPD2    C412623   2.362   3.724  13.799 -0.6661  0.2579 -0.5429
  856MPD2    C512624   2.401   3.655  13.907  0.0561  0.2785  0.4261
  856MPD2     H12625   2.501   4.024  13.866 -2.0370 -0.3686 -0.6483
  856MPD2    H112626   2.280   3.685  13.739 -1.5664  2.5906 -0.8469
  856MPD2    H212627   2.517   3.657  14.081 -2.8389  0.6587  1.0793
  856MPD2    H312628   2.374   3.551  13.919 -0.0486  0.1869 -0.6707
  856MPD2     N12629   2.345   3.922  13.674  0.4139  0.1478 -0.0891
  856MPD2    H512630   2.276   3.869  13.621 -0.2422  1.5974 -0.6784
  856MPD2    N112631   2.627   3.905  14.070  0.0561  0.3149  0.4527
  856MPD2    H712632   2.636   4.006  14.067  0.6456  0.2696  0.5195
  857MPD2     C12633   4.120   1.305  13.088 -0.9172 -0.1138  0.2834
  857MPD2    C112634   4.227   1.265  13.167  0.5954 -0.1045 -0.0739
  857MPD2    C212635   4.285   1.357  13.259  0.2397 -0.2293  0.0241
  857MPD2    C312636   4.242   1.490  13.255 -0.2659  0.8425 -0.8554
  857MPD2    C412637   4.151   1.530  13.162 -0.1841  0.0559  0.6807
  857MPD2    C512638   4.086   1.442  13.084 -0.2411 -0.4521 -0.2658
  857MPD2     H12639   4.363   1.330  13.330  2.2610 -2.4595 -3.0601
  857MPD2    H112640   4.117   1.632  13.151  2.3204  1.0379  1.9014
  857MPD2    H212641   4.072   1.237  13.019  0.6403 -2.7369  1.7856
  857MPD2    H312642   4.017   1.480  13.010 -0.4992 -1.7691 -0.7126
  857MPD2     N12643   4.313   1.582  13.347  0.1440  0.7011  0.2612
  857MPD2    H512644   4.396   1.537  13.384 -0.6952 -1.6320 -0.6661
  857MPD2    N112645   4.269   1.134  13.158 -0.9814  0.2049  0.2476
  857MPD2    H712646   4.222   1.076  13.089  1.3791 -0.8596 -0.4798
  858MPD2     C12647   0.059   0.564  16.685  0.3438 -0.4605  0.1458
  858MPD2    C112648   0.095   0.468  16.773  0.0336  0.0054 -0.7324
  858MPD2    C212649   0.130   0.499  16.901 -0.1766  0.1446  0.5599
  858MPD2    C312650   0.137   0.629  16.938 -0.2832 -0.4998  0.2962
  858MPD2    C412651   0.110   0.729  16.844 -0.3576  0.2429 -0.4610
  858MPD2    C512652   0.056   0.695  16.720 -0.2462  1.3149  0.1941
  858MPD2     H12653   0.150   0.415  16.967 -1.0891 -1.1492 -0.8131
  858MPD2    H112654   0.108   0.832  16.877  1.6117 -0.4587  1.7628
  858MPD2    H212655   0.038   0.545  16.580 -1.3639 -0.7695  0.5301
  858MPD2    H312656   0.044   0.771  16.643 -0.6814  0.8872 -0.1564
  858MPD2     N12657   0.151   0.676  17.076  0.7018  0.2888 -0.1663
  858MPD2    H512658   0.159   0.776  17.085  0.1560  0.3278 -0.0713
  858MPD2    N112659   0.104   0.331  16.729 -0.3148 -0.1426  0.7169
  858MPD2    H712660   0.147   0.265  16.794 -1.2807 -2.0897 -0.6096
  859MPD2     C12661   3.218   2.513  15.795 -0.1680 -0.3928 -0.1627
  859MPD2    C112662   3.307   2.443  15.715  0.0425  0.1563 -0.1240
  859MPD2    C212663   3.351   2.319  15.757 -0.9229  0.3129  0.3587
  859MPD2    C312664   3.301   2.267  15.873  0.1906  0.1935 -0.7961
  859MPD2    C412665   3.215   2.335  15.951 -0.2528  0.3646 -0.3243
  859MPD2    C512666   3.189   2.462  15.920  0.2450  0.5986  0.2383
  859MPD2     H12667   3.409   2.266  15.683 -0.4712 -1.9865  2.3407
  859MPD2    H112668   3.193   2.299  16.051  0.5996  0.2615 -0.1749
  859MPD2    H212669   3.191   2.615  15.770 -0.1999 -0.6109 -1.0414
  859MPD2    H312670   3.138   2.521  15.996 -2.3229 -2.3542  0.8015
  859MPD2     N12671   3.344   2.137  15.920 -0.0678 -0.0152 -0.0305
  859MPD2    H512672   3.282   2.085  15.982 -0.8445  0.6221 -0.2690
  859MPD2    N112673   3.351   2.487  15.588 -0.1628 -0.2030 -0.3916
  859MPD2    H712674   3.432   2.436  15.553  0.1710  0.2476 -0.2751
  860MPD2     C12675   0.679   3.297  12.029 -0.1191  0.0879 -0.1042
  860MPD2    C112676   0.680   3.281  12.162 -0.0341  0.2072  0.1458
  860MPD2    C212677   0.573   3.329  12.232  0.0770 -0.1339  0.6674
  860MPD2    C312678   0.476   3.396  12.166 -0.6042  0.8980 -0.3985
  860MPD2    C412679   0.477   3.414  12.030  0.0536 -0.1234 -0.4044
  860MPD2    C512680   0.585   3.366  11.962  0.5619 -0.1062  0.4303
  860MPD2     H12681   0.565   3.315  12.340  1.9822 -0.0098  0.8357
  860MPD2    H112682   0.405   3.466  11.968 -1.6718 -0.0808  1.6676
  860MPD2    H212683   0.757   3.255  11.965 -0.1235  0.7697 -0.5578
  860MPD2    H312684   0.585   3.375  11.854  1.5665 -1.4064  0.3162
  860MPD2     N12685   0.368   3.438  12.244 -0.5002  0.3346  0.0092
  860MPD2    H512686   0.364   3.396  12.337 -2.1584 -0.9107 -0.6273
  860MPD2    N112687   0.782   3.220  12.235 -0.1476 -0.3986 -0.2491
  860MPD2    H712688   0.761   3.220  12.335 -2.9833  1.1706 -0.8546
  861MPD2     C12689   0.176   1.338  11.419  0.6569 -0.3178  0.4872
  861MPD2    C112690   0.067   1.267  11.473  0.9516 -0.2706  0.5038
  861MPD2    C212691   4.684   1.271  11.405  0.6516  0.9153  0.4588
  861MPD2    C312692   4.672   1.357  11.293  0.3964 -0.2854 -0.0224
  861MPD2    C412693   0.041   1.427  11.247  0.1800  0.6007  0.6852
  861MPD2    C512694   0.167   1.408  11.309  0.2442  0.2042 -0.0661
  861MPD2     H12695   4.604   1.208  11.444 -0.2805  1.0399 -1.2457
  861MPD2    H112696   0.044   1.487  11.157 -1.6186 -0.2081  0.0915
  861MPD2    H212697   0.275   1.337  11.462  1.0980  0.4600 -0.5111
  861MPD2    H312698   0.252   1.458  11.264 -0.7926  2.1126  0.1134
  861MPD2     N12699   4.557   1.359  11.208 -0.0723  0.6434 -0.4491
  861MPD2    H512700   4.556   1.410  11.120 -0.9135  1.5589  0.0799
  861MPD2    N112701   0.065   1.201  11.597  0.8325  0.2027  0.1740
  861MPD2    H712702   4.716   1.161  11.627 -0.2169 -1.1940 -4.7571
  862MPD2     C12703   4.327   1.148  10.622  0.4803  0.1075 -0.2532
  862MPD2    C112704   4.251   1.163  10.739  0.6240 -0.2428 -0.2081
  862MPD2    C212705   4.217   1.053  10.812 -0.0154  0.2805  0.7477
  862MPD2    C312706   4.255   0.927  10.769 -0.7313 -0.2222 -0.1285
  862MPD2    C412707   4.342   0.918  10.664 -0.5382  0.3661  0.3174
  862MPD2    C512708   4.373   1.029  10.587 -0.0260  0.1620 -0.0877
  862MPD2     H12709   4.153   1.076  10.896  0.5197  3.0037  0.3987
  862MPD2    H112710   4.374   0.819  10.636 -0.5755  0.2885  0.5491
  862MPD2    H212711   4.356   1.237  10.567  0.4763  0.8352  0.9200
  862MPD2    H312712   4.443   1.009  10.507  0.6415 -1.2652  0.8341
  862MPD2     N12713   4.234   0.816  10.854  0.1072  0.2571 -0.0511
  862MPD2    H512714   4.294   0.736  10.837  1.4608  1.6200 -1.7044
  862MPD2    N112715   4.211   1.283  10.795 -0.1259 -0.0902 -0.4413
  862MPD2    H712716   4.146   1.276  10.872  0.3818 -0.0499 -0.0072
  863MPD2     C12717   2.858   3.909  17.260 -0.1115  0.1560 -0.1864
  863MPD2    C112718   2.967   3.967  17.187  0.6256 -0.6969  0.1392
  863MPD2    C212719   3.099   3.962  17.238 -0.1564 -0.8469 -0.3747
  863MPD2    C312720   3.121   3.902  17.359  0.0724 -0.1300 -0.6679
  863MPD2    C412721   3.017   3.839  17.419 -0.7778  0.1370  0.0770
  863MPD2    C512722   2.887   3.839  17.372  0.0425 -0.2240  0.3004
  863MPD2     H12723   3.178   4.002  17.176 -1.2481  0.9829 -0.5725
  863MPD2    H112724   3.033   3.787  17.512  2.1993  1.0629  0.1021
  863MPD2    H212725   2.760   3.907  17.213 -0.8029 -0.0095  1.2602
  863MPD2    H312726   2.812   3.788  17.430 -1.0709  1.4632  0.3523
  863MPD2     N12727   3.252   3.890  17.422  0.0428 -0.1494  0.6194
  863MPD2    H512728   3.273   3.823  17.495 -1.6825  0.7721  1.9490
  863MPD2    N112729   2.928   4.023  17.068  0.2675 -0.4447  0.0198
  863MPD2    H712730   2.830   4.049  17.061 -0.1369 -1.0854  3.2081
  864MPD2     C12731   3.576   0.885  17.544 -0.2292 -0.5347  0.0932
  864MPD2    C112732   3.640   0.778  17.489 -0.3090 -0.2583  0.1797
  864MPD2    C212733   3.719   0.797  17.384 -0.3660  0.6118 -0.3436
  864MPD2    C312734   3.725   0.924  17.328 -0.0751  0.3213 -0.2614
  864MPD2    C412735   3.656   1.025  17.378  0.2056  0.3639  1.4590
  864MPD2    C512736   3.585   1.013  17.495 -0.4198  0.0625  0.4016
  864MPD2     H12737   3.776   0.719  17.336 -1.3069  1.1977 -2.4319
  864MPD2    H112738   3.681   1.125  17.342  2.0629  0.4378  2.9627
  864MPD2    H212739   3.511   0.870  17.630  0.3921 -2.6639  0.1740
  864MPD2    H312740   3.544   1.104  17.538 -0.5184  0.3203 -0.2244
  864MPD2     N12741   3.790   0.957  17.209 -0.1331 -0.6283 -0.7602
  864MPD2    H512742   3.771   1.050  17.174  0.4344 -0.4690 -0.6526
  864MPD2    N112743   3.611   0.657  17.544  0.0853 -0.1245 -0.0957
  864MPD2    H712744   3.555   0.653  17.628 -2.2885  0.3298 -1.6585
  865MPD2     C12745   3.976   1.009  16.373 -0.6219 -0.2711 -0.7092
  865MPD2    C112746   3.933   0.942  16.483 -0.4110  0.4636 -0.4175
  865MPD2    C212747   3.875   1.010  16.590 -0.5488 -0.5341  0.4621
  865MPD2    C312748   3.855   1.150  16.574 -0.0060 -0.5252  0.3936
  865MPD2    C412749   3.890   1.207  16.453 -0.6171 -0.4588 -0.3249
  865MPD2    C512750   3.959   1.141  16.355  0.1966  0.2261 -0.3929
  865MPD2     H12751   3.846   0.957  16.680 -1.9249 -0.7545 -0.1127
  865MPD2    H112752   3.880   1.314  16.436 -0.6369 -0.4915 -0.5205
  865MPD2    H212753   4.014   0.952  16.289  1.0248  0.0348 -0.1588
  865MPD2    H312754   3.981   1.190  16.261  0.2177  0.3670 -0.3151
  865MPD2     N12755   3.801   1.236  16.670 -0.9297 -0.0128 -0.0479
  865MPD2    H512756   3.766   1.323  16.633 -3.2654 -1.1461 -0.5153
  865MPD2    N112757   3.945   0.800  16.472 -0.6372  0.7573  0.2589
  865MPD2    H712758   3.983   0.762  16.386 -1.3881 -0.0315  0.2738
  866MPD2     C12759   0.583   1.659  11.692 -0.4380 -0.4468 -0.6390
  866MPD2    C112760   0.523   1.629  11.572  0.0786 -0.1770  0.2084
  866MPD2    C212761   0.392   1.647  11.560 -1.0201 -0.0765  0.9087
  866MPD2    C312762   0.317   1.690  11.664 -1.0588 -0.0816 -0.7604
  866MPD2    C412763   0.369   1.685  11.785 -0.5415  0.0719  0.0000
  866MPD2    C512764   0.501   1.678  11.796  0.2805 -0.0870  0.1128
  866MPD2     H12765   0.349   1.640  11.461  1.6338 -3.5121 -0.0051
  866MPD2    H112766   0.317   1.719  11.874  0.2073  0.7383  0.1770
  866MPD2    H212767   0.687   1.634  11.711 -0.0959  1.1672 -0.3724
  866MPD2    H312768   0.540   1.703  11.894 -0.3227 -1.7740  0.7945
  866MPD2     N12769   0.182   1.720  11.652  0.3299  0.6247 -0.1767
  866MPD2    H512770   0.130   1.732  11.738 -1.2992 -1.6629 -0.8434
  866MPD2    N112771   0.602   1.563  11.477 -0.7207 -0.6410 -0.3914
  866MPD2    H712772   0.697   1.539  11.505 -0.4403  0.5615 -0.2782
  867MPD2     C12773   2.672   0.458  16.860  0.0845 -0.1574 -0.7793
  867MPD2    C112774   2.714   0.371  16.960 -0.5775  0.7805  0.4016
  867MPD2    C212775   2.779   0.429  17.069 -0.3996 -0.4984  0.6213
  867MPD2    C312776   2.786   0.560  17.098 -0.1389  0.1883 -0.0712
  867MPD2    C412777   2.750   0.645  16.992 -0.0599 -0.5162 -0.5403
  867MPD2    C512778   2.707   0.594  16.876 -0.1084  0.0629  0.0801
  867MPD2     H12779   2.804   0.361  17.150  2.4651  1.4885  1.4099
  867MPD2    H112780   2.755   0.753  17.004 -1.3657 -0.3445 -1.5497
  867MPD2    H212781   2.624   0.430  16.767  0.8886  0.6274 -1.4371
  867MPD2    H312782   2.686   0.658  16.792 -1.5532  0.7570  0.9655
  867MPD2     N12783   2.830   0.612  17.223  0.5149  0.0081 -0.1805
  867MPD2    H512784   2.833   0.713  17.233 -1.1201 -0.0563  0.8315
  867MPD2    N112785   2.684   0.230  16.942  0.2378 -0.5996 -1.0208
  867MPD2    H712786   2.631   0.195  16.862  1.2313 -2.4813 -0.8410
  868MPD2     C12787   0.223   0.329  13.493  0.4178  0.3261  0.8751
  868MPD2    C112788   0.140   0.222  13.499  0.5388 -1.0550 -0.0609
  868MPD2    C212789   0.057   0.207  13.609 -0.1608 -0.0589  0.3010
  868MPD2    C312790   0.064   0.295  13.717  0.6823  0.4947  0.1719
  868MPD2    C412791   0.147   0.406  13.707 -0.2282 -0.1651 -0.3289
  868MPD2    C512792   0.237   0.423  13.599  0.0430 -0.4379 -0.0500
  868MPD2     H12793   4.734   0.118  13.610 -1.6379  0.9794  0.9823
  868MPD2    H112794   0.163   0.481  13.783 -0.8557 -1.6066  1.2374
  868MPD2    H212795   0.285   0.349  13.407 -2.0599  2.0126 -0.5108
  868MPD2    H312796   0.304   0.506  13.585 -1.1751  0.7799  1.3225
  868MPD2     N12797   4.705   0.273  13.818  0.0904  0.2601  0.2443
  868MPD2    H512798   4.653   0.186  13.809 -1.2044  1.1883 -1.2209
  868MPD2    N112799   0.135   0.147  13.374  0.5947  0.9523  0.1752
  868MPD2    H712800   0.215   0.163  13.314  1.0682  1.0816  0.8432
  869MPD2     C12801   0.850   2.292   0.818  0.0544  0.0135 -0.7284
  869MPD2    C112802   0.886   2.328   0.690  0.6809 -0.1659  0.6487
  869MPD2    C212803   1.009   2.386   0.673 -0.1562  0.2856  0.5135
  869MPD2    C312804   1.069   2.453   0.777  0.2918  0.3593  0.0876
  869MPD2    C412805   1.037   2.412   0.905  0.4577 -0.2766 -0.1752
  869MPD2    C512806   0.929   2.327   0.924  0.6093  0.7671  0.3260
  869MPD2     H12807   1.038   2.408   0.571 -0.8488 -1.4243 -0.0307
  869MPD2    H112808   1.095   2.458   0.984 -1.9610 -2.5880  2.9274
  869MPD2    H212809   0.755   2.243   0.833 -0.9547  1.7195 -1.5885
  869MPD2    H312810   0.899   2.305   1.026  1.1198  2.1561  0.7797
  869MPD2     N12811   1.168   2.551   0.772 -0.3449 -0.0824  0.2240
  869MPD2    H512812   1.188   2.598   0.860 -0.3873  1.8839 -0.8130
  869MPD2    N112813   0.801   2.283   0.585  0.3300 -0.0799  0.6267
  869MPD2    H712814   0.715   2.234   0.605  0.5590 -0.2324  1.2397
  870MPD2     C12815   1.148   0.769   1.640  0.1105  0.1929  0.6871
  870MPD2    C112816   1.257   0.821   1.587  0.1012  0.1224  0.8571
  870MPD2    C212817   1.285   0.951   1.607 -0.9445  0.2307  0.5032
  870MPD2    C312818   1.197   1.034   1.682  0.1827 -0.2560  0.6547
  870MPD2    C412819   1.080   0.974   1.731  0.2764  0.3163 -0.6815
  870MPD2    C512820   1.062   0.843   1.715  0.7527 -0.0880  0.1833
  870MPD2     H12821   1.380   0.987   1.567  0.3029  1.1274  4.3052
  870MPD2    H112822   1.002   1.032   1.779  2.8894  2.5835  0.8506
  870MPD2    H212823   1.111   0.670   1.615  1.2634 -0.2005  0.5661
  870MPD2    H312824   0.972   0.791   1.746 -0.1038  1.3393  0.1315
  870MPD2     N12825   1.217   1.176   1.690 -0.4700  0.0394  0.5984
  870MPD2    H512826   1.307   1.210   1.658 -1.5708  1.1156 -1.2920
  870MPD2    N112827   1.341   0.737   1.499  0.3438  0.5564  0.0755
  870MPD2    H712828   1.303   0.643   1.487 -1.2148  1.6368 -3.7140
  871MPD2     C12829   1.422   0.666  16.689 -0.2990  0.1638 -0.4784
  871MPD2    C112830   1.503   0.669  16.800  0.4732  0.3269 -0.5238
  871MPD2    C212831   1.619   0.595  16.797 -0.2356  0.2837 -0.0580
  871MPD2    C312832   1.658   0.522  16.688  0.4356  0.2234 -0.0745
  871MPD2    C412833   1.578   0.526  16.575  0.1342 -1.5049  0.5788
  871MPD2    C512834   1.463   0.599  16.579  0.3459 -0.5849  0.9469
  871MPD2     H12835   1.689   0.600  16.879  0.8601  1.6033 -1.0722
  871MPD2    H112836   1.601   0.469  16.486  1.6428 -1.6228  1.0435
  871MPD2    H212837   1.328   0.715  16.667  0.3067  1.5738  0.0791
  871MPD2    H312838   1.401   0.588  16.492  0.9936  0.3393  0.3659
  871MPD2     N12839   1.773   0.451  16.693  0.1513 -0.3366 -0.1167
  871MPD2    H512840   1.809   0.439  16.787 -3.4409 -2.0919  1.0215
  871MPD2    N112841   1.460   0.751  16.905  0.1730 -0.1794 -0.1549
  871MPD2    H712842   1.392   0.826  16.893  1.8590  1.5308  0.9114
  872MPD2     C12843   2.172   2.794  14.161 -0.5873  0.1196  0.4632
  872MPD2    C112844   2.156   2.927  14.112  0.3389 -0.0721  0.3845
  872MPD2    C212845   2.039   2.992  14.143  0.1114 -0.9072 -0.3914
  872MPD2    C312846   1.935   2.933  14.212 -0.0208 -0.0147 -0.0801
  872MPD2    C412847   1.955   2.807  14.267 -0.0095  0.0652  0.2519
  872MPD2    C512848   2.075   2.739  14.246  0.7068 -0.6072  0.7493
  872MPD2     H12849   2.032   3.095  14.111  0.2804 -0.4561  1.0227
  872MPD2    H112850   1.876   2.745  14.308 -1.4079  0.1219 -2.3681
  872MPD2    H212851   2.260   2.731  14.153 -1.7881 -1.4353 -0.3779
  872MPD2    H312852   2.077   2.643  14.296  1.8547 -1.4147 -0.8365
  872MPD2     N12853   1.815   3.007  14.228 -0.7189 -0.7317 -0.1998
  872MPD2    H512854   1.806   3.096  14.181 -1.7707 -1.4640 -1.3691
  872MPD2    N112855   2.257   3.001  14.047  0.5145  0.1373 -0.1838
  872MPD2    H712856   2.247   3.101  14.056  1.2717  0.1646  0.4094
  873MPD2     C12857   3.973   2.616   0.717 -1.0022 -0.1622 -0.1039
  873MPD2    C112858   4.039   2.562   0.824 -0.5913  0.2601 -0.5414
  873MPD2    C212859   3.995   2.450   0.893  0.4803 -0.1617 -0.2104
  873MPD2    C312860   3.878   2.391   0.847  0.2072 -0.4538  0.0111
  873MPD2    C412861   3.800   2.449   0.756  0.0987  0.0047 -0.0144
  873MPD2    C512862   3.847   2.559   0.689  0.3111 -0.2742  0.7759
  873MPD2     H12863   4.053   2.412   0.976  0.6754  1.1621  0.2584
  873MPD2    H112864   3.701   2.409   0.734 -0.8352  0.8800  2.6483
  873MPD2    H212865   4.017   2.704   0.671 -1.4142 -0.7296 -1.5889
  873MPD2    H312866   3.785   2.599   0.609  4.5858 -0.1693 -2.4956
  873MPD2     N12867   3.824   2.277   0.903  0.2159  0.4836  0.0672
  873MPD2    H512868   3.748   2.233   0.852  0.1961  0.0247  0.4967
  873MPD2    N112869   4.145   2.644   0.877 -0.1427  0.4312 -0.1338
  873MPD2    H712870   4.168   2.728   0.825 -0.7706 -0.5663 -2.0042
  874MPD2     C12871   3.611   3.282  15.973  0.2180 -0.2619 -0.0911
  874MPD2    C112872   3.675   3.194  16.051  0.5667  0.2142  0.1309
  874MPD2    C212873   3.810   3.201  16.067 -0.0159  0.0892  0.0048
  874MPD2    C312874   3.881   3.282  15.980 -0.3984  0.6816  0.2809
  874MPD2    C412875   3.823   3.361  15.885  0.0066 -0.2266 -0.5732
  874MPD2    C512876   3.687   3.367  15.886 -0.1801 -1.0376 -0.2789
  874MPD2     H12877   3.866   3.141  16.139 -0.5614 -1.4113 -0.8211
  874MPD2    H112878   3.881   3.435  15.829  1.6346  0.3207  1.8269
  874MPD2    H212879   3.504   3.296  15.974  0.3948  1.2019 -1.0842
  874MPD2    H312880   3.638   3.435  15.817 -0.6214  0.1793  1.2496
  874MPD2     N12881   4.020   3.295  16.013 -0.1068  0.0403 -0.0084
  874MPD2    H512882   4.050   3.229  16.084  1.3404  1.1743  0.4221
  874MPD2    N112883   3.601   3.117  16.137 -0.3493 -0.2808  0.8987
  874MPD2    H712884   3.500   3.127  16.135 -0.0569  2.9473  1.4442
  875MPD2     C12885   0.431   1.428  14.903  0.5977  0.2220 -0.0271
  875MPD2    C112886   0.302   1.444  14.949  0.3465 -0.0212 -0.2028
  875MPD2    C212887   0.283   1.474  15.087 -0.0543  0.2875 -0.0859
  875MPD2    C312888   0.397   1.489  15.168 -0.1139 -0.0511 -0.7619
  875MPD2    C412889   0.520   1.474  15.119  0.2171  0.7095 -0.0403
  875MPD2    C512890   0.536   1.451  14.986 -0.3945 -0.6058 -0.7052
  875MPD2     H12891   0.187   1.491  15.134 -0.4931 -0.5378 -0.6829
  875MPD2    H112892   0.605   1.510  15.176  1.0802 -0.9256 -0.3025
  875MPD2    H212893   0.450   1.426  14.796  1.4786  1.5248  0.1024
  875MPD2    H312894   0.636   1.457  14.944 -0.2330  0.2743 -0.2133
  875MPD2     N12895   0.383   1.522  15.305 -0.1984 -1.0353 -0.1919
  875MPD2    H512896   0.472   1.536  15.352 -0.9064 -0.5255  1.0132
  875MPD2    N112897   0.184   1.426  14.872  0.0143 -0.2929  0.1943
  875MPD2    H712898   0.094   1.462  14.901 -0.0412  0.0131 -0.3644
  876MPD2     C12899   3.527   2.602  16.129  0.3090 -0.4321  0.5595
  876MPD2    C112900   3.663   2.612  16.150 -0.1734 -0.0553  0.2363
  876MPD2    C212901   3.733   2.523  16.245  0.3899  0.3740  0.5546
  876MPD2    C312902   3.654   2.446  16.328 -0.1225 -0.6637  0.0216
  876MPD2    C412903   3.516   2.451  16.320 -0.2768 -0.1150 -0.0876
  876MPD2    C512904   3.454   2.528  16.223 -0.0606  0.1531  0.6902
  876MPD2     H12905   3.840   2.510  16.252  0.1704 -1.0489  1.1627
  876MPD2    H112906   3.439   2.409  16.383  0.8490 -1.4618  0.4011
  876MPD2    H212907   3.483   2.658  16.047  0.3429  0.9866  1.4980
  876MPD2    H312908   3.347   2.529  16.206  0.0135 -1.5430  0.1174
  876MPD2     N12909   3.729   2.368  16.412  0.1983 -0.3797 -0.3405
  876MPD2    H512910   3.830   2.373  16.403  0.1470 -0.5288 -0.9538
  876MPD2    N112911   3.728   2.693  16.053 -0.2022  0.2176 -0.7303
  876MPD2    H712912   3.679   2.716  15.967 -1.0388 -0.4437 -0.4266
  877MPD2     C12913   3.539   3.095  15.478  0.1245  0.1025 -0.4625
  877MPD2    C112914   3.681   3.115  15.481  0.3143 -0.1561 -0.8655
  877MPD2    C212915   3.748   3.172  15.375 -0.0303 -0.2871  0.0567
  877MPD2    C312916   3.688   3.187  15.254 -0.4748 -0.1768  0.3102
  877MPD2    C412917   3.558   3.160  15.250 -0.2430 -0.7240 -0.2434
  877MPD2    C512918   3.479   3.117  15.358  0.2054 -1.1972  0.0946
  877MPD2     H12919   3.854   3.187  15.393  0.0339  0.1931 -0.7639
  877MPD2    H112920   3.498   3.168  15.160 -2.1533 -1.2813  0.9771
  877MPD2    H212921   3.480   3.065  15.564  0.2581 -1.1578 -0.8092
  877MPD2    H312922   3.374   3.096  15.342 -0.2851  1.3814 -0.1624
  877MPD2     N12923   3.759   3.231  15.142  0.0115 -0.3473 -0.0877
  877MPD2    H512924   3.719   3.235  15.049 -0.3405 -1.2762  0.0258
  877MPD2    N112925   3.759   3.079  15.591  0.0418  0.2967  0.1264
  877MPD2    H712926   3.859   3.098  15.588 -0.0986  0.5826 -2.4163
  878MPD2     C12927   3.442   2.131  13.085  0.0085 -0.1423  1.0133
  878MPD2    C112928   3.473   2.250  13.018 -0.2193  0.1518  0.0728
  878MPD2    C212929   3.475   2.366  13.092 -0.3892 -0.9057 -0.2053
  878MPD2    C312930   3.444   2.372  13.222 -0.6390  0.5209 -0.0583
  878MPD2    C412931   3.421   2.254  13.288 -0.1074  0.0405 -0.3413
  878MPD2    C512932   3.415   2.142  13.217  0.6771 -0.3299  0.3166
  878MPD2     H12933   3.495   2.460  13.041 -2.8333 -1.0663 -1.4926
  878MPD2    H112934   3.377   2.249  13.387  0.5607 -0.3649 -0.0587
  878MPD2    H212935   3.444   2.034  13.038  1.2984 -0.5497  1.9013
  878MPD2    H312936   3.385   2.055  13.275  1.3352  0.3180  1.6288
  878MPD2     N12937   3.441   2.496  13.292 -0.1204  0.0463 -0.7502
  878MPD2    H512938   3.467   2.583  13.247 -1.1995  0.0954 -1.2880
  878MPD2    N112939   3.487   2.247  12.880 -0.3223 -0.5827  1.0362
  878MPD2    H712940   3.469   2.158  12.835  1.3573  0.7263 -2.2285
  879MPD2     C12941   3.883   4.310  16.975 -0.3333  0.8548 -0.5558
  879MPD2    C112942   3.952   4.210  17.052 -0.6629 -0.1861  0.2176
  879MPD2    C212943   3.929   4.074  17.028 -0.2136  0.7138  0.9551
  879MPD2    C312944   3.844   4.044  16.931  0.3813 -0.7403  0.3416
  879MPD2    C412945   3.778   4.133  16.855 -0.2728  0.3576 -0.1716
  879MPD2    C512946   3.798   4.269  16.877 -0.2724  0.2988  0.3200
  879MPD2     H12947   3.995   4.003  17.076 -0.8433 -0.2651  0.3540
  879MPD2    H112948   3.713   4.101  16.774 -0.3439  3.1404 -1.1977
  879MPD2    H212949   3.887   4.416  16.998 -0.3563  0.6940  0.1973
  879MPD2    H312950   3.743   4.341  16.818 -3.7218  0.1301  3.3516
  879MPD2     N12951   3.824   3.909  16.898 -0.5471 -0.2663  0.3742
  879MPD2    H512952   3.773   3.895  16.811  0.5525 -1.1616 -0.1243
  879MPD2    N112953   4.051   4.258  17.143  0.2200  0.1930  0.3762
  879MPD2    H712954   4.047   4.357  17.166  0.0910  0.5251 -1.0726
  880MPD2     C12955   0.718   1.142   0.595  0.5411 -0.3291 -0.0869
  880MPD2    C112956   0.799   1.182   0.703 -0.2632 -0.0801 -0.1291
  880MPD2    C212957   0.856   1.085   0.778 -0.3686  0.1809 -0.5439
  880MPD2    C312958   0.856   0.950   0.747  0.5959 -1.1174  0.0034
  880MPD2    C412959   0.778   0.912   0.640 -0.2257  0.6245  0.5162
  880MPD2    C512960   0.715   1.008   0.568 -0.1889  0.2332  0.4928
  880MPD2     H12961   0.923   1.109   0.859 -0.5614 -0.3249 -0.2341
  880MPD2    H112962   0.770   0.807   0.613 -0.5524  0.9854 -0.8013
  880MPD2    H212963   0.678   1.207   0.519  1.6569 -0.2434 -0.6002
  880MPD2    H312964   0.654   0.971   0.486 -0.1332  0.9302  0.1369
  880MPD2     N12965   0.946   0.871   0.817 -0.3362 -0.8948 -0.4046
  880MPD2    H512966   1.003   0.916   0.888 -2.4085  0.5112  0.3592
  880MPD2    N112967   0.819   1.317   0.731 -0.3126  0.7148 -0.2842
  880MPD2    H712968   0.779   1.381   0.663  1.8939 -0.7907 -3.0174
  881MPD2     C12969   1.033   2.060   0.164  0.1719 -0.0023 -0.1112
  881MPD2    C112970   1.040   1.925   0.140  0.3662  0.1931 -0.6220
  881MPD2    C212971   1.036   1.842   0.256  0.0088 -0.0116  0.3299
  881MPD2    C312972   1.060   1.895   0.384 -0.3311  0.2491 -0.4943
  881MPD2    C412973   1.079   2.034   0.399 -0.4556 -0.4459  0.4055
  881MPD2    C512974   1.067   2.112   0.283 -0.2271  0.4998  0.4215
  881MPD2     H12975   1.021   1.735   0.246  3.9846 -0.5161 -0.1533
  881MPD2    H112976   1.114   2.077   0.492  1.0989 -0.1200 -0.3315
  881MPD2    H212977   1.014   2.131   0.085 -1.5779  1.1777  1.3541
  881MPD2    H312978   1.093   2.218   0.282  1.0740  0.2076  2.3753
  881MPD2     N12979   1.058   1.825   0.509 -0.0978  0.3393 -0.7614
  881MPD2    H512980   1.072   1.887   0.588  1.3901  0.7910 -1.3773
  881MPD2    N112981   0.993   1.884   0.010 -0.5817  0.2573 -0.2542
  881MPD2    H712982   0.955   1.954  17.699  1.5154  0.2919 -1.4594
  882MPD2     C12983   3.890   3.419  14.314 -0.3778  0.1096  0.2152
  882MPD2    C112984   3.823   3.416  14.429  0.8177  0.0940 -0.2201
  882MPD2    C212985   3.683   3.401  14.420  0.5754  0.2018  0.4889
  882MPD2    C312986   3.621   3.376  14.302  0.3922 -0.2327  0.7743
  882MPD2    C412987   3.695   3.361  14.187  0.3426  0.1118 -0.3530
  882MPD2    C512988   3.829   3.384  14.193 -0.5565  0.1237  0.1386
  882MPD2     H12989   3.623   3.409  14.510 -0.8874  1.2135 -0.5899
  882MPD2    H112990   3.656   3.353  14.086 -1.0543 -1.7402  0.3250
  882MPD2    H212991   3.997   3.437  14.322 -0.5290  0.5568  1.1508
  882MPD2    H312992   3.883   3.384  14.099  2.6077  1.9732  1.9603
  882MPD2     N12993   3.487   3.337  14.310  0.2858 -0.3055 -0.3146
  882MPD2    H512994   3.441   3.358  14.398  1.2946 -0.7820  0.3231
  882MPD2    N112995   3.887   3.419  14.557 -0.2737  0.7066 -0.3660
  882MPD2    H712996   3.988   3.423  14.548 -0.1108  0.3828  1.4895
  883MPD2     C12997   1.152   3.194  16.887 -1.1079  0.4276  0.0867
  883MPD2    C112998   1.254   3.197  16.797 -0.5889 -0.1054  0.0089
  883MPD2    C212999   1.363   3.269  16.841 -0.2705 -0.3090 -0.1425
  883MPD2    C313000   1.380   3.313  16.969 -0.2739  0.3087 -0.0477
  883MPD2    C413001   1.273   3.308  17.056 -0.3521 -0.4137 -0.1957
  883MPD2    C513002   1.159   3.245  17.014  0.1572 -0.0598 -0.8527
  883MPD2     H13003   1.443   3.289  16.771 -0.6041  2.7652  0.3416
  883MPD2    H113004   1.285   3.329  17.162  1.8053  1.0640 -0.7298
  883MPD2    H213005   1.059   3.147  16.859  0.1788 -3.0591  1.6847
  883MPD2    H313006   1.076   3.235  17.083 -1.0884 -0.6359 -2.4249
  883MPD2     N13007   1.502   3.374  17.007 -0.4269 -0.1657  0.1601
  883MPD2    H513008   1.576   3.367  16.939 -0.7714 -2.1313 -0.0190
  883MPD2    N113009   1.245   3.162  16.660  0.0167  0.2946 -0.5087
  883MPD2    H713010   1.323   3.184  16.600 -1.0504  3.3897 -0.7973
  884MPD2     C13011   2.855   3.858  15.332 -0.3670  0.1827  0.6314
  884MPD2    C113012   2.823   3.944  15.234 -0.0691 -0.8909 -0.2078
  884MPD2    C213013   2.694   3.996  15.224 -0.2994  0.1923  0.0926
  884MPD2    C313014   2.593   3.955  15.309  0.5560 -0.8719  0.5999
  884MPD2    C413015   2.634   3.877  15.416 -0.0733  0.8366  0.4328
  884MPD2    C513016   2.764   3.828  15.431 -0.3077 -0.3751 -0.3407
  884MPD2     H13017   2.669   4.053  15.135 -0.6391  1.3015  0.8925
  884MPD2    H113018   2.570   3.845  15.498  0.5087 -1.6325 -0.0704
  884MPD2    H213019   2.953   3.811  15.336  0.2885  1.5531  0.8447
  884MPD2    H313020   2.810   3.772  15.511 -0.7419 -0.1559  0.0620
  884MPD2     N13021   2.461   3.997  15.281  0.1785 -0.6789  0.3191
  884MPD2    H513022   2.447   4.056  15.199  0.2987 -1.9960 -0.6491
  884MPD2    N113023   2.906   3.987  15.130 -0.3407  0.6675 -0.1468
  884MPD2    H713024   2.855   4.038  15.059  0.7606  0.7648 -0.8759
  885MPD2     C13025   1.124   4.718   0.695  0.1981 -0.4273  0.3252
  885MPD2    C113026   1.265   4.723   0.707 -0.0096 -0.2814 -0.5449
  885MPD2    C213027   1.341   0.012   0.592  0.5167 -0.3249 -0.5770
  885MPD2    C313028   1.279   0.021   0.470  0.6294 -0.2847  0.0476
  885MPD2    C413029   1.139   0.035   0.464  0.3540 -0.3228 -0.2520
  885MPD2    C513030   1.064   0.009   0.573  0.5637  0.1449 -0.0941
  885MPD2     H13031   1.450   0.010   0.592  0.5393  1.6282  1.9314
  885MPD2    H113032   1.087   0.055   0.372  1.0413 -1.2210 -0.8385
  885MPD2    H213033   1.073   4.701   0.789  0.9061 -1.9754  0.4286
  885MPD2    H313034   0.956   0.003   0.571  0.6098 -0.4925 -0.5931
  885MPD2     N13035   1.359   0.013   0.354  0.5457  0.9405 -0.2425
  885MPD2    H513036   1.460   0.011   0.364  0.2739  2.7216  3.1012
  885MPD2    N113037   1.319   4.703   0.835 -0.2018  0.3248 -0.2627
  885MPD2    H713038   1.247   4.688   0.905 -1.2200  0.1860 -1.3224
  886MPD2     C13039   2.993   2.630  15.139  0.7087  0.1307  0.2274
  886MPD2    C113040   2.902   2.638  15.243  0.1483 -0.7381  0.6283
  886MPD2    C213041   2.799   2.733  15.230  0.0290  0.5613 -0.3129
  886MPD2    C313042   2.778   2.791  15.112 -0.2658  0.0542 -0.2508
  886MPD2    C413043   2.865   2.777  15.005 -0.2147 -0.3490  0.0573
  886MPD2    C513044   2.981   2.711  15.028 -0.5094  0.0567  0.3937
  886MPD2     H13045   2.723   2.743  15.307  0.5482 -0.6009  0.3481
  886MPD2    H113046   2.850   2.828  14.911 -1.5871  0.5811  0.7687
  886MPD2    H213047   3.089   2.581  15.152  1.6850  1.8933 -0.3996
  886MPD2    H313048   3.058   2.723  14.953  0.4196  0.2856  1.3758
  886MPD2     N13049   2.685   2.900  15.098 -0.4857  0.1338  0.5086
  886MPD2    H513050   2.659   2.931  15.005  1.2689 -0.0733 -0.0644
  886MPD2    N113051   2.910   2.567  15.364  0.4411 -0.1757  0.2270
  886MPD2    H713052   2.826   2.569  15.421  0.0695  1.9097 -0.4063
  887MPD2     C13053   2.828   2.475  16.091 -0.1816 -0.3792  0.4197
  887MPD2    C113054   2.851   2.561  15.989 -0.5172 -0.2722 -0.2552
  887MPD2    C213055   2.868   2.693  16.027  0.2650 -0.0701 -0.4063
  887MPD2    C313056   2.873   2.728  16.158  0.7067  0.4275  0.4479
  887MPD2    C413057   2.834   2.641  16.254 -0.5164 -0.2250 -1.3656
  887MPD2    C513058   2.815   2.510  16.221 -0.7936 -0.2709  0.1445
  887MPD2     H13059   2.887   2.763  15.946  2.0132  0.2379  0.2806
  887MPD2    H113060   2.818   2.667  16.358 -0.9761 -1.2599 -1.1790
  887MPD2    H213061   2.826   2.367  16.080 -0.1251 -0.3519  0.1278
  887MPD2    H313062   2.788   2.442  16.301  0.0564  0.9384  1.4675
  887MPD2     N13063   2.887   2.858  16.204 -0.5861 -0.1754 -0.1191
  887MPD2    H513064   2.864   2.881  16.300 -0.6857  0.7502 -0.3620
  887MPD2    N113065   2.839   2.514  15.853  0.3531 -0.1910  0.5936
  887MPD2    H713066   2.866   2.582  15.782  0.1894 -0.6890  0.0587
  888MPD2     C13067   0.601   2.739  15.417  0.2761  0.1539  0.0635
  888MPD2    C113068   0.475   2.769  15.424  0.2654  0.2372  0.6646
  888MPD2    C213069   0.442   2.898  15.373  0.0713  0.5202 -0.3304
  888MPD2    C313070   0.531   2.988  15.321 -0.1593 -0.1831 -0.3438
  888MPD2    C413071   0.663   2.948  15.309  0.4197 -0.2959 -0.5519
  888MPD2    C513072   0.692   2.827  15.366 -0.0032 -0.0144 -0.4155
  888MPD2     H13073   0.339   2.932  15.374 -0.7322 -1.9119 -0.6794
  888MPD2    H113074   0.741   3.009  15.266  1.3086  0.0751  1.5814
  888MPD2    H213075   0.626   2.644  15.462 -0.7019 -1.0296 -1.8973
  888MPD2    H313076   0.797   2.803  15.376  0.0463  0.8199  1.2225
  888MPD2     N13077   0.488   3.117  15.276  0.4264  0.0453 -0.3317
  888MPD2    H513078   0.391   3.140  15.295  0.3061 -0.7173  0.0016
  888MPD2    N113079   0.386   2.682  15.481  0.2360  0.4075 -0.0805
  888MPD2    H713080   0.417   2.608  15.544 -1.7836  0.7562  1.3347
  889MPD2     C13081   4.481   2.443  13.500  0.1811  0.0583 -0.0575
  889MPD2    C113082   4.504   2.363  13.606  0.0495 -0.3217  0.3395
  889MPD2    C213083   4.548   2.416  13.727 -0.4757  0.2630  0.1413
  889MPD2    C313084   4.530   2.553  13.750  0.4621  0.7031  0.3660
  889MPD2    C413085   4.519   2.636  13.639  0.3712 -0.3862 -0.3087
  889MPD2    C513086   4.507   2.580  13.517  1.5689  0.7403  0.2928
  889MPD2     H13087   4.571   2.345  13.806 -0.9737 -1.5766 -1.3729
  889MPD2    H113088   4.526   2.744  13.648 -1.9111 -0.1012 -1.9970
  889MPD2    H213089   4.463   2.403  13.401  1.2903  0.3946 -0.4023
  889MPD2    H313090   4.512   2.637  13.425 -3.1863  0.8217  0.0759
  889MPD2     N13091   4.541   2.604  13.885  0.0014  0.2829 -0.1962
  889MPD2    H513092   4.534   2.528  13.952  3.3563 -2.0718 -2.5008
  889MPD2    N113093   4.509   2.228  13.589  0.3615 -0.5143 -0.0151
  889MPD2    H713094   4.548   2.173  13.665  0.2833 -0.3473  0.1471
  890MPD2     C13095   3.519   3.831  14.661  0.0186 -0.0777  0.1453
  890MPD2    C113096   3.649   3.829  14.709  0.0509  0.2973  0.4279
  890MPD2    C213097   3.672   3.770  14.837 -0.1346 -0.7103  0.2034
  890MPD2    C313098   3.575   3.708  14.905 -0.1608  0.5815 -0.4884
  890MPD2    C413099   3.446   3.709  14.852  0.1280  0.4289 -0.0727
  890MPD2    C513100   3.415   3.776  14.741  0.2771 -0.5064  0.1030
  890MPD2     H13101   3.771   3.779  14.882  0.2971 -0.4739 -0.8024
  890MPD2    H113102   3.362   3.674  14.912  0.5224  1.0793  0.8631
  890MPD2    H213103   3.496   3.865  14.561 -1.4686  1.7445  1.0963
  890MPD2    H313104   3.310   3.780  14.716  0.2477  0.9496  0.5033
  890MPD2     N13105   3.601   3.658  15.035 -0.1165  0.6621 -0.1364
  890MPD2    H513106   3.701   3.665  15.054  0.4104 -2.2112 -1.8326
  890MPD2    N113107   3.749   3.896  14.643 -0.1428  0.2782  0.0701
  890MPD2    H713108   3.710   3.940  14.561  1.0151  1.8710  0.3846
  891MPD2     C13109   2.005   2.613  16.551  0.2781  0.3049  0.0452
  891MPD2    C113110   1.922   2.592  16.661 -0.7175 -0.3153 -0.2109
  891MPD2    C213111   1.975   2.541  16.775  0.2899 -0.0989 -0.4518
  891MPD2    C313112   2.107   2.503  16.788  0.3801  0.3892  0.1390
  891MPD2    C413113   2.188   2.540  16.682  0.1148 -0.3772 -0.2833
  891MPD2    C513114   2.137   2.598  16.564  0.3822 -0.3339 -0.4344
  891MPD2     H13115   1.904   2.516  16.853  1.8996  0.6060  1.2654
  891MPD2    H113116   2.294   2.516  16.690  1.1692  4.2796 -0.0485
  891MPD2    H213117   1.972   2.640  16.451 -0.8251 -0.5537  0.1733
  891MPD2    H313118   2.211   2.599  16.484  0.7271  0.8194 -0.1043
  891MPD2     N13119   2.147   2.422  16.891  0.2961 -0.8671  0.5967
  891MPD2    H513120   2.078   2.408  16.964 -1.3934 -0.6073 -0.9483
  891MPD2    N113121   1.784   2.611  16.631  0.2262  0.2379 -0.0061
  891MPD2    H713122   1.758   2.650  16.541  0.2632  1.1089  0.3579
  892MPD2     C13123   3.001   3.572  14.924 -0.3465 -0.2837  0.3921
  892MPD2    C113124   2.915   3.569  14.819  0.1654  0.2076 -0.5097
  892MPD2    C213125   2.965   3.522  14.704 -0.0408 -0.4679  0.3775
  892MPD2    C313126   3.088   3.474  14.697  0.1871 -0.4018  0.7180
  892MPD2    C413127   3.182   3.496  14.795  0.2854  0.2372  0.1260
  892MPD2    C513128   3.135   3.542  14.911  0.0533  0.4627 -0.9929
  892MPD2     H13129   2.897   3.514  14.620  0.3820  2.8675 -0.2933
  892MPD2    H113130   3.283   3.459  14.783 -0.6425 -2.3634  0.5521
  892MPD2    H213131   2.961   3.606  15.019 -1.3076  0.5934 -0.3255
  892MPD2    H313132   3.202   3.543  14.996  2.2037 -1.9410 -2.6534
  892MPD2     N13133   3.131   3.402  14.583  0.2336  0.0805 -0.4711
  892MPD2    H513134   3.229   3.377  14.576  0.8358  2.2184  0.5130
  892MPD2    N113135   2.780   3.602  14.819  0.1660  0.1564 -0.3634
  892MPD2    H713136   2.728   3.584  14.734 -0.2211  1.7274 -0.4486
  893MPD2     C13137   0.208   1.228   1.030 -0.0948 -0.1017  0.4092
  893MPD2    C113138   0.246   1.265   1.159 -0.5356  0.3813 -0.0236
  893MPD2    C213139   0.172   1.222   1.272  0.2316  1.2525 -0.0151
  893MPD2    C313140   0.068   1.132   1.252  0.4508 -0.9305 -0.7541
  893MPD2    C413141   0.031   1.090   1.126 -0.6133 -0.2286  0.3547
  893MPD2    C513142   0.094   1.148   1.021  0.6975  0.0581 -0.4182
  893MPD2     H13143   0.213   1.247   1.370  0.1145  0.6513  0.1830
  893MPD2    H113144   4.689   1.019   1.116 -0.4690 -0.5992  1.8503
  893MPD2    H213145   0.252   1.273   0.941 -0.9215 -1.2183 -0.5659
  893MPD2    H313146   0.069   1.116   0.921 -0.3455  2.1121 -0.8247
  893MPD2     N13147   4.711   1.098   1.351  0.0613 -0.2946  0.1317
  893MPD2    H513148   4.635   1.035   1.328  0.7956 -0.9820 -0.4308
  893MPD2    N113149   0.347   1.355   1.172  0.0282  0.1955  0.1772
  893MPD2    H713150   0.410   1.358   1.093 -2.1755  0.2791 -1.5651
  894MPD2     C13151   3.345   4.526   1.503  0.1989 -0.0301 -1.2968
  894MPD2    C113152   3.278   4.600   1.605  0.4281 -0.7314 -0.1566
  894MPD2    C213153   3.350   4.698   1.671 -0.2777  0.2844  0.3375
  894MPD2    C313154   3.483   4.719   1.643  0.0366  0.0524 -0.4545
  894MPD2    C413155   3.551   4.641   1.550  0.6381 -0.6044  0.0382
  894MPD2    C513156   3.478   4.541   1.485  0.8499 -1.0143  0.0483
  894MPD2     H13157   3.295   0.024   1.738 -2.5585 -1.4508  0.1673
  894MPD2    H113158   3.655   4.652   1.521  1.5483 -3.2724  2.2541
  894MPD2    H213159   3.296   4.443   1.453 -1.1757 -0.3444  0.5666
  894MPD2    H313160   3.537   4.485   1.413  0.4689  0.0414 -1.0882
  894MPD2     N13161   3.540   0.099   1.693  0.3419 -0.0171 -0.1540
  894MPD2    H513162   3.480   0.165   1.742  0.3260 -0.1811  0.0470
  894MPD2    N113163   3.144   4.575   1.646 -0.2014 -0.3461 -0.2389
  894MPD2    H713164   3.110   4.620   1.730  2.6852  1.0799  0.1520
  895MPD2     C13165   1.741   2.753  13.993 -0.2361  0.4786  0.6449
  895MPD2    C113166   1.730   2.626  14.054 -0.0416  0.1569  0.1284
  895MPD2    C213167   1.833   2.535  14.029  0.4415 -0.2384  0.4116
  895MPD2    C313168   1.945   2.567  13.953  0.4356 -0.8314  0.2849
  895MPD2    C413169   1.951   2.687  13.894 -0.0556 -0.6153  0.1987
  895MPD2    C513170   1.853   2.787  13.922  0.2687 -0.3191 -0.3909
  895MPD2     H13171   1.819   2.439  14.076  1.1208 -1.1204 -1.1674
  895MPD2    H113172   2.040   2.713  13.838 -0.5498  0.6580 -0.0023
  895MPD2    H213173   1.657   2.820  13.979  0.2504  0.8306 -0.6230
  895MPD2    H313174   1.876   2.881  13.874 -2.3209 -0.8813 -2.7060
  895MPD2     N13175   2.061   2.486  13.941 -0.2405  0.3717  0.2851
  895MPD2    H513176   2.147   2.530  13.909 -0.4166  0.8680  0.5104
  895MPD2    N113177   1.613   2.583  14.122  0.7560  0.3933 -0.4682
  895MPD2    H713178   1.605   2.484  14.138  3.0182  0.0086 -1.5648
  896MPD2     C13179   0.377   0.501   1.590  0.9287 -0.2335 -0.1510
  896MPD2    C113180   0.328   0.454   1.474 -0.0075 -0.8237 -0.3596
  896MPD2    C213181   0.206   0.395   1.474 -0.2401 -0.0346  0.1637
  896MPD2    C313182   0.125   0.401   1.580  0.1800  0.1097 -0.2823
  896MPD2    C413183   0.178   0.451   1.700 -0.5792  0.1891  0.3307
  896MPD2    C513184   0.306   0.496   1.705 -0.9616 -0.5643 -0.4324
  896MPD2     H13185   0.168   0.333   1.394  0.0974  0.7687 -0.6183
  896MPD2    H113186   0.122   0.433   1.791 -1.8371 -0.8177 -0.6498
  896MPD2    H213187   0.477   0.541   1.596  1.8189 -2.4868 -0.0840
  896MPD2    H313188   0.348   0.539   1.795 -1.4675 -1.3260  0.1711
  896MPD2     N13189   4.736   0.340   1.562  0.3535 -0.3908 -0.4282
  896MPD2    H513190   4.713   0.308   1.469 -1.0473 -0.4557 -0.0657
  896MPD2    N113191   0.404   0.467   1.351  0.3301 -0.5130  0.0631
  896MPD2    H713192   0.500   0.498   1.357  0.2375  0.1387 -1.6661
  897MPD2     C13193   0.794   1.941  10.644 -0.5841  0.7876 -0.1989
  897MPD2    C113194   0.743   2.073  10.666 -0.2823  0.1368 -0.1222
  897MPD2    C213195   0.686   2.093  10.791  0.4250 -0.3927 -0.3781
  897MPD2    C313196   0.676   1.998  10.888 -0.4291  0.4077 -0.0723
  897MPD2    C413197   0.728   1.873  10.868  0.2829  0.2021 -0.3688
  897MPD2    C513198   0.780   1.845  10.747  0.7912 -0.6656  0.6645
  897MPD2     H13199   0.651   2.191  10.821 -1.1596 -1.4208  1.1128
  897MPD2    H113200   0.742   1.794  10.941 -0.1705 -0.7337 -1.3036
  897MPD2    H213201   0.831   1.907  10.548  0.9208 -0.6011  0.8774
  897MPD2    H313202   0.817   1.744  10.730 -3.4816 -2.1667  0.3084
  897MPD2     N13203   0.605   2.037  11.004 -0.3987  0.3751  0.5153
  897MPD2    H513204   0.556   2.125  10.990 -0.8139 -0.0877 -0.9221
  897MPD2    N113205   0.766   2.174  10.567  0.1712  0.5489 -1.3132
  897MPD2    H713206   0.779   2.141  10.472  1.4213 -2.4112 -0.1135
  898MPD2     C13207   2.087   2.814   0.174  0.6845  0.3158  0.0505
  898MPD2    C113208   2.189   2.906   0.177  0.0652 -0.8242  0.4586
  898MPD2    C213209   2.159   3.037   0.194  0.4252 -0.5860 -0.2163
  898MPD2    C313210   2.031   3.086   0.205 -0.5497  0.4290 -0.7320
  898MPD2    C413211   1.930   2.993   0.202 -0.1433  0.1123 -0.0294
  898MPD2    C513212   1.961   2.859   0.186  0.0388  1.0242  0.7172
  898MPD2     H13213   2.241   3.104   0.214  0.4482 -1.9564  4.3571
  898MPD2    H113214   1.827   3.024   0.211 -0.6762 -1.2522 -1.2685
  898MPD2    H213215   2.108   2.708   0.168  0.4666  0.4408 -2.9889
  898MPD2    H313216   1.881   2.787   0.201  0.7900 -0.1343 -0.8558
  898MPD2     N13217   2.015   3.221   0.240  0.1373  0.6475 -1.0819
  898MPD2    H513218   2.101   3.276   0.246  0.0907  0.9446 -3.1174
  898MPD2    N113219   2.331   2.861   0.178 -0.1995  0.5358  0.2036
  898MPD2    H713220   2.398   2.936   0.187  2.2305 -1.4480 -1.2605
  899MPD2     C13221   3.418   3.541   0.174 -0.3105 -0.2632 -0.1745
  899MPD2    C113222   3.491   3.656   0.181 -0.0359 -0.6049  0.5989
  899MPD2    C213223   3.533   3.704   0.305  0.6370 -0.3884  0.0511
  899MPD2    C313224   3.506   3.635   0.424 -0.0752 -0.1676 -0.5602
  899MPD2    C413225   3.427   3.521   0.409 -0.2618 -0.0068 -0.0305
  899MPD2    C513226   3.383   3.470   0.287 -0.1041 -0.5095 -0.2716
  899MPD2     H13227   3.589   3.796   0.319  1.4762 -1.2138  2.1813
  899MPD2    H113228   3.396   3.466   0.496 -0.5175  1.4434  0.7990
  899MPD2    H213229   3.392   3.499   0.078 -0.0661  0.4417 -0.5439
  899MPD2    H313230   3.315   3.385   0.284 -0.5289 -0.0657 -3.1807
  899MPD2     N13231   3.553   3.678   0.546  0.0995 -0.0187 -0.2945
  899MPD2    H513232   3.536   3.624   0.629 -0.0297 -0.0932 -0.3702
  899MPD2    N113233   3.516   3.721   0.062 -1.0577  0.3049  0.2477
  899MPD2    H713234   3.474   3.679  17.733  1.2090 -0.8721 -0.3078
  900MPD2     C13235   3.421   0.246  13.319 -0.2218  0.0248  0.7736
  900MPD2    C113236   3.339   0.165  13.239  0.1944  1.0843  0.3367
  900MPD2    C213237   3.249   0.217  13.149  0.4505  0.1561 -0.1685
  900MPD2    C313238   3.241   0.351  13.135  0.3887  0.8052 -0.4044
  900MPD2    C413239   3.324   0.426  13.212 -0.2427  0.2343 -0.3602
  900MPD2    C513240   3.420   0.377  13.296 -0.0891 -0.2074 -0.0898
  900MPD2     H13241   3.175   0.156  13.099  0.2125  2.2585 -2.3581
  900MPD2    H113242   3.313   0.533  13.210 -1.6686  0.0335 -3.2448
  900MPD2    H213243   3.484   0.206  13.398  0.3716  1.1085  0.8587
  900MPD2    H313244   3.483   0.444  13.353  0.4287  0.1501 -1.0736
  900MPD2     N13245   3.144   0.407  13.042  1.1650 -0.5333 -0.3566
  900MPD2    H513246   3.104   0.337  12.981 -0.2237  0.9104 -1.1189
  900MPD2    N113247   3.359   0.023  13.260 -0.1114  0.4078  0.3898
  900MPD2    H713248   3.429   4.734  13.329 -2.0125 -0.5520  1.9383
  901MPD2     C13249   3.091   3.732  13.318  0.0572  0.2869 -1.3995
  901MPD2    C113250   3.229   3.735  13.318  0.5409  0.6309 -0.6096
  901MPD2    C213251   3.299   3.851  13.281  0.6431 -0.4116  0.0174
  901MPD2    C313252   3.230   3.966  13.263  0.4634 -0.5566 -0.5455
  901MPD2    C413253   3.092   3.964  13.284 -0.6206 -0.1823 -0.1226
  901MPD2    C513254   3.021   3.852  13.308 -0.3021  0.1317 -0.3891
  901MPD2     H13255   3.407   3.850  13.277  0.5172  1.0617 -3.8741
  901MPD2    H113256   3.040   4.058  13.270  1.1191  0.6853 -0.7984
  901MPD2    H213257   3.031   3.642  13.325  1.0815 -0.4084 -1.5342
  901MPD2    H313258   2.913   3.857  13.322 -0.0872  0.9592  0.9771
  901MPD2     N13259   3.298   4.084  13.228  1.1323 -0.4568  0.0293
  901MPD2    H513260   3.398   4.078  13.240  1.1252  0.2975  0.4570
  901MPD2    N113261   3.292   3.613  13.348 -0.2553 -0.0603 -0.0173
  901MPD2    H713262   3.225   3.538  13.364 -0.1674 -0.2800 -0.6484
  902MPD2     C13263   1.941   3.057  13.435  0.3697 -0.2376 -0.1135
  902MPD2    C113264   1.918   3.044  13.302  0.1008 -0.5462 -0.1238
  902MPD2    C213265   1.858   2.929  13.258 -0.0881 -0.3083 -0.1397
  902MPD2    C313266   1.813   2.836  13.344  0.2333  0.0661 -0.1671
  902MPD2    C413267   1.846   2.843  13.483 -0.4270 -0.0566  0.1527
  902MPD2    C513268   1.895   2.964  13.519 -0.5333 -0.6709 -0.3009
  902MPD2     H13269   1.839   2.917  13.152  0.2050 -0.5031 -0.1705
  902MPD2    H113270   1.819   2.760  13.548 -0.8355  0.3859  0.5487
  902MPD2    H213271   1.987   3.144  13.480  0.2851 -0.5674  0.6171
  902MPD2    H313272   1.916   2.986  13.623  1.2779  2.3442 -1.3245
  902MPD2     N13273   1.752   2.721  13.303  0.4840 -0.5574  0.1951
  902MPD2    H513274   1.744   2.644  13.369 -2.4539 -0.3833  0.0386
  902MPD2    N113275   1.976   3.140  13.211 -0.0569 -0.2879  0.1759
  902MPD2    H713276   2.035   3.211  13.252 -0.8255  0.9982 -0.9247
  903MPD2     C13277   1.645   2.547  12.433  0.2642 -0.0598  0.7322
  903MPD2    C113278   1.585   2.595  12.552 -0.7536  0.1491  0.8219
  903MPD2    C213279   1.498   2.699  12.540 -0.8825 -0.4586  0.2212
  903MPD2    C313280   1.456   2.749  12.417 -0.6767  0.5516 -0.0589
  903MPD2    C413281   1.517   2.702  12.299 -0.2360 -0.2909  0.1162
  903MPD2    C513282   1.606   2.601  12.312 -0.2644 -0.0675  0.6250
  903MPD2     H13283   1.462   2.731  12.637 -1.5837  2.0461 -0.8779
  903MPD2    H113284   1.489   2.746  12.205 -2.2778 -0.4255  0.6619
  903MPD2    H213285   1.730   2.481  12.432  0.4590  0.2040  0.0103
  903MPD2    H313286   1.651   2.571  12.218 -2.6549  3.0532 -1.4823
  903MPD2     N13287   1.350   2.846  12.425 -0.4119 -0.3152  0.3080
  903MPD2    H513288   1.309   2.855  12.517  0.1874  1.9224  0.3469
  903MPD2    N113289   1.625   2.525  12.670 -0.3822  0.8323 -0.5547
  903MPD2    H713290   1.697   2.454  12.657 -2.4603 -0.8345 -2.8541
  904MPD2     C13291   1.869   2.198  14.386  0.2468  0.3583  0.4172
  904MPD2    C113292   1.905   2.110  14.486  0.7364  0.6686 -0.6475
  904MPD2    C213293   2.041   2.104  14.519  0.2109 -0.6347  0.1703
  904MPD2    C313294   2.139   2.179  14.461 -0.4488 -0.5064 -0.1240
  904MPD2    C413295   2.096   2.272  14.365  0.2730  0.0773  0.2311
  904MPD2    C513296   1.965   2.284  14.332 -0.4576 -0.1164 -0.0990
  904MPD2     H13297   2.066   2.030  14.595 -1.4907 -0.5660  0.8021
  904MPD2    H113298   2.158   2.342  14.310  0.0798  0.3523  0.3700
  904MPD2    H213299   1.770   2.196  14.341  0.1251  0.6552  0.6744
  904MPD2    H313300   1.927   2.358  14.263 -0.7554 -0.1204  0.0585
  904MPD2     N13301   2.272   2.177  14.508  0.1980  0.2199 -0.3251
  904MPD2    H513302   2.294   2.109  14.580 -1.8745  0.4103  0.4909
  904MPD2    N113303   1.818   2.012  14.544  0.4453  0.1448  0.5681
  904MPD2    H713304   1.867   1.934  14.588 -0.9990 -0.4450  1.1450
  905MPD2     C13305   1.262   2.067  14.044  0.3354 -0.5876  0.2089
  905MPD2    C113306   1.372   2.138  14.087 -0.5795 -0.2095 -0.0919
  905MPD2    C213307   1.473   2.157  13.993 -0.2288 -0.2734 -0.0750
  905MPD2    C313308   1.450   2.114  13.861  0.5484  0.0907  0.0389
  905MPD2    C413309   1.327   2.060  13.813 -0.1294 -0.1507 -0.1424
  905MPD2    C513310   1.235   2.037  13.910 -0.1937 -0.0745 -0.6887
  905MPD2     H13311   1.569   2.199  14.021  0.2659 -2.3439  1.3752
  905MPD2    H113312   1.304   2.037  13.710  1.5671  0.7435 -0.7160
  905MPD2    H213313   1.180   2.037  14.108  0.4586  0.0995  0.6939
  905MPD2    H313314   1.137   2.003  13.880 -1.3368 -0.1572  3.1336
  905MPD2     N13315   1.543   2.130  13.754 -0.5505 -0.1877  0.2445
  905MPD2    H513316   1.503   2.097  13.667  2.3981 -1.3089 -0.6919
  905MPD2    N113317   1.379   2.166  14.221  0.1812 -0.4073 -0.0235
  905MPD2    H713318   1.296   2.137  14.271 -0.3835  0.1434 -0.6346
  906MPD2     C13319   4.044   2.364  11.443  0.5834  0.3263  0.3491
  906MPD2    C113320   4.042   2.245  11.379 -0.5198 -0.7232  0.5807
  906MPD2    C213321   4.006   2.131  11.444  0.5064  0.0328 -0.3528
  906MPD2    C313322   3.984   2.137  11.579  0.5063  0.3160 -0.4480
  906MPD2    C413323   4.000   2.255  11.646  0.2360  0.2744 -0.2787
  906MPD2    C513324   4.024   2.371  11.576 -0.1039  0.3215 -0.0906
  906MPD2     H13325   3.992   2.035  11.396  1.4218 -1.7369  2.9218
  906MPD2    H113326   3.984   2.249  11.753 -1.7659 -0.7553 -0.6331
  906MPD2    H213327   4.052   2.458  11.389  0.2904  1.8198  2.9194
  906MPD2    H313328   4.031   2.464  11.631  0.5080  1.8685 -2.8181
  906MPD2     N13329   3.939   2.019  11.649 -0.2332  0.5204  0.3278
  906MPD2    H513330   3.931   1.939  11.587  0.0395 -0.0651  1.0654
  906MPD2    N113331   4.064   2.231  11.238 -0.2344  0.0582  0.4981
  906MPD2    H713332   4.059   2.139  11.195 -2.1455  1.2550 -1.8886
  907MPD2     C13333   3.339   1.302  15.829 -0.2608 -0.5781 -0.3070
  907MPD2    C113334   3.248   1.196  15.834  0.5003  0.3258 -0.4344
  907MPD2    C213335   3.256   1.114  15.945 -0.4987 -0.1802 -0.4233
  907MPD2    C313336   3.339   1.149  16.055 -0.2230  0.2556 -0.2780
  907MPD2    C413337   3.434   1.249  16.039 -0.3089  0.7053 -0.6219
  907MPD2    C513338   3.432   1.322  15.920  0.1847  0.3864 -0.4861
  907MPD2     H13339   3.191   1.029  15.960 -0.9475  0.3265  0.5416
  907MPD2    H113340   3.518   1.283  16.098  0.7629 -2.9238 -0.0759
  907MPD2    H213341   3.334   1.362  15.739 -3.9030  2.0593  1.6329
  907MPD2    H313342   3.509   1.395  15.900  0.9399  0.3815  2.3327
  907MPD2     N13343   3.342   1.066  16.166 -0.6675 -0.2640  0.0218
  907MPD2    H513344   3.298   0.975  16.161  0.5248 -0.8883  0.9935
  907MPD2    N113345   3.139   1.182  15.738  0.6713  0.6307 -0.3536
  907MPD2    H713346   3.077   1.104  15.758 -0.0415  1.0663 -0.8914
  908MPD2     C13347   0.671   2.100   9.698  0.3018 -0.2993  0.0656
  908MPD2    C113348   0.708   2.026   9.809 -0.0884  0.3621 -0.1097
  908MPD2    C213349   0.719   2.079   9.936 -0.3885  0.0374  0.7715
  908MPD2    C313350   0.695   2.215   9.949  0.2359 -0.2006 -0.0171
  908MPD2    C413351   0.673   2.291   9.832  0.2029  0.1677  0.5238
  908MPD2    C513352   0.647   2.238   9.713 -0.0601  0.3179 -0.3658
  908MPD2     H13353   0.739   2.028  10.029  0.5582  1.6777  1.4657
  908MPD2    H113354   0.656   2.398   9.838 -1.2105 -0.0722  0.7581
  908MPD2    H213355   0.648   2.051   9.604  0.1124  0.1210 -0.1032
  908MPD2    H313356   0.615   2.304   9.633 -0.5025 -0.4868 -0.8448
  908MPD2     N13357   0.694   2.265  10.079  0.2067  0.1387  0.3196
  908MPD2    H513358   0.698   2.194  10.151  1.5025  0.6335  0.7291
  908MPD2    N113359   0.708   1.882   9.792 -0.3583  0.5976  0.2468
  908MPD2    H713360   0.668   1.848   9.705 -0.8692  0.8932  0.3621
  909MPD2     C13361   1.216   0.091  12.444  0.0360 -0.0884 -0.3592
  909MPD2    C113362   1.154   0.192  12.374  0.4783 -0.1912 -0.1837
  909MPD2    C213363   1.031   0.245  12.411 -0.3051  0.0128  0.4041
  909MPD2    C313364   0.974   0.199  12.529 -0.5718  0.0368  0.0988
  909MPD2    C413365   1.032   0.092  12.596 -0.3850 -0.3212  0.9947
  909MPD2    C513366   1.153   0.039  12.556  0.1380 -0.6160  0.3398
  909MPD2     H13367   0.990   0.333  12.363 -0.3101  0.4040  1.1203
  909MPD2    H113368   0.981   0.043  12.678 -1.3157 -2.0130 -0.5890
  909MPD2    H213369   1.311   0.047  12.415 -0.0122  0.3833 -1.2264
  909MPD2    H313370   1.186   4.683  12.596  0.3173 -0.6558  0.0946
  909MPD2     N13371   0.853   0.264  12.562  0.2310 -0.5988  0.4615
  909MPD2    H513372   0.831   0.348  12.510 -0.6132  0.4852  2.5346
  909MPD2    N113373   1.201   0.238  12.245  0.8239  0.3977 -0.6825
  909MPD2    H713374   1.148   0.318  12.213  0.6051 -0.5699 -2.7424
  910MPD2     C13375   2.338   2.166  16.578 -0.0513  0.2558 -0.0910
  910MPD2    C113376   2.402   2.061  16.516  0.9328  0.4356 -0.1030
  910MPD2    C213377   2.441   2.062  16.384  0.0023 -0.2004  0.3088
  910MPD2    C313378   2.412   2.170  16.312 -0.2637  0.0367  0.2904
  910MPD2    C413379   2.345   2.278  16.371  0.1905  0.3576  0.1133
  910MPD2    C513380   2.315   2.273  16.504 -0.4023  0.2524 -0.0098
  910MPD2     H13381   2.490   1.981  16.331 -1.9094 -0.0192 -1.7665
  910MPD2    H113382   2.317   2.367  16.316 -0.0561  0.0890 -0.1936
  910MPD2    H213383   2.301   2.168  16.680 -0.3845  1.8404 -0.2390
  910MPD2    H313384   2.262   2.353  16.555  0.0605  0.5390  0.0228
  910MPD2     N13385   2.423   2.184  16.171  0.3164 -0.2659  0.2265
  910MPD2    H513386   2.379   2.268  16.135 -1.2729 -1.6102 -0.9455
  910MPD2    N113387   2.419   1.939  16.587 -0.3242  0.7661  0.7581
  910MPD2    H713388   2.448   1.863  16.526 -1.3723  0.8455  0.1520
  911MPD2     C13389   0.293   2.731  16.346 -0.8619 -0.2645 -0.0235
  911MPD2    C113390   0.310   2.785  16.472  0.3118  0.2098 -0.4636
  911MPD2    C213391   0.297   2.923  16.483 -0.6918  0.0338 -1.0291
  911MPD2    C313392   0.234   2.999  16.380 -0.0255  0.8428 -0.0872
  911MPD2    C413393   0.213   2.934  16.258  0.4009  0.4536 -0.0477
  911MPD2    C513394   0.245   2.801  16.244  0.4995  0.1363 -0.3288
  911MPD2     H13395   0.328   2.976  16.573 -0.4985 -0.5475 -0.7521
  911MPD2    H113396   0.180   2.993  16.173 -3.3650 -0.8112  0.5237
  911MPD2    H213397   0.309   2.625  16.329 -3.2435 -0.4401 -1.1165
  911MPD2    H313398   0.242   2.763  16.143 -0.3273 -1.0156  0.1207
  911MPD2     N13399   0.216   3.140  16.388  0.2794 -0.1056  0.3761
  911MPD2    H513400   0.166   3.188  16.314  0.0254 -0.5367  0.2664
  911MPD2    N113401   0.356   2.694  16.571  0.0428  0.5428 -0.0160
  911MPD2    H713402   0.359   2.594  16.554 -2.4361  0.5868 -0.6673
  912MPD2     C13403   4.707   3.119  15.898 -0.6921 -0.1378  0.1926
  912MPD2    C113404   4.695   3.130  16.036  0.0486 -0.4708 -0.6324
  912MPD2    C213405   4.663   3.013  16.105 -0.1900 -0.2329 -0.4199
  912MPD2    C313406   4.665   2.890  16.035  0.3451  0.3388  0.2015
  912MPD2    C413407   4.680   2.887  15.901  0.2074 -0.0305 -0.3598
  912MPD2    C513408   4.696   3.001  15.827 -0.1580 -0.5767 -0.3988
  912MPD2     H13409   4.654   3.013  16.213 -0.3548  3.4520 -0.4344
  912MPD2    H113410   4.695   2.792  15.851  0.5022 -0.0921 -0.1503
  912MPD2    H213411   4.712   3.206  15.834 -1.0055  0.0054  0.3630
  912MPD2    H313412   4.729   2.986  15.725  1.7109 -0.1291  0.1308
  912MPD2     N13413   4.643   2.782  16.124  0.2594  0.5920  0.1219
  912MPD2    H513414   4.635   2.804  16.222 -1.3696 -3.1508  0.8314
  912MPD2    N113415   4.726   3.250  16.097 -0.9343  0.3673 -0.6088
  912MPD2    H713416   0.028   3.319  16.034  1.9934 -2.4989 -1.8256
  913MPD2     C13417   1.712   0.600   9.921  0.4188 -0.4773 -0.3437
  913MPD2    C113418   1.597   0.530   9.913  0.1489 -0.3291  0.1623
  913MPD2    C213419   1.473   0.593   9.909  0.1635 -0.3167  0.7790
  913MPD2    C313420   1.473   0.729   9.909 -0.0415 -0.0449 -0.0740
  913MPD2    C413421   1.593   0.798   9.921 -0.2983 -0.5310 -0.6527
  913MPD2    C513422   1.716   0.732   9.938  0.3923 -0.0877 -0.3399
  913MPD2     H13423   1.386   0.533   9.882 -0.3304  1.1888 -0.9734
  913MPD2    H113424   1.590   0.905   9.932 -1.9289 -0.6162 -0.2009
  913MPD2    H213425   1.804   0.544   9.928 -0.5586 -1.8304  1.6886
  913MPD2    H313426   1.810   0.785   9.948  0.3375 -0.2991  1.2637
  913MPD2     N13427   1.349   0.802   9.903  0.0017 -0.2656 -0.1743
  913MPD2    H513428   1.348   0.903   9.886  0.5165  0.2333  2.7627
  913MPD2    N113429   1.614   0.387   9.882  0.6543  0.3118 -0.3376
  913MPD2    H713430   1.710   0.355   9.872  0.6138 -0.2515  1.0490
  914MPD2     C13431   2.955   3.724  12.945 -0.2419 -0.2176 -0.2141
  914MPD2    C113432   3.093   3.727  12.930  0.0797 -0.4458  0.4115
  914MPD2    C213433   3.158   3.604  12.956 -0.0746  0.8363  0.8219
  914MPD2    C313434   3.099   3.500  13.023 -0.2130 -0.6903 -0.2385
  914MPD2    C413435   2.966   3.506  13.047 -1.1273 -0.6220  0.9875
  914MPD2    C513436   2.894   3.614  13.001 -0.1973 -0.3047  0.5367
  914MPD2     H13437   3.264   3.596  12.936 -0.3307  3.3180 -1.5047
  914MPD2    H113438   2.907   3.424  13.086  1.4853 -1.9930  2.1205
  914MPD2    H213439   2.898   3.816  12.937  0.2378 -0.1139 -2.4974
  914MPD2    H313440   2.786   3.615  13.017 -0.2446  2.8377 -0.0635
  914MPD2     N13441   3.180   3.401  13.071  0.1515 -0.4143 -0.5707
  914MPD2    H513442   3.276   3.410  13.040 -0.0386  1.2294 -0.6833
  914MPD2    N113443   3.163   3.848  12.902  0.2903 -0.1803  0.3023
  914MPD2    H713444   3.100   3.924  12.876 -1.7155 -0.9018  3.1009
  915MPD2     C13445   1.362   3.603  15.946  0.0953  0.2995  0.3181
  915MPD2    C113446   1.231   3.617  15.922 -0.4060 -0.1271  0.1280
  915MPD2    C213447   1.154   3.675  16.025 -0.3846 -0.6963 -0.9131
  915MPD2    C313448   1.205   3.717  16.143 -0.6945  0.4205  0.4377
  915MPD2    C413449   1.339   3.681  16.170  0.5382 -0.0831  0.0508
  915MPD2    C513450   1.419   3.637  16.065 -0.2788 -0.2921 -0.4105
  915MPD2     H13451   1.049   3.693  16.006 -0.6177 -0.5598  0.4902
  915MPD2    H113452   1.379   3.692  16.270  3.1039 -2.2439 -0.7231
  915MPD2    H213453   1.436   3.574  15.873  0.3582  0.8243  0.3729
  915MPD2    H313454   1.525   3.628  16.085  0.4003  1.0732 -3.5373
  915MPD2     N13455   1.114   3.778  16.233 -0.0803 -0.0733  1.0755
  915MPD2    H513456   1.019   3.786  16.199 -0.0156  1.5991  1.3133
  915MPD2    N113457   1.173   3.571  15.798 -0.1176  0.3687 -0.0386
  915MPD2    H713458   1.231   3.578  15.716 -1.8104 -0.8042 -1.3481
  916MPD2     C13459   4.132   2.155  16.064  0.3566 -0.4380  0.6401
  916MPD2    C113460   4.144   2.057  16.161 -0.2839  0.2607 -0.2565
  916MPD2    C213461   4.208   1.938  16.129  0.0909  0.1240  0.6303
  916MPD2    C313462   4.257   1.917  15.998 -0.7106  0.1225 -0.1750
  916MPD2    C413463   4.232   2.011  15.900  0.2500 -0.5937 -0.5303
  916MPD2    C513464   4.174   2.134  15.934 -0.2665 -0.5362  0.6308
  916MPD2     H13465   4.203   1.856  16.200  3.0681 -2.0532 -1.7040
  916MPD2    H113466   4.257   1.992  15.796  1.6463  0.2162 -0.3466
  916MPD2    H213467   4.084   2.250  16.085  1.7452  0.0042  1.8190
  916MPD2    H313468   4.146   2.212  15.865 -0.9984 -0.9956  0.4064
  916MPD2     N13469   4.315   1.791  15.972  0.5948  0.0321  0.4100
  916MPD2    H513470   4.328   1.731  16.054 -0.3378 -0.7467 -0.0134
  916MPD2    N113471   4.082   2.085  16.293 -0.1388 -0.0688  0.2740
  916MPD2    H713472   4.061   2.183  16.311  2.3912  0.4483  0.4610
  917MPD2     C13473   0.338   4.212  11.960 -0.4375 -0.1380 -0.5248
  917MPD2    C113474   0.228   4.259  11.898 -0.2873  0.4432 -0.1730
  917MPD2    C213475   0.235   4.365  11.802 -0.4894  0.3558 -0.1659
  917MPD2    C313476   0.354   4.426  11.771  0.5377 -0.9543 -0.4280
  917MPD2    C413477   0.469   4.377  11.842 -0.8747 -0.9241  0.1660
  917MPD2    C513478   0.457   4.273  11.930  0.8093 -0.4026 -0.2164
  917MPD2     H13479   0.140   4.405  11.769 -0.9266  0.8714  1.7180
  917MPD2    H113480   0.564   4.426  11.822 -2.3134  2.0753  0.7094
  917MPD2    H213481   0.333   4.126  12.025  2.6517 -0.9329 -1.2999
  917MPD2    H313482   0.544   4.231  11.978  0.1926 -0.9358  0.4395
  917MPD2     N13483   0.367   4.538  11.684  0.0973 -0.3000  0.1243
  917MPD2    H513484   0.464   4.563  11.674 -0.4576  1.5412 -0.6806
  917MPD2    N113485   0.103   4.206  11.946 -0.1484 -0.0714 -0.6840
  917MPD2    H713486   0.108   4.133  12.017 -0.5204 -0.3095 -0.9012
  918MPD2     C13487   4.328   0.186  12.220  0.6190  0.0294 -0.6881
  918MPD2    C113488   4.458   0.136  12.206  0.3095 -0.1715  1.2481
  918MPD2    C213489   4.478   0.000  12.199  0.1580  0.2038 -0.2882
  918MPD2    C313490   4.376   4.648  12.219 -0.2024 -0.1171  0.5790
  918MPD2    C413491   4.251   4.698  12.243 -0.0852  0.2922  0.3952
  918MPD2    C513492   4.225   0.097  12.229  0.4733 -0.6764 -0.1532
  918MPD2     H13493   4.577   4.709  12.166 -1.0981 -0.2286 -3.6443
  918MPD2    H113494   4.158   4.645  12.262 -0.9474  1.5257 -0.3568
  918MPD2    H213495   4.304   0.292  12.215  0.1091 -0.1606 -2.1834
  918MPD2    H313496   4.125   0.135  12.242  1.3821  1.0012  2.0198
  918MPD2     N13497   4.388   4.504  12.213  0.2847  0.0283  0.4114
  918MPD2    H513498   4.301   4.453  12.213  0.5054 -0.3488  0.6083
  918MPD2    N113499   4.578   0.212  12.200  0.5970  0.0637 -0.2225
  918MPD2    H713500   4.662   0.154  12.200  0.2618 -0.4070  1.0139
  919MPD2     C13501   0.219   3.389  11.812  0.0630 -0.5727  0.4606
  919MPD2    C113502   0.229   3.254  11.795  0.1085  0.0678  0.6441
  919MPD2    C213503   0.261   3.203  11.674  0.9285 -0.6465  0.6473
  919MPD2    C313504   0.291   3.286  11.570  0.7332  0.6086  0.2335
  919MPD2    C413505   0.297   3.419  11.587 -0.2493  0.6042  0.3739
  919MPD2    C513506   0.247   3.473  11.701  0.1845 -0.2702 -0.9123
  919MPD2     H13507   0.270   3.095  11.661 -1.4760 -0.4146 -2.9441
  919MPD2    H113508   0.340   3.483  11.511  0.3769  0.9873  1.0544
  919MPD2    H213509   0.182   3.440  11.901 -2.8447  0.9577 -1.6178
  919MPD2    H313510   0.251   3.580  11.723 -1.3510 -0.3333 -0.3482
  919MPD2     N13511   0.309   3.243  11.435 -0.2461  0.0867 -0.3506
  919MPD2    H513512   0.310   3.318  11.367 -0.5596  0.7565  0.3801
  919MPD2    N113513   0.188   3.162  11.891 -0.0788 -0.0128 -0.3613
  919MPD2    H713514   0.200   3.062  11.881 -0.8201 -0.0746 -0.6384
  920MPD2     C13515   0.198   3.529  10.502  0.0402 -0.1795 -0.0137
  920MPD2    C113516   0.160   3.396  10.484 -0.0236 -0.4795 -0.9228
  920MPD2    C213517   0.172   3.304  10.586  0.2809  0.1000  0.3036
  920MPD2    C313518   0.217   3.332  10.712  0.2049 -0.9104  0.7533
  920MPD2    C413519   0.269   3.461  10.727 -0.1033  0.3730 -0.3530
  920MPD2    C513520   0.245   3.558  10.624  0.5002  0.6782  0.6852
  920MPD2     H13521   0.156   3.202  10.553 -0.7698  0.3955 -0.0823
  920MPD2    H113522   0.307   3.502  10.820  1.1456 -1.5238 -0.0375
  920MPD2    H213523   0.184   3.605  10.427  1.9792 -0.9912 -1.1916
  920MPD2    H313524   0.288   3.655  10.647 -1.2202  1.2065  1.6634
  920MPD2     N13525   0.206   3.239  10.818  0.9079 -0.4816 -0.0253
  920MPD2    H513526   0.169   3.150  10.786  0.4474 -0.5116  0.5927
  920MPD2    N113527   0.115   3.344  10.364  0.3113  0.0022 -0.1305
  920MPD2    H713528   0.080   3.249  10.365 -0.5470  0.3016 -1.0415
  921MPD2     C13529   1.114   2.841  16.939 -0.2887 -0.1304 -0.7106
  921MPD2    C113530   1.106   2.710  16.904 -0.1561 -0.7698  0.0808
  921MPD2    C213531   0.985   2.645  16.941 -0.7061 -0.1711 -0.4162
  921MPD2    C313532   0.877   2.703  17.007  0.5238  0.2495 -0.9210
  921MPD2    C413533   0.885   2.836  17.038  0.9195  0.7014  0.2347
  921MPD2    C513534   1.001   2.895  17.005 -0.1716 -0.8984  1.0553
  921MPD2     H13535   0.979   2.538  16.926  0.8341 -0.3154  0.0407
  921MPD2    H113536   0.798   2.897  17.058 -1.7380 -2.7081 -0.8302
  921MPD2    H213537   1.198   2.906  16.920  0.7742 -1.1003  0.6563
  921MPD2    H313538   1.011   2.994  17.047  0.9348 -0.4350 -0.3112
  921MPD2     N13539   0.749   2.642  17.020  0.3846 -0.4640 -0.3938
  921MPD2    H513540   0.671   2.701  17.048  0.4782  0.5497 -2.2865
  921MPD2    N113541   1.207   2.654  16.821  0.0869 -0.0373  0.1029
  921MPD2    H713542   1.293   2.702  16.797  1.4727 -1.0665  3.0864
  922MPD2     C13543   2.319   1.007   0.073 -0.7087 -0.3063 -0.0668
  922MPD2    C113544   2.242   0.958   0.173 -0.7739  1.2575  0.5936
  922MPD2    C213545   2.176   0.837   0.165 -0.1770 -0.1926  0.1427
  922MPD2    C313546   2.174   0.771   0.045 -0.5015 -0.5261 -0.0967
  922MPD2    C413547   2.229   0.831  17.689  0.2901  0.0808  0.0040
  922MPD2    C513548   2.302   0.944  17.705  0.0271 -0.0543 -0.5052
  922MPD2     H13549   2.136   0.793   0.256  1.3085  0.7740  1.2489
  922MPD2    H113550   2.222   0.798  17.586 -2.5216 -0.1978  0.2996
  922MPD2    H213551   2.372   1.101   0.083  0.5888 -0.9209 -1.1079
  922MPD2    H313552   2.354   0.981  17.617 -0.6554  1.5625 -0.2153
  922MPD2     N13553   2.097   0.651   0.031  0.3153  0.2844  0.1969
  922MPD2    H513554   2.057   0.614   0.117 -0.1598 -0.7260 -0.4501
  922MPD2    N113555   2.257   1.026   0.299 -0.2990 -0.2591  0.7653
  922MPD2    H713556   2.185   0.986   0.359 -0.1025 -0.4782  0.8557
  923MPD2     C13557   3.578   2.105  10.043  0.4683  0.1755 -0.2169
  923MPD2    C113558   3.486   2.198   9.991 -0.0670 -0.6972  0.1619
  923MPD2    C213559   3.530   2.331   9.988  0.0935 -0.0401  0.3186
  923MPD2    C313560   3.646   2.369  10.046  0.3759  0.1692  0.0026
  923MPD2    C413561   3.720   2.282  10.125 -0.3288 -0.4680 -0.2334
  923MPD2    C513562   3.694   2.148  10.109 -0.4348 -0.0018  0.1473
  923MPD2     H13563   3.462   2.408   9.954 -0.6372  0.4719  2.9373
  923MPD2    H113564   3.818   2.306  10.164  1.0795 -0.7637 -3.6157
  923MPD2    H213565   3.571   1.997  10.038  3.5695 -0.0873  0.5852
  923MPD2    H313566   3.765   2.079  10.152 -2.2270 -2.0710 -0.2304
  923MPD2     N13567   3.702   2.493  10.047 -0.2057 -0.1073  0.4117
  923MPD2    H513568   3.778   2.499  10.114  2.1070 -0.1570 -2.1999
  923MPD2    N113569   3.370   2.156   9.918 -0.0491 -0.6120  0.1130
  923MPD2    H713570   3.353   2.056   9.917  1.4187 -0.8678  2.0210
  924MPD2     C13571   3.427   0.423  16.807 -0.8788 -0.1957  0.5418
  924MPD2    C113572   3.373   0.532  16.746 -0.7859 -0.6135  0.3703
  924MPD2    C213573   3.418   0.572  16.624  0.2812  0.9143  0.6793
  924MPD2    C313574   3.526   0.509  16.571 -0.0405  0.9333 -0.4912
  924MPD2    C413575   3.571   0.387  16.625 -0.0682 -0.5867 -0.5083
  924MPD2    C513576   3.515   0.343  16.744 -0.5618  0.1777 -0.0841
  924MPD2     H13577   3.368   0.651  16.569 -2.2082 -1.2408 -0.1975
  924MPD2    H113578   3.631   0.322  16.562  2.3110  1.9387 -0.8932
  924MPD2    H213579   3.399   0.384  16.905 -3.1102  1.1818  0.4594
  924MPD2    H313580   3.560   0.256  16.789  0.9166  1.6644  1.3108
  924MPD2     N13581   3.580   0.546  16.443 -0.0717  0.0341  0.2925
  924MPD2    H513582   3.630   0.472  16.396  0.0016 -0.7513  1.6069
  924MPD2    N113583   3.264   0.600  16.804 -0.5816  0.0260  0.5132
  924MPD2    H713584   3.244   0.569  16.898 -0.5746  1.4778  0.9811
  925MPD2     C13585   1.419   3.494  14.702  0.8351 -0.8993 -0.1894
  925MPD2    C113586   1.455   3.360  14.691 -0.3602  0.3575 -0.8475
  925MPD2    C213587   1.488   3.297  14.811 -0.3075 -1.0751 -0.0464
  925MPD2    C313588   1.481   3.357  14.938  0.9935  0.1687 -0.1219
  925MPD2    C413589   1.456   3.494  14.939 -0.6637 -0.1682  0.5695
  925MPD2    C513590   1.428   3.563  14.818 -0.4016 -0.4885  0.5491
  925MPD2     H13591   1.517   3.193  14.804 -0.4071 -0.9939 -1.6747
  925MPD2    H113592   1.456   3.556  15.027 -0.4848  0.5194  0.0879
  925MPD2    H213593   1.404   3.552  14.612  0.7217 -1.5753 -0.6069
  925MPD2    H313594   1.412   3.671  14.816 -0.3649 -0.5003 -0.6058
  925MPD2     N13595   1.506   3.296  15.058 -0.2841  0.2073  0.3761
  925MPD2    H513596   1.504   3.360  15.136 -0.1647 -0.8571  1.2491
  925MPD2    N113597   1.458   3.280  14.573  0.5508  0.1181  0.0786
  925MPD2    H713598   1.479   3.181  14.575 -0.8114 -0.1822 -0.0844
  926MPD2     C13599   1.091   1.615  13.809  0.0963  0.2405  0.1706
  926MPD2    C113600   0.988   1.704  13.819 -0.0259 -0.2800  0.3350
  926MPD2    C213601   0.977   1.808  13.733 -0.6523  0.3318 -0.4459
  926MPD2    C313602   1.080   1.832  13.645 -0.6657 -1.2210  0.4711
  926MPD2    C413603   1.190   1.751  13.647  0.3698 -0.4462 -0.4955
  926MPD2    C513604   1.192   1.636  13.722  0.3858 -0.4170  0.1171
  926MPD2     H13605   0.893   1.875  13.750 -0.0879  0.9947 -0.3077
  926MPD2    H113606   1.280   1.768  13.589  0.4741  1.7186  0.2900
  926MPD2    H213607   1.103   1.527  13.872 -2.5568  1.7527  2.7564
  926MPD2    H313608   1.279   1.575  13.742  1.2505  0.5636 -0.6191
  926MPD2     N13609   1.085   1.935  13.550 -0.0088  0.7368  0.1107
  926MPD2    H513610   1.168   1.935  13.492 -0.2840 -0.9151 -0.2829
  926MPD2    N113611   0.879   1.681  13.911 -0.8656  0.6764 -0.6066
  926MPD2    H713612   0.799   1.743  13.898  0.3706  2.1971 -1.0387
  927MPD2     C13613   0.029   4.068  17.671 -0.8720 -0.4106 -0.1492
  927MPD2    C113614   0.112   3.968  17.716 -0.6917 -0.3157  0.2835
  927MPD2    C213615   0.214   3.927  17.631 -0.1759  0.3039  0.3719
  927MPD2    C313616   0.218   3.969  17.498  0.2907  0.1646 -0.5306
  927MPD2    C413617   0.124   4.060  17.454 -0.1221 -0.1793  0.1969
  927MPD2    C513618   0.039   4.113  17.548  0.5899 -0.2091  1.0334
  927MPD2     H13619   0.288   3.859  17.672 -0.5065  0.3332  1.0163
  927MPD2    H113620   0.123   4.097  17.352 -1.8882 -1.5955 -0.2875
  927MPD2    H213621   4.699   4.124  17.734  1.1327  1.6192  0.2172
  927MPD2    H313622   4.711   4.191  17.512  0.3650 -0.1386  1.6070
  927MPD2     N13623   0.323   3.917  17.424  0.2669 -0.6574  0.6151
  927MPD2    H513624   0.387   3.853  17.469  1.6152 -0.0326 -0.4128
  927MPD2    N113625   0.106   3.938   0.098 -0.0761 -0.5933 -0.6445
  927MPD2    H713626   0.033   3.990   0.145  1.2139 -1.0692  1.8706
  928MPD2     C13627   2.990   2.766   1.329 -0.3771  0.1930 -0.5933
  928MPD2    C113628   3.125   2.757   1.321 -0.0860 -0.1654 -0.4772
  928MPD2    C213629   3.177   2.713   1.204  0.2231 -0.8713  0.3396
  928MPD2    C313630   3.095   2.675   1.093 -0.1188  0.4163  0.0285
  928MPD2    C413631   2.959   2.679   1.103  0.3268  0.5271  0.1464
  928MPD2    C513632   2.904   2.727   1.227 -0.1908  0.5109 -0.4386
  928MPD2     H13633   3.284   2.704   1.193  0.1551 -1.1055 -0.1564
  928MPD2    H113634   2.906   2.645   1.014  1.1042  1.6318 -0.7206
  928MPD2    H213635   2.947   2.817   1.415 -0.7723  1.0573 -1.2975
  928MPD2    H313636   2.796   2.728   1.239 -0.0244  2.3828  0.9438
  928MPD2     N13637   3.144   2.644   0.964 -0.5759 -0.4355  0.1377
  928MPD2    H513638   3.076   2.627   0.891 -0.5473 -1.7025  0.4133
  928MPD2    N113639   3.202   2.798   1.430 -0.9794 -0.2133  0.5264
  928MPD2    H713640   3.156   2.834   1.513  0.3478  2.2399  0.2059
  929MPD2     C13641   3.346   2.345  10.262  0.3581 -0.0148  0.2547
  929MPD2    C113642   3.229   2.282  10.231 -0.1071  0.6493  0.1510
  929MPD2    C213643   3.131   2.346  10.158 -0.5552 -0.2518 -0.8241
  929MPD2    C313644   3.130   2.481  10.147 -0.3505  0.6965  0.3658
  929MPD2    C413645   3.249   2.551  10.171  0.1236 -0.5710 -0.6730
  929MPD2    C513646   3.360   2.478  10.229 -0.5688  1.1430  0.6308
  929MPD2     H13647   3.044   2.283  10.150 -1.4439  0.7107  1.1528
  929MPD2    H113648   3.253   2.658  10.156 -2.2987 -0.2189  1.0849
  929MPD2    H213649   3.436   2.294  10.298  1.9919  1.1079 -2.2649
  929MPD2    H313650   3.457   2.524  10.247  0.2657  0.5979 -2.5449
  929MPD2     N13651   3.018   2.549  10.108  0.0875  0.3956  0.2951
  929MPD2    H513652   3.007   2.650  10.116  1.5842  0.5655  0.2787
  929MPD2    N113653   3.224   2.147  10.267  0.2700  0.4448  0.1808
  929MPD2    H713654   3.303   2.104  10.312 -1.5303 -0.9824  1.9974
  930MPD2     C13655   0.213   4.387  14.236 -0.1416  0.0132  1.1063
  930MPD2    C113656   0.310   4.422  14.144 -0.0873  0.0621  0.4123
  930MPD2    C213657   0.303   4.357  14.021 -0.0854  0.3163  0.2619
  930MPD2    C313658   0.207   4.263  13.985  0.2792 -0.4434 -0.5782
  930MPD2    C413659   0.109   4.241  14.071 -0.2551  0.2222  0.5147
  930MPD2    C513660   0.111   4.300  14.196 -0.6583 -0.3342 -0.2246
  930MPD2     H13661   0.377   4.373  13.944 -0.3437 -1.6506 -0.4127
  930MPD2    H113662   0.029   4.171  14.047  0.4647  0.0805 -1.4973
  930MPD2    H213663   0.204   4.427  14.336 -1.0401  2.6853 -0.0425
  930MPD2    H313664   0.025   4.289  14.261  0.2160  0.3814  1.0590
  930MPD2     N13665   0.209   4.212  13.851 -0.2402  0.4211  0.2471
  930MPD2    H513666   0.274   4.252  13.785 -0.8373  1.9901  0.6260
  930MPD2    N113667   0.400   4.522  14.178 -0.0712 -0.3775 -0.2641
  930MPD2    H713668   0.395   4.575  14.265 -0.1156  0.3508 -0.7060
  931MPD2     C13669   0.743   3.880   0.711 -0.5345 -0.2678 -0.1309
  931MPD2    C113670   0.647   3.786   0.675 -0.0135  1.4130 -0.1204
  931MPD2    C213671   0.666   3.653   0.716  0.0383 -0.0873  0.2183
  931MPD2    C313672   0.769   3.615   0.798 -0.0419 -0.0441 -0.2230
  931MPD2    C413673   0.866   3.705   0.821  0.0168 -0.0769 -0.6669
  931MPD2    C513674   0.861   3.830   0.768 -0.6401 -0.0988  0.5534
  931MPD2     H13675   0.586   3.588   0.684 -1.1554  0.8586  1.2969
  931MPD2    H113676   0.949   3.669   0.880 -1.8901  0.0023  2.0238
  931MPD2    H213677   0.741   3.982   0.676  1.0590  0.5337  2.1225
  931MPD2    H313678   0.935   3.906   0.792  1.0797 -0.9941 -1.9230
  931MPD2     N13679   0.782   3.483   0.852  0.0693 -0.0863 -0.1690
  931MPD2    H513680   0.867   3.465   0.906 -0.8838  0.4163  1.4809
  931MPD2    N113681   0.537   3.847   0.605  0.4184 -0.0619 -0.0032
  931MPD2    H713682   0.546   3.945   0.579 -1.5727  0.0952 -0.1286
  932MPD2     C13683   2.248   2.920  11.645  0.6086  0.4629 -0.6092
  932MPD2    C113684   2.287   2.967  11.770 -0.0369  0.4269 -0.6968
  932MPD2    C213685   2.346   2.880  11.862  1.0086 -0.2769  0.2090
  932MPD2    C313686   2.371   2.749  11.829 -0.0122 -0.3158  0.8348
  932MPD2    C413687   2.337   2.700  11.704  0.4037  0.0035  0.4097
  932MPD2    C513688   2.273   2.788  11.612 -0.1972  0.1464  0.1529
  932MPD2     H13689   2.371   2.910  11.963 -1.0148  2.7203 -0.1755
  932MPD2    H113690   2.342   2.597  11.671 -0.0612  0.5227 -1.3190
  932MPD2    H213691   2.213   2.988  11.568 -1.4768  0.0763  0.0011
  932MPD2    H313692   2.240   2.749  11.516 -0.6991 -3.4782  1.7878
  932MPD2     N13693   2.423   2.649  11.919  1.1730 -0.3325  0.4866
  932MPD2    H513694   2.430   2.558  11.875  1.1698  0.0921 -0.3754
  932MPD2    N113695   2.285   3.101  11.798 -0.1963  0.0889 -0.3881
  932MPD2    H713696   2.356   3.135  11.862  0.0684 -2.0090  0.4562
  933MPD2     C13697   3.394   3.422   1.975 -0.0058  0.3248 -0.5661
  933MPD2    C113698   3.325   3.357   1.874 -0.3821 -0.1158  0.3206
  933MPD2    C213699   3.196   3.403   1.853 -0.1830  0.1094 -0.5771
  933MPD2    C313700   3.153   3.517   1.911 -0.3501 -0.2471 -0.3600
  933MPD2    C413701   3.226   3.587   1.999  0.1218 -0.1440 -0.2183
  933MPD2    C513702   3.351   3.537   2.035  0.0320 -0.8256 -0.3240
  933MPD2     H13703   3.132   3.362   1.776 -3.2545 -0.3855  2.2581
  933MPD2    H113704   3.189   3.675   2.050  0.4906 -0.2334  0.2054
  933MPD2    H213705   3.493   3.388   2.003 -0.9677 -0.9354  1.2170
  933MPD2    H313706   3.413   3.592   2.104 -2.5378 -0.3050  1.5869
  933MPD2     N13707   3.030   3.568   1.871  0.1412  0.3041 -0.3533
  933MPD2    H513708   2.981   3.525   1.794  0.3138  0.5403 -0.5929
  933MPD2    N113709   3.367   3.238   1.819  0.0615 -0.7274 -0.0899
  933MPD2    H713710   3.450   3.206   1.866  0.6242  0.5864 -0.1701
  934MPD2     C13711   0.488   0.489   2.185 -0.3801  0.2113 -0.0749
  934MPD2    C113712   0.539   0.399   2.095  0.1178  0.1019 -0.2082
  934MPD2    C213713   0.449   0.321   2.017  0.3061 -0.3985 -0.1898
  934MPD2    C313714   0.315   0.327   2.039  0.3067 -0.2518 -0.7571
  934MPD2    C413715   0.270   0.415   2.134 -0.1615 -0.6463 -0.2335
  934MPD2    C513716   0.353   0.496   2.200  0.1051  1.0018 -0.5433
  934MPD2     H13717   0.497   0.254   1.946  0.5452 -1.2678  0.7805
  934MPD2    H113718   0.162   0.409   2.147 -0.2492  0.1451 -0.6061
  934MPD2    H213719   0.549   0.569   2.226  2.5712 -2.0778 -0.0001
  934MPD2    H313720   0.313   0.578   2.260 -0.3259  0.2902  0.1418
  934MPD2     N13721   0.220   0.245   1.982  1.0193  0.0896 -0.1163
  934MPD2    H513722   0.124   0.248   2.014  0.8413 -1.4924 -0.4765
  934MPD2    N113723   0.681   0.375   2.075 -0.5485 -0.0033  0.2586
  934MPD2    H713724   0.705   0.310   2.002 -3.6305  1.0240 -1.6433
  935MPD2     C13725   0.273   4.177   1.339 -0.3073 -0.6834  0.2606
  935MPD2    C113726   0.137   4.228   1.334 -0.5750  0.2857  0.2502
  935MPD2    C213727   0.101   4.332   1.422 -0.8719  0.1830  0.5335
  935MPD2    C313728   0.190   4.379   1.514  0.2990 -0.2460  0.0034
  935MPD2    C413729   0.314   4.317   1.522 -0.5769 -0.2548 -0.5171
  935MPD2    C513730   0.354   4.218   1.439 -0.1471 -0.1660 -0.4840
  935MPD2     H13731   4.737   4.366   1.431 -0.4918  1.7277 -0.8769
  935MPD2    H113732   0.382   4.354   1.599  0.2010 -0.1645 -1.2463
  935MPD2    H213733   0.318   4.088   1.296  0.6395  0.3327 -0.8537
  935MPD2    H313734   0.451   4.170   1.442  0.4661  1.2380  1.7382
  935MPD2     N13735   0.161   4.474   1.612 -0.0405 -0.0820  0.4769
  935MPD2    H513736   0.231   4.498   1.681  0.2201 -2.1595  0.9460
  935MPD2    N113737   0.041   4.164   1.256  0.2510  0.2597 -0.0271
  935MPD2    H713738   4.683   4.192   1.274  0.2846  0.2270  0.1990
  936MPD2     C13739   2.584   1.446  12.301  0.8635  0.1869  0.4963
  936MPD2    C113740   2.556   1.488  12.430  0.3780  0.2527 -1.0811
  936MPD2    C213741   2.521   1.627  12.443  0.4513  0.0046  0.2310
  936MPD2    C313742   2.515   1.721  12.342  0.4472  0.7720  0.3103
  936MPD2    C413743   2.553   1.676  12.217 -0.4382 -0.3472  0.2271
  936MPD2    C513744   2.594   1.543  12.207 -0.5722  0.2581  0.1244
  936MPD2     H13745   2.500   1.658  12.544  0.6116  0.6209  0.0715
  936MPD2    H113746   2.542   1.739  12.130 -0.1604  0.2799  0.6497
  936MPD2    H213747   2.610   1.344  12.275 -0.6215 -0.4288  1.4417
  936MPD2    H313748   2.632   1.493  12.118 -0.6297  1.3759 -0.5256
  936MPD2     N13749   2.482   1.854  12.366 -0.1319 -0.6366  0.9856
  936MPD2    H513750   2.499   1.925  12.296 -1.5648  0.5822  1.8790
  936MPD2    N113751   2.560   1.413  12.543 -0.1070 -0.7497 -0.6815
  936MPD2    H713752   2.536   1.468  12.625  0.9856 -3.1969  1.2864
  937MPD2     C13753   0.425   2.587  11.846  0.5793  0.1328 -0.1259
  937MPD2    C113754   0.450   2.717  11.883 -0.6620  0.3539 -0.3665
  937MPD2    C213755   0.518   2.796  11.795 -0.4798  0.3679 -0.1402
  937MPD2    C313756   0.549   2.750  11.669  0.0213  0.5873 -0.1559
  937MPD2    C413757   0.538   2.615  11.639  1.0331 -0.3580  0.1010
  937MPD2    C513758   0.467   2.536  11.723 -0.2689  0.2974  0.0644
  937MPD2     H13759   0.530   2.902  11.813 -0.8265  0.8263 -2.6237
  937MPD2    H113760   0.548   2.576  11.538  0.2638  0.7763 -0.4066
  937MPD2    H213761   0.364   2.523  11.909  1.2087 -0.4834 -0.1462
  937MPD2    H313762   0.437   2.433  11.707  0.1481  0.2231 -0.2339
  937MPD2     N13763   0.601   2.851  11.587  0.1309 -0.4591 -0.2330
  937MPD2    H513764   0.601   2.947  11.618 -0.6014 -0.3642 -0.5249
  937MPD2    N113765   0.372   2.786  11.981 -0.1140  0.3225 -0.1282
  937MPD2    H713766   0.368   2.885  11.961  1.6843  0.2831 -0.6959
  938MPD2     C13767   3.255   4.528   0.933  0.2998 -0.3923  0.2451
  938MPD2    C113768   3.348   4.430   0.964  0.2210  0.1078 -0.1412
  938MPD2    C213769   3.323   4.328   1.060 -0.2672 -0.1000  0.0942
  938MPD2    C313770   3.219   4.351   1.155  0.6490  0.2319  0.8958
  938MPD2    C413771   3.134   4.452   1.123 -0.1828  0.8213  0.3073
  938MPD2    C513772   3.158   4.540   1.025 -0.8895  0.2890  0.0349
  938MPD2     H13773   3.400   4.253   1.076 -0.1998 -0.2568 -0.9439
  938MPD2    H113774   3.050   4.465   1.191  0.4458  0.1232  1.2148
  938MPD2    H213775   3.268   4.592   0.847 -1.3296 -1.2454 -0.6377
  938MPD2    H313776   3.087   4.622   1.016  0.3772  1.3544 -0.2782
  938MPD2     N13777   3.200   4.273   1.273 -0.1423 -0.9951  0.1604
  938MPD2    H513778   3.129   4.301   1.340 -2.6066  1.7720 -3.5874
  938MPD2    N113779   3.482   4.429   0.912  0.2568 -0.0408 -0.2971
  938MPD2    H713780   3.546   4.354   0.934  0.3941  0.3372  0.5809
  939MPD2     C13781   4.218   0.741   1.228  0.2638 -0.0310  0.0070
  939MPD2    C113782   4.305   0.663   1.296  0.3097 -0.7827 -0.2479
  939MPD2    C213783   4.398   0.582   1.227 -0.4736  0.2508  0.0788
  939MPD2    C313784   4.410   0.586   1.093  0.4573  0.4636 -0.1888
  939MPD2    C413785   4.329   0.668   1.022  0.2888 -0.0760  0.0814
  939MPD2    C513786   4.231   0.742   1.094 -0.3757  0.4540  0.2784
  939MPD2     H13787   4.473   0.520   1.275  1.6960  1.5905 -1.5732
  939MPD2    H113788   4.341   0.682   0.915 -1.2618  0.8333  0.0246
  939MPD2    H213789   4.155   0.812   1.279 -0.0037  0.2267 -0.6871
  939MPD2    H313790   4.164   0.813   1.048  0.2097  0.9953  0.2627
  939MPD2     N13791   4.509   0.509   1.027  0.1438  0.0835  0.2387
  939MPD2    H513792   4.570   0.450   1.083 -0.9450 -3.7940 -2.6400
  939MPD2    N113793   4.302   0.679   1.439  0.1134  0.0453 -0.4897
  939MPD2    H713794   4.219   0.721   1.480  0.3722 -0.8909  0.9816
  940MPD2     C13795   3.673   1.060  13.265  0.4409 -0.5048 -0.0630
  940MPD2    C113796   3.539   1.072  13.230  0.2306 -0.6338  0.7660
  940MPD2    C213797   3.492   1.025  13.110  0.1910  0.4599 -0.0398
  940MPD2    C313798   3.576   0.943  13.032 -0.8074  0.7952 -0.5730
  940MPD2    C413799   3.713   0.933  13.069  0.1652 -0.9442  0.0345
  940MPD2    C513800   3.758   0.988  13.184  0.1214  0.2095  0.1492
  940MPD2     H13801   3.388   1.038  13.083 -0.6047 -2.3357  1.7649
  940MPD2    H113802   3.792   0.890  13.009  0.8775 -2.8352  2.3151
  940MPD2    H213803   3.720   1.106  13.351 -1.0773 -0.3299  0.6727
  940MPD2    H313804   3.863   0.977  13.208  0.1852  0.3349 -0.0715
  940MPD2     N13805   3.538   0.869  12.923  0.5163 -0.1571  0.1888
  940MPD2    H513806   3.609   0.812  12.879  1.4947  0.2532  1.2618
  940MPD2    N113807   3.449   1.153  13.310 -0.0742  0.4900 -0.4280
  940MPD2    H713808   3.360   1.170  13.264 -1.6390 -1.0078  2.0679
  941MPD2     C13809   2.240   1.059  10.595  0.2640  0.7140 -0.7453
  941MPD2    C113810   2.337   1.005  10.675 -0.5492 -0.4061  0.5036
  941MPD2    C213811   2.313   0.896  10.747  0.5456 -0.0266  0.3029
  941MPD2    C313812   2.188   0.840  10.752  0.4750 -0.5034 -0.3614
  941MPD2    C413813   2.087   0.893  10.673  0.4503  0.6952 -0.0278
  941MPD2    C513814   2.118   1.000  10.596 -0.1607  0.0195  0.2338
  941MPD2     H13815   2.395   0.861  10.809 -1.2825 -0.4435  2.4855
  941MPD2    H113816   1.994   0.837  10.676  0.8905 -0.0809 -0.8435
  941MPD2    H213817   2.254   1.141  10.527  0.4192  0.0004 -1.5713
  941MPD2    H313818   2.037   1.038  10.535 -0.9426 -0.4394  0.9849
  941MPD2     N13819   2.168   0.719  10.827 -0.3927  0.0379 -0.3879
  941MPD2    H513820   2.073   0.687  10.840  0.0672 -1.1061  0.1338
  941MPD2    N113821   2.461   1.070  10.686  0.5970 -0.4913 -0.1782
  941MPD2    H713822   2.511   1.043  10.770 -1.5363 -1.9957  0.6167
  942MPD2     C13823   2.181   1.982   9.045  0.2975  0.2232  0.0068
  942MPD2    C113824   2.123   1.950   9.163 -0.2734 -0.1024  0.0361
  942MPD2    C213825   2.180   1.845   9.231 -0.2045 -0.1706  0.1163
  942MPD2    C313826   2.304   1.782   9.192  0.0928 -0.0301  0.5686
  942MPD2    C413827   2.360   1.831   9.078  0.4888 -0.4539 -0.4847
  942MPD2    C513828   2.291   1.920   8.999 -0.2559  0.2932  0.1000
  942MPD2     H13829   2.122   1.807   9.315 -0.2249 -1.8756 -0.6617
  942MPD2    H113830   2.447   1.788   9.029  0.8035 -0.8986  0.4855
  942MPD2    H213831   2.145   2.062   8.982 -2.7530 -0.8344  0.4264
  942MPD2    H313832   2.329   1.947   8.901 -0.8251 -1.6964 -0.6532
  942MPD2     N13833   2.373   1.687   9.262 -0.2220 -0.1227 -0.4742
  942MPD2    H513834   2.458   1.659   9.214 -1.0394 -1.4730 -1.1503
  942MPD2    N113835   2.006   2.010   9.206 -0.0523 -0.0609 -0.1344
  942MPD2    H713836   1.967   1.965   9.288  0.5780 -1.0452 -0.3749
  943MPD2     C13837   2.099   1.279  10.117  0.3887  0.2404  0.4428
  943MPD2    C113838   2.178   1.286  10.010  0.1562 -0.2077 -0.0685
  943MPD2    C213839   2.303   1.229  10.017 -0.3169 -0.4023 -0.5999
  943MPD2    C313840   2.353   1.173  10.133 -0.1553 -0.0890  0.6760
  943MPD2    C413841   2.269   1.163  10.238 -0.1181 -0.3262 -0.5110
  943MPD2    C513842   2.147   1.224  10.231 -0.1346  0.1088  0.0657
  943MPD2     H13843   2.374   1.250   9.937 -0.1012  0.5892 -0.1525
  943MPD2    H113844   2.296   1.109  10.329  1.0689  0.2084 -0.5517
  943MPD2    H213845   1.998   1.318  10.123 -0.3929 -1.4557 -1.9677
  943MPD2    H313846   2.085   1.221  10.320 -1.0442 -1.0802 -0.6077
  943MPD2     N13847   2.477   1.104  10.149 -0.3856  0.1450 -0.5815
  943MPD2    H513848   2.505   1.077  10.243  1.8270 -1.2300 -1.6254
  943MPD2    N113849   2.119   1.338   9.894  0.0449 -0.4696 -1.1222
  943MPD2    H713850   2.024   1.369   9.907  1.0247  1.0674  2.4289
  944MPD2     C13851   1.301   0.465  11.505  0.4020 -0.2823  0.0328
  944MPD2    C113852   1.175   0.411  11.529  0.3809 -0.4062 -0.0825
  944MPD2    C213853   1.064   0.492  11.545  0.3396 -0.1887 -0.0006
  944MPD2    C313854   1.080   0.630  11.540 -0.2184 -0.0546 -0.3642
  944MPD2    C413855   1.208   0.678  11.519  0.6911 -0.4412 -0.3429
  944MPD2    C513856   1.316   0.601  11.498  0.0818 -0.6561  0.5068
  944MPD2     H13857   0.962   0.460  11.562  0.4225 -1.2988 -1.6091
  944MPD2    H113858   1.227   0.784  11.508 -0.6577  0.0237  1.6761
  944MPD2    H213859   1.386   0.400  11.490  1.7450  1.7693 -1.1837
  944MPD2    H313860   1.414   0.642  11.475 -0.2167  1.3590  2.8882
  944MPD2     N13861   0.964   0.715  11.562  0.1784  0.5027  0.8770
  944MPD2    H513862   0.880   0.671  11.596  0.0674  1.4375  1.8115
  944MPD2    N113863   1.161   0.271  11.529  0.7760 -0.1209  0.2789
  944MPD2    H713864   1.249   0.224  11.510  1.3597  0.8825  0.4960
    1TMC1    C113865   4.084   0.626  15.295  0.3539 -0.1601  0.4039
    1TMC1    C213866   4.020   0.582  15.407 -0.3811  0.9343  0.2187
    1TMC1    C313867   3.895   0.526  15.405 -0.3412 -0.1496  0.0970
    1TMC1    C413868   4.021   0.618  15.174 -0.4084 -0.5407 -0.4039
    1TMC1    C513869   3.896   0.559  15.168  0.0975  0.3912  0.2003
    1TMC1    C613870   3.829   0.512  15.284  0.4632  0.2298  0.6863
    1TMC1     C13871   4.199   0.718  15.307 -1.3822  0.1453 -0.1419
    1TMC1     O13872   4.209   0.772  15.413 -0.5675 -0.2055  0.4176
    1TMC1     H13873   4.084   0.588  15.495 -0.7094 -0.1329  0.5326
    1TMC1    H113874   4.054   0.654  15.077 -0.4495 -1.7033 -0.8560
    1TMC1    H213875   3.732   0.467  15.271 -0.1251  2.2344 -1.8528
    1TMC1    C713876   3.849   0.511  15.037  0.9478  0.4060 -0.4036
    1TMC1    C813877   3.844   0.488  15.540  0.5223 -0.1484 -0.3411
    1TMC1    O113878   3.933   0.482  14.953 -0.0760 -0.2761 -0.0658
    1TMC1    O213879   3.889   0.544  15.637  0.4855  0.0613  0.6731
    1TMC1    O313880   3.726   0.463  15.048  0.1211  0.8439 -0.3439
    1TMC1    H313881   3.682   0.527  15.108 -1.8891 -0.5608 -0.3076
    1TMC1    O513882   3.801   0.364  15.535  0.4705 -0.2750 -0.5483
    1TMC1    H513883   3.766   0.328  15.451  1.9176 -2.1936 -0.3020
    2MPD2     C13884   4.444   1.093  15.078  1.0067 -0.3477  0.2405
    2MPD2    C113885   4.385   1.020  14.979  0.1700 -0.0490  0.0712
    2MPD2    C213886   4.328   0.895  15.010 -0.3255  0.4123 -0.4884
    2MPD2    C313887   4.321   0.861  15.146  0.3779  0.2220 -0.2717
    2MPD2    C413888   4.382   0.947  15.243 -0.3795 -0.0607  0.0491
    2MPD2    C513889   4.446   1.063  15.207  0.6044 -0.2656 -0.2351
    2MPD2     H13890   4.278   0.833  14.937 -0.8133 -1.3369  1.3222
    2MPD2    H113891   4.378   0.923  15.349  1.6502 -0.6156  0.0035
    2MPD2    H213892   4.491   1.189  15.058 -1.5015  0.4635 -1.7769
    2MPD2    H313893   4.498   1.122  15.280  1.1135 -2.9904  1.5906
    2MPD2     N13894   4.244   0.750  15.183  0.0219 -0.6351  0.0008
    2MPD2    H513895   4.223   0.686  15.107  3.2242 -2.3142  0.5249
    2MPD2    N113896   4.381   1.070  14.848 -0.5518  0.0687 -0.7239
    2MPD2    H713897   4.411   1.166  14.830 -1.9941  0.9564  1.7927
    3TMC2    C113898   4.316   1.081  14.620  0.5095  0.1629  0.4795
    3TMC2    C213899   4.276   1.206  14.637  0.1317 -0.0294  0.8201
    3TMC2    C313900   4.221   1.276  14.528 -0.0486 -0.3360 -0.2849
    3TMC2    C413901   4.305   1.013  14.501  0.2547  0.4286 -0.3824
    3TMC2    C513902   4.249   1.080  14.394  0.4882  0.1626 -0.1866
    3TMC2    C613903   4.197   1.209  14.409  0.1024  0.6252  0.1103
    3TMC2     C13904   4.347   0.997  14.738  0.5219  0.4193 -0.2886
    3TMC2     O13905   4.339   0.878  14.711  0.0937  0.3947 -0.0323
    3TMC2     H13906   4.299   1.256  14.730 -0.2674  3.7780 -1.1421
    3TMC2    H113907   4.349   0.915  14.484  0.2383  0.2250  0.7547
    3TMC2    H213908   4.147   1.268  14.334  2.0381  0.4326 -1.3087
    3TMC2    C713909   4.193   0.993  14.286 -0.1842 -0.1790 -0.2049
    3TMC2    C813910   4.193   1.419  14.539  0.0508 -0.0954  1.1518
    3TMC2    O113911   4.209   0.874  14.299 -0.6726  0.0355  0.1089
    3TMC2    O213912   4.190   1.487  14.438 -0.2386  0.3262 -0.2934
    3TMC2    O513913   4.225   1.462  14.663 -0.2428  0.2602  0.1119
    3TMC2    H513914   4.207   1.407  14.742 -0.7852 -2.7874 -2.1143
    4TMC2    C113915   3.711   1.545  13.614  0.3011  0.8510 -0.8746
    4TMC2    C213916   3.710   1.499  13.486  0.3703 -0.0348  0.0339
    4TMC2    C313917   3.781   1.391  13.462 -0.6963  0.9289 -0.1321
    4TMC2    C413918   3.753   1.471  13.715  0.1445  0.7901 -0.4770
    4TMC2    C513919   3.813   1.351  13.685  0.9108  0.0875 -0.2997
    4TMC2    C613920   3.838   1.308  13.557 -0.7160  0.4824  0.2934
    4TMC2     C13921   3.636   1.666  13.645 -0.4761 -0.0095 -0.2556
    4TMC2     O13922   3.653   1.715  13.753  0.6435  0.3253 -0.2607
    4TMC2     H13923   3.683   1.566  13.405  0.6833 -0.6384 -0.5613
    4TMC2    H113924   3.744   1.516  13.813 -1.0039  0.1072 -0.2669
    4TMC2    H213925   3.874   1.208  13.536 -2.3281  0.2766 -1.3972
    4TMC2    C713926   3.882   1.285  13.796 -0.4289 -0.2517 -0.4642
    4TMC2    C813927   3.815   1.364  13.333  0.1900  0.0366 -0.1803
    4TMC2    O113928   3.903   1.357  13.892  0.4558  0.4822 -0.8247
    4TMC2    O213929   3.752   1.393  13.235 -0.2202 -0.1895 -0.2658
    4TMC2    O513930   3.938   1.318  13.348 -0.1435  0.0278 -0.0864
    4TMC2    H513931   3.990   1.326  13.430 -0.7865  1.0208  0.2129
    5MPD2     C13932   3.280   2.021  13.558 -0.4056 -0.0488 -0.1820
    5MPD2    C113933   3.241   1.907  13.491  0.1913  0.3681 -0.3315
    5MPD2    C213934   3.333   1.801  13.477 -0.0975 -0.6283 -0.3690
    5MPD2    C313935   3.445   1.796  13.559  0.2921 -0.1208 -0.3200
    5MPD2    C413936   3.469   1.908  13.632  0.2211  0.0463 -0.7003
    5MPD2    C513937   3.399   2.021  13.625  0.5632 -0.0857  0.8382
    5MPD2     H13938   3.314   1.719  13.409  1.6199 -2.0895  0.9387
    5MPD2    H113939   3.559   1.915  13.693 -0.1973  1.1636 -0.1967
    5MPD2    H213940   3.213   2.105  13.572  0.3458  0.2350  1.6944
    5MPD2    H313941   3.429   2.103  13.690  0.0078 -0.5165  1.6430
    5MPD2     N13942   3.531   1.688  13.566  0.0904  0.2555  0.4098
    5MPD2    H513943   3.525   1.617  13.493 -1.9167 -1.6406  2.3891
    5MPD2    N113944   3.116   1.906  13.425  0.2056 -0.0956 -0.0986
    5MPD2    H713945   3.061   1.988  13.448 -0.0356 -0.3195  0.1125
    6MPD1     C13946   2.106   3.255  13.758 -0.0010  0.4430 -0.1945
    6MPD1    C113947   2.217   3.290  13.688  0.5928 -0.3691  0.1828
    6MPD1    C213948   2.279   3.192  13.613  0.4233 -0.0059  0.3365
    6MPD1    C313949   2.253   3.062  13.638 -0.5335 -0.0081  0.6285
    6MPD1    C413950   2.148   3.023  13.718  0.1072  0.1170  0.0686
    6MPD1    C513951   2.078   3.122  13.781 -0.0163 -0.0970  0.0566
    6MPD1     H13952   2.363   3.220  13.549 -0.2019  2.7071  0.6988
    6MPD1    H113953   2.130   2.921  13.749 -2.2199  0.0223 -1.5902
    6MPD1    H213954   2.048   3.330  13.812 -1.2989  1.9268 -3.6830
    6MPD1    H313955   2.001   3.106  13.855 -0.3576  1.5843  0.0629
    6MPD1     N13956   2.316   2.954  13.566 -0.6188 -0.2138 -0.1396
    6MPD1    H513957   2.287   2.860  13.588 -0.6259 -0.0060  0.7470
    6MPD1    N113958   2.246   3.429  13.671 -0.2411  0.2366 -0.0096
    6MPD1    H613959   2.341   3.456  13.646 -1.3385  1.0284 -3.2505
    6MPD1    H713960   2.193   3.488  13.735 -1.8133  0.4915 -1.5610
    7MPD2     C13961   2.630   2.324  13.806 -0.2780 -0.7612  0.5822
    7MPD2    C113962   2.574   2.318  13.681 -0.2049 -0.1486  0.3470
    7MPD2    C213963   2.595   2.205  13.607  0.2563  1.0264 -0.2027
    7MPD2    C313964   2.649   2.092  13.661 -0.1696 -0.5303  0.3156
    7MPD2    C413965   2.695   2.099  13.791  0.4151  1.7496 -0.1319
    7MPD2    C513966   2.673   2.208  13.868  0.2234  0.6762  0.4092
    7MPD2     H13967   2.562   2.209  13.504 -0.6173  2.0804  0.1130
    7MPD2    H113968   2.730   2.003  13.828 -1.2667  1.5805  1.0167
    7MPD2    H213969   2.626   2.417  13.861 -3.2240  1.8936 -4.1080
    7MPD2    H313970   2.707   2.212  13.971  1.4054 -1.5806  0.1103
    7MPD2     N13971   2.669   1.973  13.588 -0.5397  0.4997  0.3018
    7MPD2    H513972   2.734   1.904  13.625  1.1741  0.1613 -3.3631
    7MPD2    N113973   2.532   2.439  13.616  0.1147 -0.3477 -0.1444
    7MPD2    H713974   2.480   2.429  13.529 -1.6409  0.8070  0.7623
    8TMC3    C113975   2.719   1.858  13.377 -1.1720  0.1771 -0.0886
    8TMC3    C213976   2.851   1.849  13.405 -0.2226 -0.4570  0.9450
    8TMC3    C313977   2.937   1.819  13.299 -0.3592  0.3436 -0.0256
    8TMC3    C413978   2.675   1.835  13.252 -0.0083  0.8220  0.1867
    8TMC3    C513979   2.762   1.821  13.150 -0.3252 -0.0436  1.0089
    8TMC3    C613980   2.892   1.801  13.177 -0.0415 -0.3680  0.7436
    8TMC3     C13981   2.643   1.961  13.453 -0.9522  0.3121  0.2287
    8TMC3     O13982   2.558   2.027  13.391 -0.1122 -0.0127 -0.0203
    8TMC3     H13983   2.893   1.851  13.505  0.0364  2.3443  0.7708
    8TMC3    H113984   2.570   1.825  13.230  0.3075 -0.5007 -0.7824
    8TMC3    H213985   2.966   1.801  13.097 -0.7189 -1.7057  0.1225
    8TMC3    C713986   2.742   1.920  13.048  0.7266 -0.1639 -0.3857
    8TMC3    C813987   3.083   1.828  13.323 -0.1729 -0.0233  0.1897
    8TMC3    O113988   2.805   1.908  12.944 -0.0415  0.0090 -0.2027
    8TMC3    O213989   3.147   1.749  13.252  0.2439 -0.2865  0.0714
    9TMC3    C113990   2.469   2.845  13.445  0.1699 -0.4782 -0.3001
    9TMC3    C213991   2.521   2.814  13.322 -0.0357  0.5361  0.5950
    9TMC3    C313992   2.581   2.690  13.309 -0.2224 -0.5607 -0.0204
    9TMC3    C413993   2.495   2.768  13.555 -0.4178  0.2215  0.4585
    9TMC3    C513994   2.551   2.643  13.540 -0.2277 -0.2961 -0.3721
    9TMC3    C613995   2.594   2.604  13.421 -0.7261  0.4412 -1.2666
    9TMC3     C13996   2.411   2.971  13.465 -0.0316 -0.4754  0.0418
    9TMC3     O13997   2.450   3.073  13.414  0.4202 -0.0362 -0.0517
    9TMC3     H13998   2.512   2.883  13.239  0.4173  0.7298  0.7070
    9TMC3    H113999   2.482   2.797  13.659 -3.4464  0.8658 -0.1086
    9TMC3    H214000   2.653   2.513  13.416  1.1109  1.7143 -2.4434
    9TMC3    C714001   2.559   2.568  13.658  0.0063  1.0613 -0.6387
    9TMC3    C814002   2.614   2.630  13.186  0.3724  0.1031  0.0598
    9TMC3    O114003   2.614   2.612  13.756  0.0879  0.4672  0.4579
    9TMC3    O214004   2.637   2.699  13.085 -0.1417 -0.3086 -0.0994
   10MPD2     C14005   2.757   2.205  12.940  0.0665  1.0057 -0.0081
   10MPD2    C114006   2.695   2.163  13.056 -0.2237  0.0180 -0.3634
   10MPD2    C214007   2.642   2.262  13.133 -0.3399  0.0487  0.5390
   10MPD2    C314008   2.662   2.398  13.102  0.2153 -0.3538 -0.8140
   10MPD2    C414009   2.738   2.430  12.997 -0.0983  0.6756  0.1269
   10MPD2    C514010   2.786   2.334  12.913 -0.2013 -0.0132 -0.2958
   10MPD2     H14011   2.595   2.238  13.228 -1.2062  0.2832  0.1675
   10MPD2    H114012   2.769   2.531  12.976  3.1809 -0.3238  0.0793
   10MPD2    H214013   2.816   2.143  12.874 -0.9134 -0.3950  0.4210
   10MPD2    H314014   2.853   2.355  12.829 -0.4751  0.5602 -0.3727
   10MPD2     N14015   2.609   2.495  13.191 -0.2730 -1.4892 -0.1490
   10MPD2    H514016   2.554   2.461  13.269 -1.7043  2.4220  0.5913
   10MPD2    N114017   2.676   2.026  13.098  0.4583  0.0260 -0.4422
   10MPD2    H714018   2.633   2.010  13.188  0.4897  0.6610 -0.3143
   11MPD2     C14019   4.016   0.879  14.077 -0.3716 -0.2153  0.1200
   11MPD2    C114020   4.054   1.013  14.083  0.1202  0.1025  0.0836
   11MPD2    C214021   4.007   1.105  13.990  0.6152  0.2321  0.2710
   11MPD2    C314022   3.915   1.059  13.894 -0.8453 -0.3743 -0.2096
   11MPD2    C414023   3.880   0.920  13.893 -0.9066 -0.0044  0.3840
   11MPD2    C514024   3.929   0.837  13.981  0.5420  0.3878 -0.5553
   11MPD2     H14025   4.046   1.206  14.001 -0.3905  0.4143  2.1244
   11MPD2    H114026   3.805   0.887  13.821 -1.2303 -2.0348  1.6424
   11MPD2    H214027   4.043   0.804  14.150  1.7891  1.6989  1.3007
   11MPD2    H314028   3.892   0.735  13.977 -0.3681  0.6311  1.3438
   11MPD2     N14029   3.863   1.145  13.791 -0.2346  0.3708 -1.2862
   11MPD2    H514030   3.816   1.095  13.716  0.6649 -0.7055 -1.1321
   11MPD2    N114031   4.128   1.065  14.185 -0.8963 -0.2230 -0.4482
   11MPD2    H714032   4.138   1.167  14.185  2.1919 -0.5257  1.8779
    1MPD1     C14033   1.216   3.234  17.496 -0.1337 -0.7477  0.5656
    1MPD1    C114034   1.345   3.277  17.477 -0.2214 -0.3981  1.2190
    1MPD1    C214035   1.415   3.207  17.378 -0.0038 -0.3706  0.5715
    1MPD1    C314036   1.357   3.103  17.311  0.5614 -0.3497 -0.2772
    1MPD1    C414037   1.231   3.072  17.334 -0.1263 -0.2500 -0.4395
    1MPD1    C514038   1.157   3.137  17.425  0.0031 -0.2966  0.0785
    1MPD1     H14039   1.512   3.242  17.344 -0.9946 -0.3428 -2.2033
    1MPD1    H114040   1.181   2.998  17.271  0.4849 -1.9482  1.0674
    1MPD1    H214041   1.155   3.287  17.569 -0.1821  0.5554 -0.4152
    1MPD1    H314042   1.054   3.109  17.445 -0.4397  0.7424 -0.7989
    1MPD1     N14043   1.431   3.030  17.213  1.1277  0.0220  0.1125
    1MPD1    H514044   1.375   2.970  17.153  0.0198  0.4484  0.7071
    1MPD1    N114045   1.393   3.389  17.546  0.1207 -0.2152  0.1599
    1MPD1    H614046   1.494   3.389  17.558  0.0052 -0.6531  1.1621
    1MPD1    H714047   1.355   3.406  17.640  0.0741 -1.0675  0.3008
    2MPD1     C14048   2.389   2.654  17.146 -0.8328 -0.4439  0.5234
    2MPD1    C114049   2.294   2.659  17.250 -1.3348 -0.4680 -0.4055
    2MPD1    C214050   2.169   2.715  17.224 -0.0169  0.0612 -0.6410
    2MPD1    C314051   2.133   2.758  17.096  0.2185 -0.5210 -0.6955
    2MPD1    C414052   2.217   2.741  16.991 -0.7610 -0.4236  0.4859
    2MPD1    C514053   2.341   2.698  17.024  0.0832  0.0369  0.0241
    2MPD1     H14054   2.108   2.729  17.313  0.3268  0.0322 -0.4004
    2MPD1    H114055   2.205   2.763  16.885 -1.2141  1.5838  0.9596
    2MPD1    H214056   2.484   2.604  17.137 -0.3752  0.3517  0.9042
    2MPD1    H314057   2.400   2.666  16.938 -0.9482  1.8354 -1.3488
    2MPD1     N14058   1.999   2.807  17.082 -0.2443 -0.6511  0.0827
    2MPD1    H514059   1.947   2.809  17.169 -0.7044  0.9007 -0.2281
    2MPD1    N114060   2.339   2.627  17.373 -0.4400  0.7862 -0.1933
    2MPD1    H614061   2.274   2.589  17.442  1.5453 -1.7483  0.2622
    2MPD1    H714062   2.412   2.556  17.368 -0.4638  0.7445  0.0552
    3TMC3    C114063   1.817   2.913  16.974 -0.4824 -0.4300 -0.0345
    3TMC3    C214064   1.736   2.898  16.867 -0.5588  0.0948  0.2494
    3TMC3    C314065   1.603   2.924  16.875 -0.5827  1.0313 -0.2636
    3TMC3    C414066   1.761   2.940  17.096 -0.3871  0.3878  0.6747
    3TMC3    C514067   1.623   2.950  17.097 -0.1904  0.0930 -0.0702
    3TMC3    C614068   1.541   2.935  16.991 -0.0310  0.1600  0.3051
    3TMC3     C14069   1.954   2.861  16.968 -0.4277  0.0519  0.6281
    3TMC3     O14070   2.012   2.864  16.859  0.1206 -0.4411  0.4902
    3TMC3     H14071   1.769   2.861  16.771 -0.0478  0.7604  0.1675
    3TMC3    H114072   1.819   2.965  17.184 -0.6253  2.4703  0.2357
    3TMC3    H214073   1.433   2.931  16.986 -0.0837  0.2519  1.3947
    3TMC3    C714074   1.567   3.029  17.209  0.3363  0.4629 -0.2204
    3TMC3    C814075   1.516   2.921  16.756 -0.5664  0.1116 -0.4702
    3TMC3    O114076   1.639   3.057  17.301 -0.2290 -0.3447  0.0071
    3TMC3    O214077   1.402   2.880  16.770 -0.5063  0.6620  0.2605
    4MPD1     C14078   1.452   2.896  16.238 -0.0455 -0.1743  0.6561
    4MPD1    C114079   1.558   2.981  16.267 -0.9114  0.7361  0.5589
    4MPD1    C214080   1.605   3.002  16.400 -0.1668 -0.4270  0.0736
    4MPD1    C314081   1.535   2.949  16.511 -0.0167 -0.0732  0.3165
    4MPD1    C414082   1.413   2.891  16.473  0.5011 -0.6757  0.6080
    4MPD1    C514083   1.383   2.861  16.345  0.5455  0.6432 -0.3148
    4MPD1     H14084   1.694   3.059  16.424 -0.7153 -0.0901  1.2826
    4MPD1    H114085   1.342   2.850  16.544 -1.7632  2.0799 -0.0757
    4MPD1    H214086   1.424   2.853  16.142  1.6587  0.7418 -0.2495
    4MPD1    H314087   1.297   2.795  16.334  0.0653  1.1182  0.5672
    4MPD1     N14088   1.578   2.964  16.643 -0.1170  0.2188 -0.1860
    4MPD1    H514089   1.672   2.999  16.659 -0.2622 -0.2990  1.8599
    4MPD1    N114090   1.642   3.020  16.163  0.1919 -0.6352 -0.3359
    4MPD1    H614091   1.697   3.103  16.183 -1.1148  0.4571 -1.2452
    4MPD1    H714092   1.609   3.011  16.067 -0.6898 -0.6772 -0.0331
    1TCq1    O114093   2.962   2.934  12.278  0.4262 -0.2725  0.7266
    1TCq1    C114094   2.872   2.845  12.250 -0.1356  1.3279  0.3848
    1TCq1    O214095   2.776   2.820  12.318  0.3606 -0.6173 -0.2174
    1TCq1    C214096   2.863   2.824  12.113 -0.2452 -0.2438 -0.2351
    1TCq1    C314097   2.846   2.695  12.067  0.1446  0.1292 -0.2865
    1TCq1    C414098   2.761   2.680  11.958 -0.2044 -0.1112  0.4665
    1TCq1    C514099   2.738   2.786  11.867 -0.1767 -0.3629 -0.6592
    1TCq1    C614100   2.772   2.916  11.911  0.4253  0.2396 -0.3501
    1TCq1    C714101   2.823   2.933  12.040  0.2320 -0.5898 -0.7506
    1TCq1    C814102   2.727   3.035  11.842 -0.1501  0.4023 -0.2460
    1TCq1    O414103   2.734   3.144  11.899  0.3305 -0.0639 -0.0799
    1TCq1    C914104   2.771   2.550  11.894 -0.5790 -0.0010 -0.5404
    1TCq1    O514105   2.772   2.449  11.970 -0.5221  0.2595 -0.2761
    1TCq1    O614106   2.765   2.550  11.773  0.6169 -0.0170 -0.6685
    1TCq1    H114107   3.031   2.928  12.208 -1.9570  1.2519 -1.7253
    1TCq1    H214108   2.855   2.613  12.138  0.3450  0.5047  0.1240
    1TCq1    H314109   2.689   2.761  11.774  0.2935  2.1199 -1.5525
    1TCq1    H414110   2.845   3.035  12.073  4.5932 -2.2432  1.5576
    2MPD1     C14111   2.500   3.262  11.432 -0.1714 -0.3260 -0.4827
    2MPD1    C114112   2.485   3.126  11.423  0.0625 -0.5791 -0.2258
    2MPD1    C214113   2.554   3.042  11.515 -0.5912  0.3564  0.3311
    2MPD1    C314114   2.613   3.095  11.630 -0.7074 -0.1146 -0.2267
    2MPD1    C414115   2.610   3.234  11.646  0.7964 -0.3243 -0.3095
    2MPD1    C514116   2.558   3.312  11.546  0.6371  0.2069  0.1386
    2MPD1     H14117   2.554   2.937  11.488 -1.2105 -0.3605  3.1492
    2MPD1    H114118   2.666   3.279  11.728 -2.0986 -0.0144  1.4977
    2MPD1    H214119   2.463   3.334  11.360  0.1679 -0.0427 -0.3737
    2MPD1    H314120   2.570   3.420  11.552  2.0138  0.0631  0.1365
    2MPD1     N14121   2.682   3.007  11.714 -0.1727 -0.4235 -0.6191
    2MPD1    H514122   2.689   2.910  11.687 -0.5797 -0.1407 -1.7440
    2MPD1    N114123   2.427   3.078  11.302 -0.5232 -0.0416  1.0532
    2MPD1    H614124   2.355   3.133  11.258 -1.0826 -0.7727  1.0495
    2MPD1    H714125   2.394   2.982  11.311  1.1299 -0.6386  0.8526
    1TMC1    C114126   0.820   4.383   1.825  0.0988 -0.0975 -0.2180
    1TMC1    C214127   0.736   4.308   1.750  0.1073  0.0750 -0.0130
    1TMC1    C314128   0.793   4.223   1.662  0.7346 -0.3170  0.4286
    1TMC1    C414129   0.949   4.391   1.803 -0.2631 -0.4205  0.1949
    1TMC1    C514130   1.001   4.302   1.714 -0.2804 -0.7129  0.2939
    1TMC1    C614131   0.930   4.206   1.649 -0.8021 -0.7808 -0.0735
    1TMC1     C14132   0.757   4.484   1.911  0.4064 -0.2755 -0.0531
    1TMC1     O14133   0.633   4.493   1.902  0.1639  0.0162  0.0373
    1TMC1     H14134   0.629   4.310   1.767 -0.3791 -1.2440 -2.7616
    1TMC1    H114135   1.020   4.466   1.837 -1.0451  0.9911 -1.2465
    1TMC1    H214136   0.967   4.132   1.579  0.9795  0.4052 -0.3956
    1TMC1    C714137   1.146   4.304   1.707  0.3412 -0.0988  0.1068
    1TMC1    C814138   0.699   4.121   1.617 -0.5777 -0.9463  0.1686
    1TMC1    O114139   1.215   4.274   1.613 -0.3532 -0.3392  0.0731
    1TMC1    O214140   0.587   4.116   1.662  0.0766 -0.3170  0.4220
    1TMC1    O314141   1.172   4.279   1.839 -0.0753 -0.2264 -0.0447
    1TMC1    H314142   1.086   4.290   1.884 -1.0624 -3.9788 -1.0504
    1TMC1    O514143   0.737   4.079   1.493  0.2875 -0.5516 -0.3437
    1TMC1    H514144   0.816   4.119   1.450  0.0627  0.2794  0.0168
    2MPD1     C14145   0.764   0.081   2.310  0.0365  0.5855  0.1198
    2MPD1    C114146   0.892   0.039   2.285  0.1988  1.0742 -0.3544
    2MPD1    C214147   0.909   4.691   2.180 -0.3219 -0.6758  0.5187
    2MPD1    C314148   0.808   4.646   2.097 -0.3136 -0.2013  0.0457
    2MPD1    C414149   0.681   4.698   2.126 -0.1174 -0.6992  0.1480
    2MPD1    C514150   0.668   0.050   2.226 -0.8200  0.7295 -0.3517
    2MPD1     H14151   1.005   4.661   2.139 -0.0877  1.9062 -0.8263
    2MPD1    H114152   0.595   4.676   2.064 -0.5358  0.1276  0.4357
    2MPD1    H214153   0.744   0.144   2.396  0.0399 -1.4763  1.6410
    2MPD1    H314154   0.570   0.095   2.243 -0.9392  0.4388 -0.2703
    2MPD1     N14155   0.843   4.538   2.005 -0.3159 -0.4163  0.0805
    2MPD1    H514156   0.939   4.504   2.006 -0.7161 -1.4637  1.9974
    2MPD1    N114157   1.002   0.075   2.370 -0.1589 -0.1391 -0.1922
    2MPD1    H614158   1.093   0.100   2.332 -0.6334 -0.2583 -1.3772
    2MPD1    H714159   0.989   0.152   2.436 -0.4234 -0.4582  0.1336
    1MPD1     C14160   3.695   2.450  12.386 -0.1274  0.6749 -0.4070
    1MPD1    C114161   3.705   2.588  12.376 -0.4998 -0.2600 -0.2942
    1MPD1    C214162   3.829   2.632  12.349  0.3260  0.3675 -0.4133
    1MPD1    C314163   3.948   2.556  12.331 -0.5717 -0.4040 -0.8121
    1MPD1    C414164   3.933   2.417  12.349 -0.3157  0.9367  0.2116
    1MPD1    C514165   3.804   2.373  12.362  0.5024  0.0917 -0.2627
    1MPD1     H14166   3.834   2.740  12.336  1.7970  0.5207  1.4805
    1MPD1    H114167   4.016   2.350  12.331  1.5033  3.1469  0.4122
    1MPD1    H214168   3.602   2.398  12.405 -1.3715  3.0303 -0.0853
    1MPD1    H314169   3.790   2.265  12.354  0.4558  0.0681  0.1354
    1MPD1     N14170   4.071   2.620  12.283 -0.5114  0.0965 -0.0712
    1MPD1    H514171   4.053   2.711  12.242  1.4115  0.8897  0.8539
    1MPD1    N114172   3.607   2.682  12.418  0.0465  0.6481 -0.0848
    1MPD1    H614173   3.507   2.665  12.407 -0.4750  2.7897  1.2570
    1MPD1    H714174   3.618   2.770  12.367  0.6262 -0.0264 -1.1211
    2MPD1     C14175   3.909   2.799  11.565  0.3372 -0.9572  0.4003
    2MPD1    C114176   3.800   2.819  11.481  0.3007 -0.0461  0.5012
    2MPD1    C214177   3.818   2.784  11.354 -0.0362  0.4716  0.0047
    2MPD1    C314178   3.934   2.722  11.307 -0.0523  0.1235  0.0938
    2MPD1    C414179   4.039   2.709  11.391  0.1676 -0.3776  0.2003
    2MPD1    C514180   4.024   2.738  11.522 -0.1644  0.1780 -0.0031
    2MPD1     H14181   3.742   2.806  11.280  0.2777  1.5780  0.0165
    2MPD1    H114182   4.134   2.669  11.360  0.2359  1.0992 -1.4741
    2MPD1    H214183   3.908   2.824  11.671  2.0321  0.6756  0.0302
    2MPD1    H314184   4.112   2.744  11.585 -0.5606  0.2387  0.5517
    2MPD1     N14185   3.958   2.677  11.183 -0.5932 -0.2474 -0.5482
    2MPD1    H514186   4.050   2.656  11.145  0.9131  2.2130  1.7214
    2MPD1    N114187   3.694   2.903  11.523 -1.0820  0.6126  0.4052
    2MPD1    H614188   3.686   2.900  11.625 -1.7961 -0.9663  0.3031
    2MPD1    H714189   3.608   2.877  11.476  0.3119 -0.0351 -1.7794
    3MPD1     C14190   3.713   1.955  10.626 -0.1426  0.0611  0.5765
    3MPD1    C114191   3.655   2.015  10.732 -0.2019 -0.4362  0.7292
    3MPD1    C214192   3.713   2.131  10.777  0.5002 -0.6729  0.4134
    3MPD1    C314193   3.812   2.190  10.708  0.7529  0.3517  0.0108
    3MPD1    C414194   3.855   2.138  10.591 -0.1121  0.1517 -0.6158
    3MPD1    C514195   3.805   2.022  10.543 -0.9872  0.4768 -0.1140
    3MPD1     H14196   3.669   2.195  10.853  2.7663  0.8541  0.4240
    3MPD1    H114197   3.938   2.180  10.535  1.0449 -1.1750  0.0918
    3MPD1    H214198   3.675   1.868  10.575 -1.1920  0.4296  0.7363
    3MPD1    H314199   3.851   1.965  10.463 -1.5132 -0.5785  0.3279
    3MPD1     N14200   3.855   2.312  10.755  0.3021 -0.1576 -0.1819
    3MPD1    H514201   3.813   2.349  10.840 -1.6478  0.0397 -1.2488
    3MPD1    N114202   3.568   1.944  10.811 -0.3348 -0.6713 -0.1715
    3MPD1    H614203   3.615   1.913  10.896  1.2392  0.8018 -0.4876
    3MPD1    H714204   3.534   1.864  10.759  0.4540 -0.1859 -1.4217
    4MPD2     C14205   4.491   3.121  11.902  0.5598  0.1325  0.1828
    4MPD2    C114206   4.532   2.991  11.905  0.3541 -0.1275 -0.0239
    4MPD2    C214207   4.619   2.947  11.808  1.1589 -0.4733 -0.5592
    4MPD2    C314208   4.664   3.026  11.708 -0.1383 -0.0878 -0.2150
    4MPD2    C414209   4.621   3.158  11.703 -0.5059  0.3699 -0.5253
    4MPD2    C514210   4.540   3.206  11.799 -0.0257 -0.8329 -0.3630
    4MPD2     H14211   4.641   2.841  11.810 -0.7826 -0.8720 -0.9892
    4MPD2    H114212   4.651   3.223  11.622 -4.1732  0.3792 -1.8705
    4MPD2    H214213   4.429   3.156  11.984 -1.5003 -3.4854  0.1718
    4MPD2    H314214   4.499   3.306  11.797 -0.1832 -0.8982 -0.4207
    4MPD2     N14215   0.015   2.985  11.602 -0.5100 -0.2391 -0.6755
    4MPD2    H514216   0.035   3.045  11.523 -3.5721 -0.2508 -1.4462
    4MPD2    N114217   4.499   2.906  12.006 -0.1274 -0.3868  0.6617
    4MPD2    H714218   4.544   2.815  12.001  0.6102  0.0381 -0.5560
    5TMC3    C114219   4.423   2.821  12.211  0.0276  0.2756  0.2910
    5TMC3    C214220   4.303   2.756  12.219 -0.2255 -0.3917  0.5125
    5TMC3    C314221   4.304   2.624  12.222 -0.0631 -0.1808  0.6536
    5TMC3    C414222   4.540   2.758  12.189 -0.5894 -0.6036  0.8471
    5TMC3    C514223   4.533   2.624  12.190 -0.2585 -0.5194 -0.1332
    5TMC3    C614224   4.418   2.552  12.206 -0.6016  0.2084 -0.0678
    5TMC3     C14225   4.421   2.933  12.117 -0.8819  0.2566  0.4412
    5TMC3     O14226   4.331   3.014  12.121 -0.5629  0.2495  0.5974
    5TMC3     H14227   4.215   2.817  12.235  0.4199  1.1564 -1.7931
    5TMC3    H114228   4.637   2.805  12.185 -1.0293  0.4293  2.5162
    5TMC3    H214229   4.419   2.444  12.208  1.1080  0.2268  0.6256
    5TMC3    C714230   4.619   2.588  12.082 -0.3313 -0.3458  0.0087
    5TMC3    C814231   4.194   2.558  12.289 -0.4918 -0.3279 -0.5453
    5TMC3    O114232   4.661   2.679  12.016  0.3302 -0.2003 -0.6438
    5TMC3    O214233   4.240   2.458  12.342  0.5025 -0.7511  0.7720
    6TMC3    C114234   3.934   2.658  10.953 -0.1814  0.1452 -1.4212
    6TMC3    C214235   3.886   2.565  10.864 -0.0991 -0.3726  0.1520
    6TMC3    C314236   3.981   2.510  10.780  0.2622 -0.2239  0.2586
    6TMC3    C414237   4.059   2.707  10.953  0.6999 -0.0955 -0.3198
    6TMC3    C514238   4.143   2.650  10.865 -0.3066 -0.1803  0.6504
    6TMC3    C614239   4.112   2.549  10.778 -0.0749 -0.2370  0.2958
    6TMC3     C14240   3.866   2.677  11.082  0.0992  0.2196 -0.0058
    6TMC3     O14241   3.743   2.690  11.079 -0.0016  0.3773 -0.2297
    6TMC3     H14242   3.784   2.527  10.859  0.2984 -1.2870 -1.0287
    6TMC3    H114243   4.086   2.799  11.004  1.1116  0.1881 -1.0609
    6TMC3    H214244   4.186   2.493  10.723 -1.2870 -1.1554 -0.4175
    6TMC3    C714245   4.279   2.666  10.909 -0.1969  0.3219  0.2314
    6TMC3    C814246   3.950   2.397  10.695 -0.7498 -0.5614  0.6839
    6TMC3    O114247   4.296   2.683  11.030 -0.4127 -0.3227  0.1212
    6TMC3    O214248   4.008   2.391  10.586 -0.2499 -0.2734  0.7932
    7MPD2     C14249   0.027   2.288  11.699 -0.0609 -0.5853 -0.7201
    7MPD2    C114250   0.048   2.420  11.721 -0.0025  0.0656 -0.0152
    7MPD2    C214251   4.737   2.481  11.837  0.1343  0.8197  0.2150
    7MPD2    C314252   4.675   2.403  11.934 -0.1865 -0.1186  0.3212
    7MPD2    C414253   4.666   2.264  11.912 -0.3636 -0.4836  0.5176
    7MPD2    C514254   4.710   2.211  11.794  0.0331  0.2445  0.0815
    7MPD2     H14255   0.020   2.586  11.850  2.0242  0.8445 -2.9730
    7MPD2    H114256   4.617   2.199  11.984 -1.1936 -2.0779 -1.4974
    7MPD2    H214257   0.053   2.226  11.614  0.3852 -1.6619  0.2136
    7MPD2    H314258   4.684   2.107  11.784 -2.9591  0.9118  0.6879
    7MPD2     N14259   4.617   2.454  12.049  0.6570 -0.6650  0.5132
    7MPD2    H514260   4.579   2.390  12.119  2.0081 -2.3148 -0.2561
    7MPD2    N114261   0.119   2.506  11.630  0.1866  0.6389  0.2816
    7MPD2    H714262   0.117   2.605  11.655 -2.4606  0.1021  2.1400
    8TMC3    C114263   0.228   2.599  11.443  0.7019 -0.5211  0.0059
    8TMC3    C214264   0.156   2.609  11.324 -0.5203  0.3225  0.0319
    8TMC3    C314265   0.098   2.725  11.290 -0.2458 -0.2520 -0.2224
    8TMC3    C414266   0.230   2.704  11.521 -0.6124  0.4299  0.0682
    8TMC3    C514267   0.159   2.818  11.496 -0.1221  0.7479  0.6463
    8TMC3    C614268   0.092   2.834  11.373  0.8994  0.2109  0.5204
    8TMC3     C14269   0.195   2.476  11.520  0.0402 -0.2189  0.0117
    8TMC3     O14270   0.215   2.369  11.467  0.0837  0.5291 -0.7847
    8TMC3     H14271   0.155   2.518  11.265 -0.2781 -0.0526  0.6121
    8TMC3    H114272   0.278   2.700  11.618 -0.1773 -1.0181 -0.2077
    8TMC3    H214273   0.039   2.919  11.333  0.4704  1.0555  2.8671
    8TMC3    C714274   0.101   2.875  11.614 -0.1782 -0.2054  0.2425
    8TMC3    C814275   0.007   2.725  11.191 -0.0177  0.3032  0.3978
    8TMC3    O114276   0.120   2.807  11.708 -1.0945  0.7342  0.5935
    8TMC3    O214277   4.657   2.811  11.193  0.5607 -0.0510 -0.3327
    9MPD2     C14278   0.044   2.586  10.858  0.9239 -0.3415 -0.2224
    9MPD2    C114279   4.712   2.634  10.965 -0.6896 -0.5542  0.1235
    9MPD2    C214280   4.576   2.651  10.951 -0.4403  0.2530  0.1072
    9MPD2    C314281   4.510   2.625  10.830 -0.6470  0.3188  0.1224
    9MPD2    C414282   4.589   2.589  10.727 -0.0315  0.5953  0.5431
    9MPD2    C514283   4.724   2.567  10.739 -0.0023 -0.5254  0.2421
    9MPD2     H14284   4.522   2.673  11.042 -2.5870 -2.1210 -0.5863
    9MPD2    H114285   4.537   2.546  10.642 -0.4024  1.3943  0.3627
    9MPD2    H214286   0.152   2.572  10.861  1.3374  2.6484 -0.3598
    9MPD2    H314287   0.032   2.515  10.656  2.9077  0.8506  1.0110
    9MPD2     N14288   4.369   2.623  10.810 -0.2927  0.8974  0.6070
    9MPD2    H514289   4.336   2.601  10.717  2.2725 -1.6352  0.3269
    9MPD2    N114290   0.049   2.655  11.080 -0.2196  0.1447  1.0187
    9MPD2    H714291   0.140   2.611  11.092 -0.5213 -0.8567 -0.4497
    1MPD1     C14292   3.877   1.048  16.023  0.0225 -0.1732 -0.0534
    1MPD1    C114293   3.970   1.046  15.920  0.6378  0.2672  0.0726
    1MPD1    C214294   3.992   1.165  15.858 -0.6906  0.1630  0.0914
    1MPD1    C314295   3.933   1.285  15.887 -0.0616  0.0959 -0.3147
    1MPD1    C414296   3.845   1.280  15.991  0.1706  0.0391  0.1735
    1MPD1    C514297   3.818   1.163  16.060  0.2014 -0.4815  0.0517
    1MPD1     H14298   4.060   1.162  15.774  1.7180  0.2195  2.0443
    1MPD1    H114299   3.803   1.373  16.027  0.8823 -0.0351  1.1841
    1MPD1    H214300   3.847   0.954  16.069 -0.2123 -1.1051 -2.1109
    1MPD1    H314301   3.748   1.155  16.142 -0.1815  1.5875 -0.0753
    1MPD1     N14302   3.971   1.407  15.835  0.2001  0.4329  0.4179
    1MPD1    H514303   3.924   1.492  15.864  1.1969  0.6744  1.3158
    1MPD1    N114304   4.015   0.924  15.857  0.1199  0.2697  0.6610
    1MPD1    H614305   4.050   0.884  15.944 -0.9898  1.2230  1.5702
    1MPD1    H714306   4.083   0.945  15.785 -0.3806  2.7259  0.8774
    2TMC2    C114307   3.995   1.795  15.717 -0.8339  0.4116 -0.4806
    2TMC2    C214308   4.029   1.825  15.592  0.1386 -0.1877 -0.5871
    2TMC2    C314309   4.092   1.722  15.518 -0.4265 -0.0855 -0.7677
    2TMC2    C414310   4.009   1.666  15.769  0.3342 -0.2203  0.3788
    2TMC2    C514311   4.067   1.565  15.690  0.1463  0.0587  0.1642
    2TMC2    C614312   4.111   1.598  15.564 -0.4369 -0.9145 -0.2748
    2TMC2     C14313   3.918   1.896  15.790 -0.3877 -0.5430  0.6958
    2TMC2     O14314   3.871   1.981  15.713  0.1736 -0.5544 -0.4143
    2TMC2     H14315   4.010   1.921  15.546 -0.4669 -0.1703 -0.2993
    2TMC2    H114316   3.980   1.652  15.872 -1.0090 -2.5852 -0.3153
    2TMC2    H214317   4.146   1.512  15.507 -2.1797  0.3529 -3.2630
    2TMC2    C714318   4.044   1.423  15.720  0.2258  0.3422 -0.1276
    2TMC2    C814319   4.085   1.741  15.375  0.5924 -0.1472 -0.3471
    2TMC2    O114320   4.075   1.341  15.635  0.2539 -0.1325  0.3181
    2TMC2    O214321   4.025   1.829  15.317 -0.0571  0.4203 -0.2799
    2TMC2    O514322   4.163   1.656  15.305  0.0078 -0.3858  0.4941
    2TMC2    H514323   4.222   1.597  15.357  0.2394  1.7935  2.6885
    3MPD1     C14324   3.685   2.080  16.205  0.2697  0.9560  0.0395
    3MPD1    C114325   3.749   1.959  16.239  0.1030 -0.1494  0.1750
    3MPD1    C214326   3.822   1.892  16.137 -0.4874 -0.3124  0.3819
    3MPD1    C314327   3.837   1.959  16.018  0.1162 -0.1270  0.1103
    3MPD1    C414328   3.778   2.077  15.990  0.6186 -0.0141  0.0416
    3MPD1    C514329   3.707   2.143  16.083 -0.5662 -0.2162  0.2277
    3MPD1     H14330   3.864   1.796  16.162 -2.7651 -1.3001  0.4050
    3MPD1    H114331   3.791   2.124  15.893  0.3591  1.7002  0.8361
    3MPD1    H214332   3.615   2.121  16.276  1.5196  3.0972  0.0598
    3MPD1    H314333   3.654   2.234  16.055  1.2945 -0.1770 -3.1880
    3MPD1     N14334   3.911   1.881  15.930  0.7138 -0.7577 -0.1886
    3MPD1    H514335   3.957   1.799  15.970  0.9828 -0.2326  0.5710
    3MPD1    N114336   3.714   1.879  16.344 -0.1541  0.6512  0.2098
    3MPD1    H614337   3.793   1.834  16.389 -0.5848 -0.1640  0.1651
    3MPD1    H714338   3.659   1.915  16.422  1.6488  1.4419  1.1017
    1TMC1    C114339   2.347   1.381  13.821 -0.5649  0.1661  0.4832
    1TMC1    C214340   2.455   1.454  13.840  0.4392 -0.2224 -0.3428
    1TMC1    C314341   2.470   1.566  13.765  0.4068 -0.4340  0.3961
    1TMC1    C414342   2.245   1.419  13.736 -0.3036  0.4872 -0.2899
    1TMC1    C514343   2.262   1.531  13.663  0.3005  0.3142  0.4146
    1TMC1    C614344   2.379   1.610  13.666  0.7683  0.4038  0.0164
    1TMC1     C14345   2.319   1.263  13.903 -0.4705 -0.1005  0.0575
    1TMC1     O14346   2.201   1.230  13.918  0.0940 -0.6080 -0.1386
    1TMC1     H14347   2.527   1.426  13.917  0.3216  0.4724  0.0168
    1TMC1    H114348   2.160   1.353  13.723 -0.9921  1.3168  0.0444
    1TMC1    H214349   2.396   1.703  13.613 -1.6883 -0.7106 -2.6945
    1TMC1    C714350   2.179   1.542  13.546  0.0440 -0.2084  0.0465
    1TMC1    C814351   2.610   1.578  13.733  0.5400 -0.0568  0.0424
    1TMC1    O114352   2.096   1.457  13.520 -0.0166  0.0111  0.3507
    1TMC1    O214353   2.697   1.570  13.821  0.0154  0.5326  0.5450
    1TMC1    O314354   2.177   1.665  13.490 -0.1311  0.9452 -0.0260
    1TMC1    H314355   2.255   1.725  13.491  1.0389 -0.5269 -2.2422
    1TMC1    O514356   2.621   1.651  13.623 -0.6362  0.5859  0.5103
    1TMC1    H514357   2.544   1.635  13.563  0.5417 -0.3056 -0.7588
    2MPD2     C14358   2.322   1.075  14.131 -0.1321  0.5285  0.4865
    2MPD2    C114359   2.436   1.120  14.065  1.0575 -0.6003  0.4224
    2MPD2    C214360   2.560   1.101  14.125  0.4020  0.5695 -0.4587
    2MPD2    C314361   2.568   1.035  14.246  0.1882  0.0079  0.3612
    2MPD2    C414362   2.454   0.995  14.314  0.3321 -0.0305  0.4108
    2MPD2    C514363   2.331   1.006  14.249 -0.6697 -1.1303  0.1162
    2MPD2     H14364   2.652   1.137  14.080  1.5660 -0.4545  1.1055
    2MPD2    H114365   2.458   0.944  14.410  1.8881 -0.1580  0.2838
    2MPD2    H214366   2.222   1.088  14.090 -0.5269 -1.0125  0.9299
    2MPD2    H314367   2.238   0.980  14.296 -0.5176 -0.8349  0.5801
    2MPD2     N14368   2.688   1.022  14.304 -0.4696  0.3127  0.0473
    2MPD2    H514369   2.762   1.058  14.244  1.6387 -1.3664  1.6504
    2MPD2    N114370   2.431   1.211  13.964  0.3143 -0.6200  0.3999
    2MPD2    H714371   2.514   1.247  13.918  0.9166 -2.0502  0.3669
    3TCq1    O114372   3.294   0.844  14.306 -0.0276 -0.2133  0.2350
    3TCq1    C114373   3.161   0.865  14.276  0.0772  0.0385  0.2159
    3TCq1    O214374   3.104   0.829  14.174  0.4536 -0.4220 -0.6475
    3TCq1    C214375   3.085   0.952  14.366  0.1226  0.0297  0.2532
    3TCq1    C314376   3.143   0.977  14.491 -0.3285  0.0999  0.1554
    3TCq1    C414377   3.057   1.004  14.593  0.4850  0.4460  0.6535
    3TCq1    C514378   2.921   1.026  14.577 -0.3735 -0.1881 -1.1695
    3TCq1    C614379   2.869   0.995  14.454 -0.5750  0.2832 -0.0655
    3TCq1    C714380   2.946   0.957  14.344  0.3288 -0.7209  0.0888
    3TCq1    C814381   2.725   0.990  14.437  0.1513 -0.2625  0.1817
    3TCq1    O414382   2.658   0.934  14.523  0.6864 -0.3502  0.1352
    3TCq1    C914383   3.117   1.044  14.714  0.5698  0.3297  0.5291
    3TCq1    O514384   3.041   1.107  14.792  0.1993 -0.2334 -0.1993
    3TCq1    O614385   3.224   0.988  14.746 -0.1423  0.2983 -0.4630
    3TCq1    H114386   3.323   0.869  14.397  1.4066  1.7545 -0.7538
    3TCq1    H214387   3.251   0.984  14.500 -0.6908  2.8054  2.3593
    3TCq1    H314388   2.857   1.060  14.657 -0.2648 -1.0093 -0.7284
    3TCq1    H414389   2.906   0.918  14.251 -0.7898  0.3927  0.0985
    1MPD2     C14390   2.082   1.947  15.264  0.2421 -0.3187  0.6433
    1MPD2    C114391   1.953   1.902  15.234  0.2427 -1.0429  0.3956
    1MPD2    C214392   1.914   1.779  15.282 -0.3319  0.6673  0.6121
    1MPD2    C314393   2.003   1.707  15.356  0.4988 -0.3555  0.1844
    1MPD2    C414394   2.128   1.753  15.400  1.1753 -0.1251 -1.1690
    1MPD2    C514395   2.171   1.873  15.348 -0.2554 -0.1543  0.2943
    1MPD2     H14396   1.815   1.744  15.257 -0.9090  2.0183  0.9904
    1MPD2    H114397   2.189   1.689  15.463 -0.4311 -2.8414 -2.3493
    1MPD2    H214398   2.117   2.046  15.240 -1.8308  0.2822  0.0505
    1MPD2    H314399   2.274   1.908  15.353 -0.9013  1.6741  0.4416
    1MPD2     N14400   1.963   1.588  15.417  0.7196  0.1770  0.7168
    1MPD2    H514401   2.027   1.548  15.485  0.0995 -0.8839  0.6844
    1MPD2    N114402   1.877   1.972  15.138  0.4804 -0.0500 -0.2443
    1MPD2    H714403   1.907   2.066  15.113 -3.7018  1.3378 -0.0390
    2TMC3    C114404   1.709   1.998  14.961  0.3815 -0.1751 -1.0796
    2TMC3    C214405   1.612   1.926  14.893  0.1920  0.6178 -0.1120
    2TMC3    C314406   1.489   1.985  14.872  0.0221  0.6712  0.2018
    2TMC3    C414407   1.682   2.127  14.999  0.5625 -0.1977 -0.2520
    2TMC3    C514408   1.567   2.183  14.952 -0.2864 -0.0259 -0.2257
    2TMC3    C614409   1.464   2.117  14.892  0.2658 -1.2143  0.3285
    2TMC3     C14410   1.771   1.917  15.064  0.0574 -0.5454 -0.3506
    2TMC3     O14411   1.718   1.805  15.070 -0.0971  0.2592  0.4040
    2TMC3     H14412   1.631   1.829  14.848  0.2652 -0.4201  2.1237
    2TMC3    H114413   1.762   2.177  15.052  0.2312 -0.1655  0.2199
    2TMC3    H214414   1.365   2.154  14.867  1.2716  0.7219 -0.8556
    2TMC3    C714415   1.553   2.324  14.946 -0.2076  0.1486  0.6887
    2TMC3    C814416   1.393   1.903  14.936 -0.4718  0.4042  0.0655
    2TMC3    O114417   1.436   2.360  14.940  0.4047 -0.1273 -1.4654
    2TMC3    O214418   1.278   1.929  14.904 -0.1187  0.0434 -0.0158
    3TCq1    O114419   2.274   2.838  15.346  0.0278 -0.3433 -0.2243
    3TCq1    C114420   2.360   2.759  15.277  0.3367  0.3590  0.9188
    3TCq1    O214421   2.430   2.667  15.320 -0.0561  0.2565 -0.0147
    3TCq1    C214422   2.319   2.766  15.138  0.2332 -0.6035 -0.1866
    3TCq1    C314423   2.404   2.749  15.039  0.3019  0.0824 -0.3966
    3TCq1    C414424   2.387   2.795  14.913  0.6721 -0.1487 -0.1286
    3TCq1    C514425   2.262   2.840  14.874  0.1162 -0.3087 -0.6907
    3TCq1    C614426   2.172   2.845  14.977 -0.0777  0.3567  0.4760
    3TCq1    C714427   2.192   2.810  15.102  0.2982  0.3924 -0.0019
    3TCq1    C814428   2.034   2.861  14.943 -0.0355 -0.0340  0.3868
    3TCq1    O414429   1.990   2.964  14.893 -0.3459 -0.2877  0.1752
    3TCq1    C914430   2.491   2.795  14.814  0.0768 -0.0785 -0.0711
    3TCq1    O514431   2.462   2.740  14.706  0.8740  0.1989  0.5780
    3TCq1    O614432   2.578   2.885  14.833  0.2674  0.5267 -0.8326
    3TCq1    H114433   2.243   2.904  15.280 -1.3218 -0.7194  0.0421
    3TCq1    H214434   2.508   2.724  15.058  0.0283 -0.8294 -0.1269
    3TCq1    H314435   2.240   2.872  14.773  0.7013 -1.0311 -1.0494
    3TCq1    H414436   2.112   2.797  15.174 -2.2631  1.2065 -2.7075
    4MPD2     C14437   1.737   2.796  14.924 -0.1035 -0.2480 -0.9658
    4MPD2    C114438   1.841   2.708  14.936 -0.5141 -0.7101 -0.2954
    4MPD2    C214439   1.812   2.574  14.931  0.0321  0.1126 -0.0821
    4MPD2    C314440   1.685   2.519  14.920  0.2115 -0.0524 -0.5217
    4MPD2    C414441   1.584   2.615  14.926 -0.2591 -0.4393  0.0786
    4MPD2    C514442   1.609   2.749  14.934  0.0241 -0.4787  0.1982
    4MPD2     H14443   1.901   2.514  14.942 -0.7905 -1.4376 -1.7350
    4MPD2    H114444   1.480   2.587  14.934  0.5978 -4.2798 -2.2322
    4MPD2    H214445   1.756   2.903  14.915  0.8255 -0.3624 -0.4070
    4MPD2    H314446   1.531   2.825  14.936 -1.8164 -2.3460 -1.2855
    4MPD2     N14447   1.670   2.377  14.933 -0.2570  0.4668  0.3225
    4MPD2    H514448   1.756   2.324  14.932 -0.7900 -0.3709 -0.3784
    4MPD2    N114449   1.976   2.739  14.960  0.2223 -0.0681 -0.5387
    4MPD2    H714450   2.040   2.661  14.969  1.4075  1.0445  0.7107
    5TMC2    C114451   1.582   1.380  15.541  0.1881  0.0610 -0.5806
    5TMC2    C214452   1.618   1.399  15.670  0.4797  0.5385 -0.5093
    5TMC2    C314453   1.749   1.430  15.697 -0.0548 -0.1669  0.4190
    5TMC2    C414454   1.680   1.378  15.445 -0.6794 -0.3243  0.0959
    5TMC2    C514455   1.808   1.423  15.478  0.0382 -0.2147  0.2370
    5TMC2    C614456   1.842   1.453  15.607  0.7424  0.4117 -0.0257
    5TMC2     C14457   1.455   1.440  15.493 -0.4997 -0.2176  0.4027
    5TMC2     O14458   1.357   1.440  15.563 -0.2421 -0.0788  0.4496
    5TMC2     H14459   1.545   1.384  15.749 -0.5731  1.0292 -1.3842
    5TMC2    H114460   1.651   1.340  15.347  0.8085 -0.3990 -0.3111
    5TMC2    H214461   1.937   1.487  15.645  0.3734  1.4660 -0.0479
    5TMC2    C714462   1.850   1.517  15.379  0.2582 -0.2015 -0.7604
    5TMC2    C814463   1.793   1.449  15.829 -0.0427 -0.2669  0.3941
    5TMC2    O114464   1.776   1.525  15.280 -0.8809 -0.3939 -0.3235
    5TMC2    O214465   1.868   1.371  15.880  0.2448 -0.1774  1.0616
    5TMC2    O514466   1.817   1.580  15.830 -0.8309 -0.4578  0.3811
    5TMC2    H514467   1.770   1.633  15.762 -0.3029 -2.4661 -1.5454
    6MPD2     C14468   1.239   1.751  15.134  0.3587 -0.1602  1.1593
    6MPD2    C114469   1.375   1.746  15.121  0.3377  0.1425 -0.1856
    6MPD2    C214470   1.448   1.669  15.214  0.2831 -0.1619 -0.3591
    6MPD2    C314471   1.392   1.594  15.310  0.4989 -0.4926  0.2631
    6MPD2    C414472   1.260   1.606  15.327  0.1628  1.0821 -0.0274
    6MPD2    C514473   1.191   1.688  15.238 -0.2908 -0.5188 -0.0555
    6MPD2     H14474   1.555   1.682  15.209  0.6319 -3.7299 -2.4002
    6MPD2    H114475   1.201   1.558  15.405  0.4887  0.3092 -0.2534
    6MPD2    H214476   1.167   1.808  15.076  1.0307  0.7158  1.1741
    6MPD2    H314477   1.085   1.688  15.261 -0.1571  2.6974  0.5440
    6MPD2     N14478   1.478   1.512  15.382  0.0145 -0.7797  0.1949
    6MPD2    H514479   1.575   1.517  15.351  0.0556 -1.6844  0.1856
    6MPD2    N114480   1.446   1.816  15.026  0.3857  1.1505  1.2571
    6MPD2    H714481   1.547   1.815  15.034  0.3459 -0.1942  1.5935
  945NH4     N114482   4.402   0.562   8.632 -0.0942 -0.1469 -0.4823
  945NH4     H214483   4.500   0.555   8.667 -0.4576 -0.5643  0.4237
  945NH4     H314484   4.380   0.467   8.596  2.0842 -0.7947 -0.1176
  945NH4     H414485   4.400   0.625   8.549 -2.3677  1.2395  0.6336
  945NH4     H514486   4.345   0.590   8.714  1.8292 -0.6493  1.0214
  946SOD     NA14487   3.770   2.850  14.414 -0.1002 -0.4028 -0.1236
  947SOD     NA14488   1.267   2.755  10.914 -0.7267 -0.2983  0.3924
  948SOD     NA14489   1.719   3.223  12.551 -0.2846 -0.3809  0.0991
  949SOD     NA14490   3.393   4.156  17.081  0.2989  0.3845 -0.2584
  950SOD     NA14491   4.454   1.208   6.314 -0.0572  0.1488 -0.2030
  951SOD     NA14492   4.149   2.447   5.257 -0.0243  0.1463  0.3787
  952SOD     NA14493   2.860   0.875  11.753 -0.1581  0.4259 -0.1868
  953SOL     OW14494   4.205   4.593   4.305 -0.1183  0.1916  0.1687
  953SOL    HW114495   4.262   4.650   4.357  2.5609  0.5478 -3.1299
  953SOL    HW214496   4.181   4.525   4.367 -1.6243  0.2336 -0.3610
  954SOL     OW14497   2.302   4.234   7.312 -0.0767  0.0426  0.0868
  954SOL    HW114498   2.214   4.270   7.304  0.7636  2.3212  1.1354
  954SOL    HW214499   2.339   4.320   7.330 -0.5196 -0.1587  1.9709
  955SOL     OW14500   4.655   2.135   0.115  0.4178  0.3459 -0.0630
  955SOL    HW114501   4.611   2.211   0.077  0.2223  1.1923  1.8477
  955SOL    HW214502   4.584   2.097   0.166 -0.6266  0.6409 -1.3054
  956SOL     OW14503   0.644   3.304   9.049 -0.1740  0.0201 -0.3072
  956SOL    HW114504   0.717   3.360   9.076  0.4249 -1.1426  0.4883
  956SOL    HW214505   0.643   3.246   9.125  0.1267  0.8508  0.3292
  957SOL     OW14506   1.438   0.177   4.067  0.2754 -0.2323 -0.3985
  957SOL    HW114507   1.501   0.112   4.097 -0.0639 -0.5925 -0.4721
  957SOL    HW214508   1.420   0.136   3.982  0.7898 -0.7223 -0.2672
  958SOL     OW14509   3.691   1.905   2.219 -0.2227 -0.4414 -0.0533
  958SOL    HW114510   3.707   1.816   2.188  3.0215 -0.0506  0.4991
  958SOL    HW214511   3.620   1.931   2.161 -0.4251 -1.8474 -0.4479
  959SOL     OW14512   3.313   3.779   8.118  0.1995 -0.0131 -0.1695
  959SOL    HW114513   3.262   3.702   8.147  1.3651 -0.5445  0.4642
  959SOL    HW214514   3.381   3.734   8.068 -0.1312 -0.4085 -0.2662
  960SOL     OW14515   2.081   1.556   2.123  0.0485  0.3978 -0.4283
  960SOL    HW114516   2.055   1.504   2.047 -0.9837 -0.0639  0.2383
  960SOL    HW214517   2.001   1.606   2.140  1.4012  3.0168 -1.7742
  961SOL     OW14518   0.417   1.436   9.170 -0.1814 -0.6025 -0.1026
  961SOL    HW114519   0.369   1.512   9.201 -0.2249 -0.3220 -0.8813
  961SOL    HW214520   0.433   1.394   9.255 -1.5018 -0.3658  0.2564
  962SOL     OW14521   3.150   1.675   4.537 -0.2339  0.3481  0.5332
  962SOL    HW114522   3.147   1.649   4.445  1.2960  0.8438  0.3353
  962SOL    HW214523   3.131   1.768   4.524 -1.6179 -0.2899 -1.8654
  963SOL     OW14524   1.732   3.980   6.111 -0.3422  0.0542  0.3331
  963SOL    HW114525   1.720   3.911   6.046  2.2088  0.3520 -0.4431
  963SOL    HW214526   1.730   4.056   6.053  1.0249  0.6013  1.0015
  964SOL     OW14527   3.155   4.644  15.941 -0.8695  0.2344 -0.2803
  964SOL    HW114528   3.217   4.577  15.911 -1.1249  0.0360 -0.3667
  964SOL    HW214529   3.150   4.693  15.859 -0.6686  0.4132 -0.1850
  965SOL     OW14530   0.149   1.982   7.998  0.0552 -0.1217  0.2069
  965SOL    HW114531   0.209   1.933   8.054  0.1973 -1.5722 -1.2071
  965SOL    HW214532   0.073   1.980   8.056  1.2084 -3.6417  1.6372
  966SOL     OW14533   2.247   3.876   9.447  0.1662 -0.3352 -0.8567
  966SOL    HW114534   2.163   3.919   9.432 -0.3426  0.6453  4.5464
  966SOL    HW214535   2.255   3.810   9.378 -1.2391 -1.7148  0.3017
  967SOL     OW14536   1.002   0.718   3.233  0.7691  0.5181 -0.3195
  967SOL    HW114537   0.993   0.799   3.282 -0.5027  0.3464 -0.2455
  967SOL    HW214538   0.911   0.689   3.218  0.8140  1.2404 -1.9969
  968SOL     OW14539   1.113   4.290   4.701 -0.3818 -0.0992 -0.1219
  968SOL    HW114540   1.196   4.245   4.721  0.0398  1.8386  2.3858
  968SOL    HW214541   1.084   4.236   4.627 -1.4974 -0.9424  0.9379
  969SOL     OW14542   0.534   4.216   8.975  0.5008  0.4467 -0.4417
  969SOL    HW114543   0.569   4.201   9.063 -1.4348 -1.5621 -0.0136
  969SOL    HW214544   0.589   4.150   8.933  0.0207  1.1023 -2.0894
  970SOL     OW14545   0.294   1.303   1.623  0.0849 -0.0710  0.5150
  970SOL    HW114546   0.294   1.350   1.539  0.0597 -1.3894 -0.2193
  970SOL    HW214547   0.216   1.251   1.606 -1.3173  2.3768 -0.6902
  971SOL     OW14548   0.544   3.396   8.393  0.2198  0.4783 -0.3796
  971SOL    HW114549   0.585   3.433   8.314  0.2614  0.9341 -0.1471
  971SOL    HW214550   0.518   3.478   8.436  1.3719  0.6336  0.0223
  972SOL     OW14551   4.533   1.139   7.220  0.1592 -0.2996  0.2898
  972SOL    HW114552   4.593   1.174   7.286  2.5232 -3.1282 -0.3584
  972SOL    HW214553   4.487   1.073   7.272 -1.2566 -1.1653 -2.0717
  973SOL     OW14554   0.158   3.318   7.338  0.2000 -0.1850  0.5053
  973SOL    HW114555   0.205   3.235   7.328  2.4545  1.3456 -1.6213
  973SOL    HW214556   0.235   3.374   7.328  0.5400 -0.4510  1.7038
  974SOL     OW14557   3.300   4.224   4.566 -0.1889  0.2804 -0.1879
  974SOL    HW114558   3.334   4.135   4.559  1.1812  0.8665 -1.0263
  974SOL    HW214559   3.351   4.270   4.632 -0.4880  0.0040  0.2318
  975SOL     OW14560   2.674   1.492   8.558  0.2131 -0.3508 -0.2547
  975SOL    HW114561   2.740   1.457   8.499  0.9195  0.8745 -0.1924
  975SOL    HW214562   2.665   1.424   8.625 -0.6656  0.5385  0.5282
  976SOL     OW14563   0.697   0.826   1.270  0.7497  0.3688 -0.6079
  976SOL    HW114564   0.749   0.868   1.202  1.5697 -0.1404 -0.2968
  976SOL    HW214565   0.672   0.905   1.318 -0.4520  0.3849 -1.2550
  977SOL     OW14566   0.571   0.632   8.777  0.2124 -0.2921  0.1002
  977SOL    HW114567   0.657   0.673   8.772  0.3946 -1.0264 -3.3476
  977SOL    HW214568   0.611   0.545   8.779 -0.2945 -0.4691  2.3991
  978SOL     OW14569   0.944   3.123  13.912  1.0918 -0.1439 -0.4828
  978SOL    HW114570   0.975   3.033  13.908  2.3162  0.3215 -1.5380
  978SOL    HW214571   0.953   3.149  14.003  0.0793  1.3307 -0.7995
  979SOL     OW14572   0.932   3.555  12.098 -0.1918 -0.4059 -0.2805
  979SOL    HW114573   0.929   3.516  12.185 -0.8318  0.5185  0.1082
  979SOL    HW214574   0.936   3.650  12.109  2.4538 -0.5484  0.0026
  980SOL     OW14575   3.079   1.439  16.882  0.2253 -0.2189  0.4176
  980SOL    HW114576   3.134   1.398  16.815 -0.3750  0.3329 -0.3993
  980SOL    HW214577   3.008   1.375  16.891  1.3132 -1.3143  1.2114
  981SOL     OW14578   2.601   0.798   7.265  0.3441 -0.0961 -0.4711
  981SOL    HW114579   2.566   0.790   7.354  0.3789 -0.6137 -0.5045
  981SOL    HW214580   2.687   0.832   7.287  0.0616  1.0734 -1.1635
  982SOL     OW14581   3.882   1.479   8.671 -0.0816 -0.0520  0.3660
  982SOL    HW114582   3.882   1.556   8.727  3.2264  0.9426 -0.9668
  982SOL    HW214583   3.943   1.510   8.603 -0.6306  1.2325  0.4651
  983SOL     OW14584   3.697   3.497   4.558  0.2496 -0.4696  0.2608
  983SOL    HW114585   3.675   3.435   4.489  0.4145  0.8660 -1.0083
  983SOL    HW214586   3.736   3.432   4.617  1.4711 -1.2312 -1.3909
  984SOL     OW14587   0.423   4.245   8.223  0.3992 -0.1501 -0.4615
  984SOL    HW114588   0.506   4.289   8.240  0.5489 -0.4307 -0.4588
  984SOL    HW214589   0.378   4.246   8.308 -0.1836  0.9682 -0.7878
  985SOL     OW14590   4.640   1.008   2.783 -0.1892 -0.1134 -0.1529
  985SOL    HW114591   4.571   0.971   2.838  0.2439  0.4666  0.7772
  985SOL    HW214592   4.617   0.988   2.692 -0.7936 -0.0412 -0.0100
  986SOL     OW14593   2.151   3.733  13.548 -0.1372  0.4443  0.2883
  986SOL    HW114594   2.142   3.649  13.592 -2.0885 -0.4452 -1.8142
  986SOL    HW214595   2.107   3.780  13.619  0.8701 -1.8020  2.3849
  987SOL     OW14596   0.626   1.344  15.703 -0.3477 -0.6840  0.3558
  987SOL    HW114597   0.708   1.382  15.732 -0.5892  0.4123 -0.4014
  987SOL    HW214598   0.594   1.303  15.783  0.3461 -3.7070 -0.8858
  988SOL     OW14599   2.709   1.222   8.710 -0.1474  0.0147 -0.6079
  988SOL    HW114600   2.766   1.156   8.749  0.7534  0.4323 -1.2206
  988SOL    HW214601   2.694   1.272   8.791  0.5716  0.7269 -0.9199
  989SOL     OW14602   2.523   2.473   6.926  0.1542  0.3433  0.3372
  989SOL    HW114603   2.605   2.475   6.876  0.1074 -0.2834  0.2385
  989SOL    HW214604   2.553   2.437   7.009 -1.0084  0.8510  0.9856
  990SOL     OW14605   4.519   0.513   9.386 -0.3007 -0.8747  0.2332
  990SOL    HW114606   4.464   0.580   9.427 -0.9647 -0.1932 -1.7846
  990SOL    HW214607   4.455   0.470   9.329  1.4152 -0.8472 -1.7103
  991SOL     OW14608   1.999   0.471  17.166 -0.0459 -0.1548 -0.0900
  991SOL    HW114609   2.013   0.397  17.225 -2.0138  0.5405  1.2834
  991SOL    HW214610   2.035   0.546  17.214 -1.4842 -1.0614  2.4226
  992SOL     OW14611   3.673   0.079   7.143  0.0602 -0.7487 -0.7484
  992SOL    HW114612   3.729   0.156   7.142  1.1036 -1.5766 -5.5122
  992SOL    HW214613   3.724   0.000   7.161 -0.2125 -0.7439  0.0388
  993SOL     OW14614   1.997   4.418  16.130 -0.0132  0.1701  0.1804
  993SOL    HW114615   2.050   4.339  16.136 -0.2303  0.0216  0.1376
  993SOL    HW214616   1.932   4.380  16.070  0.1458 -2.8576  1.9531
  994SOL     OW14617   2.430   0.449   9.291  0.2796 -0.3753  0.0802
  994SOL    HW114618   2.433   0.359   9.260 -0.0124 -0.2104 -0.4214
  994SOL    HW214619   2.486   0.433   9.367 -1.0442 -2.9389  0.5140
  995SOL     OW14620   4.666   2.280   7.572  0.1110  0.4405 -0.1925
  995SOL    HW114621   4.609   2.331   7.515 -0.1952  1.9972  1.4993
  995SOL    HW214622   4.701   2.217   7.509 -1.5925  0.7334 -1.4227
  996SOL     OW14623   0.369   4.081   4.455  0.1939 -0.0758  0.3026
  996SOL    HW114624   0.391   4.156   4.400  1.5746 -0.2789  0.5684
  996SOL    HW214625   0.380   4.020   4.382  1.2139 -0.4245  0.7414
  997SOL     OW14626   3.084   0.413   8.638  0.1044  0.7390  0.3222
  997SOL    HW114627   3.151   0.477   8.613 -0.5825  0.9468 -0.9663
  997SOL    HW214628   3.096   0.340   8.578  2.1238 -0.1720  1.8011
  998SOL     OW14629   4.616   4.060   9.984  0.1732  0.2296  0.0859
  998SOL    HW114630   4.527   4.078   9.956 -0.5113 -0.7681  1.5951
  998SOL    HW214631   4.632   3.969   9.959  1.1325  0.5342 -0.4030
  999SOL     OW14632   1.439   0.923   6.406 -0.1641  0.2312 -0.0206
  999SOL    HW114633   1.417   1.014   6.428 -0.5781  0.0237  0.4341
  999SOL    HW214634   1.433   0.928   6.310 -1.3325  1.4141  0.1093
 1000SOL     OW14635   2.741   3.598   0.158 -0.1650  0.6637 -0.3776
 1000SOL    HW114636   2.659   3.644   0.176 -1.0345 -1.1381  0.2936
 1000SOL    HW214637   2.809   3.632   0.216 -0.4746 -1.1523  1.0540
 1001SOL     OW14638   2.044   2.700   6.529 -0.0621  0.4182 -0.0385
 1001SOL    HW114639   2.036   2.642   6.605 -2.4442 -0.7124 -1.1514
 1001SOL    HW214640   2.051   2.789   6.564  0.0716  1.5300 -2.8847
 1002SOL     OW14641   1.360   2.449   9.449 -0.0455 -0.4636 -0.3668
 1002SOL    HW114642   1.294   2.496   9.396 -0.3176  0.3956  0.7271
 1002SOL    HW214643   1.435   2.504   9.427 -1.1586  1.5100  0.7136
 1003SOL     OW14644   3.996   2.183   6.618 -0.0593 -0.0283 -0.1435
 1003SOL    HW114645   4.049   2.127   6.561  0.3205  1.4924 -1.2502
 1003SOL    HW214646   4.053   2.199   6.693  0.9185 -0.0378 -0.8970
 1004SOL     OW14647   0.271   1.193   0.593  0.4064 -0.4948 -0.0831
 1004SOL    HW114648   0.257   1.123   0.530  1.1458 -2.1311  1.5723
 1004SOL    HW214649   0.327   1.146   0.655 -0.9853 -0.0764  1.4962
 1005SOL     OW14650   0.965   2.815   5.888 -0.6256  0.0073 -0.4208
 1005SOL    HW114651   1.010   2.775   5.962 -2.7296 -0.6071  0.5318
 1005SOL    HW214652   0.914   2.740   5.858 -1.6903  1.0581 -1.2437
 1006SOL     OW14653   1.289   2.744   7.985 -0.5236 -0.1634 -0.0218
 1006SOL    HW114654   1.252   2.660   8.011 -1.3331  0.3122  0.3473
 1006SOL    HW214655   1.206   2.779   7.955  0.6610  2.7462  0.0648
 1007SOL     OW14656   2.808   3.583   2.207  0.0127  0.4462  0.5966
 1007SOL    HW114657   2.868   3.631   2.150  1.5792  0.7270  2.4745
 1007SOL    HW214658   2.860   3.584   2.287  2.3978 -0.2167 -0.9519
 1008SOL     OW14659   4.376   4.352  10.963  0.4825  0.5083  0.0862
 1008SOL    HW114660   4.452   4.327  11.017  1.2895 -0.7707 -1.6220
 1008SOL    HW214661   4.411   4.378  10.878 -0.3079  0.6943 -0.1819
 1009SOL     OW14662   0.646   3.382   2.729  0.1571  0.4081 -0.1888
 1009SOL    HW114663   0.591   3.304   2.744 -0.8624  1.1448 -0.0498
 1009SOL    HW214664   0.721   3.369   2.786  1.1407  0.8788 -1.3863
 1010SOL     OW14665   2.853   1.764   4.642 -0.2019 -0.1143  0.6161
 1010SOL    HW114666   2.921   1.821   4.606  0.7627  0.1829  2.8993
 1010SOL    HW214667   2.889   1.742   4.728  0.0288 -0.7888  0.3430
 1011SOL     OW14668   2.557   0.835   7.555  0.5806 -0.3087  0.0066
 1011SOL    HW114669   2.495   0.777   7.600  0.2295 -0.4649 -0.6682
 1011SOL    HW214670   2.568   0.911   7.612 -1.8951  1.7710 -2.2588
 1012SOL     OW14671   0.320   4.305   5.866  0.2677  0.7774 -0.3634
 1012SOL    HW114672   0.289   4.395   5.865 -0.2934  0.5999  0.7450
 1012SOL    HW214673   0.297   4.264   5.783 -0.3543 -0.4753  0.4311
 1013SOL     OW14674   4.682   1.006   4.791  0.0160  0.2301 -0.2914
 1013SOL    HW114675   4.649   0.931   4.742 -0.2574 -0.9825  1.7674
 1013SOL    HW214676   0.023   1.010   4.739 -0.7100  2.2601 -1.2790
 1014SOL     OW14677   0.344   2.217   1.312  1.0249  0.1465 -0.0031
 1014SOL    HW114678   0.409   2.177   1.371  0.0212  0.2711  1.1898
 1014SOL    HW214679   0.404   2.232   1.239  0.6614 -0.7761 -0.4945
 1015SOL     OW14680   1.261   3.183   4.727  0.3400  0.3760  0.1881
 1015SOL    HW114681   1.203   3.207   4.655  0.3967  0.5302  0.1946
 1015SOL    HW214682   1.191   3.153   4.786 -0.6228  1.7769 -0.2386
 1016SOL     OW14683   0.915   3.045   3.641 -0.2001 -0.6112  0.2711
 1016SOL    HW114684   0.982   3.063   3.575 -0.2332  0.1343  0.4406
 1016SOL    HW214685   0.942   2.955   3.660  0.9362 -0.4163 -0.4181
 1017SOL     OW14686   3.673   3.955   7.873  0.9365 -0.2864  0.3103
 1017SOL    HW114687   3.591   3.998   7.847  0.0878 -2.7015 -1.1165
 1017SOL    HW214688   3.740   4.001   7.823  2.4851 -0.9034  1.8408
 1018SOL     OW14689   1.643   1.112   2.863  0.3569 -0.0650 -0.1904
 1018SOL    HW114690   1.568   1.058   2.841 -0.2200  0.7641 -0.2592
 1018SOL    HW214691   1.718   1.088   2.808  0.5031 -0.1736  0.0534
 1019SOL     OW14692   2.353   0.520   2.690  0.1781 -0.5957  0.3399
 1019SOL    HW114693   2.365   0.598   2.635  1.7588 -0.4672  0.8744
 1019SOL    HW214694   2.273   0.548   2.734 -0.1316 -0.2181 -0.4565
 1020SOL     OW14695   3.988   2.231   4.643  0.6406 -0.6109 -0.5739
 1020SOL    HW114696   4.056   2.167   4.666  0.8614  0.7430  2.4985
 1020SOL    HW214697   4.035   2.311   4.666  1.6049 -1.5091  0.5759
 1021SOL     OW14698   1.991   1.875   6.149 -0.0755 -0.0006 -0.0255
 1021SOL    HW114699   1.932   1.882   6.224 -1.4536  0.5362 -1.1744
 1021SOL    HW214700   1.937   1.820   6.094  0.3120 -2.0806  1.6817
 1022SOL     OW14701   0.676   2.457   4.372 -0.1071 -0.1943  0.3300
 1022SOL    HW114702   0.762   2.438   4.335  0.4445 -2.3184  2.6732
 1022SOL    HW214703   0.713   2.520   4.433  3.2712 -1.8624  0.0444
 1023SOL     OW14704   3.579   3.552   7.035 -0.3192 -0.4638  0.0019
 1023SOL    HW114705   3.637   3.528   7.108  0.3034  2.1053  0.3595
 1023SOL    HW214706   3.636   3.576   6.962 -0.9177 -0.0349 -0.3248
 1024SOL     OW14707   4.283   2.961   5.663 -0.4714  0.3650  0.0628
 1024SOL    HW114708   4.195   2.973   5.700  0.8444  0.1544  3.2988
 1024SOL    HW214709   4.329   2.909   5.729 -1.4965  0.4126  0.8160
 1025SOL     OW14710   1.997   0.488   0.625  0.1263  0.2047 -0.5209
 1025SOL    HW114711   2.004   0.493   0.530  0.8350  0.5404 -0.4498
 1025SOL    HW214712   1.912   0.443   0.628  1.2471 -1.6165  3.2539
 1026SOL     OW14713   1.116   2.381   3.158 -0.0572 -0.0523  0.3406
 1026SOL    HW114714   1.083   2.291   3.154 -1.3540  0.5300 -2.1046
 1026SOL    HW214715   1.067   2.431   3.092 -1.3314 -0.5736  0.8984
 1027SOL     OW14716   0.137   4.622  14.688  0.1411 -0.3108  0.0995
 1027SOL    HW114717   0.120   4.684  14.617  0.3960 -1.1351 -0.6828
 1027SOL    HW214718   0.169   4.546  14.639  3.1353  0.8012  0.3053
 1028SOL     OW14719   2.812   0.475   7.936 -0.6706 -0.0658 -0.1777
 1028SOL    HW114720   2.885   0.537   7.934  1.2627 -2.2840  0.8579
 1028SOL    HW214721   2.843   0.418   7.865 -0.0030  0.0038  0.0548
 1029SOL     OW14722   3.927   2.017  12.843  0.1292  0.5506  0.1478
 1029SOL    HW114723   3.940   2.111  12.853 -0.1033  0.5071  0.9225
 1029SOL    HW214724   3.886   2.000  12.929 -0.3578 -2.3490 -0.6410
 1030SOL     OW14725   3.470   2.603   7.450  0.0246  0.0044 -0.9686
 1030SOL    HW114726   3.529   2.609   7.375  0.9885  0.2552 -0.1789
 1030SOL    HW214727   3.437   2.517   7.425  0.3650 -1.0318  2.1589
 1031SOL     OW14728   0.082   4.185   2.304  0.4109  0.1810 -0.5557
 1031SOL    HW114729   0.020   4.114   2.320 -0.3843  0.7011 -1.4278
 1031SOL    HW214730   0.156   4.129   2.281 -0.8718 -1.1918 -1.3273
 1032SOL     OW14731   0.477   0.176   7.637 -0.8531  0.0104 -0.1246
 1032SOL    HW114732   0.481   0.202   7.545  0.0423 -0.2075 -0.1564
 1032SOL    HW214733   0.427   0.095   7.627 -1.4197  0.0942  2.0859
 1033SOL     OW14734   4.000   0.771  12.458 -0.1336  0.0252 -0.2675
 1033SOL    HW114735   4.057   0.763  12.535 -1.0289  0.1655  0.4015
 1033SOL    HW214736   3.917   0.729  12.482 -0.5691  0.5410 -0.8863
 1034SOL     OW14737   2.651   3.243   4.751 -0.2291 -0.2884  0.5797
 1034SOL    HW114738   2.652   3.227   4.845 -0.8961 -2.4296  0.2183
 1034SOL    HW214739   2.724   3.305   4.752  1.4607 -2.2524 -1.1197
 1035SOL     OW14740   3.436   3.459   8.489 -0.3645  0.4513 -0.5499
 1035SOL    HW114741   3.502   3.395   8.463 -0.4935  0.2255 -0.3180
 1035SOL    HW214742   3.475   3.544   8.469  0.0451  0.8395  1.8424
 1036SOL     OW14743   4.220   4.241  15.570 -0.5678 -0.6856 -0.5332
 1036SOL    HW114744   4.269   4.241  15.488  0.9823  1.2133  0.4248
 1036SOL    HW214745   4.138   4.276  15.536 -1.8622 -1.0697  2.1651
 1037SOL     OW14746   0.657   2.385   7.078  0.2071 -0.4899 -0.3913
 1037SOL    HW114747   0.647   2.480   7.072  0.8205 -0.3045  1.4052
 1037SOL    HW214748   0.586   2.353   7.023  1.0569  1.1118 -2.4354
 1038SOL     OW14749   0.586   2.932   2.549 -0.0752 -0.0326  0.0417
 1038SOL    HW114750   0.517   2.996   2.563  1.7286  1.4447  2.1891
 1038SOL    HW214751   0.587   2.916   2.455  1.0574 -0.2487  0.0867
 1039SOL     OW14752   2.785   1.149   7.483 -0.0575 -0.2602 -0.2135
 1039SOL    HW114753   2.708   1.150   7.540 -0.9646  0.8375 -1.4606
 1039SOL    HW214754   2.786   1.241   7.457 -1.2272 -0.7051 -1.8023
 1040SOL     OW14755   1.010   2.427   0.184 -0.1211 -0.0959  0.0416
 1040SOL    HW114756   1.091   2.445   0.232 -1.6852  1.6327  1.9957
 1040SOL    HW214757   0.952   2.425   0.260 -1.4876 -0.8530 -1.0368
 1041SOL     OW14758   1.828   4.238   3.027  0.0035 -0.0309  0.0101
 1041SOL    HW114759   1.852   4.162   3.080 -1.2916 -0.8653 -0.6129
 1041SOL    HW214760   1.769   4.202   2.961  0.8121  0.1370 -0.8087
 1042SOL     OW14761   3.072   1.865   7.384  0.1862 -0.1729 -0.3807
 1042SOL    HW114762   3.165   1.868   7.360 -0.0945 -1.5795 -1.6105
 1042SOL    HW214763   3.040   1.940   7.333  1.2553  0.9409  0.5533
 1043SOL     OW14764   2.167   4.265  14.545  0.8032  0.2598  0.2349
 1043SOL    HW114765   2.141   4.177  14.518 -1.3028  0.3682  1.9460
 1043SOL    HW214766   2.097   4.321  14.510  0.3418 -0.5556 -0.1276
 1044SOL     OW14767   1.859   0.440   8.235  0.4433 -0.2264 -0.0390
 1044SOL    HW114768   1.797   0.451   8.163  0.9990 -1.7806 -0.7639
 1044SOL    HW214769   1.903   0.524   8.238 -0.0956  0.1613 -2.5444
 1045SOL     OW14770   4.038   0.001   2.465 -0.0463  0.2173  0.4209
 1045SOL    HW114771   3.977   0.048   2.409  1.5645  0.8052 -0.8544
 1045SOL    HW214772   4.124   0.014   2.426 -0.3759 -0.5932 -0.5713
 1046SOL     OW14773   1.120   2.299   5.911  0.5692 -0.4502  0.0034
 1046SOL    HW114774   1.071   2.353   5.849  2.5522 -0.3890 -1.5057
 1046SOL    HW214775   1.115   2.220   5.858 -0.9303  0.9274 -1.9041
 1047SOL     OW14776   4.423   4.029   3.415  0.0041 -0.0647 -0.2079
 1047SOL    HW114777   4.448   4.103   3.360  0.4439 -1.7270 -2.1921
 1047SOL    HW214778   4.398   3.971   3.343  0.1473  0.3092 -0.5586
 1048SOL     OW14779   3.335   0.786   9.394  0.0799 -0.3887  0.1743
 1048SOL    HW114780   3.327   0.733   9.315 -2.3905 -1.7994  1.3416
 1048SOL    HW214781   3.365   0.719   9.457 -2.6853  0.8514  2.8462
 1049SOL     OW14782   4.144   4.193   9.807 -0.0367 -0.1730  0.0146
 1049SOL    HW114783   4.078   4.187   9.738 -1.2753 -1.4874  1.3238
 1049SOL    HW214784   4.101   4.268   9.847 -2.1783 -1.7895  0.7263
 1050SOL     OW14785   0.686   2.400  15.033  0.2083 -0.5787  0.2512
 1050SOL    HW114786   0.686   2.339  15.107 -0.0263  1.0796  1.6231
 1050SOL    HW214787   0.775   2.381  15.003  0.6159  3.5026 -1.0179
 1051SOL     OW14788   4.278   2.843   6.505  0.3843  0.0839 -0.4044
 1051SOL    HW114789   4.216   2.813   6.438  0.9992  1.4343 -1.5647
 1051SOL    HW214790   4.362   2.836   6.460  0.4810  0.1744 -0.2352
 1052SOL     OW14791   3.239   0.080   3.639 -0.5499  0.1871 -0.2709
 1052SOL    HW114792   3.148   0.066   3.615 -0.4401 -3.5177  1.4775
 1052SOL    HW214793   3.281   0.004   3.598 -0.2926  1.8672 -3.1267
 1053SOL     OW14794   4.459   4.551   1.395 -0.5310 -0.9927  0.1824
 1053SOL    HW114795   4.403   4.592   1.461  0.1803 -0.8997  0.7249
 1053SOL    HW214796   4.524   4.501   1.444 -0.4665 -1.8253 -0.7471
 1054SOL     OW14797   3.898   4.638   7.306  0.6160  0.3966  0.5020
 1054SOL    HW114798   3.901   4.727   7.342 -4.1761  0.6166  0.3454
 1054SOL    HW214799   3.897   4.592   7.390 -0.8892 -0.5891 -0.0610
 1055SOL     OW14800   4.572   0.399   5.697 -0.0538 -0.5681  0.1363
 1055SOL    HW114801   4.592   0.330   5.761  0.0419 -0.0451  0.6671
 1055SOL    HW214802   4.507   0.451   5.743  0.1736 -0.3764  0.2420
 1056SOL     OW14803   3.283   4.007   7.270  0.7157  0.4662 -0.2985
 1056SOL    HW114804   3.302   3.986   7.179 -1.1188 -1.9366 -0.1180
 1056SOL    HW214805   3.196   4.046   7.270 -0.4891 -2.1893  0.8008
 1057SOL     OW14806   0.538   3.369  12.620  0.0256  0.2252  0.4991
 1057SOL    HW114807   0.491   3.286  12.610 -3.3854  2.2557 -0.4342
 1057SOL    HW214808   0.515   3.397  12.708  1.1174  3.9607 -0.4137
 1058SOL     OW14809   3.605   4.492   2.577 -0.3966 -0.7258 -0.1488
 1058SOL    HW114810   3.518   4.489   2.538 -0.2889  0.5364 -0.4987
 1058SOL    HW214811   3.598   4.438   2.655 -0.5474  0.4813  0.6804
 1059SOL     OW14812   3.039   2.213  16.447 -0.0863  0.2253 -0.4071
 1059SOL    HW114813   3.068   2.145  16.386 -2.9114 -0.0007 -1.5329
 1059SOL    HW214814   3.116   2.230  16.501  1.4752  0.4120 -2.6935
 1060SOL     OW14815   3.012   1.543   8.742  0.1564 -0.0093  0.4746
 1060SOL    HW114816   3.046   1.509   8.659 -1.2396  1.1083 -0.5595
 1060SOL    HW214817   3.032   1.479   8.809 -2.9187 -2.3597 -0.8339
 1061SOL     OW14818   0.882   3.683   7.081  0.0521  0.4404 -0.3889
 1061SOL    HW114819   0.901   3.767   7.122 -0.7943 -0.2346  1.4050
 1061SOL    HW214820   0.969   3.662   7.047  0.0589 -0.5012  0.1834
 1062SOL     OW14821   0.934   4.013   4.636 -0.2350 -0.0917 -0.1712
 1062SOL    HW114822   0.907   3.961   4.712  0.6461  0.4060  0.4887
 1062SOL    HW214823   0.851   4.041   4.599  0.0667 -2.1847 -2.4117
 1063SOL     OW14824   1.184   3.269   4.217 -0.4006  0.2583 -0.1715
 1063SOL    HW114825   1.220   3.181   4.229  1.3698  1.0237  0.2352
 1063SOL    HW214826   1.258   3.312   4.173  0.3667 -0.7537  0.1438
 1064SOL     OW14827   0.549   3.252   9.652 -0.0422  0.4666  0.0433
 1064SOL    HW114828   0.475   3.250   9.592 -0.4203 -2.0643  0.6170
 1064SOL    HW214829   0.512   3.237   9.739 -0.0537 -0.4290 -0.1150
 1065SOL     OW14830   2.209   2.699  13.629 -0.0694 -0.0686  0.1471
 1065SOL    HW114831   2.225   2.695  13.724 -0.5159 -1.0782  0.1792
 1065SOL    HW214832   2.147   2.627  13.618  0.9280 -0.7906 -0.7416
 1066SOL     OW14833   4.563   3.168   1.850  0.4251 -0.3026 -0.3820
 1066SOL    HW114834   4.596   3.221   1.922 -0.9941  0.4232 -0.2550
 1066SOL    HW214835   4.593   3.210   1.769 -0.4958  0.4135 -0.3608
 1067SOL     OW14836   3.307   3.509   1.576  0.3871  0.7206  0.1850
 1067SOL    HW114837   3.400   3.510   1.601  0.2999 -1.7231  0.5423
 1067SOL    HW214838   3.277   3.433   1.625  0.0742  0.3226 -0.6283
 1068SOL     OW14839   2.977   0.660   4.858 -0.4700  0.2994 -0.1447
 1068SOL    HW114840   2.981   0.650   4.763 -0.4383 -1.5666  0.0550
 1068SOL    HW214841   2.906   0.597   4.870 -1.2364  1.0531 -0.6957
 1069SOL     OW14842   4.254   0.360   0.768  0.5845 -0.3805 -0.0397
 1069SOL    HW114843   4.187   0.314   0.817 -0.2606 -0.3706 -1.1797
 1069SOL    HW214844   4.221   0.449   0.781  0.7981 -0.3232  0.1207
 1070SOL     OW14845   2.851   4.333   4.653 -0.4954 -0.5957  0.1281
 1070SOL    HW114846   2.889   4.346   4.566  0.4926  1.9259  0.9611
 1070SOL    HW214847   2.925   4.364   4.705 -0.4667  1.5498 -1.2228
 1071SOL     OW14848   2.418   2.382  14.082  0.1465 -0.2164  0.0855
 1071SOL    HW114849   2.328   2.360  14.059  0.0782 -0.8801  0.9908
 1071SOL    HW214850   2.417   2.350  14.172  1.2773  0.3667  0.3076
 1072SOL     OW14851   1.761   3.931   3.840  0.6435  0.0252 -0.1641
 1072SOL    HW114852   1.740   4.013   3.796  0.1968 -1.1861 -2.1935
 1072SOL    HW214853   1.807   3.883   3.770 -0.0040 -0.9080  0.0467
 1073SOL     OW14854   3.302   0.597  15.047  0.8957  0.2999 -0.2820
 1073SOL    HW114855   3.237   0.548  14.997 -0.4799 -1.7939  3.4750
 1073SOL    HW214856   3.250   0.654  15.104 -0.9810  0.5243 -2.2016
 1074SOL     OW14857   4.683   3.740  16.570  0.1165  0.1383 -0.1244
 1074SOL    HW114858   4.683   3.749  16.474  1.7916 -0.4017 -0.1778
 1074SOL    HW214859   4.645   3.826  16.590  0.8570  0.2277  0.8943
 1075SOL     OW14860   4.549   1.420   5.142  0.8769 -0.1008  0.2561
 1075SOL    HW114861   4.584   1.347   5.090  0.7309 -0.5658  0.8090
 1075SOL    HW214862   4.629   1.452   5.184  0.9120 -1.6319  1.3305
 1076SOL     OW14863   0.551   3.715   9.264 -0.1110 -0.0527  0.1024
 1076SOL    HW114864   0.606   3.764   9.324 -0.6919 -2.7093  2.8372
 1076SOL    HW214865   0.608   3.647   9.228  0.0930  0.3891 -0.4011
 1077SOL     OW14866   0.233   2.987   5.347 -0.1059 -0.4097 -0.2544
 1077SOL    HW114867   0.256   3.063   5.401 -0.2850 -0.7637  0.3177
 1077SOL    HW214868   0.286   2.927   5.398 -0.2492 -0.2933  0.0348
 1078SOL     OW14869   3.943   1.032   3.687 -0.5766 -0.1497  0.0153
 1078SOL    HW114870   3.903   1.013   3.602 -0.0555 -0.3685 -0.1830
 1078SOL    HW214871   3.905   1.117   3.710 -0.6424 -0.4826  1.1198
 1079SOL     OW14872   3.162   0.911   0.490 -0.1055 -0.3428 -0.3761
 1079SOL    HW114873   3.088   0.970   0.503  0.6677  0.5409 -0.0188
 1079SOL    HW214874   3.192   0.938   0.403  0.4769 -0.3011 -0.1642
 1080SOL     OW14875   4.333   1.665   6.596  0.7128  0.2490  0.6238
 1080SOL    HW114876   4.264   1.601   6.609  0.4392  0.8496  2.0505
 1080SOL    HW214877   4.282   1.745   6.604  2.0838  1.2301 -0.3778
 1081SOL     OW14878   2.301   0.255   7.483  0.1548  0.2089  0.0555
 1081SOL    HW114879   2.263   0.202   7.414  0.7447  0.0143 -0.1196
 1081SOL    HW214880   2.297   0.196   7.558  1.5151  0.3787  0.2753
 1082SOL     OW14881   0.443   2.833   5.959  0.1722 -0.4141  0.1116
 1082SOL    HW114882   0.453   2.806   5.867  0.8730  2.0317 -0.5133
 1082SOL    HW214883   0.358   2.792   5.973 -0.3544  0.3522 -0.8499
 1083SOL     OW14884   1.618   2.520   5.357 -0.1234  0.1184  0.1967
 1083SOL    HW114885   1.555   2.537   5.426  0.0319  0.2191  0.3137
 1083SOL    HW214886   1.605   2.426   5.342  1.2830 -0.1869  0.8325
 1084SOL     OW14887   4.057   4.538  15.265 -0.3564 -0.1309  0.5163
 1084SOL    HW114888   4.119   4.561  15.197  1.2028  0.0724  2.0031
 1084SOL    HW214889   3.968   4.539  15.229  0.7670  1.6920 -2.1586
 1085SOL     OW14890   0.321   4.375   8.915 -0.1446 -0.2110  0.4406
 1085SOL    HW114891   0.370   4.457   8.900 -1.8361  0.5495 -0.8769
 1085SOL    HW214892   0.395   4.314   8.907 -0.0163 -0.0606  0.4657
 1086SOL     OW14893   4.092   2.189  13.514 -0.1872  0.4539 -0.4799
 1086SOL    HW114894   4.057   2.270  13.550  2.4987  1.8277 -1.0009
 1086SOL    HW214895   4.157   2.219  13.450 -0.2658 -0.8224 -1.1697
 1087SOL     OW14896   4.212   3.592   3.606  0.3583  0.4802 -0.1544
 1087SOL    HW114897   4.162   3.656   3.555 -1.0021 -0.4790 -0.0347
 1087SOL    HW214898   4.137   3.553   3.650  0.8947 -0.0912  0.2468
 1088SOL     OW14899   3.925   4.259   8.010  0.5492  0.3835 -0.0070
 1088SOL    HW114900   3.959   4.260   8.100 -0.4986 -0.2360  0.4047
 1088SOL    HW214901   3.967   4.179   7.978  0.0649  0.0320  0.2341
 1089SOL     OW14902   3.850   1.493   4.272 -0.0571 -0.0045  0.5304
 1089SOL    HW114903   3.943   1.503   4.250 -0.2307  2.1951  0.7944
 1089SOL    HW214904   3.862   1.451   4.357 -1.2728 -1.1294  0.1456
 1090SOL     OW14905   1.118   3.219   3.104 -0.0853 -0.0084 -0.1860
 1090SOL    HW114906   1.027   3.214   3.078  0.1411 -2.4650 -0.5058
 1090SOL    HW214907   1.172   3.244   3.029  0.7860 -0.6265  0.2265
 1091SOL     OW14908   0.087   3.656   2.208 -0.1260 -0.0399  0.1141
 1091SOL    HW114909   0.179   3.682   2.214 -0.4818  1.4553 -1.0693
 1091SOL    HW214910   0.058   3.688   2.123  2.3547  0.6105 -0.4904
 1092SOL     OW14911   2.072   4.111   6.793  0.1261  0.5009 -0.4345
 1092SOL    HW114912   2.074   4.100   6.698  1.2369  0.7579 -0.4403
 1092SOL    HW214913   2.088   4.019   6.812 -0.1065  0.2723 -1.3564
 1093SOL     OW14914   2.106   0.413   3.348  0.1725  0.2478  0.1306
 1093SOL    HW114915   2.070   0.328   3.371  0.0104 -0.1997 -1.7724
 1093SOL    HW214916   2.109   0.452   3.436  0.6390  1.1492 -0.2797
 1094SOL     OW14917   3.043   1.725   2.405  0.2191  0.0717  0.0434
 1094SOL    HW114918   2.994   1.799   2.369  0.2773 -0.7005 -1.6065
 1094SOL    HW214919   3.087   1.695   2.326  1.8191 -1.3810  1.4740
 1095SOL     OW14920   1.551   2.620   6.019  0.0334 -0.0578 -0.1295
 1095SOL    HW114921   1.588   2.533   6.012  2.1669  0.9535 -1.4151
 1095SOL    HW214922   1.473   2.606   5.964  0.4303 -2.0905 -0.1556
 1096SOL     OW14923   4.341   4.145   5.858  0.7219 -0.2862  0.3005
 1096SOL    HW114924   4.316   4.227   5.815 -0.1357 -1.0997 -0.7351
 1096SOL    HW214925   4.347   4.188   5.944 -0.2043 -1.0757  0.7604
 1097SOL     OW14926   3.465   1.530   5.727 -0.0640  0.2163  0.2557
 1097SOL    HW114927   3.499   1.508   5.814  1.5207 -1.5479 -0.7991
 1097SOL    HW214928   3.413   1.452   5.708  1.8597 -0.7631 -1.0566
 1098SOL     OW14929   4.421   2.442   7.976  0.1972  0.4445 -0.2795
 1098SOL    HW114930   4.461   2.431   7.890  0.8570 -0.8861  0.2010
 1098SOL    HW214931   4.462   2.525   8.001 -1.4042  1.4008 -0.7636
 1099SOL     OW14932   2.904   2.699   5.096  0.2084  0.1768 -0.5977
 1099SOL    HW114933   2.939   2.694   5.185  1.0804  1.0025 -0.8927
 1099SOL    HW214934   2.814   2.673   5.113  0.0151 -0.0178 -1.8628
 1100SOL     OW14935   3.702   3.690   5.601  0.8133  0.4408 -0.2737
 1100SOL    HW114936   3.730   3.760   5.542 -1.3939 -2.3253 -4.6031
 1100SOL    HW214937   3.714   3.744   5.679  0.4740 -2.4807  1.8347
 1101SOL     OW14938   0.509   2.214   8.627  0.3988  0.1090  0.0173
 1101SOL    HW114939   0.477   2.190   8.714 -2.0267 -1.7648 -1.3908
 1101SOL    HW214940   0.536   2.129   8.591 -1.8342 -0.7305  0.3345
 1102SOL     OW14941   4.183   2.903   9.184  0.0144  0.4947 -0.3919
 1102SOL    HW114942   4.164   2.997   9.184  0.7006  0.6342  0.4410
 1102SOL    HW214943   4.272   2.913   9.219  0.5656 -0.1069 -1.6374
 1103SOL     OW14944   3.586   4.720  13.500  0.1925 -0.2419  0.1897
 1103SOL    HW114945   3.666   0.032  13.487 -0.8778  0.6504 -3.1224
 1103SOL    HW214946   3.614   4.654  13.563  0.8203 -0.3608 -0.2171
 1104SOL     OW14947   1.659   4.698   6.263  0.0613 -0.3769 -0.1877
 1104SOL    HW114948   1.589   0.021   6.238  1.1184  0.6071 -0.7109
 1104SOL    HW214949   1.720   4.699   6.189  0.5152 -0.1459  0.1897
 1105SOL     OW14950   0.824   4.647   6.368  0.1639 -0.0514 -0.0292
 1105SOL    HW114951   0.740   4.691   6.381  1.4905  2.4469  0.0999
 1105SOL    HW214952   0.880   4.719   6.396  0.7455  0.0535 -1.4761
 1106SOL     OW14953   4.395   0.762   0.640  0.6355  0.1880 -0.2121
 1106SOL    HW114954   4.431   0.691   0.692 -1.6843 -0.1054  1.0096
 1106SOL    HW214955   4.371   0.715   0.560  0.2614  0.2284 -0.1235
 1107SOL     OW14956   1.779   3.937   7.864  0.6794  0.2252 -0.1936
 1107SOL    HW114957   1.759   3.844   7.869 -2.1256  0.9633  1.9132
 1107SOL    HW214958   1.695   3.972   7.894  0.3445 -2.1116  1.6089
 1108SOL     OW14959   3.590   2.127   5.715  0.0835 -0.4795  0.4270
 1108SOL    HW114960   3.614   2.123   5.808 -0.5152  2.8306  0.7170
 1108SOL    HW214961   3.505   2.084   5.726 -0.2611  0.3248  0.9118
 1109SOL     OW14962   4.474   2.036  13.024  0.0237  0.5946 -0.0735
 1109SOL    HW114963   4.526   2.020  13.103  1.0101  0.9753 -0.6437
 1109SOL    HW214964   4.411   1.965  13.031  0.6040  0.0096 -0.7426
 1110SOL     OW14965   4.052   3.887   6.233  0.2914 -0.0658 -0.4030
 1110SOL    HW114966   3.995   3.964   6.230  1.4948  0.8705  0.6443
 1110SOL    HW214967   4.125   3.920   6.285 -1.3951 -0.9588  2.5187
 1111SOL     OW14968   0.317   2.282   2.907 -0.0905  0.3826  0.1797
 1111SOL    HW114969   0.407   2.269   2.938 -0.7020  0.4889  1.9948
 1111SOL    HW214970   0.340   2.284   2.815  0.7154  0.6385  0.3853
 1112SOL     OW14971   3.642   1.991   0.469  0.0203 -0.3017  0.2656
 1112SOL    HW114972   3.561   1.946   0.446 -0.1799  1.3168 -2.2753
 1112SOL    HW214973   3.640   1.961   0.560 -0.9377  0.1677  0.3977
 1113SOL     OW14974   2.531   3.810   8.678 -0.1638 -0.4897 -0.6612
 1113SOL    HW114975   2.604   3.760   8.641  1.2520  1.3659 -0.3532
 1113SOL    HW214976   2.481   3.746   8.729 -0.9182  1.9418  1.6984
 1114SOL     OW14977   4.127   1.850   9.356  0.6787  0.7825 -0.5119
 1114SOL    HW114978   4.160   1.939   9.363  1.1735  0.3584  2.6976
 1114SOL    HW214979   4.083   1.834   9.440 -2.1592  1.6941 -1.8306
 1115SOL     OW14980   3.448   1.686   9.623 -0.2875  0.1682 -0.1330
 1115SOL    HW114981   3.418   1.606   9.666  2.5697 -1.1914 -0.6697
 1115SOL    HW214982   3.368   1.738   9.631  1.5705  2.7222  1.3707
 1116SOL     OW14983   1.361   3.086  10.448  0.4010  0.0719 -0.5544
 1116SOL    HW114984   1.446   3.091  10.491 -0.0518  2.6504  0.0398
 1116SOL    HW214985   1.323   3.167  10.482  1.4765  0.4838 -0.3310
 1117SOL     OW14986   0.922   3.687   6.780  0.0275 -0.0948  0.6485
 1117SOL    HW114987   0.989   3.727   6.835 -1.0483 -0.6487  2.3392
 1117SOL    HW214988   0.931   3.593   6.795  1.4285 -0.0221  0.1953
 1118SOL     OW14989   1.810   3.486   6.003 -0.0425 -0.0632 -0.2591
 1118SOL    HW114990   1.854   3.436   6.072 -0.4616 -2.3580 -1.6668
 1118SOL    HW214991   1.732   3.504   6.056  0.7233  2.0196  0.1959
 1119SOL     OW14992   0.110   3.269   5.974 -0.3216  0.3401  0.2563
 1119SOL    HW114993   0.151   3.353   5.955  0.6209 -0.4636 -1.3428
 1119SOL    HW214994   0.190   3.222   6.000 -1.3431 -1.1780  0.6805
 1120SOL     OW14995   4.572   1.382  12.563  0.1591  0.1512  0.1898
 1120SOL    HW114996   4.620   1.416  12.639  0.8363  1.0586 -0.6354
 1120SOL    HW214997   4.569   1.289  12.584  1.4829  0.7931  3.1452
 1121SOL     OW14998   3.349   3.442   5.570 -0.1400  0.1960  0.3175
 1121SOL    HW114999   3.292   3.401   5.505  0.2813  1.0646 -0.6193
 1121SOL    HW215000   3.312   3.415   5.654 -0.4906 -0.6980 -0.1328
 1122SOL     OW15001   2.871   4.529   4.959 -0.4050  0.3802  0.1136
 1122SOL    HW115002   2.875   4.610   5.010  1.1372  0.0483  0.5118
 1122SOL    HW215003   2.815   4.560   4.887 -2.6600 -1.8879  0.8886
 1123SOL     OW15004   1.534   3.574   1.472 -0.2273  0.1048 -0.0128
 1123SOL    HW115005   1.486   3.551   1.552  0.3314 -0.1439  0.2514
 1123SOL    HW215006   1.508   3.517   1.400 -2.2534 -1.6762  2.1175
 1124SOL     OW15007   0.849   2.956   4.465 -1.0999 -0.6242 -0.0683
 1124SOL    HW115008   0.852   2.978   4.372  0.6970 -2.3870 -0.4329
 1124SOL    HW215009   0.780   3.017   4.490 -1.1528 -0.1702 -1.3559
 1125SOL     OW15010   2.759   4.297   5.520 -0.0706  0.5125 -0.2757
 1125SOL    HW115011   2.694   4.234   5.489 -2.0245  2.4689 -0.1925
 1125SOL    HW215012   2.813   4.303   5.441 -0.3035  1.0411 -0.3983
 1126SOL     OW15013   2.795   4.645   3.555  0.5288 -0.3935  0.4947
 1126SOL    HW115014   2.711   4.679   3.524  0.1439 -1.7197  0.0712
 1126SOL    HW215015   2.794   4.565   3.501  1.3972  0.2776 -0.5005
 1127SOL     OW15016   3.781   3.053   5.419  0.5843 -0.6017  0.2073
 1127SOL    HW115017   3.797   2.984   5.484  3.5118 -1.3828 -1.3826
 1127SOL    HW215018   3.798   3.014   5.334  1.3977 -1.0812  0.5943
 1128SOL     OW15019   1.338   0.100   9.106  0.1201 -0.5001 -0.0663
 1128SOL    HW115020   1.250   0.065   9.095 -0.0322  0.0708 -0.6830
 1128SOL    HW215021   1.320   0.193   9.119 -1.4531 -0.7066 -0.8164
 1129SOL     OW15022   1.531   1.628   4.773  0.5090 -0.8876  0.3056
 1129SOL    HW115023   1.610   1.577   4.753  0.2432 -1.3902  0.5337
 1129SOL    HW215024   1.549   1.711   4.729  1.7994  0.2838  3.0834
 1130SOL     OW15025   1.917   3.087   1.340 -0.3757  0.4860 -0.2513
 1130SOL    HW115026   1.908   2.996   1.369 -2.3373  0.4449 -0.9890
 1130SOL    HW215027   1.990   3.068   1.281  0.0144  1.6146 -0.1447
 1131SOL     OW15028   2.459   1.991   6.160  0.4560  0.6152 -0.0297
 1131SOL    HW115029   2.441   1.904   6.196 -0.0324  0.8741  0.3436
 1131SOL    HW215030   2.366   2.009   6.146  0.9794  0.9021 -3.1869
 1132SOL     OW15031   3.452   3.106  16.670 -0.0584 -0.3247 -0.3591
 1132SOL    HW115032   3.444   3.070  16.758  0.7317  0.0892 -0.1226
 1132SOL    HW215033   3.360   3.102  16.644 -0.3143 -0.5567  0.5885
 1133SOL     OW15034   2.910   0.765   0.582 -0.6483  0.3423 -0.9088
 1133SOL    HW115035   2.889   0.835   0.645  1.6277  0.5233 -0.3240
 1133SOL    HW215036   2.901   0.814   0.501  0.7006 -1.4788 -2.1586
 1134SOL     OW15037   3.026   1.463   4.707  0.3845 -0.6245  0.3895
 1134SOL    HW115038   3.089   1.525   4.669 -1.5833  0.3920 -1.2235
 1134SOL    HW215039   3.055   1.451   4.798 -1.9359  1.9138  1.4556
 1135SOL     OW15040   0.753   3.303   4.786 -0.0733 -0.4003  0.1281
 1135SOL    HW115041   0.688   3.307   4.856  0.3460  3.2322  0.3146
 1135SOL    HW215042   0.810   3.379   4.800 -0.7372  0.0953  0.1856
 1136SOL     OW15043   4.354   2.105   2.539  0.6395  0.1223  0.2995
 1136SOL    HW115044   4.320   2.067   2.619  0.9360  0.3330  0.5279
 1136SOL    HW215045   4.384   2.026   2.493  1.1775  0.5597 -0.1083
 1137SOL     OW15046   4.287   3.656   7.179 -0.1155 -0.4293  0.1332
 1137SOL    HW115047   4.249   3.590   7.237 -2.5891 -0.4885 -1.5626
 1137SOL    HW215048   4.214   3.718   7.172  1.0393  1.2483  3.1689
 1138SOL     OW15049   2.473   4.034   7.406  0.0539  0.2659  0.0506
 1138SOL    HW115050   2.508   3.985   7.332  1.4069 -1.1997  1.6933
 1138SOL    HW215051   2.413   4.095   7.361 -2.3151 -2.5207 -0.5674
 1139SOL     OW15052   4.592   1.400   4.589  0.0966  0.4286  0.1308
 1139SOL    HW115053   4.600   1.492   4.613 -0.9625  0.3095  0.9252
 1139SOL    HW215054   4.568   1.355   4.670  0.4746 -0.4706 -0.2573
 1140SOL     OW15055   0.145   4.320   3.779  0.3521  0.0495  0.5454
 1140SOL    HW115056   0.097   4.402   3.769  0.9587  0.0771 -2.1386
 1140SOL    HW215057   0.133   4.301   3.872  0.2615 -1.4070  0.2327
 1141SOL     OW15058   1.183   1.872  11.890 -0.8550  0.1320  0.0225
 1141SOL    HW115059   1.212   1.957  11.855 -1.4180  1.0653  1.8410
 1141SOL    HW215060   1.111   1.907  11.942  0.0996  0.0523  1.3934
 1142SOL     OW15061   3.252   3.283   2.516  0.0314  0.4923 -0.0528
 1142SOL    HW115062   3.257   3.262   2.609  1.1104 -0.1371 -0.2432
 1142SOL    HW215063   3.238   3.194   2.482 -0.9836  1.1102 -1.2524
 1143SOL     OW15064   3.962   0.465  12.629  0.0960 -0.4088  0.4407
 1143SOL    HW115065   4.035   0.419  12.587 -1.4962 -1.0683 -1.6428
 1143SOL    HW215066   3.918   0.386  12.660 -0.3290 -0.3969 -0.1259
 1144SOL     OW15067   3.675   3.177   1.873 -0.1478  0.1672 -0.2229
 1144SOL    HW115068   3.692   3.230   1.951 -2.9956  1.6557 -0.6352
 1144SOL    HW215069   3.751   3.194   1.816  1.1004  1.7162  1.9093
 1145SOL     OW15070   2.346   1.956   2.550  0.1226  0.1665 -0.2252
 1145SOL    HW115071   2.359   1.902   2.628 -3.1313 -1.1580 -0.6076
 1145SOL    HW215072   2.257   1.923   2.534 -1.1241  1.1471  4.6493
 1146SOL     OW15073   2.875   4.523  15.296  0.4525  0.1179 -0.0381
 1146SOL    HW115074   2.864   4.554  15.386 -0.9069 -2.5317  0.7264
 1146SOL    HW215075   2.958   4.559  15.265 -0.4596 -0.0785 -2.6898
 1147SOL     OW15076   1.198   2.619   9.719 -0.3716 -0.1471 -0.2791
 1147SOL    HW115077   1.290   2.639   9.706 -0.4763  0.3340 -0.2784
 1147SOL    HW215078   1.179   2.681   9.789  2.3812  0.9426 -0.5209
 1148SOL     OW15079   4.499   1.481  14.130 -0.1901  0.1229  0.3268
 1148SOL    HW115080   4.515   1.420  14.057 -1.1979  0.4080 -0.1263
 1148SOL    HW215081   4.509   1.426  14.208 -3.4403  0.2587  0.8217
 1149SOL     OW15082   1.199   1.832   3.821  0.4043  0.1274 -0.2590
 1149SOL    HW115083   1.121   1.857   3.772 -1.0922  1.4114  2.7700
 1149SOL    HW215084   1.250   1.789   3.752 -0.8017  0.9971 -1.7021
 1150SOL     OW15085   3.036   1.095   4.342 -0.1852  0.8185  0.5064
 1150SOL    HW115086   3.013   1.165   4.402  0.6896  2.2044 -0.7602
 1150SOL    HW215087   3.129   1.112   4.333 -0.5971  3.0303  0.4817
 1151SOL     OW15088   1.947   4.305   6.318  0.2699 -0.1681 -0.1539
 1151SOL    HW115089   1.973   4.384   6.271 -0.7945 -0.6925 -1.6513
 1151SOL    HW215090   1.863   4.292   6.272 -0.0377 -1.2598  0.7400
 1152SOL     OW15091   0.499   2.185   1.725  0.4966 -0.2187 -0.4943
 1152SOL    HW115092   0.490   2.168   1.819  2.5329  2.1097  0.1228
 1152SOL    HW215093   0.409   2.164   1.701 -0.0289 -0.8609  1.9944
 1153SOL     OW15094   3.888   1.361   3.077 -0.5613  0.0064  0.0659
 1153SOL    HW115095   3.819   1.396   3.135  1.9994  3.0073  1.3050
 1153SOL    HW215096   3.929   1.311   3.147 -0.0312 -1.0151 -0.9881
 1154SOL     OW15097   3.924   3.291   4.952 -0.1278 -0.0555  0.0165
 1154SOL    HW115098   3.945   3.220   5.013  0.4572 -1.0766 -1.3826
 1154SOL    HW215099   3.883   3.349   5.016  1.8714  1.8636 -0.4294
 1155SOL     OW15100   3.777   2.826   5.593 -0.1979 -0.6735 -0.0954
 1155SOL    HW115101   3.763   2.772   5.671  0.1103  0.0928  0.5009
 1155SOL    HW215102   3.716   2.786   5.531 -2.5083 -0.4028  1.9988
 1156SOL     OW15103   1.138   1.416   6.391  0.2658 -0.0584 -0.0681
 1156SOL    HW115104   1.043   1.404   6.389  0.2200  0.0774  0.9909
 1156SOL    HW215105   1.157   1.409   6.297 -0.7092  1.4443 -0.3720
 1157SOL     OW15106   1.745   2.900  12.896 -0.0878  0.1199 -0.1481
 1157SOL    HW115107   1.698   2.852  12.963  1.5739 -0.8750  0.3159
 1157SOL    HW215108   1.794   2.971  12.937  0.1873 -0.1681  0.0244
 1158SOL     OW15109   3.659   3.846   6.480  0.2867 -0.0466  0.2449
 1158SOL    HW115110   3.685   3.761   6.516 -0.1698  0.5749  2.0381
 1158SOL    HW215111   3.740   3.893   6.502  0.8871 -0.2953 -1.4874
 1159SOL     OW15112   4.361   1.275  16.754 -0.6726 -0.7592 -0.4021
 1159SOL    HW115113   4.274   1.316  16.750 -0.1970  0.3807  0.9471
 1159SOL    HW215114   4.338   1.182  16.758 -0.0891 -0.8488  0.9531
 1160SOL     OW15115   0.820   4.270   2.644  0.4444 -0.1626 -0.2326
 1160SOL    HW115116   0.840   4.180   2.618  2.2127  0.1323  0.1020
 1160SOL    HW215117   0.908   4.306   2.653  0.4562 -0.1226 -0.4954
 1161SOL     OW15118   2.117   3.395   7.404 -0.8505  0.4225  0.2263
 1161SOL    HW115119   2.186   3.377   7.468 -2.2924  0.5422  1.8045
 1161SOL    HW215120   2.096   3.487   7.415 -1.0227  0.5655 -1.2757
 1162SOL     OW15121   0.263   2.078   1.654  0.4951 -0.2539 -0.2974
 1162SOL    HW115122   0.250   2.007   1.718  0.8366 -0.6745 -0.6996
 1162SOL    HW215123   0.271   2.024   1.576  0.6809 -1.9508  0.8786
 1163SOL     OW15124   2.924   4.686  15.529  0.1648  0.1124  0.0683
 1163SOL    HW115125   2.929   0.040  15.505  5.4121  0.0951  1.1548
 1163SOL    HW215126   2.906   4.696  15.623  0.1115 -1.7510  0.2633
 1164SOL     OW15127   0.731   4.312  10.118  0.2902 -0.2041 -0.0264
 1164SOL    HW115128   0.673   4.350  10.052  0.5306  0.1159 -0.0569
 1164SOL    HW215129   0.697   4.357  10.195  1.5768  0.9808 -0.1545
 1165SOL     OW15130   1.493   0.598   6.326 -0.2583 -0.1131 -0.3603
 1165SOL    HW115131   1.530   0.589   6.414 -0.8535  0.4195 -0.0607
 1165SOL    HW215132   1.439   0.677   6.331  1.0417  0.9245 -2.5982
 1166SOL     OW15133   3.198   0.538   4.249  0.5795  0.3412 -0.2411
 1166SOL    HW115134   3.163   0.480   4.317  1.3844 -0.2212 -0.3030
 1166SOL    HW215135   3.221   0.618   4.296 -0.0754  0.9718 -0.9915
 1167SOL     OW15136   4.049   0.387  10.830  0.3542  0.2697  0.5922
 1167SOL    HW115137   3.974   0.329  10.820 -0.0005  1.1450 -1.8855
 1167SOL    HW215138   4.012   0.474  10.818  0.0019  0.4263  2.8682
 1168SOL     OW15139   0.086   0.424   4.153 -0.6219 -0.3200  0.2657
 1168SOL    HW115140   0.164   0.450   4.202  0.4029  0.0043 -1.5552
 1168SOL    HW215141   0.044   0.373   4.222 -1.2153  1.6792  1.3836
 1169SOL     OW15142   4.158   4.480   5.509  0.2699  0.4656 -0.6036
 1169SOL    HW115143   4.154   4.519   5.596  0.2267  2.9261 -1.7173
 1169SOL    HW215144   4.075   4.507   5.470  0.1468  1.4927  0.3380
 1170SOL     OW15145   2.284   2.284   5.395  0.1311 -0.1787  0.1280
 1170SOL    HW115146   2.234   2.219   5.345  1.0805 -1.9741  1.5028
 1170SOL    HW215147   2.365   2.277   5.345  0.3113  1.0212  0.2570
 1171SOL     OW15148   2.145   4.299   0.945 -0.2841  0.1133 -0.3137
 1171SOL    HW115149   2.050   4.287   0.936 -0.6842  2.5883  0.7000
 1171SOL    HW215150   2.180   4.275   0.859 -1.1151 -0.2588 -0.5524
 1172SOL     OW15151   1.308   1.411  11.650 -0.1528 -0.2846 -0.1761
 1172SOL    HW115152   1.332   1.445  11.737  2.2805 -0.0900 -0.9170
 1172SOL    HW215153   1.213   1.412  11.660 -0.3129 -2.0907 -1.5779
 1173SOL     OW15154   0.565   3.382   6.208  0.0023  0.6708  0.2793
 1173SOL    HW115155   0.574   3.301   6.260  2.7619  0.4533 -0.5438
 1173SOL    HW215156   0.471   3.401   6.215 -0.1510 -0.2646  0.8234
 1174SOL     OW15157   0.756   0.161   3.521  0.2271 -0.2511  0.3141
 1174SOL    HW115158   0.712   0.191   3.600  0.2461  0.3980  0.0735
 1174SOL    HW215159   0.690   0.181   3.454  0.6725  0.9851  0.2512
 1175SOL     OW15160   3.809   2.813   2.345  0.5929 -0.6754 -0.1160
 1175SOL    HW115161   3.861   2.756   2.402 -1.8363 -0.7980  1.9776
 1175SOL    HW215162   3.841   2.792   2.258  0.2042  1.1189 -0.6925
 1176SOL     OW15163   2.633   4.105   7.784  0.3260  0.2697 -0.0241
 1176SOL    HW115164   2.649   4.157   7.863 -0.8493 -0.7466  0.8774
 1176SOL    HW215165   2.669   4.021   7.813  0.3365  0.4675  0.5419
 1177SOL     OW15166   2.650   0.625   8.584  0.3032 -0.2001 -0.8803
 1177SOL    HW115167   2.686   0.536   8.587  2.5368  0.7341 -0.2730
 1177SOL    HW215168   2.630   0.622   8.491 -0.8092  0.2203 -0.6537
 1178SOL     OW15169   1.790   1.860   4.454 -0.6051 -0.7415 -0.5853
 1178SOL    HW115170   1.785   1.772   4.417  0.6101 -0.3664 -1.6305
 1178SOL    HW215171   1.843   1.905   4.388 -2.9499  0.6175 -1.5446
 1179SOL     OW15172   4.225   0.586  14.934  0.1588  0.5895  0.3318
 1179SOL    HW115173   4.288   0.516  14.922  2.3721  2.6380 -0.0635
 1179SOL    HW215174   4.146   0.550  14.893 -0.4403  2.2573 -0.0057
 1180SOL     OW15175   0.654   2.595   9.554 -0.1904  0.0750 -0.1361
 1180SOL    HW115176   0.719   2.598   9.623  1.9824  0.4826 -2.1942
 1180SOL    HW215177   0.693   2.640   9.479  1.3411  0.5566  0.9594
 1181SOL     OW15178   1.171   0.198  15.890  0.4290 -0.0192  0.0611
 1181SOL    HW115179   1.251   0.250  15.887  2.0049 -2.4387  0.8393
 1181SOL    HW215180   1.185   0.140  15.965  1.0882  0.2309  0.1294
 1182SOL     OW15181   2.284   3.511   3.523  0.0581  0.0250  0.1437
 1182SOL    HW115182   2.287   3.429   3.572  0.0567 -0.9425 -1.4547
 1182SOL    HW215183   2.191   3.531   3.527  0.4785  1.2385  3.1916
 1183SOL     OW15184   2.781   3.416   4.422 -0.4557  0.3196 -0.2186
 1183SOL    HW115185   2.813   3.366   4.498  0.2132  0.3681 -0.4723
 1183SOL    HW215186   2.785   3.511   4.433  1.5949  0.1424  0.5569
 1184SOL     OW15187   3.135   2.617  13.201  0.3516 -0.2904  0.0455
 1184SOL    HW115188   3.112   2.620  13.108  2.6907  2.5977 -0.4456
 1184SOL    HW215189   3.229   2.633  13.194  0.4664 -0.7736  0.5443
 1185SOL     OW15190   2.435   2.080   2.993  0.2568 -0.2692  0.1697
 1185SOL    HW115191   2.485   2.110   2.917  0.8855 -1.9834 -0.0919
 1185SOL    HW215192   2.441   1.985   3.000  0.0079 -0.1820  1.5115
 1186SOL     OW15193   2.430   2.355   5.080  0.0351  0.9125  0.1304
 1186SOL    HW115194   2.362   2.420   5.097  1.7302  2.1629  2.0428
 1186SOL    HW215195   2.377   2.291   5.033  2.5695 -1.0866 -0.0157
 1187SOL     OW15196   3.283   4.641   7.884  0.4276 -0.1852 -0.1704
 1187SOL    HW115197   3.244   4.690   7.956  2.8810 -1.1073  1.7958
 1187SOL    HW215198   3.335   4.579   7.935 -1.3310 -2.2065 -0.8682
 1188SOL     OW15199   1.301   4.715   9.396 -0.2190 -0.6426 -0.4061
 1188SOL    HW115200   1.211   4.734   9.425  0.2682  0.5940  0.2951
 1188SOL    HW215201   1.317   0.045   9.331  0.2896 -2.3964 -2.1329
 1189SOL     OW15202   1.677   1.459   1.788 -0.0134  0.9298  0.6833
 1189SOL    HW115203   1.623   1.443   1.865 -0.4664 -1.2354 -0.0747
 1189SOL    HW215204   1.724   1.541   1.806  2.0089 -0.3271  1.1372
 1190SOL     OW15205   3.882   1.168   7.802 -0.6817 -0.1432 -0.4295
 1190SOL    HW115206   3.879   1.243   7.742 -0.3346  1.2060  1.2274
 1190SOL    HW215207   3.924   1.102   7.748 -1.1030  0.2697 -1.2645
 1191SOL     OW15208   4.406   3.205   7.368 -0.0918 -0.5354  0.3229
 1191SOL    HW115209   4.376   3.148   7.439 -1.1074 -1.5378 -0.9202
 1191SOL    HW215210   4.496   3.210   7.401 -1.0935  1.4344  2.8241
 1192SOL     OW15211   3.470   0.057  10.904 -0.4726 -0.0918 -0.3007
 1192SOL    HW115212   3.549   0.108  10.893 -1.1907  0.9658 -0.5093
 1192SOL    HW215213   3.417   0.132  10.932 -1.3502 -0.6065 -0.5646
 1193SOL     OW15214   3.944   1.510   3.864  0.0822  0.2319 -0.1486
 1193SOL    HW115215   4.037   1.502   3.842  0.4463  1.9178  0.7610
 1193SOL    HW215216   3.940   1.566   3.941 -0.8935 -0.2138  0.1185
 1194SOL     OW15217   0.535   3.700  12.091 -0.2574  0.3967  0.3656
 1194SOL    HW115218   0.452   3.653  12.093  0.4482 -0.9673 -1.8764
 1194SOL    HW215219   0.518   3.782  12.136 -0.9171  0.5370 -0.1454
 1195SOL     OW15220   4.538   1.598   3.742  0.1039 -0.2234  0.1504
 1195SOL    HW115221   4.479   1.594   3.666 -0.8931  0.4595  0.8750
 1195SOL    HW215222   4.550   1.693   3.753  2.3063 -0.2989 -1.5382
 1196SOL     OW15223   2.036   0.414  12.841 -0.0246  0.5867 -0.4412
 1196SOL    HW115224   2.128   0.441  12.830 -0.0126  0.7055 -0.0421
 1196SOL    HW215225   2.045   0.351  12.912 -2.6290 -1.2693 -1.7628
 1197SOL     OW15226   2.339   1.718   4.287 -0.2973 -0.0638  0.0317
 1197SOL    HW115227   2.432   1.735   4.300 -0.3759 -1.5325  2.5216
 1197SOL    HW215228   2.301   1.804   4.304  1.3545  0.3572  1.5289
 1198SOL     OW15229   2.203   3.292   4.165 -0.3791  0.0522  0.7789
 1198SOL    HW115230   2.150   3.346   4.223  0.5148  0.7227  0.9544
 1198SOL    HW215231   2.256   3.357   4.119 -1.6998  1.1033  0.7443
 1199SOL     OW15232   4.719   0.253   2.179 -0.2630 -0.1341  0.1126
 1199SOL    HW115233   0.005   0.167   2.213  0.6697  0.5342  1.1540
 1199SOL    HW215234   4.666   0.291   2.250  1.4812  0.2906  1.1862
 1200SOL     OW15235   0.390   1.076   8.053  0.4083  0.7737  0.2681
 1200SOL    HW115236   0.442   1.012   8.102 -1.6013 -1.2513 -0.2115
 1200SOL    HW215237   0.370   1.018   7.979  0.4973 -1.3390  1.8904
 1201SOL     OW15238   3.174   4.234   5.462  0.8633  0.4376  0.1108
 1201SOL    HW115239   3.163   4.223   5.556 -2.7988  0.7997 -0.2750
 1201SOL    HW215240   3.110   4.304   5.448  0.5360  0.4609  1.7889
 1202SOL     OW15241   1.791   3.722   9.038  0.4849  0.9415  0.1355
 1202SOL    HW115242   1.727   3.781   9.077  0.5842 -0.3214  2.2000
 1202SOL    HW215243   1.857   3.725   9.108 -0.5187  1.2107  1.0699
 1203SOL     OW15244   2.061   4.001   6.532  0.0617  0.4208  0.2577
 1203SOL    HW115245   1.978   3.957   6.514 -0.2351  1.3528 -0.6402
 1203SOL    HW215246   2.126   3.942   6.494  0.8609  0.3383  1.7466
 1204SOL     OW15247   1.044   3.625   3.042  0.1044  0.0653 -0.0910
 1204SOL    HW115248   1.004   3.621   3.129 -1.5025 -0.4584 -0.8690
 1204SOL    HW215249   1.128   3.580   3.047  0.2629  0.5628  1.9529
 1205SOL     OW15250   4.592   2.457   5.165  0.3925  0.6019 -0.3779
 1205SOL    HW115251   4.513   2.417   5.126  0.1791  0.6617 -0.0098
 1205SOL    HW215252   4.568   2.443   5.257 -2.8324 -0.9699 -1.4114
 1206SOL     OW15253   3.046   0.239  11.381 -0.1880  0.2318 -0.4157
 1206SOL    HW115254   2.956   0.208  11.373 -0.5308  0.7743  1.1770
 1206SOL    HW215255   3.099   0.162  11.400 -1.3786 -0.5279 -0.1795
 1207SOL     OW15256   4.289   1.711  17.291  0.1386  0.1953 -0.3833
 1207SOL    HW115257   4.200   1.722  17.257 -0.5343 -2.2704  0.5661
 1207SOL    HW215258   4.280   1.621  17.322  2.3812  0.1347  0.1169
 1208SOL     OW15259   4.484   2.142   5.035  1.0974  0.0714  0.7239
 1208SOL    HW115260   4.562   2.101   4.998 -0.4397 -2.4931  0.3417
 1208SOL    HW215261   4.444   2.129   4.949  1.0784 -0.9998  0.8964
 1209SOL     OW15262   3.606   4.343   8.990  0.5730 -0.0557 -0.3173
 1209SOL    HW115263   3.693   4.384   8.995  0.7704 -0.6103  0.8006
 1209SOL    HW215264   3.629   4.287   8.915  1.9461 -0.3556  0.3229
 1210SOL     OW15265   3.237   1.717   7.836 -0.2753 -0.0472  0.3764
 1210SOL    HW115266   3.191   1.636   7.858 -1.6578  1.2995  2.4232
 1210SOL    HW215267   3.267   1.694   7.748 -1.8061  0.0950 -0.1762
 1211SOL     OW15268   0.255   3.426   5.560 -0.8207 -0.1254 -0.4299
 1211SOL    HW115269   0.182   3.397   5.504 -0.7478 -2.2268  0.5806
 1211SOL    HW215270   0.261   3.336   5.591 -0.4634  0.5507  1.4931
 1212SOL     OW15271   4.422   4.493  10.446 -0.2789 -0.2335  0.1162
 1212SOL    HW115272   4.510   4.531  10.455 -0.7992  1.1699 -0.7944
 1212SOL    HW215273   4.440   4.424  10.382 -1.8260  4.1801 -5.1271
 1213SOL     OW15274   3.122   0.121   4.918  0.0305  0.3306 -0.4243
 1213SOL    HW115275   3.140   0.166   5.000 -0.8843  0.0809 -0.0943
 1213SOL    HW215276   3.158   0.035   4.940  0.7706  0.4368 -1.1839
 1214SOL     OW15277   1.669   1.473  10.280  0.1796 -0.4059  0.1124
 1214SOL    HW115278   1.681   1.568  10.290 -0.3018 -0.4754  1.2895
 1214SOL    HW215279   1.747   1.431  10.316  0.0485 -0.8124 -0.0765
 1215SOL     OW15280   0.141   4.343   2.564  0.3346 -0.5483  0.7645
 1215SOL    HW115281   0.052   4.313   2.548 -0.1191  1.1629  0.0618
 1215SOL    HW215282   0.189   4.282   2.508  1.7119  1.1210  0.1204
 1216SOL     OW15283   1.758   0.677   5.360 -0.3491  0.0268 -0.1706
 1216SOL    HW115284   1.719   0.589   5.362  0.6101 -0.3690  1.5543
 1216SOL    HW215285   1.699   0.722   5.422 -2.3321 -0.2048 -1.9001
 1217SOL     OW15286   1.576   3.341   3.117  0.2248  0.0220 -0.1692
 1217SOL    HW115287   1.643   3.366   3.053 -1.7609  1.3016 -1.7600
 1217SOL    HW215288   1.627   3.351   3.197  1.4359 -1.3491 -0.7619
 1218SOL     OW15289   3.631   4.568  13.720 -0.2417  0.0706 -0.3185
 1218SOL    HW115290   3.613   4.485  13.766  2.0409 -0.0190  0.4132
 1218SOL    HW215291   3.572   4.627  13.767  0.8541 -0.3708  1.6381
 1219SOL     OW15292   0.985   4.493  11.047 -0.1594 -0.1016  0.2339
 1219SOL    HW115293   1.069   4.504  11.092 -0.4443 -0.6670  0.8935
 1219SOL    HW215294   0.963   4.584  11.027  0.6715  0.3250  1.2302
 1220SOL     OW15295   3.461   2.970  13.318 -0.5649  0.6520  0.2817
 1220SOL    HW115296   3.504   2.908  13.259 -0.2364  1.2976 -0.1616
 1220SOL    HW215297   3.534   3.028  13.338 -1.5397  2.1652 -0.6002
 1221SOL     OW15298   4.151   0.287  11.929  0.2635  0.0454  0.0804
 1221SOL    HW115299   4.176   0.343  11.855 -0.5017  1.6358  1.0233
 1221SOL    HW215300   4.154   0.359  11.993  0.9917  1.0031 -1.0229
 1222SOL     OW15301   1.122   2.621   5.649 -0.2830 -0.0370 -0.3714
 1222SOL    HW115302   1.054   2.687   5.660  0.8486  1.2461 -1.0425
 1222SOL    HW215303   1.185   2.645   5.581  1.4744 -3.2303  0.0749
 1223SOL     OW15304   0.273   1.342   5.714  0.6504 -0.0247 -0.4692
 1223SOL    HW115305   0.340   1.312   5.775  2.1385 -0.0085 -2.0942
 1223SOL    HW215306   0.304   1.432   5.719 -0.1953  0.1573  1.5254
 1224SOL     OW15307   1.368   1.262   4.243  0.8006  0.0368  0.3283
 1224SOL    HW115308   1.419   1.189   4.209 -0.2762  0.9261 -3.1582
 1224SOL    HW215309   1.438   1.315   4.282 -0.2009  1.4110  0.2637
 1225SOL     OW15310   3.590   3.466   5.685 -0.3804 -0.2079  0.4330
 1225SOL    HW115311   3.522   3.441   5.622  0.7575  1.4021 -1.4455
 1225SOL    HW215312   3.629   3.544   5.645 -1.8342  0.5116  0.4302
 1226SOL     OW15313   1.101   1.981   8.002 -0.1439  0.2046 -0.4222
 1226SOL    HW115314   1.051   2.050   7.958  0.4312 -0.1067 -1.5462
 1226SOL    HW215315   1.190   2.007   7.980  0.2241 -0.4334  0.3155
 1227SOL     OW15316   0.264   2.313   6.732 -0.1512  0.2192 -0.1906
 1227SOL    HW115317   0.324   2.349   6.667  0.4909 -2.8069 -1.2305
 1227SOL    HW215318   0.231   2.239   6.682  1.3365 -0.3061 -0.3821
 1228SOL     OW15319   1.293   4.334   2.761  0.2577 -0.7942  0.0664
 1228SOL    HW115320   1.200   4.351   2.748  1.0991 -0.2359 -5.2482
 1228SOL    HW215321   1.342   4.410   2.729  0.7184 -1.1606 -0.0971
 1229SOL     OW15322   2.019   1.048   3.969 -0.1730 -0.6271  0.3238
 1229SOL    HW115323   2.099   1.100   3.976  0.6003 -1.6614 -0.6464
 1229SOL    HW215324   2.055   0.973   4.017 -1.0376 -0.1932  1.6274
 1230SOL     OW15325   2.268   1.273   7.277 -0.2998 -0.4910 -0.6550
 1230SOL    HW115326   2.242   1.341   7.214  0.6666 -0.0899 -0.6309
 1230SOL    HW215327   2.362   1.257   7.264  0.1611  0.7793  0.9917
 1231SOL     OW15328   3.801   1.757  11.175  0.1696 -0.1682 -0.4975
 1231SOL    HW115329   3.732   1.719  11.121  1.4090 -0.8905 -1.5912
 1231SOL    HW215330   3.835   1.831  11.124  1.6222 -0.2341  0.3609
 1232SOL     OW15331   1.419   3.727  11.264 -0.6865  0.5323 -0.5839
 1232SOL    HW115332   1.373   3.774  11.333 -0.7427  1.2462 -1.1036
 1232SOL    HW215333   1.447   3.649  11.311 -1.3400  0.3934 -0.4269
 1233SOL     OW15334   4.432   4.680   9.875  0.0595  1.1178 -0.0243
 1233SOL    HW115335   4.356   4.660   9.929 -0.6290 -1.1883 -1.8204
 1233SOL    HW215336   4.483   4.730   9.938  2.4441  0.4811 -1.4716
 1234SOL     OW15337   1.718   1.881  16.377 -0.2591  0.0992  0.4641
 1234SOL    HW115338   1.813   1.893  16.385 -0.3018  1.0981 -0.5150
 1234SOL    HW215339   1.691   1.964  16.416  2.0130  0.8010  0.5922
 1235SOL     OW15340   2.465   2.756   8.936  0.3407 -0.0570  0.0163
 1235SOL    HW115341   2.379   2.795   8.922  0.8033  0.2360 -2.0010
 1235SOL    HW215342   2.466   2.718   9.024  1.2822 -0.9181 -0.3713
 1236SOL     OW15343   3.540   4.321  13.803 -0.2176  0.1621  0.6249
 1236SOL    HW115344   3.579   4.235  13.814  0.2436  0.4817  1.4262
 1236SOL    HW215345   3.466   4.305  13.861  1.3641 -2.1495  1.9657
 1237SOL     OW15346   3.611   4.307   5.324  0.2947 -0.0072 -0.1688
 1237SOL    HW115347   3.519   4.294   5.303  0.4887  0.2476 -1.1800
 1237SOL    HW215348   3.641   4.229   5.277  1.1408  0.2837 -0.1136
 1238SOL     OW15349   3.523   0.077   0.986  1.0921  0.3321 -0.1492
 1238SOL    HW115350   3.495   0.031   0.906 -1.3942  1.7719 -0.1061
 1238SOL    HW215351   3.451   0.139   0.999  0.3745 -0.2641 -1.2241
 1239SOL     OW15352   0.032   4.429   8.914 -0.4997 -0.3834 -0.7217
 1239SOL    HW115353   0.019   4.375   8.992 -0.0459  1.2979  0.5272
 1239SOL    HW215354   0.125   4.408   8.905 -1.1000 -2.6333 -1.7017
 1240SOL     OW15355   0.902   4.050   0.014  0.1063  0.1019  0.2326
 1240SOL    HW115356   0.939   4.047  17.679  1.0185  3.0265  0.5190
 1240SOL    HW215357   0.854   4.130  17.748 -1.0812 -0.8464 -0.7498
 1241SOL     OW15358   1.807   0.996   4.658  0.2377 -0.7012 -0.3503
 1241SOL    HW115359   1.898   0.989   4.687  0.0107  0.3825  0.6330
 1241SOL    HW215360   1.761   0.935   4.716 -0.3028 -0.0122 -0.0529
 1242SOL     OW15361   1.047   2.650  16.404 -0.0009  0.2849  0.3600
 1242SOL    HW115362   1.018   2.715  16.341  0.0797  0.8013  0.8541
 1242SOL    HW215363   0.980   2.670  16.470  0.3240  3.1445 -0.1787
 1243SOL     OW15364   3.810   2.658   4.710  0.0440 -0.0438  0.1059
 1243SOL    HW115365   3.720   2.680   4.737  0.5631 -0.5462  2.2136
 1243SOL    HW215366   3.836   2.746   4.682 -2.7117  0.7874  0.1535
 1244SOL     OW15367   1.831   3.373   2.668 -0.1995 -0.4179  0.0004
 1244SOL    HW115368   1.781   3.419   2.600 -0.8274 -2.2040 -0.7483
 1244SOL    HW215369   1.902   3.341   2.612 -0.4502  2.1972 -1.8187
 1245SOL     OW15370   1.539   2.862   9.914 -0.3063 -0.5542 -0.6837
 1245SOL    HW115371   1.599   2.919   9.964 -0.1126 -3.0470  1.9439
 1245SOL    HW215372   1.513   2.791   9.973  1.2473  0.8122  1.6711
 1246SOL     OW15373   1.968   1.401   2.493 -0.5651  0.1990 -0.3523
 1246SOL    HW115374   2.015   1.475   2.455 -0.2585  0.5200  0.6545
 1246SOL    HW215375   1.983   1.421   2.585  1.3391  0.7914 -0.7916
 1247SOL     OW15376   2.670   0.368  10.734 -0.1369  0.2617 -0.0468
 1247SOL    HW115377   2.754   0.412  10.729  0.4765 -0.9547 -0.4626
 1247SOL    HW215378   2.635   0.392  10.820 -1.6856  0.0549 -0.6224
 1248SOL     OW15379   2.025   4.269   0.677  0.0268 -0.1298 -0.3072
 1248SOL    HW115380   2.061   4.347   0.719  2.3922 -1.7164  0.5892
 1248SOL    HW215381   1.960   4.247   0.744 -1.3239 -2.1937 -2.3085
 1249SOL     OW15382   3.558   2.673   4.472  0.3980  0.4959 -0.3525
 1249SOL    HW115383   3.567   2.667   4.567 -1.3381  0.4685 -0.1829
 1249SOL    HW215384   3.516   2.759   4.465  0.2008  0.3301 -1.2166
 1250SOL     OW15385   2.354   1.152   8.759 -0.2568  0.1204  0.2747
 1250SOL    HW115386   2.262   1.128   8.748  0.2366 -1.7000  0.1680
 1250SOL    HW215387   2.365   1.187   8.671  3.2575 -1.8993 -0.0712
 1251SOL     OW15388   2.172   0.753   3.273 -0.1446  0.0270  0.0191
 1251SOL    HW115389   2.171   0.840   3.232  0.5263  0.9104  1.8642
 1251SOL    HW215390   2.152   0.783   3.362  3.1319  0.3315  0.6585
 1252SOL     OW15391   1.107   4.544   3.422 -0.0963  0.1694 -0.1608
 1252SOL    HW115392   1.064   4.592   3.351 -0.1285  1.8871  1.0349
 1252SOL    HW215393   1.046   4.470   3.428  1.3500 -0.9869  0.2815
 1253SOL     OW15394   0.537   1.620  11.039  0.1490  0.1276  0.5957
 1253SOL    HW115395   0.561   1.709  11.065  0.8544 -0.5394  2.2390
 1253SOL    HW215396   0.501   1.589  11.122  0.0212  1.1880  0.9416
 1254SOL     OW15397   2.566   2.647   3.928 -0.5036 -0.1869 -0.3790
 1254SOL    HW115398   2.583   2.739   3.908 -1.0762 -0.0842 -0.3936
 1254SOL    HW215399   2.481   2.672   3.966  0.7776  0.3667  2.1098
 1255SOL     OW15400   2.234   2.338   4.634 -0.2190  0.0351 -0.2301
 1255SOL    HW115401   2.232   2.431   4.656  0.3434 -0.5262  2.1083
 1255SOL    HW215402   2.163   2.328   4.571  0.7869  1.3768 -1.5919
 1256SOL     OW15403   1.650   2.536   1.001  0.0282  0.3545  0.1814
 1256SOL    HW115404   1.593   2.553   1.076  0.3188 -1.2149  0.7598
 1256SOL    HW215405   1.629   2.620   0.960  0.4641  0.2204 -0.3141
 1257SOL     OW15406   2.050   0.731   3.913 -0.1596  0.4435  0.0712
 1257SOL    HW115407   2.069   0.663   3.848  0.8173  1.2438 -0.4841
 1257SOL    HW215408   2.115   0.799   3.898  0.0624  0.0861 -0.5734
 1258SOL     OW15409   3.135   3.726   3.403  0.4092 -0.1403  0.1516
 1258SOL    HW115410   3.191   3.669   3.350  0.4664  1.0274 -1.0453
 1258SOL    HW215411   3.177   3.708   3.487  1.2338 -2.3979 -0.7352
 1259SOL     OW15412   1.222   3.339  10.066 -0.0010  0.3600  0.5465
 1259SOL    HW115413   1.285   3.390  10.015 -0.6273  0.8343  0.2493
 1259SOL    HW215414   1.252   3.366  10.153  0.4785  0.6326  0.2974
 1260SOL     OW15415   2.472   3.896   4.326  0.2753  0.3598  0.0402
 1260SOL    HW115416   2.503   3.986   4.338 -2.0295  1.2199 -0.4709
 1260SOL    HW215417   2.438   3.884   4.415  1.1541  3.5123  0.8118
 1261SOL     OW15418   1.600   0.994   3.636 -0.0301  0.0896 -0.1553
 1261SOL    HW115419   1.632   1.018   3.723  0.8547 -0.5041 -0.3276
 1261SOL    HW215420   1.550   0.914   3.655 -1.0464  0.9732  0.9858
 1262SOL     OW15421   2.907   1.306   6.510 -0.6311 -0.2056 -0.0437
 1262SOL    HW115422   2.912   1.211   6.513 -0.2501 -0.2612 -1.8534
 1262SOL    HW215423   2.899   1.338   6.420  0.6561 -0.7548 -0.3576
 1263SOL     OW15424   3.499   0.272   9.685  0.4370 -0.1617 -0.0222
 1263SOL    HW115425   3.517   0.291   9.593 -0.2041  0.8537  0.0654
 1263SOL    HW215426   3.470   0.359   9.712  2.0545  0.8428 -1.4812
 1264SOL     OW15427   3.508   3.187   5.996 -0.5830  0.2932 -0.2804
 1264SOL    HW115428   3.455   3.176   6.074  1.3836 -0.2288  0.9879
 1264SOL    HW215429   3.568   3.247   6.042  0.2483  1.4235 -2.8319
 1265SOL     OW15430   2.113   1.151   2.356  0.5003 -0.3292  1.0495
 1265SOL    HW115431   2.084   1.217   2.419 -0.0527 -0.1972  0.6578
 1265SOL    HW215432   2.194   1.200   2.340  0.0939 -0.1744 -0.5413
 1266SOL     OW15433   4.302   3.535   2.994  0.0702 -0.4655 -0.1342
 1266SOL    HW115434   4.345   3.470   3.049  1.1414  0.1466 -0.2592
 1266SOL    HW215435   4.370   3.601   3.001 -1.4462  1.4073 -2.9670
 1267SOL     OW15436   2.740   1.831   8.060  0.1543 -0.2533 -0.1231
 1267SOL    HW115437   2.680   1.825   7.986 -0.7414 -1.6570  0.7020
 1267SOL    HW215438   2.797   1.758   8.034  2.0145  2.0895 -2.5303
 1268SOL     OW15439   3.732   2.150   4.594  0.1568 -0.2846 -0.0564
 1268SOL    HW115440   3.824   2.175   4.585  0.9123 -2.7634  0.7893
 1268SOL    HW215441   3.744   2.077   4.655  0.1211  0.2371  0.5793
 1269SOL     OW15442   1.474   4.306   8.744 -0.2092  0.1261 -0.6949
 1269SOL    HW115443   1.567   4.329   8.743  0.1793 -1.4418 -0.5916
 1269SOL    HW215444   1.436   4.393   8.731  1.5313  0.8987 -0.5559
 1270SOL     OW15445   0.983   3.119   7.098  0.3735 -0.1079  0.3090
 1270SOL    HW115446   0.907   3.167   7.129  1.6982  1.7218  0.7140
 1270SOL    HW215447   1.035   3.191   7.062  0.6168  0.2986  1.4669
 1271SOL     OW15448   1.350   3.114   8.871  0.4792 -0.1465  0.4088
 1271SOL    HW115449   1.387   3.195   8.838 -0.1780 -1.0211 -2.4097
 1271SOL    HW215450   1.256   3.129   8.860  0.4683  0.6857  1.5996
 1272SOL     OW15451   4.448   2.501   8.501 -0.3191  0.5033  0.6503
 1272SOL    HW115452   4.442   2.576   8.561 -0.0403  1.6370 -0.7471
 1272SOL    HW215453   4.485   2.435   8.560  0.9806  2.0114  1.5305
 1273SOL     OW15454   0.220   1.082   6.879  0.5074  0.4596 -0.1918
 1273SOL    HW115455   0.175   1.005   6.844 -0.6077 -0.0558  2.3556
 1273SOL    HW215456   0.308   1.061   6.849  0.9289  2.0007 -0.0745
 1274SOL     OW15457   1.037   2.755   7.852  0.3712  0.4390  0.4985
 1274SOL    HW115458   1.071   2.788   7.769 -1.1252 -2.2491 -1.1790
 1274SOL    HW215459   0.975   2.821   7.882 -1.7702 -1.4765  0.3385
 1275SOL     OW15460   1.639   0.049   9.108  0.7681  0.4011  0.0211
 1275SOL    HW115461   1.547   0.023   9.117  0.9936  0.0641  1.3646
 1275SOL    HW215462   1.659   0.106   9.182  2.5023  0.7547 -0.7149
 1276SOL     OW15463   3.787   0.406  12.377 -0.0776  0.2029 -0.1056
 1276SOL    HW115464   3.696   0.434  12.377  0.3731  1.7474  1.7969
 1276SOL    HW215465   3.805   0.431  12.468 -0.3939  0.2741 -0.0645
 1277SOL     OW15466   0.559   0.060   5.920  0.2194  0.5448  0.6899
 1277SOL    HW115467   0.544   0.038   5.828  0.2999  2.2788  0.2596
 1277SOL    HW215468   0.560   4.710   5.955  2.5723  1.0127  1.7944
 1278SOL     OW15469   1.585   0.070  17.206  0.3474  0.2758  0.3580
 1278SOL    HW115470   1.569   0.164  17.214 -0.0306  0.2668 -0.2697
 1278SOL    HW215471   1.680   0.065  17.208  0.5957  3.8560 -2.1940
 1279SOL     OW15472   2.873   2.078  11.084 -0.0226 -0.0086 -0.5840
 1279SOL    HW115473   2.843   2.011  11.145  2.5723 -1.6924 -1.1530
 1279SOL    HW215474   2.965   2.069  11.108 -0.4696  0.2644  1.2453
 1280SOL     OW15475   3.367   1.873   0.381  0.3898 -0.2859 -0.2459
 1280SOL    HW115476   3.290   1.886   0.326 -0.9505  1.2771  2.0367
 1280SOL    HW215477   3.348   1.915   0.464  0.9391  0.3134 -0.4219
 1281SOL     OW15478   3.627   0.681  14.074  0.3220  0.4423 -0.5825
 1281SOL    HW115479   3.660   0.656  14.160  0.7692 -0.6304 -1.0718
 1281SOL    HW215480   3.613   0.775  14.065  1.8326  0.6959 -0.2479
 1282SOL     OW15481   0.127   1.008   4.595  0.0890  0.1065 -0.1172
 1282SOL    HW115482   0.191   1.074   4.568 -0.4792  1.1992  1.1783
 1282SOL    HW215483   0.088   0.982   4.512 -2.1112  0.0778  0.9010
 1283SOL     OW15484   4.216   1.794   0.219 -0.3398 -0.0689 -0.1023
 1283SOL    HW115485   4.228   1.760   0.130 -0.6624 -1.5731  0.4213
 1283SOL    HW215486   4.167   1.730   0.272 -2.3358 -0.3857 -2.3359
 1284SOL     OW15487   1.587   0.393   4.261 -0.1509  0.1160  0.4787
 1284SOL    HW115488   1.653   0.448   4.304  0.8415 -1.2103  0.6635
 1284SOL    HW215489   1.572   0.460   4.195 -0.5411 -1.1325 -0.7078
 1285SOL     OW15490   4.260   1.285   8.791  0.0369 -0.1357  0.1922
 1285SOL    HW115491   4.170   1.311   8.772  0.1988  2.5315  3.0224
 1285SOL    HW215492   4.286   1.367   8.834 -1.0967  0.4783 -0.3027
 1286SOL     OW15493   1.885   4.621   6.470 -0.0975 -0.2131 -0.1990
 1286SOL    HW115494   1.817   4.630   6.403 -1.3995  0.2610  1.1807
 1286SOL    HW215495   1.880   4.708   6.509 -0.8610  0.2790 -1.3834
 1287SOL     OW15496   1.835   1.689   2.137 -0.2017  0.2907  0.0069
 1287SOL    HW115497   1.883   1.731   2.209 -1.8568 -0.6868  1.6974
 1287SOL    HW215498   1.748   1.728   2.140 -0.2747  0.1370 -0.0817
 1288SOL     OW15499   3.565   3.528   5.992  0.0512 -0.1850  0.0334
 1288SOL    HW115500   3.523   3.546   5.908 -0.2337 -0.5380  0.0976
 1288SOL    HW215501   3.640   3.474   5.968  1.1752  2.1245 -1.6618
 1289SOL     OW15502   2.186   3.385   9.197  0.3714  0.4073 -0.2863
 1289SOL    HW115503   2.222   3.412   9.112  2.0288 -3.9431 -1.0087
 1289SOL    HW215504   2.093   3.384   9.176  0.4463 -0.2555 -0.5818
 1290SOL     OW15505   4.020   0.068  12.490  0.0601  0.0242  0.1016
 1290SOL    HW115506   3.989   0.020  12.567  0.6000 -1.1044 -0.3768
 1290SOL    HW215507   4.075   0.138  12.525 -1.1887  1.0589 -0.0290
 1291SOL     OW15508   1.567   2.658  11.971 -0.1090 -0.2179  0.0489
 1291SOL    HW115509   1.642   2.600  11.955 -0.8863 -0.6429 -2.0283
 1291SOL    HW215510   1.610   2.731  12.015  0.9646 -0.6760 -0.2171
 1292SOL     OW15511   0.025   0.999  15.383 -0.0482  0.4708  0.5823
 1292SOL    HW115512   0.038   1.010  15.477 -1.2577 -1.5352  0.9989
 1292SOL    HW215513   0.005   1.089  15.355 -0.2782 -0.2523 -1.5347
 1293SOL     OW15514   1.842   3.917  15.091 -0.7174  0.9666  0.1667
 1293SOL    HW115515   1.831   3.992  15.033 -2.7814 -1.0766 -2.0938
 1293SOL    HW215516   1.879   3.862  15.022 -1.9702 -1.1879  1.1977
 1294SOL     OW15517   0.852   1.859   7.264 -0.5624  0.0178 -0.1079
 1294SOL    HW115518   0.761   1.888   7.271 -0.8146 -0.7089 -0.3721
 1294SOL    HW215519   0.865   1.821   7.351 -0.1617  0.8865  0.2047
 1295SOL     OW15520   3.259   1.744   1.104 -0.3572 -0.3599  0.0804
 1295SOL    HW115521   3.331   1.788   1.149  0.4287 -0.5855 -0.9640
 1295SOL    HW215522   3.195   1.742   1.176 -1.7593  1.4190 -1.1256
 1296SOL     OW15523   3.093   1.834  14.506  0.2231  0.3738 -0.3243
 1296SOL    HW115524   3.034   1.897  14.464  0.8218  1.1401 -0.0155
 1296SOL    HW215525   3.174   1.879  14.482  0.5079  0.1172  0.1695
 1297SOL     OW15526   0.718   4.422   5.795  0.0006  0.3408 -0.2576
 1297SOL    HW115527   0.670   4.345   5.762  0.8350 -0.4643  0.4160
 1297SOL    HW215528   0.798   4.374   5.817 -1.0667 -0.5058  1.7978
 1298SOL     OW15529   3.324   3.724   5.577  0.0041  0.5911 -0.4781
 1298SOL    HW115530   3.352   3.633   5.581 -0.5967  0.4445  0.4890
 1298SOL    HW215531   3.358   3.768   5.656  1.1774 -0.0385 -0.6399
 1299SOL     OW15532   2.464   1.030   7.284 -0.7571 -0.2339 -0.2869
 1299SOL    HW115533   2.536   0.967   7.278  0.4662  1.1404  0.0266
 1299SOL    HW215534   2.502   1.105   7.238 -2.4052  1.8327  1.6870
 1300SOL     OW15535   4.300   0.280  11.628  0.2576  1.1323 -0.4314
 1300SOL    HW115536   4.323   0.196  11.667  1.6699  0.8761 -1.7947
 1300SOL    HW215537   4.380   0.285  11.575  2.3480 -0.1456  2.6173
 1301SOL     OW15538   1.392   0.636   4.247 -0.0032 -0.0004 -0.1806
 1301SOL    HW115539   1.364   0.557   4.202  3.8103 -1.0266 -0.7543
 1301SOL    HW215540   1.461   0.670   4.190 -2.4068  0.3615 -2.8592
 1302SOL     OW15541   4.120   0.661  12.247 -0.5414  0.0860 -0.1696
 1302SOL    HW115542   4.136   0.737  12.190  1.4842 -0.0190  0.2645
 1302SOL    HW215543   4.079   0.708  12.320 -0.0439  1.1018 -0.5462
 1303SOL     OW15544   2.624   2.603   8.779 -0.6922  0.2332 -0.1110
 1303SOL    HW115545   2.584   2.640   8.858  0.5598 -1.6458  1.4204
 1303SOL    HW215546   2.673   2.531   8.818  0.8769  0.0556 -2.4268
 1304SOL     OW15547   4.392   0.107  11.867  0.0478  0.1080  0.0515
 1304SOL    HW115548   4.411   0.014  11.868 -1.8353 -0.2620  1.0264
 1304SOL    HW215549   4.333   0.126  11.941 -0.5833 -0.3616 -0.3249
 1305SOL     OW15550   0.652   2.295   7.564 -0.4066  0.2923 -0.0667
 1305SOL    HW115551   0.674   2.303   7.657  2.5253 -0.8936 -0.6521
 1305SOL    HW215552   0.740   2.291   7.526 -0.1480  0.5284  0.5020
 1306SOL     OW15553   3.217   0.598   3.106 -0.2192  0.0185 -0.5146
 1306SOL    HW115554   3.300   0.620   3.149 -0.2413  1.4669 -1.2236
 1306SOL    HW215555   3.154   0.631   3.170  0.4961  0.3787  0.0081
 1307SOL     OW15556   1.418   0.103   6.501  0.2543 -0.1544  0.3990
 1307SOL    HW115557   1.466   0.184   6.488  1.0873 -0.8476 -0.8364
 1307SOL    HW215558   1.431   0.057   6.418 -0.9678 -1.3705  0.8860
 1308SOL     OW15559   2.717   1.431   7.335  0.2551 -0.2221  0.0138
 1308SOL    HW115560   2.760   1.517   7.334 -1.2980  0.5626 -0.2891
 1308SOL    HW215561   2.629   1.468   7.321 -0.2179 -1.3203  0.1352
 1309SOL     OW15562   2.498   3.149  12.018  0.2632  0.0436 -0.2161
 1309SOL    HW115563   2.585   3.138  11.980  0.0656 -1.9337 -0.0961
 1309SOL    HW215564   2.495   3.119  12.109 -1.4744 -1.3247 -0.7327
 1310SOL     OW15565   4.245   3.821  17.176  0.3953 -0.1990 -0.7175
 1310SOL    HW115566   4.215   3.911  17.188  1.0693 -0.0642  0.0050
 1310SOL    HW215567   4.297   3.806  17.256 -2.5917 -1.8108  0.9375
 1311SOL     OW15568   3.267   3.668  11.063 -0.3741  0.2956  0.6818
 1311SOL    HW115569   3.257   3.643  11.155  0.5596  1.7267  1.1653
 1311SOL    HW215570   3.195   3.613  11.031  2.0328 -1.1762 -2.2185
 1312SOL     OW15571   1.703   1.613   7.827 -0.8169  0.1025 -0.1167
 1312SOL    HW115572   1.732   1.644   7.913  0.7200 -0.1969 -0.5410
 1312SOL    HW215573   1.608   1.602   7.836 -0.2568 -1.7943  3.4587
 1313SOL     OW15574   3.012   0.969  11.618 -0.6188 -0.4207  0.1378
 1313SOL    HW115575   2.994   1.016  11.537 -0.5664  0.4059  0.6113
 1313SOL    HW215576   3.108   0.972  11.611 -0.7012  0.8090 -0.4629
 1314SOL     OW15577   1.742   0.306   2.408 -0.2259 -0.5502  0.3508
 1314SOL    HW115578   1.734   0.398   2.380  1.3928 -0.2718  0.7977
 1314SOL    HW215579   1.679   0.308   2.479  0.1058 -1.8351  0.6738
 1315SOL     OW15580   2.267   1.617   7.156  0.3723 -0.2140  0.9008
 1315SOL    HW115581   2.203   1.552   7.127  0.0694  0.3651  0.2981
 1315SOL    HW215582   2.264   1.684   7.088  1.6281  2.3226  3.3615
 1316SOL     OW15583   1.723   1.456   3.166 -0.7291 -0.4368 -0.0931
 1316SOL    HW115584   1.646   1.478   3.217 -1.1465 -1.1616 -0.4073
 1316SOL    HW215585   1.769   1.393   3.221  0.6992 -0.9658 -1.8716
 1317SOL     OW15586   2.817   3.920   2.350  0.0338  0.1585 -0.0067
 1317SOL    HW115587   2.906   3.928   2.316  0.2593  3.3502  1.3145
 1317SOL    HW215588   2.767   3.979   2.292 -0.7289 -3.1221 -2.7202
 1318SOL     OW15589   2.362   0.193   8.253  0.3043 -0.0594  0.3109
 1318SOL    HW115590   2.285   0.242   8.223 -0.7958 -2.5123 -0.8961
 1318SOL    HW215591   2.321   0.143   8.323  0.9936 -1.4857 -0.2968
 1319SOL     OW15592   3.356   4.323  15.302 -0.3219 -0.3950 -0.5403
 1319SOL    HW115593   3.353   4.231  15.329  1.8639 -0.7236 -1.3996
 1319SOL    HW215594   3.265   4.323  15.270 -0.3773  0.1274 -0.3792
 1320SOL     OW15595   3.521   2.022  14.283 -0.0096 -0.2564  0.2771
 1320SOL    HW115596   3.504   2.075  14.206  1.1461  0.1257  0.2882
 1320SOL    HW215597   3.600   1.972  14.263 -0.4765  1.0188 -4.8271
 1321SOL     OW15598   2.787   2.308   4.744  0.2396 -0.5264  0.0946
 1321SOL    HW115599   2.702   2.350   4.729  0.9515  0.2755 -1.6001
 1321SOL    HW215600   2.813   2.348   4.826 -1.2246 -0.5788  0.5835
 1322SOL     OW15601   3.199   3.853   9.798  0.3811 -0.1834 -0.2946
 1322SOL    HW115602   3.142   3.924   9.772 -0.7422 -0.9221  0.1641
 1322SOL    HW215603   3.220   3.881   9.887 -1.4989 -0.3604  0.2064
 1323SOL     OW15604   0.113   0.901  16.436 -0.3546  0.1481  0.0903
 1323SOL    HW115605   0.038   0.951  16.469 -0.0971  0.3054  0.4334
 1323SOL    HW215606   0.157   0.977  16.398 -0.9004  0.3956 -0.0449
 1324SOL     OW15607   4.176   3.518  15.126 -0.6984 -0.0091  0.3637
 1324SOL    HW115608   4.181   3.424  15.142  0.2471  0.2927  1.7875
 1324SOL    HW215609   4.246   3.550  15.182  2.8304 -1.0438 -3.5075
 1325SOL     OW15610   3.755   3.077   6.739 -0.4556  0.4466  0.0919
 1325SOL    HW115611   3.834   3.053   6.690 -1.1665 -0.7719 -0.4753
 1325SOL    HW215612   3.728   2.986   6.754  0.0580  0.6140  1.9929
 1326SOL     OW15613   0.260   1.788   0.653 -0.2231  0.0487  0.3524
 1326SOL    HW115614   0.269   1.693   0.654 -3.5398 -0.2619 -0.0290
 1326SOL    HW215615   0.275   1.800   0.559  0.7347  0.0269  0.5040
 1327SOL     OW15616   3.913   2.899   5.186 -0.2792 -0.7029 -0.1591
 1327SOL    HW115617   3.884   2.829   5.127  0.8141 -1.6237  0.3904
 1327SOL    HW215618   4.007   2.899   5.169 -0.2527  3.2535 -0.0917
 1328SOL     OW15619   3.906   1.706   5.433  0.2462 -0.6605 -0.2547
 1328SOL    HW115620   3.916   1.778   5.371 -0.4296 -0.9679 -0.7109
 1328SOL    HW215621   3.825   1.738   5.472 -0.4249  0.2736 -2.4569
 1329SOL     OW15622   3.370   0.586   7.249  0.1225  0.2803 -0.4524
 1329SOL    HW115623   3.410   0.504   7.278 -0.9677 -0.5472 -1.3206
 1329SOL    HW215624   3.292   0.578   7.303  0.0821  2.9179 -0.1481
 1330SOL     OW15625   1.131   3.741   6.557 -0.1976  0.2913  0.6353
 1330SOL    HW115626   1.179   3.802   6.613  0.3378  1.0810 -0.6894
 1330SOL    HW215627   1.045   3.782   6.557 -0.5766 -0.4612  3.2218
 1331SOL     OW15628   1.719   2.252   6.095 -0.2356  0.3983 -0.1672
 1331SOL    HW115629   1.735   2.175   6.041  3.1691  0.8073  0.2819
 1331SOL    HW215630   1.626   2.272   6.082 -0.0522  0.8264 -0.8306
 1332SOL     OW15631   3.665   3.524  10.276  0.2462 -0.2281  0.1814
 1332SOL    HW115632   3.574   3.549  10.290 -0.1537 -1.5129 -0.1456
 1332SOL    HW215633   3.709   3.533  10.360  0.1046  1.1982  0.1185
 1333SOL     OW15634   1.722   4.419   9.028  0.1867 -0.2038 -0.1856
 1333SOL    HW115635   1.688   4.378   9.108 -2.0052  0.6269 -0.6842
 1333SOL    HW215636   1.746   4.346   8.972 -1.0875 -2.2942  1.9891
 1334SOL     OW15637   0.607   0.298  11.901 -0.1677 -0.4492  0.6248
 1334SOL    HW115638   0.604   0.382  11.855 -0.2553  0.4216  2.2393
 1334SOL    HW215639   0.550   0.311  11.976 -0.2114 -0.8000  0.6538
 1335SOL     OW15640   2.252   1.250   7.687  0.0287  0.1327  0.1614
 1335SOL    HW115641   2.291   1.191   7.623  1.0182  1.1391 -0.1650
 1335SOL    HW215642   2.293   1.329   7.651 -1.2118 -0.7122 -3.0838
 1336SOL     OW15643   1.643   1.073   3.898  0.0426  0.1397  0.3128
 1336SOL    HW115644   1.578   1.132   3.937  2.7593  2.6798  1.0623
 1336SOL    HW215645   1.716   1.072   3.960 -0.2534  1.0662  0.6732
 1337SOL     OW15646   0.892   0.011   4.850 -0.2546 -0.1406  0.3856
 1337SOL    HW115647   0.910   0.091   4.900 -1.2099  0.9799 -1.0746
 1337SOL    HW215648   0.960   4.694   4.887 -0.7642 -0.9077  0.1671
 1338SOL     OW15649   4.400   4.381  10.021 -0.2396 -0.2489 -0.2030
 1338SOL    HW115650   4.365   4.328  10.092  2.4918  3.5734  3.9967
 1338SOL    HW215651   4.440   4.316   9.963  0.8264 -0.1387  0.3967
 1339SOL     OW15652   1.531   3.187   1.662 -0.5853  0.0409 -0.6315
 1339SOL    HW115653   1.537   3.262   1.720 -1.1224 -1.6675  1.6257
 1339SOL    HW215654   1.621   3.157   1.656 -0.9018 -1.1316  0.6446
 1340SOL     OW15655   1.422   3.185   2.297  0.3155  0.5175 -0.0671
 1340SOL    HW115656   1.434   3.109   2.241  2.9242  2.3455 -1.9795
 1340SOL    HW215657   1.351   3.227   2.248  0.9481 -1.8609 -3.0404
 1341SOL     OW15658   3.197   3.911   3.785 -0.0397 -0.3636  0.0486
 1341SOL    HW115659   3.137   3.969   3.832  1.9933  2.5445 -0.8874
 1341SOL    HW215660   3.156   3.827   3.801 -1.0547  0.4687  1.7846
 1342SOL     OW15661   4.043   0.573   7.886 -0.1068  0.3752  0.4964
 1342SOL    HW115662   4.039   0.478   7.882  0.1064  0.3611  0.6711
 1342SOL    HW215663   3.951   0.600   7.882  0.2234  1.5360  0.6570
 1343SOL     OW15664   3.236   0.728  14.791  0.1962  0.9502  0.0910
 1343SOL    HW115665   3.233   0.821  14.768 -0.9145  1.1056  0.8388
 1343SOL    HW215666   3.298   0.697  14.725  0.2932  0.7037  0.2984
 1344SOL     OW15667   2.575   0.340   7.804  0.3524  0.2293  0.4283
 1344SOL    HW115668   2.658   0.354   7.849 -0.4596 -1.1804  2.3855
 1344SOL    HW215669   2.589   0.273   7.737  0.2302  0.2773  0.3529
 1345SOL     OW15670   4.693   4.286   4.890 -0.3306 -0.0601  0.2143
 1345SOL    HW115671   0.038   4.330   4.900 -0.9297  1.0906  0.1689
 1345SOL    HW215672   4.628   4.340   4.935  0.3761  0.5563  0.4825
 1346SOL     OW15673   3.647   1.415   8.301 -0.0669 -0.4804 -0.3680
 1346SOL    HW115674   3.657   1.385   8.211  0.6463 -0.8425 -0.1646
 1346SOL    HW215675   3.667   1.508   8.290 -0.3221 -0.5415 -1.3239
 1347SOL     OW15676   3.276   1.324  12.921  0.4561 -0.2127 -0.3414
 1347SOL    HW115677   3.216   1.382  12.968  0.4544 -0.5382  0.0568
 1347SOL    HW215678   3.345   1.386  12.895 -1.3648  1.7879 -0.4131
 1348SOL     OW15679   0.133   0.885  15.142  0.2486  0.0658 -0.2154
 1348SOL    HW115680   0.086   0.894  15.226 -2.6478  0.9590 -1.9370
 1348SOL    HW215681   0.137   0.977  15.116 -1.2122  0.1662 -0.1198
 1349SOL     OW15682   1.228   1.554   5.643 -0.2387  0.0841  0.0146
 1349SOL    HW115683   1.155   1.504   5.605 -0.2644 -0.1937  0.4366
 1349SOL    HW215684   1.289   1.565   5.570 -0.6742  1.1885 -0.1840
 1350SOL     OW15685   0.604   0.399   3.648  0.2352 -0.0089  0.2891
 1350SOL    HW115686   0.509   0.411   3.648 -0.1086 -2.5991  0.0467
 1350SOL    HW215687   0.631   0.477   3.696 -0.1879 -0.0304  0.5581
 1351SOL     OW15688   3.284   4.666   3.101 -0.0044 -0.5074  0.5617
 1351SOL    HW115689   3.243   4.582   3.080 -1.5508  0.4842 -0.4241
 1351SOL    HW215690   3.340   4.676   3.024 -1.0448 -1.5076 -0.3370
 1352SOL     OW15691   2.559   2.278   7.999 -0.5351  0.1426  0.0640
 1352SOL    HW115692   2.654   2.290   8.000 -0.3030 -1.4672 -1.1001
 1352SOL    HW215693   2.552   2.192   8.040  0.3894 -0.9039 -1.9281
 1353SOL     OW15694   0.828   1.798   7.569  0.1450 -0.6600 -0.4179
 1353SOL    HW115695   0.903   1.811   7.627  1.3937 -0.9265 -1.9683
 1353SOL    HW215696   0.788   1.716   7.596  1.2727 -1.3438 -0.8074
 1354SOL     OW15697   4.565   0.023   3.764  0.1259  0.0303  0.2336
 1354SOL    HW115698   4.518   0.050   3.843  1.5693 -2.4061  1.9227
 1354SOL    HW215699   4.507   0.046   3.692 -1.4527 -0.1461  1.4666
 1355SOL     OW15700   2.493   3.210  10.331  0.1557 -0.0934 -0.7381
 1355SOL    HW115701   2.468   3.143  10.267 -0.4561 -0.2448 -0.3371
 1355SOL    HW215702   2.431   3.280  10.312 -2.0409 -1.4733  1.4542
 1356SOL     OW15703   0.884   3.563   4.791 -0.0274  0.3269  0.1013
 1356SOL    HW115704   0.901   3.617   4.868 -2.4704  2.5417 -0.9283
 1356SOL    HW215705   0.975   3.561   4.760  0.3329 -1.4249  1.3337
 1357SOL     OW15706   3.116   0.932   5.331  0.1463 -0.2817 -0.2784
 1357SOL    HW115707   3.149   0.849   5.364  0.8471 -0.2546 -0.8969
 1357SOL    HW215708   3.195   0.955   5.281  0.0520  1.3249  0.2893
 1358SOL     OW15709   0.069   4.636   7.971 -0.0988  0.3354 -0.3550
 1358SOL    HW115710   0.144   4.681   7.933  0.9953 -0.1102  1.3039
 1358SOL    HW215711   0.106   4.551   7.993 -0.2762  0.3330 -0.0712
 1359SOL     OW15712   1.565   4.276   1.762 -0.0883 -0.2884  0.3150
 1359SOL    HW115713   1.539   4.243   1.848  1.7120 -0.0998  0.9430
 1359SOL    HW215714   1.500   4.335   1.727 -0.4396 -0.1233  1.2421
 1360SOL     OW15715   1.423   2.646  11.402 -0.4335  0.1660 -0.4644
 1360SOL    HW115716   1.453   2.731  11.371  1.3503  0.3877  1.8345
 1360SOL    HW215717   1.483   2.637  11.476 -1.6417 -0.4171  0.4427
 1361SOL     OW15718   3.413   3.444  13.668  0.7472 -0.8601  0.5295
 1361SOL    HW115719   3.345   3.507  13.646  0.7538 -2.0920 -3.0125
 1361SOL    HW215720   3.372   3.396  13.741 -0.4228 -1.1126 -0.3051
 1362SOL     OW15721   1.979   4.199   5.420 -0.1896  0.2209 -0.2169
 1362SOL    HW115722   1.940   4.163   5.341  0.0029 -1.1284  0.2889
 1362SOL    HW215723   2.046   4.257   5.384  1.0679 -1.7797 -1.1550
 1363SOL     OW15724   2.208   2.859   0.925 -0.3970  0.0867  0.5429
 1363SOL    HW115725   2.161   2.903   0.854  0.9395 -0.4339 -0.6443
 1363SOL    HW215726   2.134   2.822   0.973 -0.4630 -0.2683  0.1628
 1364SOL     OW15727   3.216   2.972   6.557 -0.0145 -0.6445 -0.5676
 1364SOL    HW115728   3.197   3.021   6.636  0.0294 -1.2905 -0.1567
 1364SOL    HW215729   3.265   3.042   6.514 -0.3102  0.5769  1.0951
 1365SOL     OW15730   4.516   4.525  16.041  0.1327 -0.0558  0.6306
 1365SOL    HW115731   4.486   4.563  16.124 -0.1772 -2.0702  1.4425
 1365SOL    HW215732   4.611   4.523  16.054  0.7000 -0.2635 -3.7109
 1366SOL     OW15733   2.717   4.705   7.465 -0.1994  0.2638 -0.2153
 1366SOL    HW115734   2.799   4.733   7.426  0.6654  0.8656  2.0505
 1366SOL    HW215735   2.744   4.614   7.476  0.1285  0.0148 -3.3323
 1367SOL     OW15736   0.269   0.012   6.541 -0.1342 -0.2646 -0.2628
 1367SOL    HW115737   0.361   4.730   6.526  0.2405  1.3221 -0.1335
 1367SOL    HW215738   0.267   0.106   6.557  1.7325 -0.5031  1.2707
 1368SOL     OW15739   2.389   0.587   8.687  0.4122 -0.1893  0.1340
 1368SOL    HW115740   2.472   0.633   8.674 -1.0501  1.5527 -3.3981
 1368SOL    HW215741   2.384   0.527   8.613  1.5051 -0.4239  0.2481
 1369SOL     OW15742   2.962   1.983   7.968  0.5819 -0.4091  0.0808
 1369SOL    HW115743   3.036   1.939   8.010 -1.0323 -1.0854  2.2216
 1369SOL    HW215744   2.891   1.947   8.021 -0.6270 -0.4447 -1.5645
 1370SOL     OW15745   4.570   4.197   3.242  0.2173  0.1507 -0.5328
 1370SOL    HW115746   4.596   4.252   3.168 -0.6479  0.3980 -0.6521
 1370SOL    HW215747   4.654   4.153   3.257  0.5316  0.6488 -0.8207
 1371SOL     OW15748   1.266   3.397  10.319 -0.0960  0.8277 -0.2583
 1371SOL    HW115749   1.337   3.404  10.383 -0.3126 -1.3837  0.2231
 1371SOL    HW215750   1.232   3.486  10.323 -0.9044  0.4534  1.5495
 1372SOL     OW15751   3.107   4.107   1.968 -0.4362 -0.0644  0.2507
 1372SOL    HW115752   3.044   4.168   2.007  0.4036 -0.0759  1.6531
 1372SOL    HW215753   3.073   4.085   1.882  1.0227 -1.5460  0.0555
 1373SOL     OW15754   4.023   4.596   8.130  0.0868  0.0386 -0.4169
 1373SOL    HW115755   4.088   4.664   8.114 -1.2450  1.0501 -1.4950
 1373SOL    HW215756   4.063   4.520   8.088  2.7012  0.5886  1.0721
 1374SOL     OW15757   4.229   0.963   0.871  0.2412  0.2537  0.0373
 1374SOL    HW115758   4.210   1.044   0.824 -0.2282 -0.1898 -0.5365
 1374SOL    HW215759   4.302   0.992   0.926  1.6969  1.4367 -2.5629
 1375SOL     OW15760   3.668   1.815   8.055 -0.7241  0.1663  0.6096
 1375SOL    HW115761   3.589   1.867   8.064 -1.4784 -1.1914  1.8894
 1375SOL    HW215762   3.652   1.783   7.966 -2.3897  1.7300  0.3622
 1376SOL     OW15763   0.981   3.335   7.616 -0.2428  0.1245 -0.0098
 1376SOL    HW115764   1.024   3.418   7.637 -0.1608  0.5366 -1.8170
 1376SOL    HW215765   0.924   3.320   7.692  0.6922 -1.5032  0.3697
 1377SOL     OW15766   4.547   2.040   4.001  0.1557  0.2426  0.4808
 1377SOL    HW115767   4.459   2.070   3.978  0.0816  1.8181  2.8150
 1377SOL    HW215768   4.597   2.087   3.934 -0.0098 -1.4318 -0.8171
 1378SOL     OW15769   1.610   1.842   2.168 -0.0109  0.3692 -0.0426
 1378SOL    HW115770   1.621   1.934   2.146  1.2193  0.9302  3.0501
 1378SOL    HW215771   1.526   1.839   2.214  0.6588 -1.6580  1.0280
 1379SOL     OW15772   4.282   3.962   6.418  0.0915  0.1063  0.5123
 1379SOL    HW115773   4.298   3.871   6.443 -0.2715 -0.1822 -0.3149
 1379SOL    HW215774   4.368   3.985   6.383  0.0420  1.2988  1.2029
 1380SOL     OW15775   2.588   3.868   8.093  0.0003  0.5752  0.0471
 1380SOL    HW115776   2.501   3.846   8.060 -0.1677 -1.1362  1.5840
 1380SOL    HW215777   2.587   3.890   8.186  0.8586 -1.1083  0.4605
 1381SOL     OW15778   4.256   0.426   9.298 -0.0950 -0.4031 -0.0800
 1381SOL    HW115779   4.309   0.402   9.223  1.3909  1.7931  0.2823
 1381SOL    HW215780   4.192   0.354   9.302  2.1163 -2.3381  0.4576
 1382SOL     OW15781   2.773   1.413   5.978  0.2520 -0.2830  0.2501
 1382SOL    HW115782   2.702   1.476   5.993  0.4402  0.0616 -0.3016
 1382SOL    HW215783   2.729   1.358   5.914  2.2108 -1.4098 -0.1405
 1383SOL     OW15784   2.530   3.464   3.794  0.0566 -0.0362 -0.3004
 1383SOL    HW115785   2.606   3.410   3.772 -2.7186 -4.0423 -0.0556
 1383SOL    HW215786   2.574   3.544   3.824  1.8168 -1.4615  0.9061
 1384SOL     OW15787   2.732   3.684  13.812 -0.1314  0.7020  0.0869
 1384SOL    HW115788   2.668   3.754  13.801 -2.8119 -2.2256 -2.9508
 1384SOL    HW215789   2.674   3.608  13.817  0.6558  0.1739  1.2018
 1385SOL     OW15790   4.166   4.622  14.769 -0.3298  0.1150 -0.4706
 1385SOL    HW115791   4.134   4.712  14.777 -1.4981 -0.3698  0.2628
 1385SOL    HW215792   4.224   4.623  14.693 -0.3564 -0.9355 -0.5013
 1386SOL     OW15793   1.551   0.927   2.176  0.5422 -0.1023  0.5916
 1386SOL    HW115794   1.612   0.929   2.251 -0.0303 -0.7562  1.0724
 1386SOL    HW215795   1.482   0.886   2.227 -0.7895  0.4328 -0.7942
 1387SOL     OW15796   0.884   2.591   6.787  0.0711  0.4021  0.0381
 1387SOL    HW115797   0.906   2.676   6.749 -0.0702  1.1538  1.6459
 1387SOL    HW215798   0.824   2.557   6.720 -0.4994  0.1873  0.6545
 1388SOL     OW15799   3.590   0.160   3.010 -0.1423  0.0471 -0.3587
 1388SOL    HW115800   3.681   0.188   3.020 -0.4635  1.2807 -0.8553
 1388SOL    HW215801   3.576   0.200   2.924 -0.5694 -0.2159 -0.4102
 1389SOL     OW15802   4.012   3.366   2.133  1.3174  0.8063  0.0165
 1389SOL    HW115803   4.099   3.372   2.173  1.2753 -1.7622  0.4597
 1389SOL    HW215804   3.999   3.459   2.111  0.2899  1.1973  2.2771
 1390SOL     OW15805   2.777   1.950   0.399  0.1059 -0.3118  0.1484
 1390SOL    HW115806   2.796   1.980   0.310  0.3600 -0.1317  0.2612
 1390SOL    HW215807   2.752   1.862   0.370 -1.0740  0.0510  0.0555
 1391SOL     OW15808   2.414   0.513   5.766  0.0134 -0.4628  0.1656
 1391SOL    HW115809   2.474   0.579   5.800 -0.2121  0.8022 -1.8804
 1391SOL    HW215810   2.416   0.456   5.843  0.0590  0.3369  0.7518
 1392SOL     OW15811   1.695   1.793   0.472  0.7060 -0.5995 -0.1712
 1392SOL    HW115812   1.721   1.884   0.484  1.6205 -1.0217  1.0580
 1392SOL    HW215813   1.690   1.786   0.376 -0.6329 -0.7633 -0.0850
 1393SOL     OW15814   0.936   3.729   8.027 -0.3534 -0.1381  0.3309
 1393SOL    HW115815   0.884   3.768   7.957 -0.7209  0.1226  0.7464
 1393SOL    HW215816   0.939   3.639   7.996 -3.1334 -0.9035  2.3065
 1394SOL     OW15817   3.582   2.402  14.730 -1.1299  0.2210  0.5286
 1394SOL    HW115818   3.558   2.371  14.817 -1.2187  1.6451  1.0104
 1394SOL    HW215819   3.631   2.481  14.751  0.9735 -0.5941 -1.2273
 1395SOL     OW15820   1.711   1.141   6.460 -0.7523 -0.1025  0.1213
 1395SOL    HW115821   1.728   1.235   6.454  1.8328 -0.4767  1.5935
 1395SOL    HW215822   1.668   1.132   6.545  0.3028 -0.4747  0.6200
 1396SOL     OW15823   4.107   1.718  17.707  0.3785 -0.5989  0.0340
 1396SOL    HW115824   4.013   1.735  17.704  0.1775 -1.5866  0.9095
 1396SOL    HW215825   4.131   1.791  17.649  1.6537 -0.6731  0.4662
 1397SOL     OW15826   3.018   4.026   4.459  0.1279 -0.0888  0.0671
 1397SOL    HW115827   3.044   4.084   4.530  0.8318  1.3967 -1.4282
 1397SOL    HW215828   3.031   3.939   4.497 -0.2888 -1.6879 -3.3800
 1398SOL     OW15829   0.878   0.414  10.281 -0.4352 -0.3414  0.3512
 1398SOL    HW115830   0.940   0.343  10.298 -2.6111 -2.2230  0.5008
 1398SOL    HW215831   0.803   0.362  10.251  0.0291 -0.9096  0.1667
 1399SOL     OW15832   1.228   1.269   3.870  0.2323 -0.1997  0.3560
 1399SOL    HW115833   1.143   1.277   3.913 -0.6628 -1.1725 -1.2069
 1399SOL    HW215834   1.216   1.178   3.841 -2.1548  0.2416 -0.0702
 1400SOL     OW15835   1.106   2.006  12.369  0.3283  0.4096  0.3163
 1400SOL    HW115836   1.177   1.952  12.333  0.4253  0.9628 -0.3271
 1400SOL    HW215837   1.088   2.072  12.303 -4.4104  1.1491  2.3835
 1401SOL     OW15838   3.907   1.616  14.661  0.1959 -0.2515 -0.7239
 1401SOL    HW115839   3.859   1.664  14.594 -0.8990  2.2640  1.8411
 1401SOL    HW215840   3.902   1.528  14.624 -0.9470  0.1001 -1.4004
 1402SOL     OW15841   0.840   3.953  13.011  0.1376 -0.3015  0.1337
 1402SOL    HW115842   0.778   3.880  13.012 -0.0576 -0.1459 -0.8180
 1402SOL    HW215843   0.909   3.921  12.954  0.9974 -0.4023  1.2393
 1403SOL     OW15844   1.542   0.892   7.993  0.7584 -0.2250 -0.0766
 1403SOL    HW115845   1.460   0.886   7.944  0.3154  0.4158  0.5769
 1403SOL    HW215846   1.524   0.974   8.039 -0.2726 -2.2686  3.1184
 1404SOL     OW15847   2.885   0.703   1.687 -0.2661 -0.5046 -0.8559
 1404SOL    HW115848   2.851   0.616   1.667  0.8936 -1.7683  2.6303
 1404SOL    HW215849   2.876   0.715   1.782 -0.9484  0.2604 -1.0161
 1405SOL     OW15850   4.106   3.712   8.149 -0.0955  0.5188  0.0728
 1405SOL    HW115851   4.095   3.735   8.242 -1.6703 -0.4773  0.1415
 1405SOL    HW215852   4.139   3.624   8.162 -1.6755  0.0937  1.2783
 1406SOL     OW15853   2.319   4.038   7.984 -0.3807 -0.0712 -0.0827
 1406SOL    HW115854   2.362   4.076   8.061 -1.4831  0.2868  0.3481
 1406SOL    HW215855   2.310   4.114   7.927  0.1780  0.4228  0.4848
 1407SOL     OW15856   3.491   0.305   4.172  0.3284 -0.3493 -0.7344
 1407SOL    HW115857   3.482   0.384   4.118 -0.3011  0.6461  0.8201
 1407SOL    HW215858   3.557   0.251   4.129  1.0114  1.1988 -1.6275
 1408SOL     OW15859   3.362   4.562   9.955  0.4771 -0.1613 -0.3712
 1408SOL    HW115860   3.437   4.588   9.902  0.7653 -0.2520 -0.0094
 1408SOL    HW215861   3.389   4.591  10.043  0.3019  1.1401 -0.7471
 1409SOL     OW15862   1.043   3.230   8.230  0.5908  0.0103  0.0600
 1409SOL    HW115863   1.117   3.262   8.281  0.3641 -0.3661  0.6323
 1409SOL    HW215864   0.972   3.293   8.245  0.1026 -0.9586  1.7643
 1410SOL     OW15865   2.014   0.556   2.772 -0.2482  0.2474  0.6847
 1410SOL    HW115866   2.001   0.506   2.692 -1.3754  2.6411 -0.6528
 1410SOL    HW215867   2.063   0.493   2.824 -0.4029 -0.3317  0.1124
 1411SOL     OW15868   3.946   0.680   3.644 -0.1920  0.8047 -0.0157
 1411SOL    HW115869   3.968   0.592   3.673  3.6554  1.9985  0.7373
 1411SOL    HW215870   4.031   0.708   3.608 -0.4706 -0.0172 -1.3150
 1412SOL     OW15871   1.326   0.942   9.434 -0.3716  0.0876  0.2070
 1412SOL    HW115872   1.326   0.853   9.398 -1.2434 -0.0508  0.5552
 1412SOL    HW215873   1.412   0.960   9.470 -1.0110  0.0612  1.7315
 1413SOL     OW15874   3.786   2.039   7.492 -0.1528  0.2880 -0.1374
 1413SOL    HW115875   3.829   1.954   7.492 -0.3420  0.1944 -1.5854
 1413SOL    HW215876   3.750   2.032   7.403  0.3167 -1.0404 -0.2175
 1414SOL     OW15877   2.918   3.022   6.900 -0.5333  0.0664 -0.2015
 1414SOL    HW115878   2.832   3.063   6.892 -0.0855  1.1477  0.5270
 1414SOL    HW215879   2.970   3.101   6.883 -1.4590  0.2830 -1.9518
 1415SOL     OW15880   2.407   1.309   6.097 -0.1642 -0.1557  0.0849
 1415SOL    HW115881   2.353   1.355   6.032 -2.3670  0.0663  2.1161
 1415SOL    HW215882   2.477   1.375   6.094 -1.4485  1.1350 -2.1525
 1416SOL     OW15883   2.807   0.767   8.296 -0.6728  0.3777  0.0048
 1416SOL    HW115884   2.813   0.793   8.204  4.3352  2.0813  0.8301
 1416SOL    HW215885   2.723   0.721   8.289 -0.1607 -0.8686  2.0804
 1417SOL     OW15886   1.019   0.973   6.102  0.3594  0.1799  0.3363
 1417SOL    HW115887   0.931   0.961   6.138  0.1362 -0.2342 -0.3450
 1417SOL    HW215888   1.067   1.006   6.178 -1.5385  2.2968  0.6107
 1418SOL     OW15889   4.634   0.116  10.556  0.1239  0.1317  0.1899
 1418SOL    HW115890   4.710   0.141  10.607  0.3871  1.3563 -0.7861
 1418SOL    HW215891   4.575   0.087  10.625 -0.5093 -1.6817 -1.1192
 1419SOL     OW15892   3.300   0.587   8.408  0.5481 -0.1823  0.0365
 1419SOL    HW115893   3.212   0.585   8.370 -0.1954  1.0740  1.7050
 1419SOL    HW215894   3.354   0.544   8.342  0.5440  1.6144 -1.1313
 1420SOL     OW15895   3.832   4.630  16.075 -0.4024 -0.2621  0.6964
 1420SOL    HW115896   3.875   4.546  16.059 -3.3349 -1.6104 -0.0878
 1420SOL    HW215897   3.794   4.657  15.991  1.3947  1.0372  0.3001
 1421SOL     OW15898   2.136   0.284   9.525  0.0498 -0.1452 -0.0220
 1421SOL    HW115899   2.147   0.345   9.452 -2.6267 -0.3665 -0.5970
 1421SOL    HW215900   2.222   0.293   9.567  0.2046 -0.2030 -0.3274
 1422SOL     OW15901   4.012   4.169  10.103  0.1942 -0.7627  0.3279
 1422SOL    HW115902   3.919   4.193  10.103  0.6872  1.1383 -3.8331
 1422SOL    HW215903   4.003   4.078  10.076 -0.7118 -0.7889  0.7089
 1423SOL     OW15904   4.037   1.660   2.371 -0.4248  0.1607  0.1455
 1423SOL    HW115905   4.114   1.625   2.414  1.5581  0.7241 -2.8964
 1423SOL    HW215906   3.991   1.577   2.362  0.5902 -0.4930  1.0181
 1424SOL     OW15907   2.337   1.335   2.609  0.2058 -0.0322  0.1536
 1424SOL    HW115908   2.420   1.367   2.645  0.3218  0.3620 -0.4618
 1424SOL    HW215909   2.329   1.407   2.546 -1.6802 -1.1712 -0.8896
 1425SOL     OW15910   0.630   4.144  17.561  0.0613 -0.2041  0.2159
 1425SOL    HW115911   0.588   4.209  17.618  0.4500  0.3930 -0.1842
 1425SOL    HW215912   0.583   4.063  17.582  1.8552 -1.1016  0.7573
 1426SOL     OW15913   0.857   4.386   4.776 -0.6301 -0.4574  0.0075
 1426SOL    HW115914   0.814   4.305   4.750 -2.7923  1.1271 -1.3294
 1426SOL    HW215915   0.939   4.354   4.815 -0.5594 -1.9475 -1.3736
 1427SOL     OW15916   0.732   1.415   6.919 -0.2198 -0.2726 -0.2576
 1427SOL    HW115917   0.703   1.493   6.967 -0.9143 -0.6305 -0.0898
 1427SOL    HW215918   0.776   1.363   6.987  2.0919  1.3953 -0.4794
 1428SOL     OW15919   4.331   0.794   8.456 -0.0081  0.5292 -0.7140
 1428SOL    HW115920   4.361   0.884   8.440  4.0931 -0.9073 -1.1076
 1428SOL    HW215921   4.297   0.771   8.370 -0.5714  2.0333 -0.9009
 1429SOL     OW15922   2.739   0.860  16.665  0.1166  0.2088 -0.2958
 1429SOL    HW115923   2.745   0.943  16.617  2.5315  0.9978  1.3916
 1429SOL    HW215924   2.671   0.818  16.612 -2.7865  3.5063  0.7739
 1430SOL     OW15925   1.673   3.756  14.792 -0.4276 -0.8175  0.3613
 1430SOL    HW115926   1.768   3.762  14.791 -0.4659 -0.1456  0.3173
 1430SOL    HW215927   1.655   3.764  14.699 -0.0281 -1.3631  0.2385
 1431SOL     OW15928   0.008   3.118   7.756 -0.4459  0.2757 -0.2757
 1431SOL    HW115929   0.014   3.035   7.708  1.2771  0.6255 -0.6873
 1431SOL    HW215930   0.008   3.083   7.845 -1.3147  2.7795  0.7047
 1432SOL     OW15931   1.550   2.979   4.854  0.2878  0.2152 -0.2464
 1432SOL    HW115932   1.521   2.890   4.875 -0.0873 -0.0027 -1.6997
 1432SOL    HW215933   1.525   3.013   4.939  1.0283  0.8745 -0.2919
 1433SOL     OW15934   1.996   3.148   3.767  0.7925 -0.0037 -0.1854
 1433SOL    HW115935   1.921   3.156   3.825  1.4291 -1.5859  0.8424
 1433SOL    HW215936   2.014   3.056   3.787  0.1210 -0.2555 -0.7220
 1434SOL     OW15937   4.399   2.406   3.451  0.1234  0.2629  0.0181
 1434SOL    HW115938   4.344   2.476   3.415  1.5261  1.5854  0.4449
 1434SOL    HW215939   4.479   2.453   3.476 -1.9110  3.4316  0.5394
 1435SOL     OW15940   4.223   3.366  13.069 -0.1430 -0.3133 -0.1808
 1435SOL    HW115941   4.224   3.299  13.137  2.7012 -1.5418 -1.4477
 1435SOL    HW215942   4.266   3.314  13.001  0.6607  0.4923 -0.2875
 1436SOL     OW15943   0.662   0.619   0.479  0.4353 -0.8011 -0.1520
 1436SOL    HW115944   0.651   0.524   0.476  1.7835 -0.8986 -2.1566
 1436SOL    HW215945   0.623   0.654   0.559 -1.4328 -0.0157 -1.3980
 1437SOL     OW15946   1.310   3.587   4.932 -0.0409 -0.5456 -0.7029
 1437SOL    HW115947   1.336   3.515   4.875 -1.8544 -0.0199 -2.1930
 1437SOL    HW215948   1.257   3.626   4.863 -0.4342 -0.3214 -0.2740
 1438SOL     OW15949   2.733   0.042   6.495  0.8701  0.1578 -0.4968
 1438SOL    HW115950   2.785   4.729   6.434 -0.9375  0.4285 -2.2912
 1438SOL    HW215951   2.696   4.718   6.557  2.8692 -1.7026 -1.1862
 1439SOL     OW15952   2.286   1.981  14.988 -0.3335  0.1180  0.1544
 1439SOL    HW115953   2.269   2.064  15.033 -1.1986 -0.3128  0.6274
 1439SOL    HW215954   2.368   2.008  14.946  0.2742 -0.0161  1.2678
 1440SOL     OW15955   3.383   1.865   9.908  0.0148  0.1886  0.6020
 1440SOL    HW115956   3.398   1.789   9.963 -0.6110 -0.3731 -0.0008
 1440SOL    HW215957   3.342   1.813   9.838  0.5926  0.0169  0.3921
 1441SOL     OW15958   3.438   4.633  17.252  0.1815  0.3738 -0.1696
 1441SOL    HW115959   3.516   4.577  17.247 -0.1019 -0.4042  3.5008
 1441SOL    HW215960   3.464   4.674  17.334 -1.1417 -1.7664  1.3415
 1442SOL     OW15961   2.248   3.087   7.940 -0.4271  0.0078 -0.2474
 1442SOL    HW115962   2.279   3.006   7.981 -0.7151 -0.3119 -0.6606
 1442SOL    HW215963   2.181   3.046   7.885  0.1418 -1.1622 -0.0694
 1443SOL     OW15964   1.217   3.505   5.926 -0.0748  0.1173 -0.1904
 1443SOL    HW115965   1.216   3.480   5.833  1.8052  2.2135 -0.7751
 1443SOL    HW215966   1.287   3.454   5.966  1.2342  0.3361 -2.1635
 1444SOL     OW15967   4.687   3.198   0.229  0.0050 -0.4030  0.0400
 1444SOL    HW115968   4.681   3.285   0.269  0.8680 -0.9852  1.4522
 1444SOL    HW215969   4.688   3.219   0.136 -3.8206 -0.4648 -0.0029
 1445SOL     OW15970   1.749   3.896   2.135 -0.2640 -0.3602 -0.1814
 1445SOL    HW115971   1.744   3.972   2.076  0.1818 -1.0732 -1.1265
 1445SOL    HW215972   1.722   3.815   2.091 -0.2796 -0.2098 -0.4516
 1446SOL     OW15973   0.923   3.352   6.278  0.1425 -0.0089 -0.6719
 1446SOL    HW115974   0.871   3.273   6.264  1.5463 -0.8909 -0.9469
 1446SOL    HW215975   1.007   3.307   6.273 -1.6680 -3.3922 -0.4930
 1447SOL     OW15976   1.772   2.170   8.809 -0.6260 -0.4205 -0.7663
 1447SOL    HW115977   1.773   2.261   8.780  1.7219  0.8432  3.2124
 1447SOL    HW215978   1.864   2.145   8.801 -1.0171 -2.8281  1.8960
 1448SOL     OW15979   3.894   3.814   5.129  0.3944 -0.3021  0.2010
 1448SOL    HW115980   3.885   3.719   5.130 -0.7268 -0.2232 -2.3607
 1448SOL    HW215981   3.927   3.837   5.216 -0.1013  1.1700  0.0039
 1449SOL     OW15982   3.925   4.287   6.958 -0.0007  0.0595  0.1096
 1449SOL    HW115983   4.004   4.340   6.966 -0.1473  0.4009 -0.6015
 1449SOL    HW215984   3.854   4.336   7.000 -0.4818  0.2858 -0.9611
 1450SOL     OW15985   3.052   0.636   6.309 -0.4188  0.5922  0.3857
 1450SOL    HW115986   2.994   0.587   6.368 -1.7541 -0.8151 -2.0904
 1450SOL    HW215987   2.985   0.655   6.243 -0.7179 -0.7420  0.3042
 1451SOL     OW15988   0.939   0.043   8.420  0.2982  0.1007  0.7021
 1451SOL    HW115989   0.986   0.126   8.405  1.0217 -0.4378 -0.0240
 1451SOL    HW215990   0.996   4.732   8.478 -0.2821 -2.0932 -0.6247
 1452SOL     OW15991   0.148   3.345   1.583 -0.0852 -0.0654  0.0069
 1452SOL    HW115992   0.054   3.346   1.603  0.2002  1.7284  1.2730
 1452SOL    HW215993   0.173   3.407   1.651 -0.9097  1.0216 -0.6787
 1453SOL     OW15994   2.554   1.065   6.187  0.1732 -0.2458 -0.1117
 1453SOL    HW115995   2.632   1.086   6.137 -0.7508  0.3835 -1.2957
 1453SOL    HW215996   2.510   1.150   6.190 -0.8098 -0.7201 -0.8189
 1454SOL     OW15997   3.324   1.251  12.416  0.0685  0.2862 -0.1337
 1454SOL    HW115998   3.291   1.341  12.425 -0.3700  0.0206  0.9261
 1454SOL    HW215999   3.309   1.212  12.502  1.4357  1.8996  0.8453
 1455SOL     OW16000   2.666   3.486  14.580 -0.8665 -0.4353 -0.0756
 1455SOL    HW116001   2.636   3.415  14.636  2.1848 -1.4491  0.2524
 1455SOL    HW216002   2.602   3.491  14.509  0.4183  0.6304 -1.1794
 1456SOL     OW16003   2.377   2.279   6.265  0.1320  0.4936  0.0263
 1456SOL    HW116004   2.355   2.192   6.233  0.8248  1.1858 -2.3668
 1456SOL    HW216005   2.337   2.270   6.351 -2.7479 -0.1654 -1.3877
 1457SOL     OW16006   2.693   3.011   8.813  0.3030 -0.1159 -0.3184
 1457SOL    HW116007   2.722   2.920   8.812 -2.6956 -1.0668 -0.4507
 1457SOL    HW216008   2.609   3.008   8.859 -0.6449  1.6407 -1.9065
 1458SOL     OW16009   4.709   3.216   3.201  0.1429 -0.1273 -0.1545
 1458SOL    HW116010   4.653   3.267   3.259  1.2086  0.9683 -0.0773
 1458SOL    HW216011   0.026   3.283   3.159  0.8411  0.9835  2.5150
 1459SOL     OW16012   2.944   0.712  15.492 -0.1051  0.3215  0.2691
 1459SOL    HW116013   2.877   0.647  15.475 -1.3654  1.7138 -0.0718
 1459SOL    HW216014   2.891   0.786  15.521 -1.8734  0.0213 -2.1700
 1460SOL     OW16015   3.007   2.057   1.172 -0.4094  0.7095 -0.3097
 1460SOL    HW116016   2.915   2.038   1.157 -0.5207  1.4617 -0.5822
 1460SOL    HW216017   3.046   2.050   1.084  2.6876  0.6873  1.0551
 1461SOL     OW16018   1.399   3.735   4.122 -0.7560 -0.3627  0.2421
 1461SOL    HW116019   1.409   3.777   4.208  1.4213  0.6833 -0.5157
 1461SOL    HW216020   1.307   3.710   4.121 -1.5718  2.5238  1.5527
 1462SOL     OW16021   4.319   2.979   8.559  0.5552 -0.1043 -0.8264
 1462SOL    HW116022   4.414   2.983   8.561  0.6196 -1.8323 -0.1917
 1462SOL    HW216023   4.301   2.921   8.485  1.4816 -1.4969  0.0434
 1463SOL     OW16024   3.716   4.080   3.923 -0.1591  0.3116  0.4383
 1463SOL    HW116025   3.633   4.050   3.887 -1.4770  3.0403  1.2229
 1463SOL    HW216026   3.778   4.007   3.912 -0.3922  0.3033 -0.8761
 1464SOL     OW16027   1.153   4.502  10.456  0.6822 -0.4285 -0.2274
 1464SOL    HW116028   1.096   4.468  10.525  0.2130 -2.0461 -1.4199
 1464SOL    HW216029   1.099   4.572  10.420  0.8187  0.4937  1.3674
 1465SOL     OW16030   0.683   3.467   1.991 -0.4533 -0.1032 -0.3701
 1465SOL    HW116031   0.598   3.444   2.027  0.8210 -2.6821  0.9640
 1465SOL    HW216032   0.677   3.450   1.897 -0.4403 -2.3853  0.0368
 1466SOL     OW16033   0.821   3.197  17.182 -1.2340 -0.5381  0.4296
 1466SOL    HW116034   0.788   3.210  17.093  2.3637  0.3262 -0.7942
 1466SOL    HW216035   0.867   3.278  17.204  0.3170 -1.9010  2.1918
 1467SOL     OW16036   0.019   0.948   7.631 -0.5502  0.3072 -0.3141
 1467SOL    HW116037   0.027   0.873   7.690 -0.2683  1.3211  0.9194
 1467SOL    HW216038   0.081   0.929   7.560 -0.4367  0.3668 -0.2305
 1468SOL     OW16039   1.804   1.813  10.242 -0.0191  0.3842 -0.0092
 1468SOL    HW116040   1.809   1.867  10.163  0.8858  0.8876  0.3942
 1468SOL    HW216041   1.752   1.865  10.303 -0.6327 -2.8984  2.2761
 1469SOL     OW16042   2.423   0.142   5.263 -0.3566 -0.7808  0.3087
 1469SOL    HW116043   2.431   0.065   5.206 -1.1765  0.7590 -1.8452
 1469SOL    HW216044   2.344   0.179   5.225  0.1602 -0.2967 -0.2985
 1470SOL     OW16045   0.818   4.459   9.505 -0.1570 -0.1939 -0.2362
 1470SOL    HW116046   0.834   4.442   9.598 -0.7444 -2.2113 -0.5013
 1470SOL    HW216047   0.755   4.392   9.477  0.5465 -0.1587 -1.9540
 1471SOL     OW16048   4.203   2.764   8.420  0.5186  0.1251 -0.0642
 1471SOL    HW116049   4.113   2.775   8.391  0.4787 -1.3868 -0.4769
 1471SOL    HW216050   4.221   2.671   8.409  0.2395  0.2100 -1.2316
 1472SOL     OW16051   3.138   2.088   3.125  0.9471 -0.3810  0.9717
 1472SOL    HW116052   3.148   2.151   3.196 -0.4401 -0.6573  1.4031
 1472SOL    HW216053   3.129   2.012   3.183  2.7128  0.2820  2.1259
 1473SOL     OW16054   1.869   0.584   3.183 -0.0596 -0.1377  0.4594
 1473SOL    HW116055   1.951   0.620   3.217 -1.2229  1.0287  2.0322
 1473SOL    HW216056   1.906   0.500   3.154 -3.1109 -1.8464  1.4352
 1474SOL     OW16057   3.700   2.060   7.735  0.1895 -0.1764 -0.0807
 1474SOL    HW116058   3.762   2.072   7.662 -3.0413  1.3282 -2.5826
 1474SOL    HW216059   3.619   2.107   7.715 -0.4391 -1.5104 -0.6654
 1475SOL     OW16060   4.049   3.336  11.505  0.0480  0.1924 -0.1078
 1475SOL    HW116061   4.123   3.334  11.565 -0.3964  0.6527  0.4459
 1475SOL    HW216062   4.047   3.249  11.464 -0.5701  1.1314 -2.0720
 1476SOL     OW16063   0.181   3.884   9.888  0.3854 -0.2177 -0.0840
 1476SOL    HW116064   0.218   3.940   9.957  0.3657  1.7928 -1.6999
 1476SOL    HW216065   0.259   3.854   9.842  0.2863 -1.0264  0.2794
 1477SOL     OW16066   2.665   4.048   6.380 -0.8495  0.4798  0.1154
 1477SOL    HW116067   2.583   4.081   6.417 -1.0218 -0.7165  0.8034
 1477SOL    HW216068   2.692   4.004   6.460  0.2491  1.1680  0.1216
 1478SOL     OW16069   3.514   2.953   2.940  0.2932  0.1331 -1.1094
 1478SOL    HW116070   3.495   2.863   2.915 -0.8611  0.2323 -0.6067
 1478SOL    HW216071   3.534   2.997   2.858  0.6178 -2.0137 -2.1990
 1479SOL     OW16072   2.878   0.201   4.788  0.5279  0.1450  0.6107
 1479SOL    HW116073   2.882   0.126   4.728  0.5892  0.8106 -0.2197
 1479SOL    HW216074   2.950   0.167   4.842  0.8179 -0.2636 -0.0376
 1480SOL     OW16075   1.000   1.491   1.255  0.0164  0.0183  0.1061
 1480SOL    HW116076   1.022   1.567   1.201 -2.1432  0.0364 -0.7406
 1480SOL    HW216077   1.075   1.477   1.313 -0.1142  0.2478  0.3316
 1481SOL     OW16078   1.713   2.119   9.997  0.3951  0.2391  0.2121
 1481SOL    HW116079   1.799   2.081   9.976  0.1503  0.0609 -0.4577
 1481SOL    HW216080   1.658   2.041   9.996  2.0350 -0.9128 -1.9994
 1482SOL     OW16081   0.391   4.141   7.082 -0.3790  0.1666 -0.3802
 1482SOL    HW116082   0.320   4.077   7.081 -1.0585  0.9216 -1.0296
 1482SOL    HW216083   0.350   4.212   7.131  0.9798  1.8181 -1.6145
 1483SOL     OW16084   1.296   3.858   7.713  0.1550 -0.0921  0.0045
 1483SOL    HW116085   1.277   3.949   7.737  1.0234  0.7064 -2.3130
 1483SOL    HW216086   1.368   3.847   7.775  0.1613  2.0957  0.3664
 1484SOL     OW16087   2.751   3.261  17.708  1.2328  0.0700  0.5785
 1484SOL    HW116088   2.757   3.328  17.640  3.9618 -2.2623 -1.4827
 1484SOL    HW216089   2.782   3.184  17.660 -0.7878 -0.2286 -0.2271
 1485SOL     OW16090   3.182   1.577   3.777 -0.3132  0.4087 -0.5950
 1485SOL    HW116091   3.215   1.608   3.861 -1.5843  0.9854 -0.3015
 1485SOL    HW216092   3.166   1.484   3.792  2.4575  0.0630  0.2202
 1486SOL     OW16093   2.880   2.164  17.405  0.4319 -0.4930 -0.2617
 1486SOL    HW116094   2.929   2.085  17.425  0.6564 -0.5311 -0.9607
 1486SOL    HW216095   2.952   2.223  17.385  0.0197 -0.1845 -0.8543
 1487SOL     OW16096   0.896   0.434   8.883 -0.4831  0.0997 -0.1272
 1487SOL    HW116097   0.888   0.492   8.959 -0.8026  1.7687 -1.4292
 1487SOL    HW216098   0.988   0.445   8.857  0.3702 -0.4860  2.5708
 1488SOL     OW16099   0.627   2.642   6.999  0.1296 -0.6336  0.3778
 1488SOL    HW116100   0.573   2.717   6.972  0.3182  0.5258  3.2408
 1488SOL    HW216101   0.690   2.625   6.928 -1.0326 -2.5770 -0.1753
 1489SOL     OW16102   4.410   3.870   7.428 -0.5067 -0.3438 -0.2678
 1489SOL    HW116103   4.337   3.931   7.417 -0.1891 -0.4435 -2.7882
 1489SOL    HW216104   4.451   3.900   7.509 -1.2724  1.0724 -0.4165
 1490SOL     OW16105   3.859   2.625   9.129  0.2134  0.3652  0.7593
 1490SOL    HW116106   3.866   2.597   9.037 -1.9758 -0.9393  0.9822
 1490SOL    HW216107   3.791   2.691   9.130 -1.2153 -1.0941  0.1135
 1491SOL     OW16108   3.055   2.369   5.285 -0.1495  0.2584 -0.1298
 1491SOL    HW116109   3.089   2.432   5.221  1.1908 -0.1917  0.1373
 1491SOL    HW216110   3.056   2.292   5.229 -0.3758 -0.9477  1.5076
 1492SOL     OW16111   1.662   2.337   4.165  0.1584  0.0183  0.4030
 1492SOL    HW116112   1.606   2.374   4.233 -1.3920 -2.5671  0.5083
 1492SOL    HW216113   1.636   2.245   4.166 -0.8216  0.2827 -0.0165
 1493SOL     OW16114   3.977   3.966   4.563  0.0659 -0.0474  0.0225
 1493SOL    HW116115   3.978   3.873   4.587  0.3000 -0.3023 -0.9766
 1493SOL    HW216116   3.906   3.959   4.499  0.8218 -0.8813 -0.7214
 1494SOL     OW16117   2.066   1.167   8.778  0.3978  0.2961  0.4798
 1494SOL    HW116118   2.062   1.189   8.871 -2.7901 -3.9090  1.3296
 1494SOL    HW216119   2.054   1.250   8.731  3.2906  1.2440  1.3843
 1495SOL     OW16120   4.565   2.409   5.861  0.5282 -0.4368 -0.1626
 1495SOL    HW116121   4.499   2.419   5.929 -0.5487  0.1762 -1.2889
 1495SOL    HW216122   4.641   2.395   5.917  2.0364 -0.3771 -2.1689
 1496SOL     OW16123   2.724   1.933   8.839 -0.3278 -0.3480  0.5078
 1496SOL    HW116124   2.662   1.923   8.767  0.4487 -1.7786  0.0560
 1496SOL    HW216125   2.724   2.029   8.839  0.4813 -0.3522  0.5722
 1497SOL     OW16126   0.417   2.558   3.459 -0.6227 -0.4865 -0.1111
 1497SOL    HW116127   0.472   2.609   3.519 -0.8325 -1.1984  0.6764
 1497SOL    HW216128   0.462   2.576   3.376 -0.1368  0.9715  0.4570
 1498SOL     OW16129   4.328   1.892   6.853  0.2548  0.2544 -0.1851
 1498SOL    HW116130   4.298   1.877   6.943 -2.9711 -0.8903 -1.4714
 1498SOL    HW216131   4.339   1.987   6.846  0.4613  0.1714 -0.9172
 1499SOL     OW16132   4.109   1.076   4.417  0.5523 -0.4081 -0.1921
 1499SOL    HW116133   4.059   1.079   4.335 -2.0642 -0.0042  1.4156
 1499SOL    HW216134   4.178   1.017   4.386  1.5990  0.5196  0.3741
 1500SOL     OW16135   1.597   3.477   4.600 -0.0253  0.1360  0.1802
 1500SOL    HW116136   1.588   3.383   4.615  2.1468  0.0796  1.0684
 1500SOL    HW216137   1.532   3.502   4.666 -1.6559  0.3463 -1.4836
 1501SOL     OW16138   3.373   0.777   9.992  0.1122  1.0708  0.2022
 1501SOL    HW116139   3.460   0.760  10.027  1.3020  2.5604 -2.0333
 1501SOL    HW216140   3.321   0.717  10.045 -2.5528  1.5485 -1.8723
 1502SOL     OW16141   3.960   3.625   2.086  0.5060 -0.4628 -0.4488
 1502SOL    HW116142   3.989   3.694   2.026 -2.9788  0.6087 -0.9274
 1502SOL    HW216143   3.951   3.689   2.157  0.9492  0.7673 -1.4988
 1503SOL     OW16144   1.918   2.364  10.682 -0.3029 -0.4784 -0.1554
 1503SOL    HW116145   1.998   2.319  10.710 -0.6692 -1.4450 -0.6516
 1503SOL    HW216146   1.842   2.315  10.715 -0.2397 -0.8072 -0.4997
 1504SOL     OW16147   2.047   4.382   7.627  0.0410  0.1079  0.1892
 1504SOL    HW116148   2.075   4.418   7.543 -2.0777 -2.0276 -1.4096
 1504SOL    HW216149   2.088   4.451   7.681  0.2025 -0.7978  1.2246
 1505SOL     OW16150   2.727   1.040   9.212  0.5226  0.4112 -0.4912
 1505SOL    HW116151   2.747   1.117   9.265  0.7984  0.4565 -0.6618
 1505SOL    HW216152   2.804   0.982   9.216 -1.4354 -2.2283 -0.6784
 1506SOL     OW16153   2.231   3.945   7.007 -0.2000  0.3068  0.1390
 1506SOL    HW116154   2.172   3.896   6.950  1.3955 -0.1996 -1.0697
 1506SOL    HW216155   2.212   3.910   7.094 -0.3307  0.8565  0.3280
 1507SOL     OW16156   2.634   4.525   6.549  0.1522  0.0271  0.4685
 1507SOL    HW116157   2.543   4.496   6.552  0.6179 -1.6827 -2.6386
 1507SOL    HW216158   2.642   4.555   6.458  0.2306  1.5905  0.9801
 1508SOL     OW16159   1.731   0.717   2.604  0.0613  0.6325 -0.2945
 1508SOL    HW116160   1.662   0.781   2.620 -0.0668  0.4826 -0.2588
 1508SOL    HW216161   1.806   0.766   2.569  1.6826 -1.3053  0.4390
 1509SOL     OW16162   3.366   2.890   4.485 -0.7425  0.4429  0.8185
 1509SOL    HW116163   3.300   2.948   4.448 -0.8104  1.0142  1.8415
 1509SOL    HW216164   3.315   2.815   4.517 -0.5869  0.4522  1.0908
 1510SOL     OW16165   0.626   1.470   2.435 -0.3127 -0.5445 -0.3356
 1510SOL    HW116166   0.718   1.446   2.447 -0.2102  0.2687  0.5607
 1510SOL    HW216167   0.594   1.480   2.524  0.0798 -0.4909 -0.1980
 1511SOL     OW16168   1.342   4.149   8.903 -0.0454  0.1853 -0.3829
 1511SOL    HW116169   1.270   4.146   8.839  0.0402 -3.5576 -0.2852
 1511SOL    HW216170   1.397   4.209   8.853 -0.0341  1.1809  0.8315
 1512SOL     OW16171   3.664   0.721   9.855  0.2650 -0.0611  0.0683
 1512SOL    HW116172   3.647   0.727   9.949 -1.3777  1.0566 -0.3018
 1512SOL    HW216173   3.741   0.664   9.858  0.6502  0.5274  1.3588
 1513SOL     OW16174   1.239   3.954   7.048 -0.7252 -0.4026  0.7741
 1513SOL    HW116175   1.207   4.012   6.979  0.7814 -2.4167 -1.6834
 1513SOL    HW216176   1.330   3.984   7.040 -0.9809 -0.2361 -1.6245
 1514SOL     OW16177   4.333   1.239   3.346 -0.5895 -0.2142 -0.4579
 1514SOL    HW116178   4.281   1.159   3.354 -0.1648 -0.6170 -1.7229
 1514SOL    HW216179   4.260   1.293   3.315 -2.0088 -1.2271  1.1607
 1515SOL     OW16180   2.294   3.234   0.735 -0.7941 -0.2252 -0.2160
 1515SOL    HW116181   2.346   3.162   0.771 -0.3365 -0.5136 -1.4573
 1515SOL    HW216182   2.260   3.198   0.653 -0.2478 -1.8925  0.2959
 1516SOL     OW16183   1.712   0.886   8.976  0.2320 -0.2097 -0.0697
 1516SOL    HW116184   1.788   0.892   8.918  0.0298 -0.6853 -0.3853
 1516SOL    HW216185   1.689   0.978   8.991  1.0704  0.0043 -0.1064
 1517SOL     OW16186   1.197   0.226   4.482 -0.3568  0.3413  0.4148
 1517SOL    HW116187   1.239   0.172   4.416  0.4473 -1.1442  2.1369
 1517SOL    HW216188   1.119   0.176   4.507 -0.5914 -0.8799 -2.8346
 1518SOL     OW16189   1.074   2.243   7.923 -0.0902  0.3004  0.6611
 1518SOL    HW116190   1.049   2.336   7.918  1.8127  0.7367 -0.9369
 1518SOL    HW216191   1.151   2.248   7.866  1.3367 -2.2784  2.3792
 1519SOL     OW16192   4.603   0.490   0.438  0.1578  0.1241  0.4350
 1519SOL    HW116193   4.512   0.471   0.464  0.2139  0.4906  0.9023
 1519SOL    HW216194   4.625   0.411   0.388  0.0765  0.4918 -0.1802
 1520SOL     OW16195   3.832   2.804   4.290  0.3192 -0.0658  0.1589
 1520SOL    HW116196   3.879   2.721   4.283  1.8325  0.7671  0.5824
 1520SOL    HW216197   3.793   2.794   4.377 -0.4922 -0.8064 -0.2938
 1521SOL     OW16198   1.136   0.320   3.929 -0.8393 -0.1625 -0.1240
 1521SOL    HW116199   1.068   0.318   3.862 -0.7692 -1.0148 -0.1729
 1521SOL    HW216200   1.116   0.234   3.965  1.2120 -0.0250  1.3566
 1522SOL     OW16201   1.976   0.906   8.137 -0.3705 -0.5778 -0.6631
 1522SOL    HW116202   1.952   0.953   8.057 -1.3643 -2.2384 -1.3407
 1522SOL    HW216203   1.903   0.844   8.138 -0.7567 -0.1005  0.9847
 1523SOL     OW16204   3.913   2.219   9.377  0.6348 -0.1931  0.1487
 1523SOL    HW116205   3.883   2.132   9.402  1.5745 -0.9617 -1.4182
 1523SOL    HW216206   3.835   2.275   9.381  0.6446 -0.3735  2.6252
 1524SOL     OW16207   3.972   0.907   0.868  0.1015  0.6578 -0.2801
 1524SOL    HW116208   3.996   0.887   0.777 -0.4283  1.6418 -0.6400
 1524SOL    HW216209   4.059   0.929   0.902  0.3204 -0.3601 -0.2021
 1525SOL     OW16210   4.538   2.622   6.101 -0.6038  0.7732 -0.3192
 1525SOL    HW116211   4.603   2.613   6.171 -1.7500 -0.8701  0.5583
 1525SOL    HW216212   4.489   2.540   6.110  0.5242  0.1265 -0.0495
 1526SOL     OW16213   4.498   0.003  10.756  0.4874 -0.0362  0.3886
 1526SOL    HW116214   4.561   4.678  10.791  1.5218  0.6043 -0.3135
 1526SOL    HW216215   4.425   4.684  10.735  0.7224 -0.1047 -0.2118
 1527SOL     OW16216   3.200   1.312  14.930 -0.2741  0.0443 -0.1147
 1527SOL    HW116217   3.135   1.254  14.890 -0.1417 -1.4978  1.9567
 1527SOL    HW216218   3.199   1.292  15.023  0.0269 -2.8839 -0.7244
 1528SOL     OW16219   2.072   2.980   5.256 -0.0647 -0.2821  0.0461
 1528SOL    HW116220   2.077   2.994   5.350  1.2341  0.6776 -0.1722
 1528SOL    HW216221   1.980   2.963   5.237  0.0294  0.5097 -1.0923
 1529SOL     OW16222   3.902   2.937  13.190 -0.0811  0.0497  0.7977
 1529SOL    HW116223   3.877   2.900  13.274 -0.2282 -1.7893 -0.0624
 1529SOL    HW216224   3.996   2.943  13.208 -0.5186  1.3499  2.6227
 1530SOL     OW16225   2.601   1.983   6.899  0.7271 -0.4322  0.3150
 1530SOL    HW116226   2.619   2.060   6.845 -1.0900 -2.1655 -2.7869
 1530SOL    HW216227   2.576   1.917   6.835 -0.0490 -0.1177  0.2901
 1531SOL     OW16228   2.931   1.162   2.646  0.2388  0.4395  0.6530
 1531SOL    HW116229   2.855   1.136   2.698  0.4889 -0.3561  0.6150
 1531SOL    HW216230   2.986   1.197   2.717  0.3003  0.4064  0.6219
 1532SOL     OW16231   1.146   0.803  10.561  0.1155 -0.3305  0.1628
 1532SOL    HW116232   1.082   0.779  10.494  0.0938  3.2797 -1.0993
 1532SOL    HW216233   1.203   0.726  10.566 -0.8087 -1.0299 -0.1464
 1533SOL     OW16234   4.302   0.183   5.649  0.1083 -0.1339  0.5302
 1533SOL    HW116235   4.288   0.260   5.593  1.0572 -1.6850 -1.8444
 1533SOL    HW216236   4.224   0.173   5.703 -0.3686  3.0059  0.4484
 1534SOL     OW16237   1.242   2.634   5.100  0.3257 -0.2831 -0.4263
 1534SOL    HW116238   1.157   2.622   5.058 -0.1002  0.8685  0.1377
 1534SOL    HW216239   1.241   2.567   5.168  0.7797 -0.5946 -0.7239
 1535SOL     OW16240   2.094   4.157   5.678  0.3197  0.2335 -0.0221
 1535SOL    HW116241   2.017   4.132   5.627  0.2061 -0.7742  0.6440
 1535SOL    HW216242   2.096   4.251   5.659 -0.6807  0.5560  1.4671
 1536SOL     OW16243   3.540   4.714   6.472 -0.0883 -0.0826 -0.0517
 1536SOL    HW116244   3.480   0.012   6.536 -0.7630 -1.5683  0.1632
 1536SOL    HW216245   3.626   4.731   6.510  0.0131 -0.0080 -0.3171
 1537SOL     OW16246   3.712   2.681   3.919 -0.4102  0.3844 -0.2600
 1537SOL    HW116247   3.685   2.598   3.880  2.2111 -0.8459  0.5361
 1537SOL    HW216248   3.667   2.742   3.861  1.1487  3.7270  2.0456
 1538SOL     OW16249   2.325   4.082  12.716  0.4076 -0.1986 -0.7496
 1538SOL    HW116250   2.330   4.006  12.774 -2.6882 -0.2726 -0.5869
 1538SOL    HW216251   2.415   4.115  12.721  0.7906 -1.4805  0.9227
 1539SOL     OW16252   1.222   2.514   8.147  0.2228  0.2214 -0.3086
 1539SOL    HW116253   1.279   2.567   8.203  2.7512 -2.4336 -0.4115
 1539SOL    HW216254   1.163   2.462   8.202  0.0610  0.8336  0.1040
 1540SOL     OW16255   3.868   1.917   6.789 -0.1469  0.1330  0.0095
 1540SOL    HW116256   3.917   1.952   6.864  1.5668 -0.1792 -0.9672
 1540SOL    HW216257   3.931   1.850   6.764 -1.9930 -0.8542 -1.9729
 1541SOL     OW16258   4.547   2.259  16.794 -0.1272  0.3924 -0.2700
 1541SOL    HW116259   4.607   2.187  16.814  3.2382  3.2104 -0.0393
 1541SOL    HW216260   4.472   2.209  16.762 -0.1045 -0.0312  0.3385
 1542SOL     OW16261   4.301   2.260  12.615 -0.4255  0.7488 -0.0859
 1542SOL    HW116262   4.286   2.351  12.641  1.4765  0.3080  2.6139
 1542SOL    HW216263   4.214   2.221  12.610  0.1217 -0.6506  1.1662
 1543SOL     OW16264   2.621   1.771   7.091  0.6940  0.1504  0.0101
 1543SOL    HW116265   2.625   1.698   7.029  0.9702 -2.4106  3.0409
 1543SOL    HW216266   2.656   1.841   7.036 -1.7973  0.3335 -1.3002
 1544SOL     OW16267   0.057   3.831   4.724 -0.0624  0.1280  0.4317
 1544SOL    HW116268   4.734   3.833   4.651 -0.8288  1.6525  1.1095
 1544SOL    HW216269   0.115   3.907   4.712  0.3472 -0.1675  0.5684
 1545SOL     OW16270   1.128   2.970  14.238  0.1997  0.0229 -0.1683
 1545SOL    HW116271   1.114   2.877  14.254  0.7143 -0.0263 -0.0122
 1545SOL    HW216272   1.127   3.006  14.327 -4.0419  0.4287 -0.3977
 1546SOL     OW16273   0.333   2.255   2.639 -0.3761 -0.6104 -0.2129
 1546SOL    HW116274   0.411   2.213   2.602 -0.0742  0.1664 -0.4732
 1546SOL    HW216275   0.294   2.295   2.561 -0.4413  1.4618  0.8697
 1547SOL     OW16276   4.603   2.168   4.532 -0.6159  0.3823 -0.2073
 1547SOL    HW116277   4.617   2.259   4.558  0.0108 -0.0358  0.9114
 1547SOL    HW216278   4.566   2.169   4.444 -0.5093  1.0521 -0.2486
 1548SOL     OW16279   3.171   3.924   1.126 -0.2990 -0.2303  0.2103
 1548SOL    HW116280   3.087   3.901   1.086 -0.5050 -0.6990  0.9177
 1548SOL    HW216281   3.212   3.969   1.052 -0.9233  0.0147  0.0163
 1549SOL     OW16282   4.264   4.210  10.181 -0.3500  0.3522 -0.1281
 1549SOL    HW116283   4.287   4.144  10.116  0.0502  1.1433 -0.8016
 1549SOL    HW216284   4.171   4.222  10.162 -0.3415  0.5594 -0.0450
 1550SOL     OW16285   0.507   3.529   8.945  0.3546 -0.3633  0.6990
 1550SOL    HW116286   0.585   3.584   8.945 -1.7733  2.6657 -0.1986
 1550SOL    HW216287   0.554   3.451   8.976  0.4894 -1.0552 -1.2761
 1551SOL     OW16288   3.749   3.898   4.365  0.1396  0.1539  0.1124
 1551SOL    HW116289   3.741   3.955   4.289  0.1031 -1.0760 -0.8039
 1551SOL    HW216290   3.657   3.898   4.392  0.4435 -1.3549  1.1829
 1552SOL     OW16291   1.417   4.623  16.454 -0.0999  0.1714 -0.1778
 1552SOL    HW116292   1.432   4.700  16.398 -0.5654  0.5915  0.2698
 1552SOL    HW216293   1.472   4.560  16.408  0.6512  2.3128 -2.2081
 1553SOL     OW16294   1.418   4.474  12.369 -0.0643  0.0158  0.1896
 1553SOL    HW116295   1.428   4.432  12.283  0.5826  0.8499 -0.1350
 1553SOL    HW216296   1.463   4.410  12.424  0.2043 -2.1865 -2.5811
 1554SOL     OW16297   2.908   0.994   8.788  0.2819  0.2232  0.0406
 1554SOL    HW116298   2.991   0.978   8.743  0.9978 -1.6824  2.0136
 1554SOL    HW216299   2.880   0.903   8.795 -1.6993  0.7554 -0.9793
 1555SOL     OW16300   4.295   0.511  10.769  0.3719 -0.2987 -0.0735
 1555SOL    HW116301   4.224   0.454  10.798 -0.3254  0.7567  0.3353
 1555SOL    HW216302   4.330   0.468  10.691  1.4691  0.9540 -0.2687
 1556SOL     OW16303   0.572   1.606   8.183  0.3754 -0.1899 -0.4237
 1556SOL    HW116304   0.482   1.572   8.174 -0.9518  3.7721 -2.1511
 1556SOL    HW216305   0.602   1.605   8.273  2.4916  1.4358 -1.1191
 1557SOL     OW16306   1.936   0.963   7.695  0.0486  0.4710  0.0417
 1557SOL    HW116307   1.853   0.916   7.687 -0.8538  1.7903  1.7168
 1557SOL    HW216308   1.990   0.909   7.637  0.7940  1.7885 -0.4969
 1558SOL     OW16309   1.581   3.368   8.163 -0.1110 -0.3349 -0.2928
 1558SOL    HW116310   1.669   3.352   8.196  0.4230  0.6086 -1.2552
 1558SOL    HW216311   1.527   3.348   8.239 -0.4582 -1.0948 -0.7381
 1559SOL     OW16312   2.877   1.921   6.367 -0.0330  0.9323 -0.2697
 1559SOL    HW116313   2.870   2.015   6.351  0.4068  0.7457 -1.5577
 1559SOL    HW216314   2.810   1.885   6.308  0.7348 -0.1181 -0.4944
 1560SOL     OW16315   1.866   4.353   3.949 -0.0946 -0.2754  0.4261
 1560SOL    HW116316   1.892   4.276   4.000  0.4363 -1.0622 -1.0217
 1560SOL    HW216317   1.952   4.371   3.910 -0.0196 -0.1473  0.6529
 1561SOL     OW16318   0.162   2.346  14.045 -0.0687 -0.1019  0.3634
 1561SOL    HW116319   0.129   2.414  13.985  1.3300  0.3363  0.0880
 1561SOL    HW216320   0.103   2.271  14.034 -0.3080  0.0340  0.7444
 1562SOL     OW16321   3.071   0.912   6.729 -0.3816  0.4945  0.3421
 1562SOL    HW116322   3.141   0.977   6.731 -0.5787  0.6634  1.8370
 1562SOL    HW216323   3.120   0.844   6.683 -0.3876  0.5839  0.2051
 1563SOL     OW16324   3.517   1.510  10.338  0.2550 -0.2059 -0.1136
 1563SOL    HW116325   3.532   1.426  10.382  0.2545 -0.3771 -0.4428
 1563SOL    HW216326   3.537   1.582  10.398 -0.2920  0.2236 -0.4437
 1564SOL     OW16327   0.152   0.030   4.011  0.5530 -0.3774 -0.6719
 1564SOL    HW116328   0.060   0.006   4.024  0.6922 -0.9689 -0.7897
 1564SOL    HW216329   0.191   4.695   3.964  2.9483  0.0817  0.6403
 1565SOL     OW16330   4.510   0.041   5.510 -0.3213 -0.4980 -0.4841
 1565SOL    HW116331   4.451   0.014   5.440  1.2266 -2.2481 -1.1347
 1565SOL    HW216332   4.454   0.099   5.561 -0.4917 -1.1476  0.0710
 1566SOL     OW16333   1.256   2.381   7.094 -0.1119  0.1192 -0.7592
 1566SOL    HW116334   1.182   2.390   7.034  0.0280 -2.2313 -1.2815
 1566SOL    HW216335   1.233   2.456   7.149  1.7558 -0.8112  1.3027
 1567SOL     OW16336   3.072   1.965   4.934  0.1659 -0.7929 -0.6333
 1567SOL    HW116337   3.054   1.872   4.921 -0.7858 -1.0481  2.6079
 1567SOL    HW216338   3.131   1.981   4.860  0.2953  0.4461 -0.2775
 1568SOL     OW16339   0.823   2.979   4.000  0.0433 -0.3088 -0.2556
 1568SOL    HW116340   0.908   2.982   4.044 -0.7404  1.0737  1.1927
 1568SOL    HW216341   0.827   2.901   3.945  0.2263  0.3865 -1.2280
 1569SOL     OW16342   2.016   1.473   8.725  0.1622  0.0386  0.5261
 1569SOL    HW116343   2.000   1.501   8.815 -1.0616  1.0375 -0.0068
 1569SOL    HW216344   2.105   1.505   8.711  0.4220  0.8949  4.0488
 1570SOL     OW16345   0.606   1.233   6.207 -0.1700 -0.4282 -0.2990
 1570SOL    HW116346   0.645   1.169   6.266  0.6429 -0.8955 -1.3465
 1570SOL    HW216347   0.513   1.208   6.209 -0.1837 -0.5081 -2.1489
 1571SOL     OW16348   0.700   3.629   4.561 -0.5709 -0.1126  0.0699
 1571SOL    HW116349   0.650   3.709   4.577  1.3080  0.9072  0.8418
 1571SOL    HW216350   0.753   3.620   4.641  0.9671  1.8185 -0.7394
 1572SOL     OW16351   2.502   4.367   6.176 -0.6355 -0.2693 -0.3324
 1572SOL    HW116352   2.420   4.328   6.209 -0.2231  0.3381  1.3980
 1572SOL    HW216353   2.553   4.292   6.145  1.6717  0.6809  1.1770
 1573SOL     OW16354   0.675   1.024   1.806  0.4211 -0.8810  0.0890
 1573SOL    HW116355   0.717   1.083   1.742 -0.6874  1.9521  1.9524
 1573SOL    HW216356   0.620   1.089   1.849  0.9830 -1.1643  1.2145
 1574SOL     OW16357   2.540   4.543   9.286  0.0715  0.0809 -0.3524
 1574SOL    HW116358   2.520   4.475   9.221  1.3100  0.3153 -0.9918
 1574SOL    HW216359   2.455   4.569   9.320 -0.7803 -0.8546 -1.7782
 1575SOL     OW16360   1.378   2.321  10.069 -0.3065  0.1360  0.4377
 1575SOL    HW116361   1.387   2.396  10.127 -0.5730 -0.0060  0.6644
 1575SOL    HW216362   1.284   2.306  10.083 -0.3602  0.9387  0.9316
 1576SOL     OW16363   3.486   1.788  10.234  0.1274 -0.0967  0.0939
 1576SOL    HW116364   3.579   1.810  10.240 -0.1950  0.6953  2.3984
 1576SOL    HW216365   3.488   1.720  10.167 -2.3820 -1.3996  1.3675
 1577SOL     OW16366   3.521   3.290   7.353  0.5332 -0.5303  0.3658
 1577SOL    HW116367   3.565   3.205   7.349  0.7073 -0.2981 -2.6640
 1577SOL    HW216368   3.481   3.273   7.438 -1.6941  0.5515 -0.4656
 1578SOL     OW16369   1.578   0.327   3.330 -0.1348 -0.1350  0.3797
 1578SOL    HW116370   1.603   0.331   3.238  0.0289  0.4914  0.4478
 1578SOL    HW216371   1.583   0.233   3.350  1.2470 -0.3278 -0.8236
 1579SOL     OW16372   1.378   2.842   9.687 -0.1216 -0.3480 -0.0002
 1579SOL    HW116373   1.415   2.820   9.602 -0.4260  1.7128 -0.6704
 1579SOL    HW216374   1.456   2.861   9.739 -0.9181 -0.4325  1.2347
 1580SOL     OW16375   2.210   2.726   1.784  1.0248 -0.1960 -0.1005
 1580SOL    HW116376   2.250   2.708   1.699  0.0296 -1.3423 -0.3282
 1580SOL    HW216377   2.178   2.815   1.771  0.1293 -0.5202 -0.1207
 1581SOL     OW16378   2.040   4.147  14.159  0.2069 -0.2097  0.0204
 1581SOL    HW116379   2.080   4.222  14.202 -0.9730 -0.0996  0.9358
 1581SOL    HW216380   1.952   4.141  14.198 -0.2355 -0.0995 -0.9577
 1582SOL     OW16381   0.609   0.742  16.450  0.2624  0.0650 -0.1020
 1582SOL    HW116382   0.514   0.730  16.445  0.1992 -0.0682  1.3048
 1582SOL    HW216383   0.631   0.770  16.361 -4.2132  1.1714 -0.8630
 1583SOL     OW16384   3.400   1.769  13.114  0.7281 -0.2123  0.5652
 1583SOL    HW116385   3.321   1.786  13.166  2.3112 -1.2412  3.3008
 1583SOL    HW216386   3.370   1.759  13.024 -1.0871 -1.2154  1.2698
 1584SOL     OW16387   1.248   3.628   8.062 -0.0496 -0.3259  0.1561
 1584SOL    HW116388   1.160   3.623   8.098 -0.9108 -0.1488 -1.9211
 1584SOL    HW216389   1.282   3.711   8.095  1.0542 -0.3163 -1.0064
 1585SOL     OW16390   0.504   0.340   4.444  0.0038 -0.6183  0.2603
 1585SOL    HW116391   0.463   0.354   4.529  0.3766  0.3931  0.2677
 1585SOL    HW216392   0.544   0.256   4.465  1.9195 -0.2749 -2.0466
 1586SOL     OW16393   4.378   2.490  12.951 -0.8082 -0.2223  0.3772
 1586SOL    HW116394   4.368   2.412  13.005 -1.0964 -0.9678 -0.7625
 1586SOL    HW216395   4.298   2.535  12.978  0.4091  1.2511  1.5814
 1587SOL     OW16396   3.700   0.549   0.303  0.2258  0.6358 -0.6193
 1587SOL    HW116397   3.730   0.459   0.289 -0.1157  0.4575 -0.2081
 1587SOL    HW216398   3.767   0.607   0.339 -1.6977  1.9367  0.8787
 1588SOL     OW16399   1.874   2.190   6.527 -0.6198  0.1479 -0.3571
 1588SOL    HW116400   1.782   2.168   6.511 -0.1116 -1.3738 -1.2341
 1588SOL    HW216401   1.889   2.160   6.617 -0.1348  3.0115  0.5204
 1589SOL     OW16402   1.739   1.592   4.462  0.3269 -0.4040  0.3830
 1589SOL    HW116403   1.767   1.569   4.550  2.3394  1.5121  0.2440
 1589SOL    HW216404   1.776   1.529   4.400 -0.2645 -0.4938  0.1148
 1590SOL     OW16405   4.230   1.928  12.212 -0.0121  0.2380 -0.2188
 1590SOL    HW116406   4.267   2.001  12.261 -1.3285  0.6630  0.1268
 1590SOL    HW216407   4.146   1.972  12.207 -0.1531 -0.0455 -0.3355
 1591SOL     OW16408   0.476   4.722  16.289 -0.3142 -0.3397  0.2222
 1591SOL    HW116409   0.510   0.023  16.368  1.6578 -1.5893  0.0057
 1591SOL    HW216410   0.462   0.063  16.238 -0.7697  0.7688  2.1053
 1592SOL     OW16411   3.060   0.073  10.480 -0.4362 -0.1137 -0.7597
 1592SOL    HW116412   2.988   0.068  10.543 -0.1662  0.9772 -0.3639
 1592SOL    HW216413   3.034   0.003  10.420  0.7934 -0.5522 -0.7784
 1593SOL     OW16414   2.754   1.964   6.640 -0.4233  0.0695 -0.3808
 1593SOL    HW116415   2.776   1.982   6.548  1.7689  1.0098  0.3479
 1593SOL    HW216416   2.738   2.055   6.663 -0.0512  0.0252  0.0433
 1594SOL     OW16417   4.470   3.229   8.733  0.2645  0.0508 -0.0919
 1594SOL    HW116418   4.422   3.268   8.806  0.4989  2.7563 -1.3638
 1594SOL    HW216419   4.516   3.161   8.781  0.5472 -2.2151 -3.5665
 1595SOL     OW16420   4.074   0.187   5.790 -0.4012 -0.7862 -0.1887
 1595SOL    HW116421   4.025   0.269   5.780  1.2054  0.1750 -0.0439
 1595SOL    HW216422   4.021   0.149   5.860 -1.9730  1.0022 -0.4074
 1596SOL     OW16423   3.257   3.843   6.353  0.5040  0.0926 -0.6392
 1596SOL    HW116424   3.336   3.871   6.400  1.0801  0.1807 -1.6583
 1596SOL    HW216425   3.191   3.852   6.421  1.5502  2.5892  0.0332
 1597SOL     OW16426   3.447   2.193   8.247  0.3450  0.2435  0.0180
 1597SOL    HW116427   3.531   2.233   8.267  0.8270 -0.4358 -0.6323
 1597SOL    HW216428   3.420   2.162   8.334  0.1053  2.4942  0.7352
 1598SOL     OW16429   4.388   3.420  12.103 -0.5011  0.0760 -0.4836
 1598SOL    HW116430   4.482   3.430  12.088 -0.5725  1.5121 -0.0015
 1598SOL    HW216431   4.379   3.342  12.158 -1.4813 -1.7954 -3.2834
 1599SOL     OW16432   2.569   2.263  17.537  0.6577 -0.3360 -0.2199
 1599SOL    HW116433   2.609   2.335  17.586 -0.9314 -0.3889  1.1594
 1599SOL    HW216434   2.602   2.271  17.447  1.1483 -1.9719 -0.1895
 1600SOL     OW16435   2.657   2.947   0.995  0.0120  0.2320 -0.2520
 1600SOL    HW116436   2.587   2.893   1.030 -0.2017  0.9915  0.4714
 1600SOL    HW216437   2.612   3.001   0.930 -1.7088  0.0284  0.7731
 1601SOL     OW16438   4.618   3.555  11.177 -0.6540  0.3684  0.1599
 1601SOL    HW116439   4.592   3.648  11.174  1.3842  0.9040 -0.7299
 1601SOL    HW216440   4.547   3.523  11.233  0.9701 -1.1123  1.3693
 1602SOL     OW16441   2.350   4.730  14.188  0.1781 -0.0308 -0.0064
 1602SOL    HW116442   2.259   0.019  14.194 -1.3779 -5.1858  0.7400
 1602SOL    HW216443   2.402   0.071  14.197 -0.3918  0.5456 -1.7374
 1603SOL     OW16444   4.079   0.224  11.474  0.3487 -0.0269 -0.6983
 1603SOL    HW116445   4.049   0.306  11.435  1.5689 -0.0022 -1.5843
 1603SOL    HW216446   4.138   0.261  11.539 -0.7484  1.6830 -0.7051
 1604SOL     OW16447   2.210   2.753   3.140 -0.1045  0.8398 -0.5837
 1604SOL    HW116448   2.299   2.767   3.172 -0.5390  1.4162  0.3639
 1604SOL    HW216449   2.219   2.777   3.047 -0.2875  2.8241 -0.0847
 1605SOL     OW16450   2.151   3.675   3.907 -0.1579  0.3789 -0.0014
 1605SOL    HW116451   2.099   3.600   3.879 -1.6528  1.0766  0.9081
 1605SOL    HW216452   2.157   3.724   3.825 -0.6732 -0.7316 -0.7021
 1606SOL     OW16453   0.659   1.062  14.614  0.2602  0.0792 -0.1839
 1606SOL    HW116454   0.593   1.130  14.597 -2.5919 -2.4003  0.9389
 1606SOL    HW216455   0.666   1.060  14.709 -2.0158 -0.6061 -0.0161
 1607SOL     OW16456   1.138   4.555   1.051 -0.0456  0.0084 -0.1236
 1607SOL    HW116457   1.188   4.529   1.129  0.3054 -0.9111 -0.6610
 1607SOL    HW216458   1.055   4.510   1.063 -1.9021  3.5347  0.1635
 1608SOL     OW16459   3.028   2.238   7.603  0.0845  0.2049  0.0558
 1608SOL    HW116460   3.046   2.149   7.634 -0.2358 -0.0190 -0.4004
 1608SOL    HW216461   2.960   2.208   7.542 -0.3769  1.0550  0.1644
 1609SOL     OW16462   3.886   4.042   1.854 -0.0265 -0.3368 -0.0826
 1609SOL    HW116463   3.897   4.113   1.792 -0.9496 -0.1218 -0.0115
 1609SOL    HW216464   3.805   4.072   1.896 -0.4309 -0.5317 -0.7131
 1610SOL     OW16465   3.967   3.534   5.603  0.5035  0.4706 -0.0806
 1610SOL    HW116466   3.905   3.606   5.588 -0.6069 -0.6166 -0.6722
 1610SOL    HW216467   3.976   3.534   5.698 -0.7200 -1.2309  0.0272
 1611SOL     OW16468   1.808   0.909   3.449 -0.4092 -0.5052  0.1156
 1611SOL    HW116469   1.750   0.838   3.421  0.0966 -0.5733 -0.7438
 1611SOL    HW216470   1.757   0.921   3.529 -0.6812 -0.2992 -0.0918
 1612SOL     OW16471   4.427   2.648   9.165  0.0294  0.4831 -0.6509
 1612SOL    HW116472   4.406   2.567   9.118 -0.4168 -1.0048  2.1218
 1612SOL    HW216473   4.444   2.718   9.101 -0.0466  2.1094  1.1152
 1613SOL     OW16474   4.696   1.922   6.037  0.1558 -0.6400 -0.3099
 1613SOL    HW116475   0.020   1.986   6.073  0.0317 -0.6459 -0.0854
 1613SOL    HW216476   0.003   1.921   5.953  0.1319 -0.0492 -0.3327
 1614SOL     OW16477   3.384   0.297   8.704  0.2045  0.0021  0.7303
 1614SOL    HW116478   3.365   0.221   8.759 -0.5377 -1.1803 -1.1319
 1614SOL    HW216479   3.402   0.252   8.622  0.1833 -0.1993  0.8366
 1615SOL     OW16480   2.226   3.007  17.574 -0.4216 -0.1567  0.0171
 1615SOL    HW116481   2.170   3.051  17.638 -1.3150  1.2387 -1.6773
 1615SOL    HW216482   2.162   3.006  17.502  0.3275 -2.5331 -0.6123
 1616SOL     OW16483   0.253   0.452   9.232  0.0041 -0.0945  0.2271
 1616SOL    HW116484   0.202   0.473   9.310  0.2275  0.5699  0.1925
 1616SOL    HW216485   0.263   0.358   9.247 -1.0476 -0.5846 -2.0939
 1617SOL     OW16486   2.963   2.931  10.509  0.0974  0.3991 -0.1582
 1617SOL    HW116487   2.887   2.977  10.473  0.0757 -0.6887 -1.5110
 1617SOL    HW216488   3.003   2.986  10.577  0.6815 -0.4597  0.1940
 1618SOL     OW16489   1.875   1.964   5.190  0.4794 -0.1193 -0.4513
 1618SOL    HW116490   1.840   2.002   5.271 -0.0198  1.2881 -1.3339
 1618SOL    HW216491   1.818   1.890   5.166  0.7259 -1.0657  1.9019
 1619SOL     OW16492   0.912   2.867   7.096 -0.2320  0.2850 -0.2007
 1619SOL    HW116493   0.919   2.858   7.192  1.0587 -1.4254 -0.4574
 1619SOL    HW216494   0.949   2.955   7.093 -2.5113  1.2668  0.2789
 1620SOL     OW16495   2.547   0.531   2.092 -0.5798 -0.4070 -0.0785
 1620SOL    HW116496   2.519   0.621   2.107 -0.7971 -0.7227  1.4419
 1620SOL    HW216497   2.561   0.495   2.180  0.5197  1.1837  0.4160
 1621SOL     OW16498   4.553   0.340  17.745 -0.4632  0.3341  0.1574
 1621SOL    HW116499   4.608   0.276  17.701 -2.1656 -0.7647 -0.3567
 1621SOL    HW216500   4.501   0.276   0.040  1.5038 -0.2289  1.5693
 1622SOL     OW16501   4.406   2.216  10.429  0.2380 -0.2759  0.5731
 1622SOL    HW116502   4.381   2.188  10.518  0.4283 -1.6291  0.1961
 1622SOL    HW216503   4.321   2.202  10.388  0.5137  1.5068 -0.5683
 1623SOL     OW16504   4.651   2.844   4.212  0.2630 -0.3232  0.9053
 1623SOL    HW116505   0.000   2.858   4.246 -0.1203  1.4918  1.1306
 1623SOL    HW216506   4.673   2.854   4.119  0.2195 -1.9469  0.7179
 1624SOL     OW16507   4.143   3.958   1.640 -0.4128  0.2748 -0.1945
 1624SOL    HW116508   4.058   3.950   1.598 -0.3401 -0.4041 -0.2189
 1624SOL    HW216509   4.208   3.963   1.570  1.1769  1.8118  1.4137
 1625SOL     OW16510   3.303   1.432  17.086 -0.4090 -0.3442  0.0427
 1625SOL    HW116511   3.237   1.489  17.126 -0.8509  0.6483 -2.1033
 1625SOL    HW216512   3.262   1.412  17.002 -0.9275 -0.1675  0.2551
 1626SOL     OW16513   3.942   1.606   6.991  0.5717  0.3482 -0.3134
 1626SOL    HW116514   4.014   1.568   7.041 -0.2155  0.5459  0.9843
 1626SOL    HW216515   3.881   1.628   7.062  1.0762  0.1808  0.1700
 1627SOL     OW16516   4.479   0.850   2.951  0.0677  0.0612 -0.6470
 1627SOL    HW116517   4.547   0.871   3.016  0.2683 -0.5618 -0.6544
 1627SOL    HW216518   4.482   0.755   2.941 -0.6944  0.3904 -3.8591
 1628SOL     OW16519   0.664   3.537   7.756 -0.1156 -0.0657  0.3014
 1628SOL    HW116520   0.681   3.515   7.665  2.4346 -1.4859  1.1137
 1628SOL    HW216521   0.707   3.470   7.809  0.0835 -0.4733 -0.3805
 1629SOL     OW16522   2.862   4.425   9.484  0.0123 -0.3981  0.8209
 1629SOL    HW116523   2.854   4.409   9.390 -2.3893  0.4597  0.8957
 1629SOL    HW216524   2.814   4.508   9.489  1.1087  0.1750  1.8854
 1630SOL     OW16525   1.000   3.014   6.443  0.2836 -0.0786  0.1530
 1630SOL    HW116526   1.019   2.921   6.452  2.8193  0.4027 -0.3102
 1630SOL    HW216527   0.909   3.018   6.473  0.1094  0.3721 -0.4414
 1631SOL     OW16528   1.252   0.187   2.545  0.0956  0.4737  0.0304
 1631SOL    HW116529   1.280   0.109   2.498  2.5574  0.1362  2.0680
 1631SOL    HW216530   1.233   0.152   2.632 -0.4708 -0.2143 -0.3779
 1632SOL     OW16531   4.509   1.174   3.025  0.0759  0.1273 -0.1480
 1632SOL    HW116532   4.486   1.100   3.081  2.3611  0.9733  1.9094
 1632SOL    HW216533   4.589   1.206   3.066 -0.4882  1.2471  0.0577
 1633SOL     OW16534   4.102   3.063  17.025  0.0299  0.5838 -0.1945
 1633SOL    HW116535   4.053   3.065  17.107 -0.9368  0.3839 -0.7700
 1633SOL    HW216536   4.156   2.985  17.040 -0.5717 -0.1827 -1.9905
 1634SOL     OW16537   1.859   1.386   7.076  0.6895  0.3583 -0.4210
 1634SOL    HW116538   1.773   1.397   7.035 -0.3433 -1.0130  1.3533
 1634SOL    HW216539   1.831   1.390   7.167 -0.5846  1.0785 -0.8471
 1635SOL     OW16540   0.235   3.168   0.828 -0.3762 -0.2105 -0.1201
 1635SOL    HW116541   0.261   3.240   0.771  2.1711  1.1892  2.8530
 1635SOL    HW216542   0.302   3.105   0.802 -1.2923 -0.9079 -0.8156
 1636SOL     OW16543   2.342   3.047   7.603  0.1275 -0.2471 -0.1307
 1636SOL    HW116544   2.358   3.052   7.509  1.0952  0.9977  0.0934
 1636SOL    HW216545   2.430   3.060   7.639  0.6899 -1.2088 -1.1733
 1637SOL     OW16546   4.257   0.574   6.844 -0.2741 -0.7845  0.2384
 1637SOL    HW116547   4.228   0.633   6.774 -1.5065  0.6697  1.9651
 1637SOL    HW216548   4.204   0.617   6.911  0.2151 -0.4206  0.3971
 1638SOL     OW16549   1.521   3.585   7.991 -0.5485  0.0720  0.0796
 1638SOL    HW116550   1.521   3.506   8.046 -0.7022  0.3723  0.5094
 1638SOL    HW216551   1.429   3.610   7.985 -0.3362  0.5583 -1.1288
 1639SOL     OW16552   4.363   0.092   3.002 -0.0438 -0.5167 -0.3014
 1639SOL    HW116553   4.403   0.129   2.924 -1.7300  2.2713  0.1420
 1639SOL    HW216554   4.356   4.738   2.979 -2.8006 -0.8702  1.8806
 1640SOL     OW16555   3.511   3.937   8.681  0.1829  0.4806 -0.2792
 1640SOL    HW116556   3.421   3.966   8.692 -0.3992 -1.9823  1.5480
 1640SOL    HW216557   3.542   3.995   8.612 -2.5185  2.2683  0.0658
 1641SOL     OW16558   2.904   4.644  16.023 -0.1588 -0.6048  0.5772
 1641SOL    HW116559   2.900   4.564  15.971  0.7595 -0.5627  0.4503
 1641SOL    HW216560   2.996   4.667  16.014 -0.0417 -1.0305  0.6601
 1642SOL     OW16561   1.406   3.008  14.657 -0.1679 -0.4586 -0.5396
 1642SOL    HW116562   1.452   2.929  14.630 -0.0019  0.1208 -1.9502
 1642SOL    HW216563   1.325   2.985  14.612 -0.7317 -0.2708  0.3848
 1643SOL     OW16564   0.678   1.377   5.616 -0.0739  0.2241 -0.2145
 1643SOL    HW116565   0.608   1.430   5.578 -1.3840  0.1205  2.0711
 1643SOL    HW216566   0.622   1.301   5.631  0.1654 -0.2844 -1.8956
 1644SOL     OW16567   2.519   3.272   7.921 -0.2468  0.6278 -0.4083
 1644SOL    HW116568   2.547   3.294   7.832  0.3419  0.7997 -0.1824
 1644SOL    HW216569   2.452   3.207   7.899 -1.7123  1.4479  1.6049
 1645SOL     OW16570   0.778   2.455   8.898  0.8156 -0.6173 -0.3059
 1645SOL    HW116571   0.743   2.414   8.819  2.4263 -2.0348 -0.2782
 1645SOL    HW216572   0.698   2.473   8.947  2.0098  1.3055  0.9421
 1646SOL     OW16573   4.534   1.757   1.337 -0.5890 -0.1324 -0.2118
 1646SOL    HW116574   4.606   1.715   1.289 -2.1729  1.4146 -3.9916
 1646SOL    HW216575   4.550   1.713   1.420 -0.2197 -0.6312 -0.5473
 1647SOL     OW16576   1.863   0.469   9.302 -0.3499 -0.1329 -0.0760
 1647SOL    HW116577   1.875   0.547   9.248 -2.9056  0.2976 -0.0344
 1647SOL    HW216578   1.918   0.407   9.255  1.1682  0.9415  0.2864
 1648SOL     OW16579   0.387   0.376   4.683 -0.2202  0.4269 -0.4143
 1648SOL    HW116580   0.310   0.415   4.725 -1.5556 -1.4703 -1.1154
 1648SOL    HW216581   0.424   0.322   4.754  0.8140  1.5136 -0.1441
 1649SOL     OW16582   0.103   0.609   3.968  0.0638  0.5649  0.0108
 1649SOL    HW116583   0.065   0.563   4.042 -1.3020  0.3740 -0.8252
 1649SOL    HW216584   0.129   0.694   4.005  2.1880 -0.8306  1.8151
 1650SOL     OW16585   0.491   4.576   0.005  0.3037 -0.3490 -0.2855
 1650SOL    HW116586   0.411   4.560   0.056  0.5447  0.6842  0.4271
 1650SOL    HW216587   0.467   4.596  17.667  0.0339  1.0970  0.1022
 1651SOL     OW16588   2.173   3.315   7.805 -0.0340  0.8530 -0.3317
 1651SOL    HW116589   2.194   3.228   7.837 -3.2595  0.1649 -0.0984
 1651SOL    HW216590   2.105   3.305   7.738 -0.7797  0.4417  0.4921
 1652SOL     OW16591   3.858   2.922   6.027 -0.1725  0.3621  0.1893
 1652SOL    HW116592   3.916   2.996   6.009 -0.9701  0.5601 -1.4621
 1652SOL    HW216593   3.794   2.940   5.960  3.4207  1.5450 -2.9292
 1653SOL     OW16594   2.867   0.553  11.977 -0.0682  0.2240  0.0536
 1653SOL    HW116595   2.896   0.578  11.890 -0.7839  1.3281  0.1254
 1653SOL    HW216596   2.949   0.537  12.022 -1.1375 -1.6641  1.3473
 1654SOL     OW16597   0.212   4.496   8.136  0.8371 -0.0784  0.4237
 1654SOL    HW116598   0.303   4.511   8.111  0.4450  3.0023  0.8392
 1654SOL    HW216599   0.207   4.546   8.217  1.3928  0.6059  0.0325
 1655SOL     OW16600   3.146   1.555   4.968  0.0266 -0.6781  0.2286
 1655SOL    HW116601   3.234   1.590   4.951  0.5379 -2.1624 -0.1752
 1655SOL    HW216602   3.167   1.483   5.027  1.3824 -1.3889 -1.1398
 1656SOL     OW16603   1.364   4.162   9.661  0.5441  0.7870  0.0950
 1656SOL    HW116604   1.366   4.066   9.661 -1.3258  0.7464 -0.6961
 1656SOL    HW216605   1.451   4.185   9.694  1.3495  0.5175 -1.8422
 1657SOL     OW16606   4.683   2.199   0.642  0.0307  0.0793  0.1756
 1657SOL    HW116607   4.694   2.289   0.673 -3.7426  0.1457  1.2723
 1657SOL    HW216608   4.644   2.220   0.557  0.6233 -2.9496 -0.8342
 1658SOL     OW16609   1.979   1.574   3.732 -0.7982 -0.6853  0.6628
 1658SOL    HW116610   2.004   1.522   3.808 -1.8114 -1.2387  0.6173
 1658SOL    HW216611   2.016   1.657   3.761  0.2537 -0.8921 -0.0934
 1659SOL     OW16612   3.858   3.537   5.094  0.1509 -0.0548  0.5926
 1659SOL    HW116613   3.927   3.511   5.156 -0.3012 -0.2363  1.0190
 1659SOL    HW216614   3.788   3.521   5.157  1.6361 -0.2201  2.2075
 1660SOL     OW16615   2.985   4.273   4.920  0.1114  0.3024  0.0035
 1660SOL    HW116616   3.039   4.326   4.861  0.3563 -0.2307 -0.2602
 1660SOL    HW216617   2.915   4.336   4.933  1.0700  1.4800 -0.5908
 1661SOL     OW16618   0.848   0.355   6.236 -0.2547  0.0803 -0.1943
 1661SOL    HW116619   0.888   0.316   6.313  1.7396 -0.2534 -1.4120
 1661SOL    HW216620   0.848   0.278   6.179  1.4891 -0.4398  0.5317
 1662SOL     OW16621   2.372   0.596  11.833 -0.2816 -0.0446  0.2341
 1662SOL    HW116622   2.325   0.515  11.851 -1.4330  0.3160 -1.1388
 1662SOL    HW216623   2.453   0.582  11.883 -0.9334 -0.8716  1.0365
 1663SOL     OW16624   2.050   3.925  13.709  0.0214  0.3518 -0.6133
 1663SOL    HW116625   1.965   3.964  13.692  1.4009  4.3325  1.5298
 1663SOL    HW216626   2.077   3.963  13.793 -1.6799  1.0759 -0.3823
 1664SOL     OW16627   1.783   2.245   8.518  0.6027 -0.2367  0.1183
 1664SOL    HW116628   1.822   2.295   8.590  1.9921 -0.8923 -0.1839
 1664SOL    HW216629   1.822   2.281   8.439  0.1517 -2.0480 -0.9154
 1665SOL     OW16630   2.894   0.319   2.120  0.2113  0.3424  0.4739
 1665SOL    HW116631   2.901   0.367   2.202 -0.7387  0.8016  0.2931
 1665SOL    HW216632   2.843   0.380   2.067  0.9726 -0.9956 -1.8012
 1666SOL     OW16633   0.491   3.329   2.183  0.4700 -0.3488  0.2112
 1666SOL    HW116634   0.422   3.395   2.184  0.4588 -0.3665  0.8430
 1666SOL    HW216635   0.450   3.260   2.132 -0.6854 -0.3322  1.1213
 1667SOL     OW16636   4.066   1.648   4.558 -0.1612  0.3672 -0.6093
 1667SOL    HW116637   3.994   1.622   4.616 -0.1625  1.7711  0.0299
 1667SOL    HW216638   4.136   1.652   4.622 -0.6998 -1.4212  0.0930
 1668SOL     OW16639   0.211   1.341   4.202 -0.5747  0.0954  0.0767
 1668SOL    HW116640   0.276   1.385   4.257 -0.2512 -1.1198  0.6626
 1668SOL    HW216641   0.133   1.357   4.256 -0.1814  0.9512  0.4029
 1669SOL     OW16642   0.859   3.808   4.053  0.1287  1.1568  0.1830
 1669SOL    HW116643   0.925   3.837   3.990 -1.6451  0.7716 -1.8513
 1669SOL    HW216644   0.786   3.796   3.992  0.9602 -0.5648 -0.4632
 1670SOL     OW16645   3.404   1.426   4.257  0.1143  0.1408  0.6945
 1670SOL    HW116646   3.485   1.389   4.292 -0.0984  1.6707  2.7516
 1670SOL    HW216647   3.391   1.378   4.175 -0.8077 -0.7898  1.3828
 1671SOL     OW16648   4.234   1.577   2.536 -0.0300 -0.3814 -0.0885
 1671SOL    HW116649   4.301   1.509   2.540  1.8184  1.5773  1.9741
 1671SOL    HW216650   4.161   1.543   2.588 -1.0067  1.6341 -0.1835
 1672SOL     OW16651   3.225   0.278  10.505 -0.0329 -0.2889  0.1285
 1672SOL    HW116652   3.167   0.206  10.482  0.2313 -0.9728  1.5838
 1672SOL    HW216653   3.296   0.266  10.441  0.3535  0.6786  0.3797
 1673SOL     OW16654   3.784   4.200   3.419 -0.3754 -0.0973 -0.0508
 1673SOL    HW116655   3.861   4.145   3.406 -1.8137 -2.7016  2.4518
 1673SOL    HW216656   3.723   4.148   3.471 -0.2313  1.4185  1.6614
 1674SOL     OW16657   4.710   4.562  13.977  0.4034  0.5655 -0.4410
 1674SOL    HW116658   4.700   4.530  14.067 -0.6000  1.3379 -0.2733
 1674SOL    HW216659   0.046   4.620  13.979  0.3540  0.5732  1.3661
 1675SOL     OW16660   2.433   4.097   7.113  0.1832 -0.8926 -0.1309
 1675SOL    HW116661   2.368   4.036   7.077 -0.4903 -0.8481  1.0043
 1675SOL    HW216662   2.367   4.153   7.154 -2.2019 -3.4258 -0.4657
 1676SOL     OW16663   0.645   3.145   7.695  0.1972  0.3210 -0.0925
 1676SOL    HW116664   0.580   3.187   7.640  0.0071  1.7345  1.1913
 1676SOL    HW216665   0.683   3.216   7.747  3.9442  0.1798 -2.6064
 1677SOL     OW16666   0.607   3.348   3.579  0.1243 -0.3912  0.1143
 1677SOL    HW116667   0.637   3.258   3.581 -0.6999 -0.6934 -1.4559
 1677SOL    HW216668   0.531   3.347   3.637  0.2449  0.0906  0.2804
 1678SOL     OW16669   0.825   2.565   1.816  0.3309 -0.2873 -0.1514
 1678SOL    HW116670   0.897   2.541   1.759 -1.7921 -1.9946 -2.1046
 1678SOL    HW216671   0.808   2.478   1.851 -1.2709 -0.0962 -0.4376
 1679SOL     OW16672   1.205   2.409   2.275 -0.2224 -0.0347  0.6334
 1679SOL    HW116673   1.244   2.414   2.187 -1.7470 -0.2212 -0.0398
 1679SOL    HW216674   1.195   2.314   2.281  0.8161 -0.0665  2.1251
 1680SOL     OW16675   4.574   0.601   6.036  0.3012  0.1593 -0.6466
 1680SOL    HW116676   4.567   0.680   6.090  3.3064  0.1514 -0.2182
 1680SOL    HW216677   4.659   0.573   6.071 -0.6644 -2.0618 -0.1321
 1681SOL     OW16678   1.434   4.430   3.585  0.4184 -0.0742 -0.2743
 1681SOL    HW116679   1.485   4.458   3.509 -0.9055 -2.1250 -1.9119
 1681SOL    HW216680   1.495   4.454   3.655 -0.3175  1.6461 -0.2080
 1682SOL     OW16681   1.256   0.291  16.587 -0.1768 -0.2399  0.6411
 1682SOL    HW116682   1.343   0.267  16.617  1.0010  0.9322 -1.8461
 1682SOL    HW216683   1.278   0.303  16.494 -1.9644  2.8764  0.6484
 1683SOL     OW16684   3.009   4.391   6.286 -0.2035  0.4191 -0.1365
 1683SOL    HW116685   3.044   4.428   6.367 -1.1993  1.6943 -0.2962
 1683SOL    HW216686   2.981   4.307   6.322  2.5685  0.6663  2.5961
 1684SOL     OW16687   0.530   3.362  16.771 -0.3294 -0.3515 -0.2723
 1684SOL    HW116688   0.455   3.305  16.753 -1.0216  0.7913 -1.0135
 1684SOL    HW216689   0.508   3.437  16.716  0.5343  0.4176  0.4329
 1685SOL     OW16690   3.476   1.215   0.015  0.4298  0.0050  0.2020
 1685SOL    HW116691   3.543   1.252  17.711  0.9868  1.2123  1.6376
 1685SOL    HW216692   3.530   1.154   0.065  3.8870  1.3409 -1.9623
 1686SOL     OW16693   1.646   4.035  13.320  0.3807  0.0857 -0.0752
 1686SOL    HW116694   1.568   4.091  13.317  0.5388  0.2986 -0.2254
 1686SOL    HW216695   1.673   4.049  13.229  1.0870 -1.0501 -0.0340
 1687SOL     OW16696   0.650   2.968  16.155 -0.0351  0.0108 -0.5873
 1687SOL    HW116697   0.739   2.978  16.123  0.1947 -0.2800 -0.0263
 1687SOL    HW216698   0.644   3.028  16.230  0.8290  2.1356 -2.2040
 1688SOL     OW16699   1.609   3.900   9.149 -0.3968 -0.0095  0.3078
 1688SOL    HW116700   1.630   3.900   9.242  2.5053 -1.8192 -0.3530
 1688SOL    HW216701   1.513   3.908   9.153 -0.1738  2.3938  0.9447
 1689SOL     OW16702   0.642   0.121   6.852  0.3971 -0.7880  0.1834
 1689SOL    HW116703   0.555   0.161   6.848  0.5102 -0.4740  1.0489
 1689SOL    HW216704   0.608   0.032   6.852 -0.3617 -0.4910  0.7975
 1690SOL     OW16705   3.227   3.375  17.407  0.5005  0.6804 -0.1851
 1690SOL    HW116706   3.191   3.396  17.321  0.7389  1.6584 -0.0406
 1690SOL    HW216707   3.316   3.361  17.376  0.0443 -0.4692 -1.0083
 1691SOL     OW16708   0.616   0.054   7.182  0.0403  0.5955  0.2947
 1691SOL    HW116709   0.578   0.009   7.107  1.2184 -0.2157  0.2023
 1691SOL    HW216710   0.710   0.041   7.178  0.0603  0.1392  2.0037
 1692SOL     OW16711   3.949   0.666   6.600 -0.5858 -0.0751 -0.8457
 1692SOL    HW116712   3.916   0.640   6.513 -1.2388 -0.4490 -0.4919
 1692SOL    HW216713   3.868   0.692   6.645 -0.3399 -1.5514  0.4394
 1693SOL     OW16714   3.092   2.742   2.924 -0.5504  0.2704  0.0650
 1693SOL    HW116715   3.086   2.700   2.838  1.2359  2.1994 -1.0172
 1693SOL    HW216716   3.040   2.678   2.972 -2.5255  0.1949 -2.1554
 1694SOL     OW16717   4.206   3.843   2.161 -0.3010  0.5933 -0.2620
 1694SOL    HW116718   4.129   3.873   2.208 -1.4318 -2.6597 -0.0708
 1694SOL    HW216719   4.161   3.810   2.084  0.4270 -1.7984  0.3282
 1695SOL     OW16720   2.033   0.666   5.343 -0.8917  0.3215  0.1561
 1695SOL    HW116721   1.941   0.642   5.344 -0.7769 -0.0308  1.7292
 1695SOL    HW216722   2.034   0.751   5.386  0.3949  0.4700 -0.1608
 1696SOL     OW16723   1.704   3.560  10.041 -0.3631 -0.0779  0.0488
 1696SOL    HW116724   1.611   3.568  10.017 -0.5006 -1.1928  0.2288
 1696SOL    HW216725   1.701   3.473  10.081 -0.9213  0.6749  1.6427
 1697SOL     OW16726   0.664   2.141   8.260  0.6524  0.1538 -0.0326
 1697SOL    HW116727   0.570   2.158   8.249  0.2719 -0.2654  2.5333
 1697SOL    HW216728   0.667   2.072   8.326 -1.5587  0.2254  0.1583
 1698SOL     OW16729   2.602   2.430   0.875  0.0509 -0.3336  0.0593
 1698SOL    HW116730   2.682   2.452   0.828 -0.4327 -0.0562 -0.6455
 1698SOL    HW216731   2.634   2.365   0.938 -0.2900 -1.9369 -1.4005
 1699SOL     OW16732   0.153   2.111  16.834  0.8507  0.8429  0.0963
 1699SOL    HW116733   0.153   2.024  16.794  2.8010  1.2372 -0.7452
 1699SOL    HW216734   0.217   2.101  16.906  1.0458  0.9597 -0.0619
 1700SOL     OW16735   0.400   2.347  11.267  0.1639  0.1056  0.6650
 1700SOL    HW116736   0.338   2.347  11.340  0.4064 -1.1295  0.8705
 1700SOL    HW216737   0.478   2.307  11.307  0.8868  1.4271  0.5650
 1701SOL     OW16738   1.325   3.724   1.142  0.4127 -0.0037  0.3081
 1701SOL    HW116739   1.396   3.788   1.129 -0.8093  1.1134 -0.8932
 1701SOL    HW216740   1.298   3.714   1.051  2.1747 -1.8094 -0.0095
 1702SOL     OW16741   4.048   2.626   5.356  0.1412  0.6435  0.0576
 1702SOL    HW116742   3.973   2.685   5.363 -0.1976  0.2472 -0.2766
 1702SOL    HW216743   4.096   2.649   5.436  0.9418  0.6329 -0.4142
 1703SOL     OW16744   4.216   1.092   3.996  0.5899  0.0733 -0.3814
 1703SOL    HW116745   4.171   1.010   3.974  2.7986 -0.7226 -1.9240
 1703SOL    HW216746   4.226   1.123   3.907  0.0743  0.6216 -0.2490
 1704SOL     OW16747   2.484   1.199  11.666 -0.3251  0.0130 -0.0188
 1704SOL    HW116748   2.520   1.160  11.746  1.4116 -0.2134 -0.9125
 1704SOL    HW216749   2.469   1.120  11.614 -0.5692  0.5903 -0.8194
 1705SOL     OW16750   1.234   1.497  11.889 -0.3597  0.1889 -0.2660
 1705SOL    HW116751   1.281   1.418  11.916  1.3939  1.2483 -0.2418
 1705SOL    HW216752   1.146   1.481  11.922 -0.3678  0.5238 -0.1180
 1706SOL     OW16753   3.215   3.854   0.493 -0.0710 -0.2273 -0.1633
 1706SOL    HW116754   3.192   3.915   0.563  3.1192  1.7186 -0.8157
 1706SOL    HW216755   3.180   3.770   0.524 -1.0238  0.3048  0.1925
 1707SOL     OW16756   4.469   2.470  15.858 -0.1778  0.4327  0.2573
 1707SOL    HW116757   4.532   2.495  15.925  1.3398  1.8901 -1.7247
 1707SOL    HW216758   4.450   2.557  15.823 -0.8806  0.3621  0.4524
 1708SOL     OW16759   3.523   4.074  10.043 -0.0429 -0.2027 -0.2253
 1708SOL    HW116760   3.478   4.111   9.967 -1.3401  0.9188  1.1010
 1708SOL    HW216761   3.553   3.996   9.997  1.9451  1.6428 -2.0611
 1709SOL     OW16762   2.768   0.586   3.916  0.0653  0.0125  0.1168
 1709SOL    HW116763   2.814   0.577   3.833  0.1260 -0.5127  0.2111
 1709SOL    HW216764   2.837   0.615   3.976  1.2130  0.8956 -1.6498
 1710SOL     OW16765   1.137   2.782  12.861  0.0105 -0.5447 -0.8609
 1710SOL    HW116766   1.224   2.811  12.834  0.0118  0.7447  0.5575
 1710SOL    HW216767   1.085   2.834  12.800 -0.7730 -2.7085 -2.0150
 1711SOL     OW16768   1.254   1.365  15.054  0.0185 -0.1932  0.2547
 1711SOL    HW116769   1.188   1.405  15.111 -0.7860 -0.5510 -0.4287
 1711SOL    HW216770   1.333   1.366  15.108  0.3711  0.6677 -0.2849
 1712SOL     OW16771   3.780   4.289  11.016  0.0700 -0.4188  0.7408
 1712SOL    HW116772   3.752   4.208  11.058  0.1253 -0.5092  0.6032
 1712SOL    HW216773   3.867   4.310  11.050 -0.7269  2.3662  1.0813
 1713SOL     OW16774   1.200   2.321   4.957  0.0296  0.2168 -0.4862
 1713SOL    HW116775   1.139   2.250   4.978 -2.1884  2.0778 -0.6820
 1713SOL    HW216776   1.140   2.395   4.968  0.6391  0.7121 -0.4835
 1714SOL     OW16777   4.116   0.893   3.842  0.1621 -0.2087 -0.1803
 1714SOL    HW116778   4.058   0.937   3.780 -0.7216  0.0292  0.8244
 1714SOL    HW216779   4.065   0.813   3.850  0.1376 -0.7911 -5.7493
 1715SOL     OW16780   0.076   1.886   1.125 -0.9091  0.3264 -0.2270
 1715SOL    HW116781   0.038   1.920   1.043  3.0173  2.8060 -1.0095
 1715SOL    HW216782   0.076   1.970   1.170 -1.1479  0.1271  0.1401
 1716SOL     OW16783   3.190   2.405   5.037 -0.0216 -0.1348 -0.1142
 1716SOL    HW116784   3.218   2.484   4.992  0.6875 -0.4748 -0.2775
 1716SOL    HW216785   3.239   2.338   4.989  1.3677  1.9274 -1.5222
 1717SOL     OW16786   4.110   0.671   6.263 -0.0398 -0.6908 -0.5457
 1717SOL    HW116787   4.059   0.620   6.200 -2.4360  0.0118  0.8158
 1717SOL    HW216788   4.083   0.759   6.237 -1.1885 -0.2103  2.2170
 1718SOL     OW16789   1.556   3.804  13.092 -0.3937  0.0330  0.1919
 1718SOL    HW116790   1.589   3.892  13.074 -0.3227 -0.2436 -1.0705
 1718SOL    HW216791   1.526   3.808  13.182  1.8841 -0.3717  0.9759
 1719SOL     OW16792   3.928   3.223  10.532  0.4791 -0.1666 -0.1306
 1719SOL    HW116793   3.984   3.277  10.588  1.1491 -0.6214 -0.3513
 1719SOL    HW216794   3.859   3.205  10.595 -0.3560 -0.0683 -1.0169
 1720SOL     OW16795   4.555   2.221  12.845 -0.3494 -0.3105  0.0347
 1720SOL    HW116796   4.538   2.160  12.917  0.2614  0.1663  0.5809
 1720SOL    HW216797   4.478   2.218  12.787 -1.0132 -0.2388  0.9135
 1721SOL     OW16798   2.057   2.361   2.301  0.5896  0.3013  0.3433
 1721SOL    HW116799   2.098   2.411   2.372  0.3690 -0.1065  0.7547
 1721SOL    HW216800   2.000   2.425   2.257 -1.3895 -0.1341  2.2304
 1722SOL     OW16801   1.266   0.876   7.876  0.3301  0.3324  0.1593
 1722SOL    HW116802   1.265   0.943   7.807 -0.3082  0.8814  0.7040
 1722SOL    HW216803   1.187   0.904   7.923  0.6126  1.1262  0.1499
 1723SOL     OW16804   0.341   2.302   4.521  0.2202 -0.3143 -0.3208
 1723SOL    HW116805   0.404   2.358   4.477  1.2047 -0.1900  1.2562
 1723SOL    HW216806   0.382   2.301   4.607  1.3048  2.7270 -0.8203
 1724SOL     OW16807   1.786   2.443   8.735 -0.1454  0.0589 -0.2759
 1724SOL    HW116808   1.868   2.480   8.768 -0.8371  2.0703 -0.8219
 1724SOL    HW216809   1.729   2.513   8.767 -0.6952 -0.2764 -0.5252
 1725SOL     OW16810   4.633   3.168   8.194 -0.1618 -0.0094 -0.2510
 1725SOL    HW116811   4.539   3.151   8.191 -0.4698  1.7693 -1.1497
 1725SOL    HW216812   4.650   3.139   8.284  1.7284  0.3555 -0.4760
 1726SOL     OW16813   1.819   0.813   5.138  0.4754 -0.5452  0.3815
 1726SOL    HW116814   1.770   0.774   5.066  1.2404  1.3370 -1.1646
 1726SOL    HW216815   1.807   0.746   5.205 -2.6324 -0.9588 -0.6110
 1727SOL     OW16816   2.406   2.450   6.641 -0.1620  0.4965 -0.3394
 1727SOL    HW116817   2.376   2.525   6.691 -0.1095  1.2643 -1.4478
 1727SOL    HW216818   2.456   2.490   6.570  0.8935  1.4999  0.9938
 1728SOL     OW16819   2.007   2.427   7.261 -0.1347 -0.2749 -0.5075
 1728SOL    HW116820   2.006   2.517   7.227 -1.4783  0.5059  1.5506
 1728SOL    HW216821   1.943   2.381   7.207 -0.5318  0.5115 -0.7088
 1729SOL     OW16822   2.954   2.080  16.697  0.0258 -0.2784  0.5224
 1729SOL    HW116823   2.871   2.056  16.656  0.4512 -1.3824  0.3109
 1729SOL    HW216824   2.951   2.169  16.663  0.5902 -0.1370  0.8530
 1730SOL     OW16825   4.181   0.613   8.782  0.3167 -0.3575  0.7300
 1730SOL    HW116826   4.103   0.598   8.836 -0.5835 -1.0483 -0.7545
 1730SOL    HW216827   4.152   0.688   8.730  0.8269  0.4173  1.5599
 1731SOL     OW16828   0.408   2.077   6.439  0.2698 -0.0967 -0.0541
 1731SOL    HW116829   0.438   1.999   6.393 -0.1826 -1.2070  1.5606
 1731SOL    HW216830   0.414   2.133   6.361  1.7090 -1.5348 -0.9700
 1732SOL     OW16831   2.887   3.674   8.929  0.5627 -0.2949 -0.5872
 1732SOL    HW116832   2.797   3.642   8.928  0.3282  0.4568 -2.2657
 1732SOL    HW216833   2.896   3.723   8.848  3.1494  2.3173  1.2956
 1733SOL     OW16834   4.048   0.092   0.646 -0.1170 -0.5131 -0.7771
 1733SOL    HW116835   4.038   0.077   0.740  0.4919 -2.5291 -1.0235
 1733SOL    HW216836   3.967   0.138   0.624 -0.6609 -1.1120 -0.0386
 1734SOL     OW16837   2.249   3.458   5.436  0.5412 -0.1330 -0.1747
 1734SOL    HW116838   2.345   3.460   5.430  0.4691  0.4277 -1.1137
 1734SOL    HW216839   2.227   3.548   5.412  1.4366  0.4431  1.1551
 1735SOL     OW16840   2.686   4.173   6.143 -0.1419  0.3480 -0.0754
 1735SOL    HW116841   2.683   4.089   6.098  1.8518 -0.6979  1.7449
 1735SOL    HW216842   2.679   4.152   6.236  0.3338  2.0551  0.3433
 1736SOL     OW16843   1.478   4.205   4.113  0.3089  0.7468 -0.3390
 1736SOL    HW116844   1.388   4.177   4.128  0.8371 -0.2914  0.8968
 1736SOL    HW216845   1.487   4.264   4.188  1.0413  1.4421 -0.9688
 1737SOL     OW16846   1.222   0.467  12.878 -0.3842  0.5710 -0.1546
 1737SOL    HW116847   1.242   0.417  12.800  4.1782 -0.4160  1.6395
 1737SOL    HW216848   1.298   0.525  12.877  0.1960 -0.2396 -2.0964
 1738SOL     OW16849   0.507   0.428   5.103  0.0932 -0.2491 -0.2613
 1738SOL    HW116850   0.447   0.369   5.058  1.4924 -0.6330 -1.6484
 1738SOL    HW216851   0.460   0.511   5.098  0.1111 -0.2557 -0.5597
 1739SOL     OW16852   2.424   0.342  16.093 -0.4141 -0.4905 -0.0897
 1739SOL    HW116853   2.364   0.417  16.097 -1.1126 -1.0180 -0.6561
 1739SOL    HW216854   2.392   0.288  16.164  0.3970 -0.5578  0.2223
 1740SOL     OW16855   1.731   1.726   9.120 -0.4355  0.2873 -0.0957
 1740SOL    HW116856   1.713   1.650   9.175 -2.2309  1.5541  1.0558
 1740SOL    HW216857   1.643   1.760   9.101 -0.8622  0.2666  1.9289
 1741SOL     OW16858   2.048   2.492   7.680 -0.1093  0.2133 -0.2362
 1741SOL    HW116859   2.075   2.413   7.633 -2.3149  0.4296 -1.8425
 1741SOL    HW216860   1.953   2.497   7.668 -0.2964 -1.2935  0.6505
 1742SOL     OW16861   3.089   1.851   0.554 -0.1717  0.1726  0.0750
 1742SOL    HW116862   3.029   1.834   0.626 -0.0447 -0.2829  0.0721
 1742SOL    HW216863   3.169   1.888   0.591  0.2167 -1.4843  0.8765
 1743SOL     OW16864   1.391   3.449   2.718  0.3656 -0.0704  0.1622
 1743SOL    HW116865   1.456   3.380   2.732 -1.2733 -1.4680  0.7575
 1743SOL    HW216866   1.451   3.524   2.724  1.5337 -0.9264 -0.7603
 1744SOL     OW16867   1.810   3.021  15.818 -0.4918 -0.2892  0.2273
 1744SOL    HW116868   1.856   3.091  15.864 -0.4139 -0.8018  0.9262
 1744SOL    HW216869   1.722   3.021  15.857 -0.0272 -1.9474  1.2661
 1745SOL     OW16870   1.170   3.457  12.013 -0.0638 -0.0705 -0.9983
 1745SOL    HW116871   1.149   3.364  12.019 -2.0015  0.6179  2.6678
 1745SOL    HW216872   1.089   3.487  12.054  0.9002 -0.2451  1.0193
 1746SOL     OW16873   0.788   2.288   6.290  0.4051  0.2224  0.2389
 1746SOL    HW116874   0.819   2.233   6.362  0.7861  0.2003  0.0599
 1746SOL    HW216875   0.797   2.231   6.214 -2.0846 -1.2390  1.0397
 1747SOL     OW16876   1.667   2.874   1.654  0.0902 -0.9332 -0.3697
 1747SOL    HW116877   1.713   2.818   1.717  0.7915  2.0144  1.7254
 1747SOL    HW216878   1.591   2.816   1.644  0.3575 -1.5578  1.1587
 1748SOL     OW16879   0.191   3.690  16.516  0.5195  0.0773  0.2023
 1748SOL    HW116880   0.154   3.677  16.428 -0.0449  2.0566  0.1520
 1748SOL    HW216881   0.109   3.729  16.547 -0.2516 -1.2045 -0.2155
 1749SOL     OW16882   2.851   2.188   6.474 -0.0532 -0.0322  0.3984
 1749SOL    HW116883   2.866   2.270   6.521  1.0134  0.0551 -0.1009
 1749SOL    HW216884   2.795   2.220   6.403  1.1630 -0.5652 -0.7920
 1750SOL     OW16885   4.306   1.185   7.663  0.2507 -0.4725  0.1572
 1750SOL    HW116886   4.368   1.168   7.733  0.2257 -1.4182 -0.0379
 1750SOL    HW216887   4.358   1.235   7.600 -1.0607 -0.4240 -0.9195
 1751SOL     OW16888   2.634   0.834  11.867  0.6484 -0.1725 -0.1388
 1751SOL    HW116889   2.630   0.749  11.912 -1.1900 -1.5566 -2.9016
 1751SOL    HW216890   2.557   0.840  11.810  0.3368 -1.4816  0.1397
 1752SOL     OW16891   1.044   4.398   3.101  0.1291  0.1359 -0.3917
 1752SOL    HW116892   1.051   4.309   3.066  0.8016 -0.7698  2.0778
 1752SOL    HW216893   1.135   4.402   3.129  0.5613 -1.4373 -1.5444
 1753SOL     OW16894   2.194   2.055   6.185 -0.6584 -0.0253  0.0659
 1753SOL    HW116895   2.187   2.052   6.281 -1.1436  0.5914  0.0474
 1753SOL    HW216896   2.121   1.997   6.167 -1.2182  1.1505 -1.4058
 1754SOL     OW16897   2.180   4.248  11.549  0.2686  0.1786 -0.2912
 1754SOL    HW116898   2.087   4.266  11.538 -0.0420 -1.0656  0.2803
 1754SOL    HW216899   2.185   4.188  11.474  0.2211 -0.7840  0.4801
 1755SOL     OW16900   2.714   1.387  14.052  0.6545  0.3738 -0.5671
 1755SOL    HW116901   2.766   1.465  14.071  2.0475 -0.2792 -1.7317
 1755SOL    HW216902   2.777   1.315  14.055  0.0143 -0.1337  1.4124
 1756SOL     OW16903   2.652   3.695   3.886 -0.1188  0.8281  0.3507
 1756SOL    HW116904   2.728   3.750   3.866  0.7199 -0.4346  0.0892
 1756SOL    HW216905   2.596   3.759   3.930 -3.0926 -1.7889  0.3142
 1757SOL     OW16906   1.801   3.428   5.288 -0.1116  0.5108  0.7560
 1757SOL    HW116907   1.877   3.372   5.301 -0.5728 -1.0278 -3.2394
 1757SOL    HW216908   1.727   3.367   5.289  0.0804  0.1817 -2.9333
 1758SOL     OW16909   1.652   4.448   8.267  0.0670 -0.0679  0.7873
 1758SOL    HW116910   1.705   4.415   8.194 -0.4086  0.9486 -0.0160
 1758SOL    HW216911   1.573   4.465   8.217  1.1871 -0.4639 -1.1091
 1759SOL     OW16912   2.627   0.172   6.205  0.4887  0.4131  0.2511
 1759SOL    HW116913   2.535   0.193   6.190  0.4807 -1.0905 -1.8928
 1759SOL    HW216914   2.627   0.135   6.293 -1.7653  0.9197  0.4724
 1760SOL     OW16915   1.399   3.255  11.393  0.1692  0.5352 -0.5914
 1760SOL    HW116916   1.403   3.337  11.442 -1.2315  1.0393 -1.2995
 1760SOL    HW216917   1.314   3.224  11.425  0.3368  1.5877  0.8837
 1761SOL     OW16918   2.629   2.967   7.644 -0.7657  0.2596  0.0378
 1761SOL    HW116919   2.708   2.930   7.604 -0.7236  0.9280 -0.5093
 1761SOL    HW216920   2.580   2.887   7.663  1.7706 -1.1958  0.4260
 1762SOL     OW16921   2.287   3.041   3.577  0.0327 -0.4993 -0.0004
 1762SOL    HW116922   2.333   3.068   3.656  0.3804 -0.6113 -0.1626
 1762SOL    HW216923   2.302   2.949   3.557 -2.2658 -0.6641 -0.9876
 1763SOL     OW16924   2.007   3.307   4.356  0.2371 -0.1511 -0.1774
 1763SOL    HW116925   2.028   3.260   4.437 -1.1818  0.1895  0.3942
 1763SOL    HW216926   1.976   3.384   4.405  1.1111  0.5837 -0.7754
 1764SOL     OW16927   3.939   3.198   2.457 -0.4424  0.6529 -0.1854
 1764SOL    HW116928   3.914   3.193   2.549 -0.3494  0.1567 -0.1837
 1764SOL    HW216929   3.884   3.127   2.422 -0.9319  0.3357  1.2269
 1765SOL     OW16930   3.363   1.419  15.268 -0.2115  0.2676  0.4566
 1765SOL    HW116931   3.398   1.484  15.329 -1.3953 -0.2166  1.6605
 1765SOL    HW216932   3.294   1.456  15.213 -0.5129 -2.1311 -0.7579
 1766SOL     OW16933   2.728   0.017   2.509 -0.0447  0.3195 -0.5822
 1766SOL    HW116934   2.738   0.099   2.557  1.3885 -0.4668  0.4631
 1766SOL    HW216935   2.780   4.697   2.564  2.5384  1.5116 -1.7922
 1767SOL     OW16936   0.300   2.322   2.362  0.2540  0.6210  0.4906
 1767SOL    HW116937   0.235   2.252   2.359 -0.6336  1.4576 -0.0145
 1767SOL    HW216938   0.372   2.289   2.308  1.0314  4.7832 -1.0940
 1768SOL     OW16939   3.113   1.149   8.448  0.5961  0.5849 -0.6642
 1768SOL    HW116940   3.022   1.159   8.417  1.0914  0.8706 -2.0259
 1768SOL    HW216941   3.101   1.078   8.511 -0.5142 -0.6476 -2.2569
 1769SOL     OW16942   1.056   1.906   3.021  0.0305 -0.1112 -0.6286
 1769SOL    HW116943   1.064   1.910   2.926  1.1938 -1.1229 -0.5748
 1769SOL    HW216944   1.144   1.883   3.050  0.6600  2.8611 -0.1868
 1770SOL     OW16945   1.351   0.363   7.981  0.0687 -0.5190 -0.3537
 1770SOL    HW116946   1.277   0.363   8.041  2.0792  0.3688  2.1035
 1770SOL    HW216947   1.403   0.427   8.030 -1.2959  0.3620 -0.0697
 1771SOL     OW16948   3.905   4.731   7.674 -0.3349 -0.3003 -0.0078
 1771SOL    HW116949   3.882   4.640   7.657 -1.1562  0.1352 -1.2364
 1771SOL    HW216950   3.859   0.050   7.613 -0.5044  1.3210  1.6754
 1772SOL     OW16951   3.814   1.426  11.114 -0.6014 -0.1767 -0.1236
 1772SOL    HW116952   3.724   1.393  11.115 -1.0038  0.8237 -2.5653
 1772SOL    HW216953   3.809   1.515  11.149 -0.2774 -0.2497  0.1100
 1773SOL     OW16954   2.732   2.692   4.599 -0.3721 -0.1327  0.4181
 1773SOL    HW116955   2.725   2.629   4.671  3.3789 -0.8458  0.1655
 1773SOL    HW216956   2.653   2.674   4.549  1.0842 -2.7913 -0.9204
 1774SOL     OW16957   0.705   4.568   5.087 -0.3267 -0.2242 -0.8446
 1774SOL    HW116958   0.638   4.499   5.091 -0.7241  0.3000  1.4309
 1774SOL    HW216959   0.689   4.625   5.012  0.5679  0.4426 -0.5351
 1775SOL     OW16960   1.583   3.543  15.254 -0.5494 -0.0881  0.0936
 1775SOL    HW116961   1.668   3.498  15.248 -1.2618 -1.2581 -1.3757
 1775SOL    HW216962   1.605   3.630  15.223 -2.3142  1.3167  2.8354
 1776SOL     OW16963   3.096   3.935   8.510  0.1971  0.4798  0.1416
 1776SOL    HW116964   3.117   4.014   8.559 -1.4421  1.4862 -0.7709
 1776SOL    HW216965   3.170   3.920   8.451 -0.9234 -1.2128 -0.8432
 1777SOL     OW16966   1.167   0.797  11.172  0.0826  0.7590 -0.7537
 1777SOL    HW116967   1.256   0.827  11.154  0.3658 -0.4970 -1.4408
 1777SOL    HW216968   1.127   0.880  11.197  0.4552  0.3083  1.3140
 1778SOL     OW16969   0.586   2.793   4.303  0.5724 -0.6043 -0.2772
 1778SOL    HW116970   0.533   2.813   4.380  1.0970  0.0225 -0.0767
 1778SOL    HW216971   0.632   2.715   4.334 -0.1562 -1.6015 -1.7382
 1779SOL     OW16972   0.597   0.719   9.190 -0.1054 -0.0964  0.0888
 1779SOL    HW116973   0.637   0.806   9.196  0.5184 -0.2907 -1.0891
 1779SOL    HW216974   0.525   0.742   9.131  1.5271  1.1339 -1.4142
 1780SOL     OW16975   1.196   4.554  13.466 -0.1066  0.0157 -0.3421
 1780SOL    HW116976   1.188   4.557  13.562  1.0799 -0.6391 -0.2142
 1780SOL    HW216977   1.151   4.474  13.440 -2.4255  0.5510  2.0456
 1781SOL     OW16978   1.185   4.116   6.820  0.2143 -0.4606 -0.4148
 1781SOL    HW116979   1.105   4.124   6.768 -0.7658  0.5051  1.2657
 1781SOL    HW216980   1.183   4.198   6.869 -1.5770 -0.0537 -1.1555
 1782SOL     OW16981   1.904   3.984   4.873  0.0077 -0.1563 -0.4929
 1782SOL    HW116982   1.952   3.986   4.791 -0.2727 -0.1057 -0.6548
 1782SOL    HW216983   1.815   3.962   4.846  0.0185  0.2633 -0.8676
 1783SOL     OW16984   3.711   1.296   5.540  0.4356  0.1184 -0.0341
 1783SOL    HW116985   3.709   1.272   5.448 -0.6159  0.8059 -0.1944
 1783SOL    HW216986   3.681   1.387   5.537  0.3561  0.2249  3.4059
 1784SOL     OW16987   0.186   2.648   6.658  0.8645  0.1537 -0.5850
 1784SOL    HW116988   0.149   2.725   6.702  1.3392 -0.4785  0.9132
 1784SOL    HW216989   0.243   2.607   6.723 -0.0077  2.2549  1.5399
 1785SOL     OW16990   2.318   3.331   0.205 -0.5372  0.5304  0.1648
 1785SOL    HW116991   2.406   3.352   0.174 -0.0836 -1.0760  0.3653
 1785SOL    HW216992   2.270   3.322   0.122  1.1826 -2.3944 -0.4873
 1786SOL     OW16993   2.428   3.234   3.105  0.0943 -0.0648  0.1521
 1786SOL    HW116994   2.333   3.224   3.113  0.3955 -2.8971  0.3711
 1786SOL    HW216995   2.453   3.308   3.160  0.6949  0.6781 -1.1207
 1787SOL     OW16996   0.586   1.453   3.204  0.5242  0.3504 -0.0182
 1787SOL    HW116997   0.658   1.514   3.220 -0.1699  1.5105 -1.4272
 1787SOL    HW216998   0.605   1.376   3.259 -0.6322 -0.5691 -0.9099
 1788SOL     OW16999   3.935   3.993   1.288 -0.2274 -0.3107 -0.0425
 1788SOL    HW117000   3.897   4.056   1.228  2.2791 -0.2903 -1.6146
 1788SOL    HW217001   3.862   3.966   1.344 -0.6514 -3.0239 -1.9274
 1789SOL     OW17002   2.111   0.170   6.441 -0.3148 -0.8695  0.2230
 1789SOL    HW117003   2.034   0.145   6.492  0.2330 -1.1977  0.8898
 1789SOL    HW217004   2.158   0.086   6.446 -0.3229 -0.8670  0.3546
 1790SOL     OW17005   4.564   1.095  12.630 -0.1553  0.7377  0.0832
 1790SOL    HW117006   4.551   1.074  12.538 -0.2376 -0.2839  0.3285
 1790SOL    HW217007   4.653   1.065  12.648 -0.1625 -0.5250 -2.0076
 1791SOL     OW17008   4.294   1.961   8.688 -0.8232  0.0009 -0.9078
 1791SOL    HW117009   4.266   2.051   8.669 -0.5557  0.5464  1.2661
 1791SOL    HW217010   4.287   1.963   8.783  3.1129 -1.1447 -0.5951
 1792SOL     OW17011   3.605   1.349   4.958 -0.2644 -0.0285  0.2719
 1792SOL    HW117012   3.540   1.283   4.935 -0.5999  0.3570  0.1155
 1792SOL    HW217013   3.660   1.351   4.879 -0.0196 -1.4849  0.4035
 1793SOL     OW17014   4.033   3.831   1.907  0.2368  0.1936 -0.1680
 1793SOL    HW117015   3.986   3.913   1.891 -2.4291 -1.0546  1.1915
 1793SOL    HW217016   4.089   3.813   1.832  0.1226  0.3817 -0.2969
 1794SOL     OW17017   0.768   3.982   2.033 -0.2060 -0.1755 -0.8128
 1794SOL    HW117018   0.757   3.924   2.108 -1.1581 -0.1325 -0.9161
 1794SOL    HW217019   0.775   3.923   1.958  0.9279 -0.2469 -0.6463
 1795SOL     OW17020   3.184   0.357   5.590 -0.5508  0.2674 -0.5486
 1795SOL    HW117021   3.258   0.300   5.570 -0.3914  0.7560 -1.3970
 1795SOL    HW217022   3.116   0.329   5.528  1.5102 -2.1892 -1.6570
 1796SOL     OW17023   3.558   0.814   6.053  0.5877 -0.3029  0.2689
 1796SOL    HW117024   3.551   0.872   6.129  1.7146 -3.2592  2.6930
 1796SOL    HW217025   3.507   0.866   5.992 -0.2509 -1.3615  0.0626
 1797SOL     OW17026   1.875   2.425   2.770  0.9661 -0.5887  0.4168
 1797SOL    HW117027   1.832   2.437   2.855  0.6389 -0.6962  0.2664
 1797SOL    HW217028   1.869   2.512   2.732  1.0458 -1.0506 -0.6413
 1798SOL     OW17029   1.211   2.917  10.304  0.2145 -0.3669 -0.2494
 1798SOL    HW117030   1.133   2.973  10.304 -0.1371 -0.8564 -0.4143
 1798SOL    HW217031   1.271   2.972  10.355 -1.2562  1.6615 -0.7087
 1799SOL     OW17032   3.139   1.943  16.341 -0.6843  0.4608  0.1462
 1799SOL    HW117033   3.125   1.907  16.429 -0.6104 -0.8302 -0.3784
 1799SOL    HW217034   3.212   1.892  16.306 -1.3419 -0.5992  0.3533
 1800SOL     OW17035   2.386   1.923   4.513 -0.3982 -0.1688  0.2865
 1800SOL    HW117036   2.390   1.841   4.561  1.2526 -2.8444 -4.5298
 1800SOL    HW217037   2.466   1.974   4.525 -1.6665  1.5823  1.4927
 1801SOL     OW17038   0.144   3.228   8.810 -0.2120 -0.4676  0.1294
 1801SOL    HW117039   0.074   3.175   8.847  0.1086 -0.3499  0.9080
 1801SOL    HW217040   0.113   3.314   8.839 -0.2972 -0.2299 -0.6444
 1802SOL     OW17041   1.429   0.743   3.701 -0.3040  0.4643  0.4484
 1802SOL    HW117042   1.423   0.673   3.636 -1.8602 -0.3738  1.4891
 1802SOL    HW217043   1.354   0.728   3.759  0.9012 -0.0466  1.8864
 1803SOL     OW17044   0.836   1.542   8.062  0.8255 -0.2959  0.1597
 1803SOL    HW117045   0.859   1.585   8.144 -0.3428 -0.0581  0.3665
 1803SOL    HW217046   0.742   1.548   8.081  1.0569  0.1200  1.1679
 1804SOL     OW17047   3.639   3.028  11.819 -0.6164  0.3684  0.1039
 1804SOL    HW117048   3.693   3.096  11.780 -0.5202 -1.5073 -3.0430
 1804SOL    HW217049   3.582   3.076  11.879  0.6139  1.8047  0.1037
 1805SOL     OW17050   1.256   4.512   8.920 -0.1980 -0.2036  0.0100
 1805SOL    HW117051   1.344   4.545   8.905  0.0194  0.7702  3.5743
 1805SOL    HW217052   1.217   4.583   8.971 -2.0268 -1.1577 -0.0640
 1806SOL     OW17053   3.687   3.757   2.908 -0.1949 -0.4481 -0.7201
 1806SOL    HW117054   3.592   3.763   2.911 -0.2521 -1.7695  0.1774
 1806SOL    HW217055   3.709   3.703   2.832  2.2444 -1.6432  0.8274
 1807SOL     OW17056   0.455   2.122  12.961 -0.0633 -0.1621  0.1554
 1807SOL    HW117057   0.502   2.106  12.879 -0.1987 -1.3907  0.3165
 1807SOL    HW217058   0.521   2.096  13.026  1.5121  0.7712 -1.0681
 1808SOL     OW17059   3.135   4.640   5.271 -0.3150  0.1480 -0.0862
 1808SOL    HW117060   3.213   4.670   5.320 -1.0671  0.1429  1.1243
 1808SOL    HW217061   3.091   4.578   5.329 -1.2212  1.5963  0.7935
 1809SOL     OW17062   4.704   1.991   5.002  0.4314  0.4027 -1.0444
 1809SOL    HW117063   4.705   1.896   4.998  0.0100  0.2912  1.6135
 1809SOL    HW217064   0.037   2.023   4.947  1.4085 -1.6389 -0.9348
 1810SOL     OW17065   2.634   1.753   3.533 -0.0359 -0.9148 -0.5297
 1810SOL    HW117066   2.552   1.800   3.546  1.2060  1.1522 -0.1331
 1810SOL    HW217067   2.699   1.815   3.566  1.8528 -2.9061 -0.5368
 1811SOL     OW17068   2.603   0.269  14.805 -0.3051 -0.2832 -0.0486
 1811SOL    HW117069   2.661   0.306  14.739 -0.2057 -0.1714  0.1017
 1811SOL    HW217070   2.585   0.337  14.870 -1.7344 -0.4105 -0.3223
 1812SOL     OW17071   2.666   1.336   5.728 -0.6523 -0.7813 -0.0014
 1812SOL    HW117072   2.614   1.257   5.737  0.5160 -1.4835  0.6593
 1812SOL    HW217073   2.640   1.368   5.641 -0.0100  1.9659  0.8015
 1813SOL     OW17074   2.893   1.836  17.720  0.0314  0.2148 -0.3491
 1813SOL    HW117075   2.908   1.775   0.040 -0.3294  1.3884  0.7162
 1813SOL    HW217076   2.839   1.897   0.018  0.3167  0.7327 -0.6666
 1814SOL     OW17077   0.069   1.954   4.532 -0.0649  0.0503 -0.1790
 1814SOL    HW117078   0.096   1.987   4.446  1.1614  0.8946  0.5422
 1814SOL    HW217079   4.730   2.002   4.560 -0.3938 -1.3526  1.3137
 1815SOL     OW17080   4.207   0.696   3.542 -0.3077 -0.0977 -0.5502
 1815SOL    HW117081   4.292   0.722   3.577 -2.4676  1.9666  3.1533
 1815SOL    HW217082   4.243   0.642   3.472  0.0083 -0.9302  0.2599
 1816SOL     OW17083   1.577   3.824   7.522 -0.0595 -0.3782  0.2965
 1816SOL    HW117084   1.584   3.802   7.614  0.2107  1.8099  0.7874
 1816SOL    HW217085   1.554   3.737   7.489 -0.2388 -1.6266  3.7856
 1817SOL     OW17086   1.045   1.871   4.802  0.1317  0.2603  0.2522
 1817SOL    HW117087   1.073   1.780   4.796 -1.5718 -0.0908 -2.0409
 1817SOL    HW217088   1.048   1.887   4.708  1.7700  1.6538  0.5313
 1818SOL     OW17089   0.044   0.130   7.598 -0.0638 -0.4819  0.1529
 1818SOL    HW117090   0.023   0.037   7.588 -0.2839 -0.7571  3.0833
 1818SOL    HW217091   0.109   0.144   7.529 -0.9870 -0.7510 -0.7818
 1819SOL     OW17092   2.025   4.131  10.675 -0.0620  0.5059  0.4714
 1819SOL    HW117093   1.979   4.210  10.647 -0.2629 -0.3016 -1.4804
 1819SOL    HW217094   2.088   4.161  10.741 -0.4327 -0.7398  1.4028
 1820SOL     OW17095   1.424   0.748   7.492 -0.4660 -0.6174 -0.2333
 1820SOL    HW117096   1.514   0.736   7.461 -0.0871 -0.7509  0.9148
 1820SOL    HW217097   1.431   0.729   7.586  1.9600  0.9603 -0.0871
 1821SOL     OW17098   2.614   0.800   6.206 -0.0947 -0.3838 -0.0827
 1821SOL    HW117099   2.586   0.889   6.188  1.5074 -0.0045 -0.6189
 1821SOL    HW217100   2.655   0.816   6.291 -2.7659  2.2530  0.7196
 1822SOL     OW17101   0.886   0.428   4.196  0.4177  0.0913  0.2944
 1822SOL    HW117102   0.847   0.445   4.110  0.8483  1.1550  0.3154
 1822SOL    HW217103   0.906   0.334   4.193  1.0271  0.2533 -0.8760
 1823SOL     OW17104   2.854   3.197   8.718  0.1779 -0.4472  0.1927
 1823SOL    HW117105   2.793   3.129   8.748 -2.6401  0.8257 -2.5490
 1823SOL    HW217106   2.885   3.222   8.805  0.1404 -0.9648  0.3559
 1824SOL     OW17107   0.295   4.278   8.466  0.6782  0.4480 -0.4204
 1824SOL    HW117108   0.324   4.223   8.539 -1.0027 -1.1819 -0.9576
 1824SOL    HW217109   0.314   4.363   8.505  1.1139  1.3643 -2.6537
 1825SOL     OW17110   3.768   0.915   2.275  0.0594 -0.2588 -0.2302
 1825SOL    HW117111   3.859   0.902   2.248 -0.3297 -1.2073 -1.0800
 1825SOL    HW217112   3.771   0.981   2.344  1.2704 -0.4932 -0.0480
 1826SOL     OW17113   0.731   1.658   2.040 -0.0615  0.0799  0.3859
 1826SOL    HW117114   0.785   1.689   2.112  0.4114 -0.4120  0.2413
 1826SOL    HW217115   0.734   1.565   2.063 -0.9136  0.5707  2.4805
 1827SOL     OW17116   2.366   0.098  13.854 -0.1965  0.5313  0.0345
 1827SOL    HW117117   2.310   0.065  13.784 -0.1297 -0.4660  0.4449
 1827SOL    HW217118   2.348   0.026  13.914 -1.3359  2.2932  1.7995
 1828SOL     OW17119   4.568   1.063  10.987 -0.5304  0.3271  0.1278
 1828SOL    HW117120   4.547   0.995  10.923  1.5863 -0.6371  0.4746
 1828SOL    HW217121   4.653   1.092  10.953 -0.4748 -0.4093 -0.3651
 1829SOL     OW17122   1.930   3.695   1.780 -0.0772  0.1765 -0.3486
 1829SOL    HW117123   1.876   3.671   1.705  0.5416  1.2036 -1.1343
 1829SOL    HW217124   1.988   3.762   1.743 -1.7507  1.1128 -1.2798
 1830SOL     OW17125   1.496   4.576  17.326  0.4192 -0.0351 -0.1847
 1830SOL    HW117126   1.529   4.662  17.298 -0.9570  1.0228  1.4465
 1830SOL    HW217127   1.406   4.598  17.350 -0.4193 -2.0776 -1.4280
 1831SOL     OW17128   0.547   3.330   5.928 -0.4977 -0.1105 -0.3457
 1831SOL    HW117129   0.529   3.362   6.017 -1.9061 -0.2838 -0.5639
 1831SOL    HW217130   0.639   3.309   5.941 -0.1042  0.4108 -2.3875
 1832SOL     OW17131   0.196   2.541   1.592  0.3635  0.6123 -0.0421
 1832SOL    HW117132   0.250   2.615   1.620  0.4806  0.0080  1.3797
 1832SOL    HW217133   0.257   2.467   1.601 -1.3613 -0.8007 -0.0146
 1833SOL     OW17134   1.887   1.038   2.225  0.4714 -0.2756 -0.1347
 1833SOL    HW117135   1.967   1.069   2.268  1.2217 -1.1842 -0.9022
 1833SOL    HW217136   1.915   0.977   2.157  0.0583  1.1093 -1.5505
 1834SOL     OW17137   0.105   1.266  12.645 -0.0284 -0.0604 -0.4160
 1834SOL    HW117138   0.074   1.344  12.691  0.1838  1.1184 -2.2847
 1834SOL    HW217139   0.089   1.193  12.705 -0.1974 -0.3762 -0.8523
 1835SOL     OW17140   3.366   4.521   5.595  0.3197  0.2289  0.4769
 1835SOL    HW117141   3.301   4.468   5.641  0.4015 -0.3014 -0.0101
 1835SOL    HW217142   3.440   4.462   5.607  0.4869 -0.0454 -1.9005
 1836SOL     OW17143   3.802   0.033  12.025 -0.3319  0.1273 -0.4253
 1836SOL    HW117144   3.837   0.050  12.113  0.8771  1.8082 -1.2252
 1836SOL    HW217145   3.888   0.021  11.986  0.4387 -1.0389  1.6169
 1837SOL     OW17146   0.430   2.499   1.042 -0.0328 -0.2592 -0.4682
 1837SOL    HW117147   0.481   2.418   1.054  0.5240  0.0867 -0.5120
 1837SOL    HW217148   0.493   2.555   1.087 -0.5454 -0.2700  0.2682
 1838SOL     OW17149   4.338   0.163   5.072 -0.1577  0.3141 -0.7772
 1838SOL    HW117150   4.245   0.181   5.059 -0.4038  0.2916  0.8722
 1838SOL    HW217151   4.377   0.189   4.989 -0.1041  2.5134 -0.0620
 1839SOL     OW17152   3.387   3.189   7.120 -0.0119 -0.1055 -0.4362
 1839SOL    HW117153   3.460   3.176   7.059  0.2438  0.8098 -0.3270
 1839SOL    HW217154   3.445   3.213   7.191 -1.1192 -1.8564  1.0438
 1840SOL     OW17155   0.884   0.486  13.926 -0.1318  0.0958 -0.8193
 1840SOL    HW117156   0.977   0.482  13.948 -0.7352 -1.3569  1.4585
 1840SOL    HW217157   0.894   0.556  13.861  0.9016  0.3808 -0.3456
 1841SOL     OW17158   2.941   1.914   8.334  0.7515  0.1848  0.1731
 1841SOL    HW117159   2.960   1.853   8.405  1.8110  1.4774  0.9928
 1841SOL    HW217160   2.888   1.857   8.278  0.1985  3.3465 -2.5401
 1842SOL     OW17161   0.770   3.047   9.459  0.0157 -0.4907 -0.1545
 1842SOL    HW117162   0.696   3.049   9.520 -0.1677 -1.9564 -0.3376
 1842SOL    HW217163   0.838   3.064   9.524 -1.1469  0.4313  0.8246
 1843SOL     OW17164   1.115   3.731   9.624 -0.3969 -0.4550 -0.2153
 1843SOL    HW117165   1.107   3.647   9.579  0.5278  0.0797 -1.3515
 1843SOL    HW217166   1.108   3.701   9.715  0.8053  0.0614  0.0464
 1844SOL     OW17167   2.058   3.141   8.274 -0.5392  0.1138  0.3846
 1844SOL    HW117168   2.076   3.072   8.338  0.0913  0.3745  0.4918
 1844SOL    HW217169   2.150   3.165   8.272  0.1082 -2.6668 -3.2630
 1845SOL     OW17170   4.489   3.310   3.963  0.5729 -0.0097 -0.1122
 1845SOL    HW117171   4.473   3.307   4.058 -1.1658 -0.5358 -0.4095
 1845SOL    HW217172   4.422   3.250   3.930 -0.6437  0.7440  0.9710
 1846SOL     OW17173   2.579   0.769  15.367  0.0106 -0.6430  0.4891
 1846SOL    HW117174   2.636   0.698  15.395  0.7191  0.1538  1.0239
 1846SOL    HW217175   2.635   0.846  15.359 -1.1658 -0.1823 -3.8185
 1847SOL     OW17176   0.055   3.410   8.992  0.4802  0.5390 -0.4223
 1847SOL    HW117177   4.723   3.373   9.045 -0.4076  1.5950 -0.8410
 1847SOL    HW217178   0.068   3.490   9.043 -1.5996  0.1619  0.7228
 1848SOL     OW17179   4.539   1.079   7.799 -0.5090  0.0739  0.0922
 1848SOL    HW117180   4.495   1.026   7.865  0.0559 -0.0662  0.3561
 1848SOL    HW217181   4.599   1.020   7.754 -1.5826 -0.4254 -0.6874
 1849SOL     OW17182   3.385   2.804  15.840  0.1041  0.1642  0.0835
 1849SOL    HW117183   3.406   2.833  15.929  0.7667 -0.8483  0.2525
 1849SOL    HW217184   3.451   2.738  15.817 -0.2324 -0.3912  0.7122
 1850SOL     OW17185   4.310   0.083   5.327 -0.0972  0.3123  0.6783
 1850SOL    HW117186   4.336   0.165   5.370  1.1720 -1.3949  3.1955
 1850SOL    HW217187   4.325   0.109   5.236 -0.8916 -0.7836  0.2459
 1851SOL     OW17188   1.900   3.806   4.365  0.4402  0.6968  0.2311
 1851SOL    HW117189   1.811   3.777   4.381  0.9679 -2.0172 -1.7696
 1851SOL    HW217190   1.909   3.847   4.451  1.2043  1.1628 -0.0610
 1852SOL     OW17191   4.443   2.194   1.289 -0.6051  0.1965 -0.0586
 1852SOL    HW117192   4.376   2.252   1.254 -0.0296  0.4442 -0.7385
 1852SOL    HW217193   4.460   2.143   1.210 -0.4069  0.0573  0.0741
 1853SOL     OW17194   1.087   0.268   5.897  0.2979  0.7514  0.2619
 1853SOL    HW117195   1.158   0.250   5.835 -0.0674 -2.0949  0.6646
 1853SOL    HW217196   1.129   0.316   5.968  1.2825 -1.0218  0.8922
 1854SOL     OW17197   2.192   0.850   4.910  0.2461 -0.3751  0.5549
 1854SOL    HW117198   2.179   0.939   4.877  0.4771 -0.9076 -0.9459
 1854SOL    HW217199   2.256   0.816   4.848  0.9466  0.4841  0.8107
 1855SOL     OW17200   3.187   1.987   8.203  0.2223  0.9636  0.0578
 1855SOL    HW117201   3.106   2.000   8.252  0.2849  0.3111  0.3362
 1855SOL    HW217202   3.250   1.950   8.265 -0.2042 -0.8220 -0.5801
 1856SOL     OW17203   1.000   2.266   1.299 -0.6700 -0.0221 -0.1565
 1856SOL    HW117204   0.937   2.336   1.281  0.3675  0.8637 -0.3232
 1856SOL    HW217205   0.958   2.243   1.382  0.8189 -1.7009  0.1296
 1857SOL     OW17206   0.955   2.230   4.608  0.0719  0.2996 -0.1460
 1857SOL    HW117207   0.964   2.211   4.514  1.9775  0.9757 -0.1058
 1857SOL    HW217208   0.907   2.154   4.639  0.1644  0.7951  1.2008
 1858SOL     OW17209   2.566   1.351   3.489 -0.0557  0.2774  0.0447
 1858SOL    HW117210   2.480   1.386   3.513 -1.2044 -1.8540 -0.8869
 1858SOL    HW217211   2.543   1.277   3.432  0.8930 -0.1180  0.1693
 1859SOL     OW17212   1.886   1.072   5.060  0.2665 -0.4217 -0.7260
 1859SOL    HW117213   1.952   1.061   5.128 -1.3817  0.7080  1.0566
 1859SOL    HW217214   1.858   0.980   5.057 -0.4040 -0.3103  1.9693
 1860SOL     OW17215   0.727   1.676   5.448  0.6457  0.0199  0.2480
 1860SOL    HW117216   0.687   1.654   5.364  2.1400  0.7367 -0.6564
 1860SOL    HW217217   0.663   1.659   5.517  0.5272 -0.5130  0.0065
 1861SOL     OW17218   0.800   4.514   6.129  0.1428  0.6072  0.8946
 1861SOL    HW117219   0.824   4.557   6.211 -1.0258 -1.7952  2.4729
 1861SOL    HW217220   0.869   4.554   6.076  1.8709  0.8134  3.3224
 1862SOL     OW17221   3.430   3.200   4.245  0.1424  0.2304 -0.4672
 1862SOL    HW117222   3.445   3.130   4.181  0.2715  0.4287 -0.6517
 1862SOL    HW217223   3.342   3.181   4.277  0.8902 -1.2158  0.7641
 1863SOL     OW17224   0.542   2.061   0.929  0.4266  0.1933  0.1537
 1863SOL    HW117225   0.567   2.034   0.840  2.5146  1.0879  0.4688
 1863SOL    HW217226   0.457   2.017   0.929 -0.1714  1.3400 -0.6687
 1864SOL     OW17227   2.676   2.387  14.220 -0.2294 -0.6942  0.1893
 1864SOL    HW117228   2.598   2.407  14.169  0.8635  1.8982 -0.4434
 1864SOL    HW217229   2.720   2.469  14.243  1.8150 -1.4730 -0.9436
 1865SOL     OW17230   1.799   3.145  17.494 -0.0900  0.0458  0.4255
 1865SOL    HW117231   1.730   3.123  17.433  1.0314 -2.0848 -0.0690
 1865SOL    HW217232   1.771   3.227  17.535 -3.4021  0.6184 -3.0222
 1866SOL     OW17233   3.853   0.200   3.066 -0.3029 -0.6064 -0.2829
 1866SOL    HW117234   3.895   0.269   3.118 -1.3824 -0.4236  0.3393
 1866SOL    HW217235   3.925   0.172   3.009  0.2577  0.2570 -0.0132
 1867SOL     OW17236   1.843   1.695  11.243 -0.7755 -0.4397  0.1215
 1867SOL    HW117237   1.843   1.676  11.149 -0.1586  3.3267 -0.6437
 1867SOL    HW217238   1.763   1.646  11.264 -2.0758  1.1863 -1.0281
 1868SOL     OW17239   2.132   2.488  15.049  0.1436  0.6322 -0.1040
 1868SOL    HW117240   2.185   2.441  14.985 -1.8116 -0.5340 -0.8622
 1868SOL    HW217241   2.072   2.419  15.077  2.0482 -0.9875 -0.0434
 1869SOL     OW17242   2.821   4.230   8.789  0.6203 -0.6077 -0.0099
 1869SOL    HW117243   2.832   4.323   8.771 -1.4729 -0.0210  1.7395
 1869SOL    HW217244   2.727   4.219   8.804  0.6674 -1.4517 -0.3075
 1870SOL     OW17245   4.128   4.517  16.992 -0.2520  0.0112 -0.2293
 1870SOL    HW117246   4.133   4.519  16.896 -0.2079 -1.9744 -0.2791
 1870SOL    HW217247   4.044   4.555  17.016  0.0702  0.3057  0.4239
 1871SOL     OW17248   3.782   3.170  13.853  0.0963 -0.3361 -0.0354
 1871SOL    HW117249   3.713   3.161  13.787  0.7822  0.7920 -0.8975
 1871SOL    HW217250   3.836   3.232  13.803 -0.6654  0.7707  0.5269
 1872SOL     OW17251   4.638   3.471   0.301  0.5798  0.2065  0.7144
 1872SOL    HW117252   4.559   3.513   0.334  1.3420  0.0352  2.7792
 1872SOL    HW217253   4.703   3.520   0.352  0.8707  0.8849 -0.3139
 1873SOL     OW17254   2.190   2.261   2.985  0.2906  0.0740  0.4697
 1873SOL    HW117255   2.181   2.351   2.953  0.6880  0.3692  1.1764
 1873SOL    HW217256   2.277   2.270   3.025  0.7578 -0.3743 -0.4564
 1874SOL     OW17257   4.443   4.089   2.103  0.5611  0.8457  0.5938
 1874SOL    HW117258   4.358   4.108   2.064  2.2161  0.5565 -3.1063
 1874SOL    HW217259   4.422   4.045   2.185 -0.3450 -2.3816 -1.3663
 1875SOL     OW17260   0.990   1.212   4.522 -0.0338 -0.2990  0.2277
 1875SOL    HW117261   0.934   1.224   4.445 -1.4323 -3.4012  0.7784
 1875SOL    HW217262   1.069   1.167   4.494  1.2510  2.0732  0.0167
 1876SOL     OW17263   0.865   2.773   3.786 -0.3125  0.2290 -0.1889
 1876SOL    HW117264   0.814   2.766   3.706  0.8986 -0.7887 -0.8802
 1876SOL    HW217265   0.916   2.693   3.801 -1.3387 -0.2506  0.7596
 1877SOL     OW17266   4.306   3.031   8.893  0.1409 -0.0405 -0.1478
 1877SOL    HW117267   4.216   3.028   8.925 -0.1951  1.4869 -0.9658
 1877SOL    HW217268   4.291   3.004   8.802  0.3354 -0.3477 -0.0928
 1878SOL     OW17269   2.431   1.485   0.961  0.3235 -0.0621 -0.1234
 1878SOL    HW117270   2.347   1.527   0.940 -0.8689 -2.9796 -1.2013
 1878SOL    HW217271   2.404   1.447   1.045 -0.4786  0.9320  0.0761
 1879SOL     OW17272   0.423   0.890   1.422 -0.6956  0.0690  0.1290
 1879SOL    HW117273   0.465   0.838   1.492 -2.4526  0.5833  1.5690
 1879SOL    HW217274   0.428   0.979   1.457 -1.7449  0.5688 -1.0148
 1880SOL     OW17275   1.267   3.281  10.984  0.3907  0.0411  0.5570
 1880SOL    HW117276   1.209   3.238  11.047 -0.0862 -0.2568 -0.0869
 1880SOL    HW217277   1.334   3.328  11.034 -0.2242  1.4225  0.0731
 1881SOL     OW17278   4.699   3.210   3.586 -0.3291  0.2003 -0.5077
 1881SOL    HW117279   4.681   3.282   3.646  0.7798  1.8688 -2.1388
 1881SOL    HW217280   4.720   3.252   3.502  1.2138  1.1359  0.3362
 1882SOL     OW17281   0.375   3.894   8.478 -0.0759 -0.8079 -0.6143
 1882SOL    HW117282   0.388   3.983   8.511  1.6941 -0.1773 -2.9865
 1882SOL    HW217283   0.290   3.905   8.434 -0.7050  0.8937  1.0248
 1883SOL     OW17284   4.207   0.444   5.210  1.4032 -0.1390  0.5647
 1883SOL    HW117285   4.123   0.488   5.221  1.3912 -0.1495  0.5148
 1883SOL    HW217286   4.245   0.473   5.127  0.5776  1.4423  0.7389
 1884SOL     OW17287   0.462   0.410   7.044 -0.8115  0.2739 -0.4850
 1884SOL    HW117288   0.408   0.333   7.025  1.4061 -0.5004 -3.7796
 1884SOL    HW217289   0.493   0.438   6.957 -1.6450  0.5037 -0.7107
 1885SOL     OW17290   1.551   2.372  17.344  1.1773  0.2910 -0.5942
 1885SOL    HW117291   1.535   2.368  17.250  1.5103 -0.6953 -0.6105
 1885SOL    HW217292   1.643   2.349  17.336  1.4060  1.0077 -0.0555
 1886SOL     OW17293   3.652   3.734   9.363 -0.1271  0.6075  0.9970
 1886SOL    HW117294   3.693   3.820   9.363  2.5934 -0.6771  0.4330
 1886SOL    HW217295   3.733   3.686   9.344 -1.2175  0.2676 -2.6435
 1887SOL     OW17296   2.600   2.276   3.130  0.0600 -0.6939  0.2932
 1887SOL    HW117297   2.517   2.306   3.169  1.2025  1.8353  0.8313
 1887SOL    HW217298   2.572   2.191   3.098  0.2960 -0.7880  0.3388
 1888SOL     OW17299   2.825   2.081  16.025 -0.4292 -0.6277  1.0665
 1888SOL    HW117300   2.789   2.161  15.987  3.7453  1.0419  0.7181
 1888SOL    HW217301   2.739   2.051  16.055 -0.8572 -1.2401 -0.8203
 1889SOL     OW17302   4.010   1.578  16.098  0.2082  0.5548 -0.6563
 1889SOL    HW117303   4.078   1.576  16.165 -0.4812 -0.1904  0.0207
 1889SOL    HW217304   3.927   1.553  16.140  1.4371 -0.7016  1.0261
 1890SOL     OW17305   0.493   3.711   7.404  0.3971 -0.4677  0.8185
 1890SOL    HW117306   0.572   3.763   7.388  0.1717 -0.2242  0.4975
 1890SOL    HW217307   0.490   3.710   7.499 -1.6217  2.1849  0.7647
 1891SOL     OW17308   4.080   3.482  12.838  0.1222 -0.3090  0.1975
 1891SOL    HW117309   4.137   3.477  12.914  1.6304  1.5370 -0.7917
 1891SOL    HW217310   3.994   3.491  12.878  0.5533  0.0024  1.0579
 1892SOL     OW17311   0.327   1.775   1.159 -0.0592 -0.4282 -0.1087
 1892SOL    HW117312   0.259   1.837   1.133  0.1055 -0.5466 -0.8039
 1892SOL    HW217313   0.289   1.697   1.117  1.3441 -1.2097  0.0827
 1893SOL     OW17314   2.244   3.849   6.407  0.3030 -0.0814 -0.2563
 1893SOL    HW117315   2.321   3.850   6.350  0.2281  0.9937 -0.3306
 1893SOL    HW217316   2.235   3.756   6.426  1.9472 -0.0865  0.4341
 1894SOL     OW17317   3.673   4.476   0.411 -0.2622  0.3192  0.0805
 1894SOL    HW117318   3.631   4.559   0.434  0.5735 -0.0710  3.0146
 1894SOL    HW217319   3.764   4.506   0.402 -0.0140 -0.1169  1.0948
 1895SOL     OW17320   3.873   1.742   8.807  0.3678 -0.2747 -0.1203
 1895SOL    HW117321   3.927   1.820   8.800  0.7841 -0.6029 -0.5732
 1895SOL    HW217322   3.841   1.744   8.897 -0.6323 -0.7344 -0.4608
 1896SOL     OW17323   0.999   4.311   8.567 -0.2059 -0.5250 -0.8095
 1896SOL    HW117324   1.083   4.357   8.579 -0.2813 -0.7335  0.5599
 1896SOL    HW217325   1.010   4.292   8.474  0.8435 -0.8549 -0.6244
 1897SOL     OW17326   2.294   2.288   9.116  0.1697  0.4905  0.1929
 1897SOL    HW117327   2.210   2.290   9.070 -0.5231  0.0458  1.4529
 1897SOL    HW217328   2.288   2.369   9.168 -1.1171 -0.3809  1.4003
 1898SOL     OW17329   1.724   0.948   2.424  0.8051 -0.2451 -0.4272
 1898SOL    HW117330   1.783   0.972   2.353 -1.4400  0.5959 -2.0121
 1898SOL    HW217331   1.696   1.038   2.443 -0.8564 -0.9813  0.6641
 1899SOL     OW17332   4.469   2.406   7.438  0.1344  0.1302 -0.3083
 1899SOL    HW117333   4.461   2.367   7.351 -0.6007  1.8734 -1.0344
 1899SOL    HW217334   4.378   2.413   7.466  0.1562  0.0436 -0.2163
 1900SOL     OW17335   0.354   3.560   3.868 -0.0533 -0.4233 -0.7497
 1900SOL    HW117336   0.368   3.642   3.820 -1.8345  1.1489  1.4480
 1900SOL    HW217337   0.321   3.595   3.951 -0.1496  1.7464 -1.7243
 1901SOL     OW17338   0.888   3.463   2.901 -0.7203 -0.0621 -0.9638
 1901SOL    HW117339   0.965   3.466   2.845 -0.1464 -1.2647 -0.2264
 1901SOL    HW217340   0.921   3.511   2.976  0.0602 -0.8146 -0.8327
 1902SOL     OW17341   4.351   2.884   5.401  0.2843  0.9986 -0.1407
 1902SOL    HW117342   4.311   2.939   5.468 -1.6986 -0.2590 -0.2726
 1902SOL    HW217343   4.286   2.899   5.331 -0.4862  0.9229  0.5642
 1903SOL     OW17344   3.876   0.276   4.892 -0.0632 -0.0596  0.9232
 1903SOL    HW117345   3.911   0.365   4.884  1.3480 -0.7817 -0.7755
 1903SOL    HW217346   3.784   0.288   4.869  0.2231  0.0874 -0.1229
 1904SOL     OW17347   3.225   4.569   1.987 -0.4639  0.0506  0.8320
 1904SOL    HW117348   3.315   4.598   1.976  0.1194 -2.5292 -1.2250
 1904SOL    HW217349   3.246   4.476   1.999 -0.6971  0.2986  3.1825
 1905SOL     OW17350   1.232   1.661   5.233  0.2362  0.2043  0.3221
 1905SOL    HW117351   1.150   1.710   5.229 -0.2050 -0.7805 -2.4493
 1905SOL    HW217352   1.290   1.689   5.162 -0.5623 -2.8885 -1.5416
 1906SOL     OW17353   0.928   1.610   8.311 -0.3038 -0.7975  0.2083
 1906SOL    HW117354   0.972   1.549   8.370 -1.9655 -0.8489  1.3753
 1906SOL    HW217355   0.993   1.680   8.307 -0.4286 -0.8365 -3.1142
 1907SOL     OW17356   1.430   0.830   6.141 -0.3774  0.1953 -0.7374
 1907SOL    HW117357   1.524   0.845   6.147 -0.3987 -0.1624  0.5089
 1907SOL    HW217358   1.422   0.862   6.051  0.9042  0.0879 -0.8811
 1908SOL     OW17359   1.773   2.836   9.638  0.3471  0.1082 -0.4380
 1908SOL    HW117360   1.824   2.756   9.653 -1.7783 -0.8276  1.7524
 1908SOL    HW217361   1.775   2.852   9.733 -0.1543 -3.4006  0.1843
 1909SOL     OW17362   2.603   0.952   9.435  0.3310  0.3407  0.3905
 1909SOL    HW117363   2.595   0.997   9.351 -0.3786 -1.7302 -0.6391
 1909SOL    HW217364   2.598   0.861   9.407 -0.5507  0.6257 -0.3430
 1910SOL     OW17365   3.701   3.472  10.753  0.7978 -0.0512 -0.1917
 1910SOL    HW117366   3.607   3.469  10.736  0.7391  1.4744 -0.1271
 1910SOL    HW217367   3.703   3.498  10.845 -1.9966 -0.3300 -0.0319
 1911SOL     OW17368   0.833   2.211   6.883 -0.3153  0.5881 -0.9786
 1911SOL    HW117369   0.879   2.295   6.893  0.1984  0.1119  0.6311
 1911SOL    HW217370   0.752   2.256   6.859  0.1579  1.9710  0.0265
 1912SOL     OW17371   4.121   2.496  17.312 -0.7137  0.1867 -0.0254
 1912SOL    HW117372   4.133   2.405  17.285 -0.1191  0.5608 -1.0155
 1912SOL    HW217373   4.027   2.505  17.327 -0.3865 -0.0562  2.1838
 1913SOL     OW17374   0.145   0.048  10.686 -0.3217  0.1758 -0.3858
 1913SOL    HW117375   0.132   4.693  10.669  2.1581 -0.4915  1.4503
 1913SOL    HW217376   0.206   0.030  10.757 -1.8633 -1.4314  0.5286
 1914SOL     OW17377   2.832   1.421   6.261 -0.2571  0.0414  0.0733
 1914SOL    HW117378   2.800   1.420   6.170  0.2004 -1.5080 -0.0768
 1914SOL    HW217379   2.902   1.484   6.251 -1.4925  0.9330 -3.1029
 1915SOL     OW17380   3.256   2.859  16.102 -0.3481  0.2800 -0.1200
 1915SOL    HW117381   3.177   2.849  16.049 -1.0083  1.6100  0.6173
 1915SOL    HW217382   3.251   2.791  16.170  0.4796  0.0837 -0.2528
 1916SOL     OW17383   0.856   4.111  15.354  0.2052 -0.3337  0.1397
 1916SOL    HW117384   0.899   4.182  15.307  1.0804 -1.5212 -0.8236
 1916SOL    HW217385   0.880   4.033  15.304  4.3222  1.2548 -0.3323
 1917SOL     OW17386   4.192   0.272  12.557 -0.1897  0.3390  0.3774
 1917SOL    HW117387   4.287   0.261  12.555 -0.3321 -0.4766 -2.0077
 1917SOL    HW217388   4.177   0.315  12.473  2.9298 -1.5778 -1.1671
 1918SOL     OW17389   1.614   3.677   8.821  0.2096 -0.1956 -0.1898
 1918SOL    HW117390   1.590   3.768   8.803 -2.7935 -1.0307 -0.4882
 1918SOL    HW217391   1.674   3.684   8.895 -0.6885  0.0812  0.5223
 1919SOL     OW17392   4.503   1.035   0.361  0.3684  0.2198  0.1310
 1919SOL    HW117393   4.489   1.031   0.456  1.4400  0.8308  0.3170
 1919SOL    HW217394   4.596   1.014   0.353  0.3739  0.6532 -0.9522
 1920SOL     OW17395   4.163   2.390   1.528 -0.5416  0.4254  0.0064
 1920SOL    HW117396   4.239   2.335   1.508 -0.7171 -0.1862  0.9950
 1920SOL    HW217397   4.107   2.394   1.450  0.4393  0.8463 -0.6678
 1921SOL     OW17398   4.425   1.544   4.078  0.0030 -0.3220 -0.3400
 1921SOL    HW117399   4.337   1.553   4.115  0.2615  1.0863 -0.0815
 1921SOL    HW217400   4.444   1.450   4.067  0.8151 -0.2888  0.7646
 1922SOL     OW17401   1.396   4.556   5.906  0.3197 -0.3295  0.2370
 1922SOL    HW117402   1.349   4.597   5.979  3.5707  0.5318  1.8629
 1922SOL    HW217403   1.439   4.636   5.876  0.0916 -0.0214  0.7271
 1923SOL     OW17404   1.815   2.616   3.431 -0.4297  0.3820 -0.4146
 1923SOL    HW117405   1.758   2.579   3.499 -1.7421  1.0485 -1.1525
 1923SOL    HW217406   1.901   2.595   3.467 -0.9805 -0.0654  0.6597
 1924SOL     OW17407   4.472   2.711   8.036 -0.4449  0.0582  0.4504
 1924SOL    HW117408   4.543   2.725   7.974 -1.4073  2.2884 -0.1414
 1924SOL    HW217409   4.429   2.796   8.043 -0.4739  0.1699 -1.1390
 1925SOL     OW17410   2.089   0.188  13.038 -0.7077 -0.2606 -0.4856
 1925SOL    HW117411   2.143   0.244  13.094 -0.5034 -1.7082  0.7732
 1925SOL    HW217412   2.162   0.139  12.999  0.9603  0.8815  1.2120
 1926SOL     OW17413   2.372   0.769   6.860 -0.2505  0.0315  0.0837
 1926SOL    HW117414   2.455   0.734   6.892 -2.0810 -3.7847  0.6537
 1926SOL    HW217415   2.398   0.838   6.800  0.0724  0.8187  1.1298
 1927SOL     OW17416   4.020   2.994   4.075  0.0607  0.4861  0.4347
 1927SOL    HW117417   3.963   2.934   4.027  1.1405 -2.7087  3.1326
 1927SOL    HW217418   3.996   3.077   4.034 -1.2932 -0.9791 -1.7254
 1928SOL     OW17419   3.311   1.531   2.208 -0.1610  0.4080  0.7463
 1928SOL    HW117420   3.297   1.624   2.225 -1.3464  0.1353  1.2422
 1928SOL    HW217421   3.378   1.526   2.140  1.0595  1.0559  1.8983
 1929SOL     OW17422   2.709   2.956  12.743 -0.4445  0.5122 -0.3878
 1929SOL    HW117423   2.775   2.985  12.680  1.5436 -1.1625  0.9119
 1929SOL    HW217424   2.635   2.944  12.683 -0.6595  1.8638 -0.3803
 1930SOL     OW17425   1.113   3.450   2.727 -0.3552  0.2054  0.5212
 1930SOL    HW117426   1.209   3.455   2.730 -0.4335  1.7269  0.2179
 1930SOL    HW217427   1.102   3.430   2.634  1.7981 -1.5027  0.6290
 1931SOL     OW17428   3.396   0.122   6.634 -0.7266 -0.8697  0.2414
 1931SOL    HW117429   3.453   0.135   6.710 -0.9869 -0.0675  0.2932
 1931SOL    HW217430   3.306   0.106   6.663 -1.3638  0.5445 -0.9473
 1932SOL     OW17431   2.168   0.225   1.890  0.5382  0.1724 -0.0351
 1932SOL    HW117432   2.075   0.236   1.867  0.7457 -1.0866 -1.5065
 1932SOL    HW217433   2.161   0.141   1.936 -1.2854 -0.5981 -1.6629
 1933SOL     OW17434   0.446   0.985   9.733 -0.5026  0.4083 -0.2508
 1933SOL    HW117435   0.537   0.955   9.737 -0.5705  0.1182 -0.8364
 1933SOL    HW217436   0.426   0.965   9.825  1.1717 -0.5982 -0.1027
 1934SOL     OW17437   3.733   0.831  15.087 -0.0520  0.1402  0.5377
 1934SOL    HW117438   3.663   0.894  15.070 -0.1069  0.5894  2.4444
 1934SOL    HW217439   3.697   0.773  15.154  0.5591 -1.4878 -0.5496
 1935SOL     OW17440   0.510   2.249  12.206 -0.6283  0.4229  0.0588
 1935SOL    HW117441   0.445   2.247  12.137 -2.6311  3.1561  1.8577
 1935SOL    HW217442   0.479   2.190  12.276 -0.4040  0.5318  0.2517
 1936SOL     OW17443   1.773   3.836  17.066 -0.3231 -0.0771 -0.0781
 1936SOL    HW117444   1.679   3.851  17.054 -0.3664  0.8474  1.3392
 1936SOL    HW217445   1.804   3.798  16.984  0.5622 -1.2506  0.7895
 1937SOL     OW17446   3.292   1.524   0.793 -0.0018 -0.4959  0.1263
 1937SOL    HW117447   3.235   1.455   0.759  0.9827 -1.0439 -0.4058
 1937SOL    HW217448   3.364   1.522   0.730 -0.2786  0.7837 -0.2227
 1938SOL     OW17449   2.975   4.248   7.938 -0.0106  0.1981 -0.6816
 1938SOL    HW117450   2.882   4.229   7.949  0.1158  0.0984  0.2013
 1938SOL    HW217451   3.012   4.165   7.968 -1.2153 -0.4678 -1.0358
 1939SOL     OW17452   0.393   4.406  12.779  0.0945 -0.0469  0.0815
 1939SOL    HW117453   0.342   4.329  12.805 -0.0530  0.2522  0.6795
 1939SOL    HW217454   0.336   4.455  12.719 -0.8617 -2.3432 -0.8987
 1940SOL     OW17455   3.760   1.501  16.263 -0.0465  0.4152 -0.4590
 1940SOL    HW117456   3.810   1.550  16.327 -0.2597  2.5049 -1.8910
 1940SOL    HW217457   3.696   1.462  16.323  2.6533 -1.2749  1.2986
 1941SOL     OW17458   1.019   3.473  14.051 -0.0356 -0.3264  0.3726
 1941SOL    HW117459   1.060   3.391  14.079 -0.1136 -0.7909 -0.8927
 1941SOL    HW217460   1.036   3.477  13.957  1.4404 -1.5101  0.6006
 1942SOL     OW17461   0.602   3.571   8.179 -0.1809  0.4116  0.1488
 1942SOL    HW117462   0.612   3.635   8.108  0.2441 -0.2984 -0.4313
 1942SOL    HW217463   0.509   3.590   8.191 -0.6332 -2.7148  1.6816
 1943SOL     OW17464   3.771   0.081   9.121 -0.4001  0.0338  0.0657
 1943SOL    HW117465   3.778   0.118   9.033 -0.9516  2.7210  1.1516
 1943SOL    HW217466   3.860   0.088   9.156 -0.3391  0.5852 -0.2029
 1944SOL     OW17467   1.492   4.138   2.896 -0.3136  0.0520 -0.0740
 1944SOL    HW117468   1.475   4.126   2.990  1.9404  0.1441  0.3422
 1944SOL    HW217469   1.412   4.181   2.865 -0.3126 -1.5792 -2.3287
 1945SOL     OW17470   1.516   4.691   7.778  0.1043 -0.4788  0.0933
 1945SOL    HW117471   1.535   0.028   7.722  0.8415  0.7536  2.0102
 1945SOL    HW217472   1.581   4.626   7.751 -2.6121 -2.0109 -2.6858
 1946SOL     OW17473   1.280   4.638  13.951  0.5031  0.9598 -0.5772
 1946SOL    HW117474   1.305   4.617  14.041  0.8551  0.7923 -0.7164
 1946SOL    HW217475   1.314   4.728  13.940 -0.4040  1.1427 -1.9008
 1947SOL     OW17476   3.357   4.249  13.979  0.4038 -0.2273 -0.0294
 1947SOL    HW117477   3.276   4.300  13.975  1.8205  1.9456 -0.5368
 1947SOL    HW217478   3.320   4.173  14.024 -0.9418  0.6093  0.2743
 1948SOL     OW17479   0.848   0.438  16.774  0.9387 -0.1447 -0.8067
 1948SOL    HW117480   0.794   0.509  16.739  1.1538 -0.0846 -1.0205
 1948SOL    HW217481   0.774   0.403  16.823  1.8977 -1.9725 -0.6754
 1949SOL     OW17482   3.807   1.734  12.668 -0.1201  0.7248  0.0245
 1949SOL    HW117483   3.898   1.761  12.660  0.2969 -0.4145  0.9992
 1949SOL    HW217484   3.812   1.669  12.599  0.8931  0.4214  0.3832
 1950SOL     OW17485   1.873   0.810   0.334  0.0648  0.4904 -0.1914
 1950SOL    HW117486   1.841   0.890   0.376  1.4239  1.2949 -0.6649
 1950SOL    HW217487   1.852   0.817   0.241  0.7513 -2.1530 -0.5394
 1951SOL     OW17488   0.341   1.164   6.222 -0.2090  0.5049 -0.0733
 1951SOL    HW117489   0.274   1.168   6.154 -0.7880 -0.5918  0.4353
 1951SOL    HW217490   0.286   1.157   6.300 -2.8834 -0.5879 -2.0694
 1952SOL     OW17491   0.441   4.696   3.713 -0.0422  0.4689 -0.3036
 1952SOL    HW117492   0.463   4.716   3.622  0.3033 -0.6590 -0.4643
 1952SOL    HW217493   0.509   0.007   3.759 -0.1140 -1.6262  2.0684
 1953SOL     OW17494   2.749   0.789  14.080  0.2007  0.1705  0.0683
 1953SOL    HW117495   2.693   0.734  14.135  1.7354 -1.9584 -0.4806
 1953SOL    HW217496   2.680   0.849  14.052 -0.1483 -0.0140  0.5352
 1954SOL     OW17497   4.228   4.127   3.590 -0.6582  0.4335 -0.1927
 1954SOL    HW117498   4.307   4.085   3.556  0.6804  1.3048  1.8074
 1954SOL    HW217499   4.199   4.183   3.519 -1.8695 -0.8443 -0.6904
 1955SOL     OW17500   3.115   0.249   7.239  0.1186 -0.0867 -0.1129
 1955SOL    HW117501   3.162   0.262   7.157 -0.8549  1.6593 -0.3952
 1955SOL    HW217502   3.174   0.185   7.280 -0.0800 -0.5263 -0.5194
 1956SOL     OW17503   3.718   1.722   4.481 -0.3122 -0.4207  0.0602
 1956SOL    HW117504   3.791   1.779   4.458 -1.4974  2.2028  2.7613
 1956SOL    HW217505   3.759   1.655   4.536  1.1453 -1.0030 -1.7557
 1957SOL     OW17506   3.032   0.538  14.124  0.0314  0.0098  0.2877
 1957SOL    HW117507   2.998   0.623  14.096  2.2228  1.1962  1.1941
 1957SOL    HW217508   2.997   0.536  14.213  1.8860 -0.0909  1.0318
 1958SOL     OW17509   3.832   1.069   8.740  0.0284  0.7700  0.7270
 1958SOL    HW117510   3.842   0.986   8.786 -2.7842  0.0617  0.0843
 1958SOL    HW217511   3.787   1.120   8.807  0.1030 -0.8275  2.0070
 1959SOL     OW17512   0.557   4.166  12.251 -0.5184 -0.2769 -0.5662
 1959SOL    HW117513   0.628   4.166  12.316 -1.9755  0.9032  1.0444
 1959SOL    HW217514   0.521   4.079  12.263  0.8981 -0.8010 -0.0516
 1960SOL     OW17515   4.724   4.667   3.488 -0.0162  0.1875 -0.0140
 1960SOL    HW117516   4.710   4.577   3.460 -0.9593  1.0197 -2.2154
 1960SOL    HW217517   4.637   4.690   3.522  1.1851  0.0151  3.2009
 1961SOL     OW17518   2.582   2.644   7.295  0.4957 -0.4363 -1.2297
 1961SOL    HW117519   2.493   2.674   7.313  0.5119 -0.5007 -1.0413
 1961SOL    HW217520   2.627   2.691   7.365 -0.4865  0.3379 -1.1050
 1962SOL     OW17521   3.045   0.851   1.549  0.8916 -0.2286 -0.4261
 1962SOL    HW117522   2.989   0.786   1.589  0.5655  1.0537  1.1902
 1962SOL    HW217523   3.133   0.818   1.568  1.4340 -0.3132 -2.9709
 1963SOL     OW17524   3.446   4.250   6.543  0.4846 -0.8033 -0.0730
 1963SOL    HW117525   3.478   4.328   6.498  0.6135 -0.3040  0.8871
 1963SOL    HW217526   3.499   4.183   6.501  0.4398 -0.1658 -1.1471
 1964SOL     OW17527   3.722   4.074   8.902  0.3469  0.3121  0.9009
 1964SOL    HW117528   3.812   4.043   8.888 -0.4928 -1.2140 -1.2054
 1964SOL    HW217529   3.700   4.123   8.823  0.9046  0.2314  0.6914
 1965SOL     OW17530   2.402   0.003   7.686 -0.4577 -0.6819 -0.1087
 1965SOL    HW117531   2.438   4.659   7.653  0.3457 -0.2105 -0.4000
 1965SOL    HW217532   2.478   0.060   7.680  0.0220 -1.1190  1.6228
 1966SOL     OW17533   0.719   0.345   9.318  0.1656  0.2170  0.2300
 1966SOL    HW117534   0.625   0.330   9.330 -0.2799  2.8694  0.0185
 1966SOL    HW217535   0.721   0.297   9.235 -1.3183  1.7228 -0.6585
 1967SOL     OW17536   0.228   1.620   4.460  0.1083  0.3521  0.3652
 1967SOL    HW117537   0.212   1.695   4.403  0.0523 -0.7356 -1.0499
 1967SOL    HW217538   0.307   1.573   4.431 -0.8272 -1.2626  0.4127
 1968SOL     OW17539   1.423   4.542   2.658  0.6693 -0.5433  0.1619
 1968SOL    HW117540   1.397   4.532   2.567 -1.7666 -1.8294  0.9886
 1968SOL    HW217541   1.414   4.636   2.670  0.4151 -0.6000  0.4270
 1969SOL     OW17542   0.150   0.467   7.425  0.4103  0.1343  0.3502
 1969SOL    HW117543   0.143   0.374   7.404 -5.0094  0.4417  0.6997
 1969SOL    HW217544   0.128   0.501   7.338  0.6719 -0.1687  0.1643
 1970SOL     OW17545   1.182   4.376  13.979 -0.5950 -0.1304  0.2389
 1970SOL    HW117546   1.195   4.458  13.930 -0.5812 -0.5047 -0.3793
 1970SOL    HW217547   1.095   4.348  13.952 -0.8092  1.4446 -0.6905
 1971SOL     OW17548   2.305   3.576   8.721  0.2632 -0.0592  0.4840
 1971SOL    HW117549   2.358   3.499   8.702  1.0267  1.1482 -2.3104
 1971SOL    HW217550   2.232   3.573   8.660 -1.2358  2.1499  2.1309
 1972SOL     OW17551   1.975   2.348   6.325 -0.0328 -0.1590 -0.1791
 1972SOL    HW117552   2.046   2.351   6.389 -0.6827  0.1483  0.5234
 1972SOL    HW217553   1.903   2.315   6.378  1.2560  1.0642  2.3561
 1973SOL     OW17554   1.016   0.143   6.379  0.6580  0.8086  0.1720
 1973SOL    HW117555   1.029   0.199   6.456  0.5937 -2.7127  2.7418
 1973SOL    HW217556   1.089   0.081   6.380 -0.5275 -0.5900  1.4802
 1974SOL     OW17557   2.253   2.585   2.032 -0.3596  0.4467 -0.2633
 1974SOL    HW117558   2.213   2.636   1.961  0.5504  1.8563  0.2464
 1974SOL    HW217559   2.241   2.648   2.103  2.6214  0.3503  0.3105
 1975SOL     OW17560   4.019   1.864   9.641 -0.0622 -0.4272  0.5709
 1975SOL    HW117561   4.067   1.811   9.704 -0.1400 -0.1677  0.8485
 1975SOL    HW217562   4.031   1.951   9.677  0.8682  0.3267 -1.5854
 1976SOL     OW17563   3.203   0.882   6.286  0.9201 -0.5268 -0.1854
 1976SOL    HW117564   3.150   0.804   6.301 -1.5369  1.2624  0.5036
 1976SOL    HW217565   3.209   0.881   6.190  3.0201 -0.9524 -0.0472
 1977SOL     OW17566   2.312   3.702   5.711 -0.2558 -0.0683  0.5184
 1977SOL    HW117567   2.395   3.689   5.666 -0.6925  0.4743 -0.4570
 1977SOL    HW217568   2.338   3.783   5.754 -0.4482 -0.4673  1.3850
 1978SOL     OW17569   4.595   4.024   6.534  0.9596  0.1499 -0.2055
 1978SOL    HW117570   4.581   3.956   6.467  0.2838  2.3610 -2.3113
 1978SOL    HW217571   4.665   4.065   6.483  0.2013 -0.5871 -1.8349
 1979SOL     OW17572   1.219   3.856  15.625  0.1615  0.3565 -0.7290
 1979SOL    HW117573   1.199   3.937  15.671  0.2019  0.1352 -0.3105
 1979SOL    HW217574   1.314   3.861  15.641  0.0206 -0.9187  0.5856
 1980SOL     OW17575   1.582   2.407  10.994 -0.8649 -0.4937  0.1515
 1980SOL    HW117576   1.631   2.489  11.002 -0.8343 -0.1723 -3.4037
 1980SOL    HW217577   1.529   2.403  11.073 -2.4299 -0.0680 -0.8748
 1981SOL     OW17578   4.041   3.776   3.467  0.6728 -0.3692 -0.1479
 1981SOL    HW117579   4.027   3.868   3.444  0.3206 -0.3343  0.2019
 1981SOL    HW217580   3.997   3.710   3.413  1.0002 -0.8840  0.2125
 1982SOL     OW17581   3.547   1.324  15.083 -0.1893  0.0868 -0.1441
 1982SOL    HW117582   3.585   1.292  15.165  1.8701  0.0462 -1.1062
 1982SOL    HW217583   3.470   1.364  15.122  0.1480  0.0015  0.5961
 1983SOL     OW17584   2.916   1.137   3.883 -0.9581 -0.3961  0.0676
 1983SOL    HW117585   3.004   1.171   3.897 -0.9579  0.2332 -1.3993
 1983SOL    HW217586   2.888   1.145   3.974 -1.4744  0.2265 -0.1474
 1984SOL     OW17587   4.493   4.174   5.206 -0.2619  0.1038  0.5231
 1984SOL    HW117588   4.580   4.198   5.237 -0.8100  1.1173  1.2707
 1984SOL    HW217589   4.483   4.226   5.126  0.0256 -1.8304 -0.7848
 1985SOL     OW17590   2.874   1.026   6.556 -0.2491 -0.0542  0.3529
 1985SOL    HW117591   2.887   1.025   6.461 -0.6885 -2.3519  0.3294
 1985SOL    HW217592   2.949   0.975   6.587  1.1908  1.3386 -0.8431
 1986SOL     OW17593   1.477   0.869   3.191 -0.1839  0.1499 -0.3407
 1986SOL    HW117594   1.457   0.784   3.230 -0.9664 -0.4028 -1.9356
 1986SOL    HW217595   1.568   0.857   3.163  0.5169  0.4165  1.8444
 1987SOL     OW17596   2.507   3.877   4.015  0.1651 -0.1667 -0.5114
 1987SOL    HW117597   2.445   3.951   4.018 -1.8792 -1.8868 -0.3464
 1987SOL    HW217598   2.545   3.903   4.099 -0.0724  0.7901 -0.6938
 1988SOL     OW17599   2.038   0.236   1.214  0.1748  0.0151  0.3273
 1988SOL    HW117600   2.003   0.325   1.217 -1.6225 -0.6024 -2.5276
 1988SOL    HW217601   1.964   0.200   1.166  1.0187 -1.0184 -0.1778
 1989SOL     OW17602   2.609   3.766   3.327 -0.9560  0.3923 -0.1576
 1989SOL    HW117603   2.681   3.726   3.278 -0.3758  1.9071 -0.5360
 1989SOL    HW217604   2.595   3.705   3.399 -3.2535 -0.0649 -0.9833
 1990SOL     OW17605   2.566   0.682   7.033 -0.4335 -0.3998  0.6098
 1990SOL    HW117606   2.602   0.604   7.076  3.0877  1.0546  0.3182
 1990SOL    HW217607   2.572   0.738   7.110  0.7551 -1.3241  1.1888
 1991SOL     OW17608   0.343   3.588   1.332  0.9647 -1.2718  0.6047
 1991SOL    HW117609   0.277   3.625   1.391  1.3719 -2.3911  1.7810
 1991SOL    HW217610   0.345   3.662   1.271  1.4945 -0.1666  1.9566
 1992SOL     OW17611   4.243   0.585  17.049 -0.5458  0.2828 -0.7320
 1992SOL    HW117612   4.315   0.639  17.081 -0.3586  0.6443 -1.7565
 1992SOL    HW217613   4.265   0.493  17.059  0.7296  0.7054  0.2641
 1993SOL     OW17614   2.375   1.554  11.843  0.0633 -0.2426 -0.1089
 1993SOL    HW117615   2.341   1.489  11.905  0.3799 -0.1309  0.1837
 1993SOL    HW217616   2.343   1.633  11.888  0.9689  0.8576 -1.3951
 1994SOL     OW17617   0.298   1.894   4.275  0.4760 -0.5476 -0.3659
 1994SOL    HW117618   0.349   1.948   4.335 -0.1213  0.9799 -1.2397
 1994SOL    HW217619   0.362   1.853   4.216 -0.7600 -3.4511  0.3200
 1995SOL     OW17620   0.698   0.027  12.975  0.2120  0.1898  0.2451
 1995SOL    HW117621   0.785   4.730  12.987  0.3784  0.1809 -1.0613
 1995SOL    HW217622   0.708   0.076  12.893 -0.0279 -0.5939 -0.2497
 1996SOL     OW17623   1.144   4.029   3.971  0.1392 -0.4981 -0.0446
 1996SOL    HW117624   1.229   4.008   3.932 -1.0089 -1.7906 -1.8322
 1996SOL    HW217625   1.088   3.962   3.934  0.0971 -0.1190 -0.6649
 1997SOL     OW17626   4.355   4.415   2.403 -0.0802  0.3917  0.3645
 1997SOL    HW117627   4.315   4.358   2.337  1.1018  1.1445 -0.9690
 1997SOL    HW217628   4.282   4.433   2.462  1.0788 -0.1137  1.9440
 1998SOL     OW17629   0.200   0.190   7.377 -0.1518 -0.3950  0.0138
 1998SOL    HW117630   0.228   0.142   7.299  1.2982 -1.0850  0.9579
 1998SOL    HW217631   0.291   0.215   7.393 -0.1616  0.8419 -1.7343
 1999SOL     OW17632   2.798   1.305  17.100 -0.7203 -0.3100 -0.1852
 1999SOL    HW117633   2.837   1.262  17.025 -0.0819 -1.0451  0.5702
 1999SOL    HW217634   2.870   1.329  17.158 -0.3785 -0.3751 -0.5929
 2000SOL     OW17635   3.501   1.450  14.291 -0.0603 -0.4142 -0.4632
 2000SOL    HW117636   3.503   1.426  14.199 -0.7690 -0.0221 -0.5819
 2000SOL    HW217637   3.584   1.496  14.289 -1.6322  2.3103 -1.8251
 2001SOL     OW17638   2.495   0.817   2.230  0.6388 -0.5926 -0.2654
 2001SOL    HW117639   2.405   0.835   2.256  2.3058  2.3431  3.4790
 2001SOL    HW217640   2.482   0.799   2.137 -2.9235 -1.7807  0.4789
 2002SOL     OW17641   0.851   4.271  17.596  0.6524  0.1364 -0.5910
 2002SOL    HW117642   0.772   4.228  17.565  1.4450 -1.8246  0.1159
 2002SOL    HW217643   0.875   4.312  17.513  1.6874 -1.5273 -1.1170
 2003SOL     OW17644   2.422   0.175   9.193 -0.0990 -0.0077  0.0517
 2003SOL    HW117645   2.372   0.124   9.257  0.7783 -1.7224 -0.6183
 2003SOL    HW217646   2.510   0.139   9.203  0.0167  0.0356 -0.8097
 2004SOL     OW17647   3.119   2.831   6.325  0.2338 -0.1154 -0.1337
 2004SOL    HW117648   3.215   2.822   6.330  0.2994  1.1471  1.1220
 2004SOL    HW217649   3.117   2.891   6.400  1.3953  0.8225 -0.8415
 2005SOL     OW17650   1.787   2.896   5.181  0.0804  0.0088  0.0310
 2005SOL    HW117651   1.704   2.932   5.211 -0.1288  1.4901 -2.3258
 2005SOL    HW217652   1.811   2.831   5.247  1.3342  1.5722  1.1164
 2006SOL     OW17653   3.172   3.102   4.470 -0.9439  0.4197  0.1114
 2006SOL    HW117654   3.160   3.161   4.396  2.4147  1.5926  0.4730
 2006SOL    HW217655   3.199   3.167   4.534  0.6905  0.7700 -0.9253
 2007SOL     OW17656   4.114   4.428  11.048 -0.0208  0.0362 -0.3472
 2007SOL    HW117657   4.207   4.407  11.058 -0.3364  0.0941  2.8200
 2007SOL    HW217658   4.124   4.501  10.987  0.2870  0.5889  0.3583
 2008SOL     OW17659   4.408   0.780   4.983 -0.3129  0.2630 -0.3572
 2008SOL    HW117660   4.440   0.836   4.912  0.2965 -0.1402 -0.3972
 2008SOL    HW217661   4.495   0.756   5.016 -0.6877  2.1026  1.9779
 2009SOL     OW17662   4.304   0.221   6.228 -0.1392 -0.1105  0.2284
 2009SOL    HW117663   4.302   0.302   6.278 -0.8094  1.2563 -2.0078
 2009SOL    HW217664   4.398   0.225   6.208  0.0658 -0.2149  1.1816
 2010SOL     OW17665   4.120   3.699   1.409 -0.3842  0.2876  0.5180
 2010SOL    HW117666   4.039   3.726   1.452 -0.5606 -0.6664  0.7870
 2010SOL    HW217667   4.141   3.777   1.357 -0.0888  0.9696  1.6622
 2011SOL     OW17668   2.821   0.034   6.822  0.1734  0.3533 -0.2222
 2011SOL    HW117669   2.812   0.129   6.820  1.8772  0.4749 -2.0033
 2011SOL    HW217670   2.827   0.015   6.915  1.0625  0.6217 -0.2306
 2012SOL     OW17671   3.139   3.686   4.336  0.4818 -0.3766 -0.0743
 2012SOL    HW117672   3.126   3.678   4.430  0.9101  0.9918  0.0968
 2012SOL    HW217673   3.194   3.761   4.317 -2.0552  1.7746  1.0856
 2013SOL     OW17674   0.784   4.477   6.642 -0.0113 -0.2439 -0.6506
 2013SOL    HW117675   0.745   4.412   6.584  0.3466  1.0097 -2.2999
 2013SOL    HW217676   0.868   4.482   6.597  1.1879  0.5690  1.6587
 2014SOL     OW17677   3.048   4.289  15.283 -0.0429  0.4708  0.1517
 2014SOL    HW117678   3.008   4.212  15.323 -1.1615 -0.4317 -2.7360
 2014SOL    HW217679   2.975   4.349  15.290  0.5626  1.2101  0.1043
 2015SOL     OW17680   1.306   2.241   7.772 -0.2681  0.0743  0.3122
 2015SOL    HW117681   1.301   2.271   7.681  1.4511 -2.8698 -0.7537
 2015SOL    HW217682   1.354   2.160   7.759  2.4056  2.0811 -2.1809
 2016SOL     OW17683   3.344   2.322   9.024 -0.1569  0.8344 -0.5721
 2016SOL    HW117684   3.265   2.298   9.073 -0.2508  0.1952 -1.0279
 2016SOL    HW217685   3.323   2.415   9.017  0.3240  0.9043 -1.0074
 2017SOL     OW17686   1.115   0.688   9.134 -0.0979  0.9208 -0.2256
 2017SOL    HW117687   1.051   0.622   9.107  0.4130 -0.3865  1.7210
 2017SOL    HW217688   1.075   0.702   9.220  0.7261 -4.4668  1.0252
 2018SOL     OW17689   4.545   3.687   8.676 -0.0729  0.3409  1.1125
 2018SOL    HW117690   4.479   3.673   8.744 -2.4133  1.3198 -0.9657
 2018SOL    HW217691   4.569   3.780   8.674 -1.6444  0.6935 -1.3908
 2019SOL     OW17692   3.193   4.004   4.707  0.1215 -0.2355  0.4108
 2019SOL    HW117693   3.280   3.965   4.699 -0.1549 -0.3765 -1.7958
 2019SOL    HW217694   3.208   4.087   4.751 -0.1645  1.0830 -1.9831
 2020SOL     OW17695   0.833   3.136   7.461  0.4456  0.0858  0.2879
 2020SOL    HW117696   0.891   3.198   7.505  0.0684 -0.3722  1.4171
 2020SOL    HW217697   0.760   3.124   7.521 -0.2119  4.1223  0.3185
 2021SOL     OW17698   4.296   3.766  14.494  0.3762  0.0501  0.0785
 2021SOL    HW117699   4.372   3.709  14.504  1.0240  0.9825  0.4352
 2021SOL    HW217700   4.327   3.850  14.527 -2.2044  0.6474  1.0232
 2022SOL     OW17701   2.029   4.392   8.196 -0.0025 -0.1056 -0.2991
 2022SOL    HW117702   1.933   4.389   8.187 -0.2949  0.5895  2.7490
 2022SOL    HW217703   2.057   4.482   8.177  1.2831 -0.5751 -0.6072
 2023SOL     OW17704   3.683   2.612   7.680 -0.4607 -0.2199 -0.1941
 2023SOL    HW117705   3.625   2.561   7.736  2.0943 -0.5252  2.1854
 2023SOL    HW217706   3.634   2.618   7.598 -0.2256  0.1662 -0.3061
 2024SOL     OW17707   1.360   0.565   1.871  0.1719 -0.1034  0.0671
 2024SOL    HW117708   1.398   0.653   1.871 -0.9265  0.3714  0.8245
 2024SOL    HW217709   1.347   0.564   1.966  1.0861  2.1377  0.2294
 2025SOL     OW17710   4.406   4.137  13.787 -0.2518  0.1505  0.3846
 2025SOL    HW117711   4.397   4.088  13.869  0.1887 -0.0959  0.2875
 2025SOL    HW217712   4.471   4.205  13.806 -1.6735  1.3528  0.9611
 2026SOL     OW17713   1.220   4.323   5.997 -0.0654  0.0158 -0.0680
 2026SOL    HW117714   1.273   4.265   5.942  0.6507  1.0955 -0.5287
 2026SOL    HW217715   1.268   4.404   5.979 -0.7667  0.9129  2.0916
 2027SOL     OW17716   0.968   1.935  16.748 -0.2560  0.1393  0.1207
 2027SOL    HW117717   0.947   2.027  16.733 -1.4668 -0.0951  0.3423
 2027SOL    HW217718   0.895   1.921  16.809 -0.8715 -1.8941 -1.0681
 2028SOL     OW17719   2.590   1.619   3.311 -0.1943  0.6424 -0.6413
 2028SOL    HW117720   2.630   1.536   3.337  0.2080  0.8568 -0.5948
 2028SOL    HW217721   2.604   1.666   3.393 -0.3960 -2.4351  1.1484
 2029SOL     OW17722   0.180   2.761   7.194  0.0790 -0.1536  0.4788
 2029SOL    HW117723   0.211   2.841   7.237  1.0162  0.2552 -0.9276
 2029SOL    HW217724   0.229   2.689   7.234 -0.3275 -0.2290  0.8406
 2030SOL     OW17725   1.595   1.781   0.758 -0.0205 -0.4910 -0.5761
 2030SOL    HW117726   1.618   1.794   0.666  0.2483 -0.9495 -0.5745
 2030SOL    HW217727   1.608   1.868   0.796 -1.6711 -1.2624  1.7054
 2031SOL     OW17728   0.791   4.459   4.486  0.6606 -0.3974 -0.7182
 2031SOL    HW117729   0.861   4.461   4.421  2.3882 -3.4517  1.0853
 2031SOL    HW217730   0.834   4.447   4.571 -0.3311 -0.1581 -0.1783
 2032SOL     OW17731   0.508   3.381   4.614  0.0565  0.0735 -0.6996
 2032SOL    HW117732   0.587   3.408   4.661 -1.3876 -0.0691  1.7826
 2032SOL    HW217733   0.479   3.465   4.579 -0.6743  1.7281  3.8730
 2033SOL     OW17734   4.408   1.891   8.214 -0.0016  0.3747 -0.0212
 2033SOL    HW117735   4.478   1.870   8.277 -0.0417 -0.1870 -0.1663
 2033SOL    HW217736   4.453   1.962   8.169 -1.9358  1.6192  0.0338
 2034SOL     OW17737   2.247   1.649  12.753 -0.5931  0.5557  0.1043
 2034SOL    HW117738   2.339   1.650  12.780  0.1005  1.2019 -2.3610
 2034SOL    HW217739   2.242   1.702  12.673  1.6373  1.8223  0.8153
 2035SOL     OW17740   0.820   2.281   8.658  0.3912 -0.5078  0.0444
 2035SOL    HW117741   0.891   2.225   8.627  2.0121  2.2058 -1.1348
 2035SOL    HW217742   0.749   2.265   8.596  0.2606 -0.8556  0.2817
 2036SOL     OW17743   0.011   0.744  16.198  0.1604 -0.0243 -0.0394
 2036SOL    HW117744   4.726   0.656  16.226  1.4216  0.7100  3.4172
 2036SOL    HW217745   4.724   0.795  16.275 -0.3024 -2.1680  1.2259
 2037SOL     OW17746   3.506   1.104   0.345  0.0428 -0.4563 -0.8589
 2037SOL    HW117747   3.442   1.038   0.371  0.5888 -0.1143  1.3432
 2037SOL    HW217748   3.447   1.175   0.320  0.4797 -0.4845 -1.9342
 2038SOL     OW17749   0.325   1.506   8.047  0.1052 -0.1379 -0.2607
 2038SOL    HW117750   0.243   1.492   8.001 -0.1831  0.7007  0.0157
 2038SOL    HW217751   0.373   1.428   8.018  0.5381 -0.3658  1.0592
 2039SOL     OW17752   3.269   4.586  15.468 -0.2401 -0.0727 -0.5694
 2039SOL    HW117753   3.362   4.565  15.474 -0.1844  0.5424  0.5327
 2039SOL    HW217754   3.267   4.600  15.373 -0.1972  1.8184 -0.2959
 2040SOL     OW17755   2.259   2.721   6.367  0.1172 -0.0975 -0.0272
 2040SOL    HW117756   2.207   2.796   6.340  1.4407  0.2684 -1.5649
 2040SOL    HW217757   2.193   2.664   6.407  0.2695  0.1245  0.5454
 2041SOL     OW17758   1.095   2.613   2.756  0.5055 -0.2420 -0.1349
 2041SOL    HW117759   1.185   2.634   2.732  0.0216  1.7879 -0.2136
 2041SOL    HW217760   1.098   2.519   2.737 -0.2076 -0.4077  0.5713
 2042SOL     OW17761   0.647   2.519   4.689 -0.0099  0.4477  0.1636
 2042SOL    HW117762   0.579   2.460   4.723 -0.4994 -1.0315 -3.3209
 2042SOL    HW217763   0.611   2.607   4.698 -0.2844  0.4421 -0.8508
 2043SOL     OW17764   3.122   1.862   0.259  0.2474 -0.2562 -0.0113
 2043SOL    HW117765   3.078   1.935   0.214  0.7324 -0.2820 -0.5279
 2043SOL    HW217766   3.070   1.866   0.339  0.0562 -1.2239 -0.0933
 2044SOL     OW17767   4.457   1.705   5.130  0.3123 -0.1897  0.4082
 2044SOL    HW117768   4.532   1.743   5.084  0.0512 -1.8615 -1.4017
 2044SOL    HW217769   4.493   1.616   5.131  2.4943  0.6769 -1.1861
 2045SOL     OW17770   0.127   3.564  13.220 -0.5359  0.2800 -0.7232
 2045SOL    HW117771   0.119   3.481  13.268  0.4833  0.7802  0.3018
 2045SOL    HW217772   0.085   3.614  13.290  0.7279  1.8303 -1.0694
 2046SOL     OW17773   4.233   0.124   7.179  0.2130  0.2475  0.0364
 2046SOL    HW117774   4.295   0.059   7.212 -0.0240  0.3753  0.7324
 2046SOL    HW217775   4.252   0.197   7.237 -0.7214  0.6952 -0.2221
 2047SOL     OW17776   1.966   3.689   2.532 -0.4551  0.7081  0.2664
 2047SOL    HW117777   1.954   3.767   2.586 -0.7523 -0.6362  2.1429
 2047SOL    HW217778   1.884   3.644   2.552  0.0534 -0.2536  0.1919
 2048SOL     OW17779   1.590   0.344  12.965 -0.4435 -0.4238 -0.1186
 2048SOL    HW117780   1.653   0.285  13.004 -0.9373  1.2006  3.1156
 2048SOL    HW217781   1.525   0.355  13.034  0.2772 -0.4796  0.5606
 2049SOL     OW17782   0.920   1.452  12.277 -0.0195 -0.0176  0.4347
 2049SOL    HW117783   0.878   1.517  12.335  3.8159  0.2448  2.9032
 2049SOL    HW217784   1.005   1.431  12.315 -0.0353  2.0164  1.5950
 2050SOL     OW17785   2.922   4.537   7.676 -0.0589 -0.2136 -0.6144
 2050SOL    HW117786   2.875   4.462   7.637  1.4128 -1.1479 -0.6060
 2050SOL    HW217787   3.009   4.499   7.660 -0.8619 -1.6332 -1.7447
 2051SOL     OW17788   0.428   4.120   9.627  0.1236 -0.0508  0.4420
 2051SOL    HW117789   0.408   4.169   9.707  3.0007  1.1611  0.4430
 2051SOL    HW217790   0.495   4.057   9.653 -0.1067 -0.8062 -0.8178
 2052SOL     OW17791   1.403   3.561  10.013 -0.0234 -0.0993 -0.8073
 2052SOL    HW117792   1.428   3.595  10.098  0.9255  0.4115 -1.2867
 2052SOL    HW217793   1.352   3.636   9.984 -0.8382  0.0426  0.9867
 2053SOL     OW17794   0.517   2.890   7.693 -0.3899  0.1650  0.2193
 2053SOL    HW117795   0.512   2.832   7.769 -1.9866  1.2245  0.9332
 2053SOL    HW217796   0.575   2.963   7.715 -0.0900  0.6468 -2.2275
 2054SOL     OW17797   3.567   1.429   6.407  0.3444  0.0527  0.2501
 2054SOL    HW117798   3.559   1.521   6.433 -1.8098 -0.3165  0.8955
 2054SOL    HW217799   3.479   1.415   6.373  0.3045  1.2136 -0.1441
 2055SOL     OW17800   0.152   4.468  10.159  0.5253 -0.4293  0.3564
 2055SOL    HW117801   0.217   4.407  10.194 -0.9980 -1.2656  1.7683
 2055SOL    HW217802   0.184   4.550  10.197  0.0206 -0.9751  1.9592
 2056SOL     OW17803   1.612   2.633   4.645  0.0993  0.1939  0.0657
 2056SOL    HW117804   1.635   2.544   4.671 -0.7102  0.3574  1.3608
 2056SOL    HW217805   1.578   2.671   4.726 -1.1270  0.6200 -0.6498
 2057SOL     OW17806   4.208   4.038   4.466 -0.4193  0.1373 -0.4756
 2057SOL    HW117807   4.122   4.013   4.500 -0.2813  1.0545  0.5465
 2057SOL    HW217808   4.256   3.956   4.475 -3.5761 -1.4194  2.4496
 2058SOL     OW17809   3.917   1.376   9.589  0.1968  0.0414  0.4324
 2058SOL    HW117810   3.913   1.459   9.637 -0.6865 -0.6758  1.6100
 2058SOL    HW217811   3.908   1.407   9.499  2.6244  1.1023  0.5733
 2059SOL     OW17812   1.698   4.669  11.662 -0.6038  0.0927  0.5129
 2059SOL    HW117813   1.716   0.019  11.695  0.5635 -0.4385  1.2737
 2059SOL    HW217814   1.787   4.645  11.638 -0.9244  0.7485 -1.3526
 2060SOL     OW17815   4.589   2.958  14.839 -0.0052  0.1680 -0.3105
 2060SOL    HW117816   4.638   2.890  14.887  0.3395  0.3945 -0.3441
 2060SOL    HW217817   4.537   3.005  14.904 -0.4337  0.1489 -0.6443
 2061SOL     OW17818   3.015   3.583   0.224 -0.0044 -0.0237  0.5601
 2061SOL    HW117819   3.015   3.659   0.282 -1.2653 -0.5966  1.3215
 2061SOL    HW217820   3.005   3.510   0.285 -0.1827 -1.1178 -0.7873
 2062SOL     OW17821   2.082   1.302  16.604 -0.1020 -0.3117 -0.1020
 2062SOL    HW117822   2.095   1.377  16.661  0.2796 -0.7220  0.3589
 2062SOL    HW217823   2.092   1.345  16.519 -0.2465  1.2003  0.6545
 2063SOL     OW17824   4.616   0.693   7.372  0.0779 -0.0236  0.2592
 2063SOL    HW117825   4.710   0.709   7.373  0.1978 -0.7492 -0.1300
 2063SOL    HW217826   4.604   0.614   7.425 -0.0636  0.5197  1.0403
 2064SOL     OW17827   1.789   0.540  12.872  0.0658 -0.8348  0.0390
 2064SOL    HW117828   1.746   0.458  12.891 -2.7741  0.4792 -0.7875
 2064SOL    HW217829   1.871   0.526  12.919  0.6724  1.4854 -0.2991
 2065SOL     OW17830   1.426   3.659  10.673 -0.4264 -0.0448  0.7286
 2065SOL    HW117831   1.390   3.639  10.759 -1.0542 -0.3717  0.3910
 2065SOL    HW217832   1.505   3.709  10.692 -0.3596 -1.0313  3.0724
 2066SOL     OW17833   0.691   0.840  16.830 -0.3239 -0.3679  0.1663
 2066SOL    HW117834   0.744   0.792  16.894  1.8050 -0.5055 -1.7213
 2066SOL    HW217835   0.619   0.866  16.888  1.0670 -0.8044  2.1122
 2067SOL     OW17836   0.862   0.733   7.558  0.4073  0.1714 -0.2579
 2067SOL    HW117837   0.908   0.807   7.517  1.5118  0.9533  2.4048
 2067SOL    HW217838   0.797   0.708   7.492 -0.3289 -0.5837  0.7592
 2068SOL     OW17839   1.565   0.907   0.440  0.6798  0.2002 -0.0749
 2068SOL    HW117840   1.526   0.989   0.471  0.0501  0.9391 -2.8208
 2068SOL    HW217841   1.639   0.950   0.396  1.2832  0.8519  1.5971
 2069SOL     OW17842   0.286   3.789   3.372 -0.5734  0.1231  0.2675
 2069SOL    HW117843   0.352   3.831   3.318 -0.9104 -1.2886 -1.2354
 2069SOL    HW217844   0.219   3.858   3.378  1.7060  2.3919 -0.3222
 2070SOL     OW17845   0.187   3.130   6.648 -0.4009  0.7540  0.3232
 2070SOL    HW117846   0.201   3.218   6.613 -1.0123  0.1119 -1.5612
 2070SOL    HW217847   0.149   3.082   6.574 -0.8447  2.4912 -0.5895
 2071SOL     OW17848   4.142   1.248   8.452  0.5506 -0.2732  0.8532
 2071SOL    HW117849   4.133   1.157   8.480 -0.7902 -1.2455 -2.7149
 2071SOL    HW217850   4.050   1.274   8.464 -0.0154 -1.7072 -0.3864
 2072SOL     OW17851   4.172   4.596   6.709 -0.4162 -0.3055 -0.8665
 2072SOL    HW117852   4.260   4.561   6.724 -0.2349  1.0826  1.2636
 2072SOL    HW217853   4.140   4.593   6.799 -0.0883 -0.3868 -0.7514
 2073SOL     OW17854   1.913   4.070   0.363  0.2576 -0.1812  0.6042
 2073SOL    HW117855   1.859   4.070   0.442 -1.3423 -1.3311 -0.4886
 2073SOL    HW217856   1.874   4.002   0.309 -1.3174  0.0855  1.3940
 2074SOL     OW17857   4.332   0.365   8.426 -0.6059  0.1014  0.1586
 2074SOL    HW117858   4.257   0.399   8.377 -0.5835  1.1351  0.8520
 2074SOL    HW217859   4.399   0.341   8.362 -0.6444  0.5641 -0.0581
 2075SOL     OW17860   4.086   4.223   7.600  0.1280 -0.0463  0.1357
 2075SOL    HW117861   4.036   4.283   7.545 -1.6507 -1.3598  0.3134
 2075SOL    HW217862   4.142   4.285   7.647 -1.2862 -0.4510  2.3663
 2076SOL     OW17863   1.637   3.703   7.777 -0.2463  0.3700  0.2434
 2076SOL    HW117864   1.561   3.680   7.830  0.7161 -1.1094  0.9621
 2076SOL    HW217865   1.685   3.622   7.760 -1.9810 -0.5531 -0.2747
 2077SOL     OW17866   4.516   0.296   7.454 -0.0408 -1.0418  0.3271
 2077SOL    HW117867   4.574   0.270   7.383 -0.9038 -0.5572 -0.5608
 2077SOL    HW217868   4.429   0.306   7.415  1.4347  0.9705 -2.4314
 2078SOL     OW17869   2.952   4.367   4.407  0.0188 -0.3900 -0.5900
 2078SOL    HW117870   2.866   4.390   4.370  0.6462  0.3997 -1.5483
 2078SOL    HW217871   3.009   4.442   4.391 -0.8854  0.6593  1.0123
 2079SOL     OW17872   0.461   0.845   1.942 -0.5728 -0.9850 -0.2397
 2079SOL    HW117873   0.382   0.871   1.989  1.5712 -1.8816  3.9743
 2079SOL    HW217874   0.498   0.933   1.935 -0.8512 -0.6823  1.8088
 2080SOL     OW17875   0.777   1.988   1.067  0.5458 -0.4916  0.1222
 2080SOL    HW117876   0.780   1.899   1.030 -1.7913 -0.8221  0.7221
 2080SOL    HW217877   0.685   2.015   1.061  1.0904  1.4424  0.5691
 2081SOL     OW17878   3.559   0.547  12.422  0.1256  0.3663  0.4696
 2081SOL    HW117879   3.511   0.612  12.370 -0.4243 -0.8361 -0.5253
 2081SOL    HW217880   3.636   0.602  12.429  0.4112  0.1625 -0.8954
 2082SOL     OW17881   4.185   2.896  14.001 -0.5274 -0.5241 -0.2685
 2082SOL    HW117882   4.129   2.943  14.063  1.1367 -1.6754  2.1384
 2082SOL    HW217883   4.179   2.807  14.036 -0.0082 -0.8348 -0.9827
 2083SOL     OW17884   4.432   4.117  13.531  0.1232 -0.0512 -0.0017
 2083SOL    HW117885   4.341   4.133  13.505  0.1668 -0.1844 -0.2327
 2083SOL    HW217886   4.433   4.135  13.625 -4.4398  1.6055 -0.2891
 2084SOL     OW17887   4.500   3.292   8.475  0.3101 -0.3156 -0.0051
 2084SOL    HW117888   4.595   3.286   8.469  0.5269  1.0958  1.8755
 2084SOL    HW217889   4.484   3.260   8.564 -0.4270 -1.8700 -0.6854
 2085SOL     OW17890   0.654   1.075   9.357 -0.2043 -0.7042  0.3645
 2085SOL    HW117891   0.656   1.148   9.295  0.5933 -0.3829  0.7734
 2085SOL    HW217892   0.579   1.021   9.333  0.2172  0.7401 -4.1679
 2086SOL     OW17893   2.095   3.203   4.644 -0.6767 -0.8837 -0.0283
 2086SOL    HW117894   2.054   3.281   4.684  1.5718  0.8306 -1.0940
 2086SOL    HW217895   2.155   3.172   4.712  0.3650  1.3290  0.0785
 2087SOL     OW17896   4.619   0.882   9.145  0.0115  0.0331  0.7880
 2087SOL    HW117897   4.528   0.856   9.133  0.1840  1.5092 -3.7507
 2087SOL    HW217898   4.663   0.797   9.134  0.8031 -0.0100  4.3945
 2088SOL     OW17899   3.331   0.602  13.699  0.7516 -0.1238 -0.0826
 2088SOL    HW117900   3.320   0.647  13.783  2.3151  0.3468 -0.1322
 2088SOL    HW217901   3.423   0.581  13.710  0.1426 -2.6867  0.0507
 2089SOL     OW17902   4.175   3.444   8.211  0.1602 -0.0432  0.0504
 2089SOL    HW117903   4.268   3.428   8.229 -0.2765 -1.4333  1.0908
 2089SOL    HW217904   4.139   3.437   8.300 -0.9576 -1.6817 -0.5304
 2090SOL     OW17905   1.455   4.316  12.149 -0.5630 -0.7368 -0.6582
 2090SOL    HW117906   1.491   4.328  12.061  0.7416 -1.2914 -0.2000
 2090SOL    HW217907   1.516   4.261  12.198  0.9382 -0.0240 -1.6949
 2091SOL     OW17908   4.070   2.166   7.914  0.3867 -0.0507  0.7181
 2091SOL    HW117909   3.983   2.156   7.954 -0.2501  1.6548 -0.2651
 2091SOL    HW217910   4.095   2.073   7.912 -2.2735 -0.7743  0.5959
 2092SOL     OW17911   2.072   2.466  13.621 -0.4803  0.0204 -0.0218
 2092SOL    HW117912   2.080   2.380  13.661 -1.4010 -0.3706 -0.6868
 2092SOL    HW217913   1.991   2.458  13.571 -0.5259 -0.3419  0.1102
 2093SOL     OW17914   0.606   0.435   7.290 -0.3188  0.1610 -0.0636
 2093SOL    HW117915   0.568   0.441   7.203  0.9601 -2.3230 -0.7716
 2093SOL    HW217916   0.655   0.517   7.299  0.0457 -0.1023  0.3308
 2094SOL     OW17917   2.227   0.631  10.030 -0.0401 -0.1736 -0.1637
 2094SOL    HW117918   2.273   0.561  10.076  0.6891  0.1775 -0.3720
 2094SOL    HW217919   2.259   0.615   9.942 -1.6082 -1.2123 -0.5537
 2095SOL     OW17920   0.608   0.919   7.709 -0.8708  0.5140  0.7626
 2095SOL    HW117921   0.639   0.952   7.793 -0.6555 -2.6122  1.8979
 2095SOL    HW217922   0.652   0.980   7.650 -1.2984  0.5087  0.4331
 2096SOL     OW17923   3.924   4.334   7.397 -0.3762 -0.0883 -0.4806
 2096SOL    HW117924   3.886   4.258   7.354 -0.9829 -0.5847  0.9287
 2096SOL    HW217925   3.895   4.398   7.332  0.2720 -2.1815 -2.8073
 2097SOL     OW17926   0.153   4.107   9.398 -0.3456  0.2065  0.3638
 2097SOL    HW117927   0.195   4.121   9.482 -1.7211  1.0098  0.9263
 2097SOL    HW217928   0.212   4.150   9.336  0.1476  0.3142  0.9166
 2098SOL     OW17929   3.473   3.391  17.368 -0.2938 -0.1310 -0.0684
 2098SOL    HW117930   3.531   3.403  17.292 -0.7180 -0.9210 -0.5247
 2098SOL    HW217931   3.489   3.300  17.394  0.8603 -0.4008 -1.7253
 2099SOL     OW17932   3.953   1.706   9.218  0.1938  0.2626  1.5610
 2099SOL    HW117933   4.009   1.779   9.244  0.9674 -0.3098  1.4844
 2099SOL    HW217934   4.011   1.656   9.161 -1.9648 -1.5690  0.9870
 2100SOL     OW17935   3.173   2.564   4.254  0.0594  0.1082  0.3621
 2100SOL    HW117936   3.092   2.604   4.286 -0.1954 -0.3132  0.2508
 2100SOL    HW217937   3.233   2.634   4.230 -0.3103  0.9337  1.8715
 2101SOL     OW17938   3.233   1.527  17.604  0.1041 -0.3025  0.5228
 2101SOL    HW117939   3.247   1.584  17.679 -1.5991  1.0271 -0.1531
 2101SOL    HW217940   3.219   1.439  17.640 -0.0049 -0.2574  0.5874
 2102SOL     OW17941   2.184   3.347   8.546 -0.2062  0.4665  0.0075
 2102SOL    HW117942   2.211   3.396   8.469  0.7356 -1.6483 -1.0096
 2102SOL    HW217943   2.229   3.265   8.527 -0.0646  0.3351  0.8825
 2103SOL     OW17944   2.717   4.157   2.217 -0.5896 -0.0964 -0.0880
 2103SOL    HW117945   2.693   4.238   2.172  0.9432  0.5586  0.2763
 2103SOL    HW217946   2.790   4.185   2.272  0.0671 -1.7258 -0.1370
 2104SOL     OW17947   2.756   1.576   8.260  0.0931 -0.0229  0.9032
 2104SOL    HW117948   2.693   1.648   8.254  0.7594  0.4530 -0.3077
 2104SOL    HW217949   2.817   1.613   8.324 -1.0895 -1.1688  2.6834
 2105SOL     OW17950   3.120   3.176   8.990  0.2536 -0.2924  0.1625
 2105SOL    HW117951   3.087   3.086   8.998 -1.0473  0.0677 -1.3060
 2105SOL    HW217952   3.202   3.151   9.032 -0.4888 -0.0052  1.7886
 2106SOL     OW17953   2.143   0.687  17.299 -0.2126  0.7598 -0.1865
 2106SOL    HW117954   2.234   0.695  17.273 -0.3733 -0.3082 -1.0776
 2106SOL    HW217955   2.146   0.663  17.392 -0.8696 -0.0797 -0.3801
 2107SOL     OW17956   3.356   3.645  14.411 -0.6809  0.3274  0.3972
 2107SOL    HW117957   3.341   3.634  14.505 -0.6055 -0.6698  0.2981
 2107SOL    HW217958   3.393   3.732  14.398 -2.8183  1.0001 -1.0920
 2108SOL     OW17959   1.032   2.758  10.889 -0.5662 -0.4471 -0.5230
 2108SOL    HW117960   0.996   2.822  10.951 -0.1004 -0.2030 -0.5053
 2108SOL    HW217961   0.981   2.677  10.891 -1.1778 -0.0220  1.2245
 2109SOL     OW17962   0.822   1.615   4.024 -0.0797  0.0531 -0.2972
 2109SOL    HW117963   0.843   1.619   3.931 -1.0382  0.1277 -0.5034
 2109SOL    HW217964   0.858   1.700   4.049 -2.2417 -0.3409  4.2034
 2110SOL     OW17965   3.741   2.055  12.577  0.7176  0.3165  0.2848
 2110SOL    HW117966   3.753   2.045  12.672  0.4614 -0.4413  0.2380
 2110SOL    HW217967   3.776   1.976  12.537 -2.1650 -0.9167  0.1689
 2111SOL     OW17968   2.281   3.500   1.594  0.2484  0.4908  0.1808
 2111SOL    HW117969   2.207   3.463   1.642  1.2497 -1.0806  0.5343
 2111SOL    HW217970   2.258   3.592   1.606  0.8773  0.6932 -0.1970
 2112SOL     OW17971   3.585   0.893   7.071 -0.4536  0.0140  0.2550
 2112SOL    HW117972   3.562   0.985   7.080 -1.0906 -0.0151 -1.2235
 2112SOL    HW217973   3.504   0.852   7.102 -0.8943  2.0376  1.8040
 2113SOL     OW17974   3.494   2.608   2.266 -0.1367  0.2603 -0.0195
 2113SOL    HW117975   3.507   2.538   2.202 -0.3744  0.9779 -0.8511
 2113SOL    HW217976   3.537   2.566   2.341 -1.0127  0.2926  0.4933
 2114SOL     OW17977   4.462   4.378   5.026  0.4285 -0.0633 -0.2915
 2114SOL    HW117978   4.473   4.458   5.078  1.7353 -0.1851 -0.3735
 2114SOL    HW217979   4.367   4.367   5.026  0.5704 -1.2580  2.4200
 2115SOL     OW17980   2.948   3.519   6.418  0.3233 -0.4891 -0.2862
 2115SOL    HW117981   2.944   3.579   6.344  0.9462 -1.2425 -0.9271
 2115SOL    HW217982   2.874   3.458   6.413 -0.7074  0.7380  0.0701
 2116SOL     OW17983   4.262   3.444   9.725  0.0956  0.0610 -0.3716
 2116SOL    HW117984   4.252   3.517   9.786 -2.2327  0.3473 -1.0798
 2116SOL    HW217985   4.202   3.376   9.755 -2.0195  2.5590  1.0446
 2117SOL     OW17986   3.462   2.739   3.356 -0.0056  0.4269 -0.0182
 2117SOL    HW117987   3.478   2.672   3.422  0.2797 -0.4059 -0.9366
 2117SOL    HW217988   3.532   2.722   3.293  2.7168 -0.8575  3.3664
 2118SOL     OW17989   2.826   0.674  15.175 -0.3635  0.0412 -0.9451
 2118SOL    HW117990   2.906   0.671  15.121  0.5098 -0.3676  0.3704
 2118SOL    HW217991   2.792   0.585  15.169 -0.6754 -0.0949  3.1942
 2119SOL     OW17992   3.562   1.803   5.742  0.2090 -0.3334  0.5484
 2119SOL    HW117993   3.605   1.833   5.662  0.6374 -2.6306 -0.0911
 2119SOL    HW217994   3.530   1.714   5.725  0.1359 -0.2698  0.3596
 2120SOL     OW17995   4.470   0.128   8.616 -0.6819 -0.2486 -0.1713
 2120SOL    HW117996   4.416   0.187   8.564  2.6898 -0.2182 -3.6537
 2120SOL    HW217997   4.517   0.083   8.546 -2.1562  0.3752 -1.5527
 2121SOL     OW17998   0.703   2.888   9.160 -0.4958 -0.0747 -0.3735
 2121SOL    HW117999   0.738   2.812   9.207 -2.9698 -0.0994  1.4124
 2121SOL    HW218000   0.768   2.951   9.190 -0.8378 -0.7278  1.7646
 2122SOL     OW18001   1.979   0.030   9.343  0.2544  0.0063  0.6390
 2122SOL    HW118002   1.955   4.724   9.262  2.9033 -1.5291  0.7022
 2122SOL    HW218003   1.975   4.692   9.400  3.1979  0.9863  2.2044
 2123SOL     OW18004   2.174   1.695   0.655  0.0201  0.3955  0.1771
 2123SOL    HW118005   2.237   1.708   0.583  1.5331  1.6791  1.7262
 2123SOL    HW218006   2.129   1.779   0.644 -1.2614 -0.2119  0.8465
 2124SOL     OW18007   2.490   0.621   7.766 -0.2500 -0.0202 -0.2229
 2124SOL    HW118008   2.400   0.635   7.798 -0.3946  1.1248 -1.1433
 2124SOL    HW218009   2.511   0.530   7.787 -3.1577 -0.6677 -0.1293
 2125SOL     OW18010   4.380   2.746   2.880 -0.1050 -0.1942 -0.2132
 2125SOL    HW118011   4.460   2.758   2.932  1.5392 -0.9339 -2.5869
 2125SOL    HW218012   4.343   2.662   2.909 -0.4480  0.4088  1.1161
 2126SOL     OW18013   2.348   4.290   9.266 -0.0131 -0.2042 -0.2453
 2126SOL    HW118014   2.381   4.221   9.325 -0.5185 -1.9308 -1.9806
 2126SOL    HW218015   2.324   4.368   9.315  0.7172 -1.0109  1.4174
 2127SOL     OW18016   2.525   3.763   2.885  0.2067 -0.0541 -0.1386
 2127SOL    HW118017   2.537   3.769   2.790 -0.5626 -0.7866 -0.2822
 2127SOL    HW218018   2.597   3.818   2.916 -1.2183  2.3494 -1.0359
 2128SOL     OW18019   0.720   4.542   7.966  0.3460 -0.0349  0.3164
 2128SOL    HW118020   0.630   4.508   7.958  0.2917  0.2956 -0.5192
 2128SOL    HW218021   0.691   4.608   8.029  1.2902 -1.9546  2.7425
 2129SOL     OW18022   4.023   2.506   4.607  0.1255 -0.0555 -0.5852
 2129SOL    HW118023   4.080   2.532   4.679 -0.3763  0.7060 -0.4577
 2129SOL    HW218024   3.939   2.544   4.634  0.8387 -1.6584  3.8589
 2130SOL     OW18025   1.722   4.105  13.071  0.1648  0.3817  0.1657
 2130SOL    HW118026   1.735   4.147  12.986  0.5438  0.7397  0.4019
 2130SOL    HW218027   1.808   4.067  13.084  0.5519  0.8099 -1.1797
 2131SOL     OW18028   2.812   0.468  11.135 -0.0936 -0.1046  0.5976
 2131SOL    HW118029   2.739   0.529  11.142 -0.7208 -0.8436  0.6207
 2131SOL    HW218030   2.793   0.402  11.202 -0.0840 -2.1204 -1.3705
 2132SOL     OW18031   1.331   1.220   4.662  0.2786 -0.2092 -0.2418
 2132SOL    HW118032   1.407   1.270   4.631  0.2428  0.0731  0.1358
 2132SOL    HW218033   1.317   1.159   4.589  2.9853 -1.5113  0.3178
 2133SOL     OW18034   1.386   3.233  10.713 -0.6711 -0.3759 -0.1009
 2133SOL    HW118035   1.349   3.211  10.798 -0.6331  2.4665  0.6498
 2133SOL    HW218036   1.477   3.207  10.725 -1.4117 -2.7988  0.3464
 2134SOL     OW18037   4.631   3.652   4.158  0.1505  0.0600 -0.6099
 2134SOL    HW118038   4.725   3.637   4.171 -0.2818 -0.8092  1.6178
 2134SOL    HW218039   4.628   3.735   4.111  1.8631 -0.1647 -1.1258
 2135SOL     OW18040   2.505   4.337  16.420  0.1904  0.6761  0.4337
 2135SOL    HW118041   2.579   4.391  16.447 -0.3899  1.6428  0.1098
 2135SOL    HW218042   2.454   4.356  16.499 -1.0227 -1.2381  0.1145
 2136SOL     OW18043   3.166   0.593   7.452 -0.0127  0.1432 -0.2028
 2136SOL    HW118044   3.085   0.561   7.491  0.3392  0.5706  0.8646
 2136SOL    HW218045   3.192   0.672   7.499  1.1016 -0.4284  0.1449
 2137SOL     OW18046   3.700   0.832  14.745  0.2654  0.2401 -0.2769
 2137SOL    HW118047   3.779   0.785  14.769 -0.1423 -0.4199 -0.2447
 2137SOL    HW218048   3.631   0.797  14.801 -1.4726 -0.2018 -2.6800
 2138SOL     OW18049   0.451   1.586  16.392  0.3723 -0.5241 -0.7168
 2138SOL    HW118050   0.371   1.536  16.374  0.0948 -0.9048  1.6062
 2138SOL    HW218051   0.442   1.665  16.340  2.0547  0.1915  0.0987
 2139SOL     OW18052   2.892   4.611   5.909 -0.5227 -0.7085  0.5716
 2139SOL    HW118053   2.981   4.643   5.926 -0.1992 -0.8093 -0.9183
 2139SOL    HW218054   2.896   4.529   5.959 -0.9163 -1.3487 -0.4489
 2140SOL     OW18055   4.509   1.243   5.683 -0.0144 -0.0483  0.0619
 2140SOL    HW118056   4.555   1.276   5.606 -0.6838  0.5004 -0.0974
 2140SOL    HW218057   4.447   1.181   5.645  0.3557 -0.2444 -0.2324
 2141SOL     OW18058   3.991   4.445   2.969  0.0563  0.1236  0.5546
 2141SOL    HW118059   4.009   4.366   2.918 -0.6342 -0.0480  0.5649
 2141SOL    HW218060   4.067   4.454   3.026 -0.0013  0.3567  0.5943
 2142SOL     OW18061   2.911   0.506   7.505 -0.4474  0.4201 -0.0855
 2142SOL    HW118062   2.831   0.455   7.496 -0.5465  0.5534  0.0402
 2142SOL    HW218063   2.975   0.435   7.511 -1.3313 -0.6029 -3.0399
 2143SOL     OW18064   4.452   3.591   3.945 -0.2683  0.5190 -0.7379
 2143SOL    HW118065   4.524   3.606   4.006  1.2029  0.4076 -2.4572
 2143SOL    HW218066   4.444   3.496   3.951  0.9238  0.6286  2.8384
 2144SOL     OW18067   4.155   2.796   8.749 -0.1341 -0.3650 -0.4450
 2144SOL    HW118068   4.205   2.829   8.675 -0.4023  1.2759  0.0975
 2144SOL    HW218069   4.112   2.875   8.781 -0.2949 -1.1929  1.3979
 2145SOL     OW18070   4.604   1.507   8.904 -0.0562 -0.3912  0.0661
 2145SOL    HW118071   4.647   1.512   8.989 -1.6887 -3.0419  1.0354
 2145SOL    HW218072   4.648   1.435   8.859  1.4171  0.8403 -0.4578
 2146SOL     OW18073   0.259   2.483   4.962 -0.8902 -0.4050  0.3028
 2146SOL    HW118074   0.237   2.423   5.033 -1.3588 -0.7353 -0.1243
 2146SOL    HW218075   0.293   2.545   5.027 -1.1150 -0.0214  0.0522
 2147SOL     OW18076   3.640   4.585  12.831  0.4518 -0.1357 -0.6565
 2147SOL    HW118077   3.549   4.613  12.842  0.2949  0.0805 -2.5339
 2147SOL    HW218078   3.664   4.531  12.906  1.6372  0.4423 -0.6228
 2148SOL     OW18079   4.570   1.010  13.497 -0.2235 -0.2797  0.1394
 2148SOL    HW118080   4.642   0.985  13.439  1.0399  0.2811  1.4682
 2148SOL    HW218081   4.518   1.065  13.438 -1.9334  0.1942  2.0766
 2149SOL     OW18082   2.585   2.343   7.467  0.6637  0.0377 -0.6026
 2149SOL    HW118083   2.571   2.323   7.559 -0.2617  0.4763 -0.6524
 2149SOL    HW218084   2.569   2.437   7.463 -1.1042 -0.2201  0.8435
 2150SOL     OW18085   2.267   2.097   2.012  0.4852 -0.2597 -0.0602
 2150SOL    HW118086   2.225   2.076   1.928  1.0607 -0.8148 -0.2105
 2150SOL    HW218087   2.195   2.132   2.064  0.7267  0.6949 -0.3686
 2151SOL     OW18088   4.476   3.036  11.292  0.2434 -0.0978  0.1871
 2151SOL    HW118089   4.512   2.963  11.343 -4.1481 -0.9748  2.0339
 2151SOL    HW218090   4.523   3.112  11.326  1.1173 -0.7088  0.3419
 2152SOL     OW18091   1.322   4.418   3.164 -0.0118  0.4714  0.2585
 2152SOL    HW118092   1.350   4.329   3.185 -3.1799 -0.3273  1.1362
 2152SOL    HW218093   1.406   4.462   3.174 -0.1797  0.6550  0.8758
 2153SOL     OW18094   3.848   4.512   2.224 -0.0781 -0.2275 -0.3672
 2153SOL    HW118095   3.908   4.563   2.170 -0.1878 -0.2786 -0.5370
 2153SOL    HW218096   3.766   4.560   2.208 -0.7101 -1.3695 -0.5501
 2154SOL     OW18097   3.809   0.148   7.463 -0.2795  0.3249  0.6022
 2154SOL    HW118098   3.721   0.139   7.427 -0.2721 -1.6370  1.0554
 2154SOL    HW218099   3.793   0.239   7.486 -0.3041  0.7387 -1.0577
 2155SOL     OW18100   1.700   0.574  17.289 -0.4703 -0.6393  0.4166
 2155SOL    HW118101   1.673   0.611  17.205 -0.7269 -0.9483  0.3644
 2155SOL    HW218102   1.778   0.622  17.316  0.4621 -0.4954 -2.4970
 2156SOL     OW18103   0.884   0.450   5.050 -0.2362 -0.3054  0.1716
 2156SOL    HW118104   0.964   0.399   5.066 -0.8013 -1.7419 -1.6453
 2156SOL    HW218105   0.828   0.407   5.114  2.3602  1.0274  3.3787
 2157SOL     OW18106   2.382   0.736  16.183  0.0904  0.1685 -0.3456
 2157SOL    HW118107   2.357   0.827  16.194  1.2166  0.7193 -2.4047
 2157SOL    HW218108   2.477   0.732  16.177  0.2773  1.9862  1.4707
 2158SOL     OW18109   4.069   1.303   9.195 -0.1643 -0.3036 -0.4901
 2158SOL    HW118110   4.065   1.378   9.135  2.7212 -1.4799 -2.1323
 2158SOL    HW218111   4.008   1.334   9.262  1.2266 -1.3055  1.2262
 2159SOL     OW18112   2.456   0.756  16.557  0.0093  1.0366  0.0427
 2159SOL    HW118113   2.423   0.803  16.480 -0.1429 -2.2504 -1.9043
 2159SOL    HW218114   2.375   0.743  16.606 -1.0043 -2.6680 -2.6198
 2160SOL     OW18115   2.971   3.263   8.480 -0.0630  0.2071  0.3111
 2160SOL    HW118116   2.910   3.334   8.459 -0.2693 -0.8409 -2.5700
 2160SOL    HW218117   2.926   3.224   8.556 -0.0817  0.8516  0.6328
 2161SOL     OW18118   2.159   4.409  13.841  0.2159  0.2918 -0.2742
 2161SOL    HW118119   2.106   4.454  13.907 -2.4821 -1.3146 -1.3875
 2161SOL    HW218120   2.149   4.474  13.771 -1.0587  2.1664  1.6322
 2162SOL     OW18121   0.196   1.833   9.043 -0.0286  0.6460  0.1395
 2162SOL    HW118122   0.154   1.763   9.094 -0.0139  1.2774  1.0077
 2162SOL    HW218123   0.143   1.834   8.963 -0.4436 -1.9011  0.3527
 2163SOL     OW18124   0.720   3.997   6.511 -0.0108  0.5411 -0.4769
 2163SOL    HW118125   0.799   4.034   6.471  0.9331 -1.1213 -0.1602
 2163SOL    HW218126   0.751   3.911   6.538  2.8908  1.2485 -1.5293
 2164SOL     OW18127   3.941   2.967   3.673  0.0047 -0.9121  0.3007
 2164SOL    HW118128   3.935   2.883   3.628  0.7418 -1.1298  0.5995
 2164SOL    HW218129   3.848   2.988   3.679 -0.2510 -2.4355  1.7280
 2165SOL     OW18130   0.689   4.233   6.121  0.4166  0.1225 -0.3262
 2165SOL    HW118131   0.697   4.328   6.120  0.3728  0.1401  0.8584
 2165SOL    HW218132   0.637   4.219   6.042  1.5369  0.4806 -1.1238
 2166SOL     OW18133   3.389   1.409   9.659  0.8292  0.2204  0.0502
 2166SOL    HW118134   3.475   1.376   9.685  1.1264  1.5903  0.8160
 2166SOL    HW218135   3.322   1.349   9.691  0.8142 -0.9342 -2.1334
 2167SOL     OW18136   0.299   4.565   0.208  0.1607 -0.1653  0.1250
 2167SOL    HW118137   0.216   4.571   0.161  0.4098  2.3111 -0.0105
 2167SOL    HW218138   0.307   4.655   0.240 -0.9593 -0.4322  1.1730
 2168SOL     OW18139   0.843   2.685   4.455  0.1178  0.3679 -0.5305
 2168SOL    HW118140   0.851   2.780   4.454  0.0732  0.3891  1.4497
 2168SOL    HW218141   0.935   2.660   4.445 -0.4174 -2.3236  1.0883
 2169SOL     OW18142   0.949   3.524   4.395  0.0405  0.3471 -0.2339
 2169SOL    HW118143   0.900   3.583   4.453  0.1817 -0.7659  1.0271
 2169SOL    HW218144   0.917   3.529   4.305 -1.7316 -1.2675  0.3154
 2170SOL     OW18145   3.687   3.181  16.558 -0.0148  0.0855  0.8316
 2170SOL    HW118146   3.679   3.276  16.552 -0.6007  0.1132  2.1118
 2170SOL    HW218147   3.616   3.138  16.606  1.1425 -0.2394  2.2385
 2171SOL     OW18148   3.124   3.173  11.322  0.1596 -0.0994 -0.3429
 2171SOL    HW118149   3.060   3.200  11.388  0.5624 -1.5667  0.6752
 2171SOL    HW218150   3.094   3.087  11.293 -0.6956 -0.2159  0.8746
 2172SOL     OW18151   1.655   0.228   3.800 -0.1170  0.1192  0.0861
 2172SOL    HW118152   1.627   0.239   3.709 -1.7034 -0.1359  0.5286
 2172SOL    HW218153   1.614   0.304   3.842  1.1996  0.9577 -0.1727
 2173SOL     OW18154   3.397   0.207   1.918  0.1720  0.9849 -0.3682
 2173SOL    HW118155   3.447   0.203   1.999 -1.5262  0.2742  0.6645
 2173SOL    HW218156   3.311   0.232   1.952  0.3006 -0.5388  1.0525
 2174SOL     OW18157   2.292   2.138  13.802 -0.6515 -0.0981  0.6959
 2174SOL    HW118158   2.242   2.136  13.720 -2.2402 -0.0511  1.6848
 2174SOL    HW218159   2.246   2.198  13.859 -0.9220 -2.5868  3.0847
 2175SOL     OW18160   2.019   0.980   1.041 -0.5044 -0.3120  0.2453
 2175SOL    HW118161   1.940   0.996   1.093 -0.7363  1.1753 -0.5770
 2175SOL    HW218162   1.999   1.025   0.959 -0.6562  0.9184  0.9631
 2176SOL     OW18163   1.162   0.528   4.437  0.4044 -0.1032  0.3793
 2176SOL    HW118164   1.144   0.438   4.409 -0.7147  0.2013  0.1211
 2176SOL    HW218165   1.201   0.563   4.357  1.0257 -1.9464 -0.1316
 2177SOL     OW18166   3.958   1.224  10.943 -0.6297 -0.0654 -0.1533
 2177SOL    HW118167   3.897   1.282  10.987  0.6080  0.8976  0.3023
 2177SOL    HW218168   3.925   1.135  10.950 -0.3677  0.1765  3.9352
 2178SOL     OW18169   3.013   3.509   7.222  0.1018  0.2576 -0.0791
 2178SOL    HW118170   3.070   3.487   7.149 -0.8894 -1.8445 -0.2181
 2178SOL    HW218171   3.078   3.482   7.287  0.2688  0.5638 -0.1194
 2179SOL     OW18172   2.000   2.124   2.497 -0.2159  0.3742 -0.4542
 2179SOL    HW118173   2.010   2.142   2.590  0.9348  1.0174 -0.6980
 2179SOL    HW218174   2.044   2.199   2.457 -0.1120 -0.0990 -1.2214
 2180SOL     OW18175   0.409   2.854   9.507 -0.2887 -0.5714 -0.4256
 2180SOL    HW118176   0.373   2.938   9.533 -1.7733 -1.5680  0.7386
 2180SOL    HW218177   0.487   2.853   9.563  1.5265  1.2761 -2.8879
 2181SOL     OW18178   1.000   0.417  12.138 -0.0208  0.2081  0.2842
 2181SOL    HW118179   0.944   0.339  12.142  1.0215 -0.6617 -2.6345
 2181SOL    HW218180   1.005   0.450  12.049 -1.6377  0.4905  0.2926
 2182SOL     OW18181   3.583   0.126   1.318 -0.2285  0.2292 -0.4423
 2182SOL    HW118182   3.665   0.080   1.302  0.7485  2.1950 -1.1424
 2182SOL    HW218183   3.564   0.163   1.231 -2.3257 -0.9275 -0.4866
 2183SOL     OW18184   2.525   2.735  14.434 -0.2137 -0.4270  0.6175
 2183SOL    HW118185   2.471   2.680  14.378 -0.0846 -0.1283  0.1953
 2183SOL    HW218186   2.485   2.720  14.520  0.9611 -1.2162  1.0263
 2184SOL     OW18187   2.727   2.492   1.756  0.3482  0.2587 -0.1571
 2184SOL    HW118188   2.777   2.411   1.757 -0.4345 -0.2392 -1.2756
 2184SOL    HW218189   2.767   2.537   1.682 -1.4695  1.0121 -0.6836
 2185SOL     OW18190   1.390   0.379   5.518  0.5413  0.3614 -0.4049
 2185SOL    HW118191   1.314   0.430   5.547 -0.9471 -1.6924 -0.7208
 2185SOL    HW218192   1.349   0.315   5.461  3.7013  0.1740 -2.4200
 2186SOL     OW18193   3.168   1.144  13.085  0.2094  0.6615 -0.2615
 2186SOL    HW118194   3.154   1.080  13.015 -1.9555  0.6030  0.2326
 2186SOL    HW218195   3.210   1.208  13.027 -1.6152  0.5065 -1.7489
 2187SOL     OW18196   2.535   4.439   7.998  0.9007  0.2401  0.1554
 2187SOL    HW118197   2.450   4.435   8.042  0.1518 -0.9675 -1.3962
 2187SOL    HW218198   2.518   4.386   7.920 -0.4228 -0.3028  0.8144
 2188SOL     OW18199   3.017   0.314   8.910  0.8570  0.6406 -0.7077
 2188SOL    HW118200   3.055   0.337   8.825  1.1033 -0.9264 -1.0291
 2188SOL    HW218201   2.947   0.378   8.916 -0.8470 -1.1871 -1.3310
 2189SOL     OW18202   0.762   4.156  12.691  0.0205 -0.3514  0.4055
 2189SOL    HW118203   0.721   4.179  12.774  1.0318 -1.8806  1.3374
 2189SOL    HW218204   0.816   4.234  12.687 -0.7944  0.3210  2.6026
 2190SOL     OW18205   2.651   1.222  13.153  0.0376  0.0572  0.0871
 2190SOL    HW118206   2.715   1.229  13.082 -1.0681 -0.7696 -0.9935
 2190SOL    HW218207   2.670   1.304  13.198 -0.0899  1.4450 -2.3620
 2191SOL     OW18208   2.685   4.329   8.349 -0.3788  0.5501 -0.0147
 2191SOL    HW118209   2.765   4.378   8.365  0.1263  0.3918 -2.1187
 2191SOL    HW218210   2.720   4.242   8.370 -0.6591 -0.6034 -4.3931
 2192SOL     OW18211   3.627   1.691   8.273 -0.0734 -0.3023  0.1166
 2192SOL    HW118212   3.666   1.731   8.195  0.7310 -0.3565  0.4925
 2192SOL    HW218213   3.535   1.686   8.246 -0.3168 -1.3282  1.1424
 2193SOL     OW18214   2.813   2.155   6.846  0.4819 -0.1223 -0.4133
 2193SOL    HW118215   2.833   2.174   6.938 -1.9905  0.6321 -0.0522
 2193SOL    HW218216   2.781   2.065   6.850  0.8280 -0.1772  1.4573
 2194SOL     OW18217   0.514   1.779   5.009  0.0707  0.3813 -0.1166
 2194SOL    HW118218   0.568   1.801   4.933  2.1925 -2.3679  0.6017
 2194SOL    HW218219   0.427   1.792   4.972  0.2832  2.3785  0.0884
 2195SOL     OW18220   2.175   0.631   7.032  0.9563 -0.5030 -0.1381
 2195SOL    HW118221   2.238   0.685   6.985  0.8808  1.0180  1.4772
 2195SOL    HW218222   2.224   0.619   7.114  0.6921  0.8935  0.2220
 2196SOL     OW18223   2.698   2.027   1.884 -0.1394 -0.3908  0.0389
 2196SOL    HW118224   2.651   2.100   1.924 -1.4879 -1.8134  1.0827
 2196SOL    HW218225   2.623   1.969   1.867 -1.2903  1.6002 -1.6074
 2197SOL     OW18226   3.956   0.750   8.611  0.5223  0.0069  0.2921
 2197SOL    HW118227   3.863   0.772   8.606  0.4592  0.2135  2.6173
 2197SOL    HW218228   3.951   0.662   8.573  0.8133  1.0654 -2.2087
 2198SOL     OW18229   2.950   3.311   3.145 -0.0866  0.1440  0.2858
 2198SOL    HW118230   2.977   3.273   3.061 -2.2369 -1.4852  0.3108
 2198SOL    HW218231   2.868   3.263   3.160  0.5501 -0.6611  1.1702
 2199SOL     OW18232   4.359   3.540   3.367  0.3167 -0.5767 -0.5464
 2199SOL    HW118233   4.363   3.563   3.460  0.3903  1.1806 -0.9713
 2199SOL    HW218234   4.285   3.481   3.372  0.3283 -0.7480 -2.1387
 2200SOL     OW18235   1.145   3.698   9.276 -0.4774 -0.1180  0.4969
 2200SOL    HW118236   1.211   3.679   9.342  0.6138 -3.8277 -1.6856
 2200SOL    HW218237   1.096   3.617   9.266 -1.9063  0.7374  0.5270
 2201SOL     OW18238   1.601   2.685   8.789  0.2350 -0.9791 -0.0519
 2201SOL    HW118239   1.610   2.780   8.778  1.3372 -0.9992  0.6478
 2201SOL    HW218240   1.529   2.677   8.727  0.4738  1.1654 -0.5972
 2202SOL     OW18241   0.645   3.699  14.013  0.1504  0.0918  0.0425
 2202SOL    HW118242   0.581   3.769  14.000  0.8435  0.8360  0.6661
 2202SOL    HW218243   0.650   3.709  14.108  1.8451 -1.2241  0.0788
 2203SOL     OW18244   2.140   3.347   1.945  0.4647 -0.5771  0.1844
 2203SOL    HW118245   2.222   3.396   1.950  0.9076 -1.3121  0.1593
 2203SOL    HW218246   2.121   3.361   1.852  1.7004  0.4664  0.0857
 2204SOL     OW18247   0.593   3.261   4.278  0.1695 -0.2040  0.2529
 2204SOL    HW118248   0.568   3.195   4.214  0.2074 -0.9763  1.0375
 2204SOL    HW218249   0.688   3.262   4.269  0.1311 -1.9948 -0.1964
 2205SOL     OW18250   4.600   3.956   8.723  0.3249  0.0175 -0.1915
 2205SOL    HW118251   4.575   4.027   8.783 -2.9570 -1.4662  0.1793
 2205SOL    HW218252   4.535   3.981   8.658  0.2319  1.7440  0.5579
 2206SOL     OW18253   4.478   3.287   4.388 -0.3158 -0.6454 -0.1608
 2206SOL    HW118254   4.464   3.380   4.406 -1.9465 -1.3003  1.9523
 2206SOL    HW218255   4.573   3.277   4.397 -0.9608 -2.6654  4.3757
 2207SOL     OW18256   3.673   4.547   9.396 -0.4400  0.2343 -0.3589
 2207SOL    HW118257   3.655   4.626   9.447  3.0018  0.2208  0.8942
 2207SOL    HW218258   3.735   4.496   9.449  1.2012  0.7837 -1.7426
 2208SOL     OW18259   3.488   3.078  10.652 -0.0044 -0.0760 -0.0664
 2208SOL    HW118260   3.458   3.143  10.716  0.9368  0.3900 -0.0991
 2208SOL    HW218261   3.410   3.023  10.658 -0.1976  0.0594 -1.2657
 2209SOL     OW18262   0.091   1.301  16.580  0.0156  0.0387  0.4635
 2209SOL    HW118263   4.735   1.302  16.567  0.1440 -2.5082 -0.7356
 2209SOL    HW218264   0.118   1.314  16.489 -0.2352 -2.2916  0.0564
 2210SOL     OW18265   0.226   2.509   6.000  0.6639 -0.5016  0.5596
 2210SOL    HW118266   0.212   2.597   6.035  3.0578 -0.9694  2.7128
 2210SOL    HW218267   0.145   2.468   6.028  0.9720 -0.8492  0.9379
 2211SOL     OW18268   3.217   3.457   4.153  0.3804 -0.3077 -0.7570
 2211SOL    HW118269   3.262   3.524   4.101 -0.3852 -0.0087 -1.0363
 2211SOL    HW218270   3.174   3.513   4.218  0.2056 -1.5912  0.2385
 2212SOL     OW18271   1.548   2.836   3.571  0.7584  0.2310 -0.2069
 2212SOL    HW118272   1.497   2.758   3.550  1.5052  0.2337 -2.0222
 2212SOL    HW218273   1.552   2.869   3.482 -0.1629 -0.3448 -0.4606
 2213SOL     OW18274   1.120   2.346   8.757 -0.5983 -0.4276  0.1663
 2213SOL    HW118275   1.107   2.261   8.798  2.0202 -1.4107 -1.0742
 2213SOL    HW218276   1.039   2.396   8.769 -1.0541 -0.8917 -1.0689
 2214SOL     OW18277   0.115   0.557  10.267 -0.1869 -0.4303 -0.1994
 2214SOL    HW118278   0.124   0.641  10.221  1.8072  0.7151  2.3445
 2214SOL    HW218279   0.101   0.591  10.355 -1.1572  2.8816 -1.6178
 2215SOL     OW18280   1.686   0.051   9.489 -0.2402 -0.5021  0.0449
 2215SOL    HW118281   1.645   0.054   9.575  0.6843  1.9394  0.4328
 2215SOL    HW218282   1.769   0.098   9.499 -1.9030  1.9533  2.2796
 2216SOL     OW18283   3.082   3.655  14.269  0.0727 -0.2015 -0.2963
 2216SOL    HW118284   3.159   3.671  14.324 -0.7681 -0.0430  0.8103
 2216SOL    HW218285   3.028   3.603  14.328  0.4869 -0.1690  0.1093
 2217SOL     OW18286   2.162   4.438   5.713 -0.4121  0.4843  0.1240
 2217SOL    HW118287   2.256   4.436   5.729 -0.4134 -2.1774 -0.3448
 2217SOL    HW218288   2.148   4.474   5.626  2.7813 -1.0257 -0.9927
 2218SOL     OW18289   1.045   0.060   9.985  0.1750 -0.0571  0.3669
 2218SOL    HW118290   1.077   0.104   9.906 -1.4024  0.3681 -0.0485
 2218SOL    HW218291   1.119   0.000   9.985 -1.0852 -1.6249  0.8697
 2219SOL     OW18292   3.610   2.021   2.451  0.0623 -0.2513 -0.5101
 2219SOL    HW118293   3.649   2.109   2.444 -0.8383  0.2757  1.2501
 2219SOL    HW218294   3.633   1.980   2.367 -0.2240  1.1912 -1.3066
 2220SOL     OW18295   1.517   3.750   2.542 -0.3589 -0.9802 -0.1524
 2220SOL    HW118296   1.594   3.807   2.533 -1.6541  0.9182  0.5535
 2220SOL    HW218297   1.487   3.773   2.630 -1.2823  0.4595 -0.8339
 2221SOL     OW18298   2.366   2.033   3.297 -0.3381 -0.1566 -0.2265
 2221SOL    HW118299   2.399   2.080   3.374 -2.5438  1.4844 -0.2679
 2221SOL    HW218300   2.448   1.989   3.274 -1.2166 -1.5709 -0.6247
 2222SOL     OW18301   2.256   3.149   4.921  0.1002  0.6311  0.3008
 2222SOL    HW118302   2.334   3.102   4.950 -0.1160  0.2930  0.3295
 2222SOL    HW218303   2.188   3.082   4.923  0.0350  0.6974  0.2827
 2223SOL     OW18304   1.691   1.114   3.141  0.0797  0.4244  0.2404
 2223SOL    HW118305   1.721   1.027   3.165 -1.9064  0.1028  1.6303
 2223SOL    HW218306   1.676   1.110   3.047  5.4975  0.5397 -0.6311
 2224SOL     OW18307   1.522   4.328   4.357  0.3537  0.2013  0.1615
 2224SOL    HW118308   1.540   4.340   4.451  1.8629 -0.4407 -0.0551
 2224SOL    HW218309   1.593   4.381   4.321  2.3771 -1.5613  1.5548
 2225SOL     OW18310   1.365   4.704  13.348  0.1515  0.1226  0.2988
 2225SOL    HW118311   1.320   4.646  13.410  0.3545  0.0508  0.3784
 2225SOL    HW218312   1.283   4.720  13.301  1.6931  1.5401 -1.9223
 2226SOL     OW18313   2.381   3.293  15.351 -0.8369 -0.4481  0.0686
 2226SOL    HW118314   2.455   3.339  15.311 -1.7139  0.9754  0.0863
 2226SOL    HW218315   2.374   3.350  15.427 -0.3482  0.1759 -0.3543
 2227SOL     OW18316   3.313   1.476   1.773 -0.2488  0.0339  0.0742
 2227SOL    HW118317   3.227   1.515   1.763 -0.1918  0.3520  0.8411
 2227SOL    HW218318   3.368   1.551   1.751  1.6274 -1.6682 -1.1169
 2228SOL     OW18319   0.249   0.970   2.036  0.1327 -0.4511  0.2527
 2228SOL    HW118320   0.230   1.058   2.004 -0.0377 -0.2572  0.8880
 2228SOL    HW218321   0.265   0.991   2.128 -0.9130  2.0740 -0.1511
 2229SOL     OW18322   4.055   3.860   8.831 -0.6239 -0.0015  0.9684
 2229SOL    HW118323   4.012   3.790   8.881  0.2059 -0.5911  0.8414
 2229SOL    HW218324   4.149   3.848   8.843 -0.1467  4.1671  1.5123
 2230SOL     OW18325   4.461   4.121   4.797  0.2472 -0.1286 -0.1798
 2230SOL    HW118326   4.529   4.185   4.817  0.0442 -0.8386  2.7680
 2230SOL    HW218327   4.500   4.044   4.837 -0.2855  0.2209  1.0274
 2231SOL     OW18328   2.933   2.977  17.724  0.2643 -0.2331 -0.1452
 2231SOL    HW118329   2.844   2.977  17.688  0.7989  2.2182 -1.4712
 2231SOL    HW218330   2.971   3.046  17.670  1.8588 -0.3239  0.8622
 2232SOL     OW18331   1.919   2.511   0.685 -0.7452 -0.0115 -0.5760
 2232SOL    HW118332   1.976   2.537   0.758 -0.2675 -1.2299 -0.5301
 2232SOL    HW218333   1.978   2.457   0.633 -1.6655 -1.5964  0.0465
 2233SOL     OW18334   0.741   2.383   7.811  0.3288  0.1626 -0.0650
 2233SOL    HW118335   0.831   2.416   7.820  0.2090  1.3830 -3.0673
 2233SOL    HW218336   0.731   2.342   7.896 -0.2832 -1.0168 -0.7059
 2234SOL     OW18337   3.388   0.312   2.534 -0.5478  0.4218 -0.2379
 2234SOL    HW118338   3.320   0.378   2.549 -1.3698 -0.3563 -0.5666
 2234SOL    HW218339   3.423   0.353   2.454 -0.2613  0.0824 -0.2830
 2235SOL     OW18340   2.721   3.033   2.946  0.7347 -0.2523 -0.5569
 2235SOL    HW118341   2.722   3.075   3.032 -0.2689 -0.1787 -0.5812
 2235SOL    HW218342   2.806   2.990   2.954  0.1005 -1.3866  0.2030
 2236SOL     OW18343   1.270   2.787  11.692 -0.2825  0.0883 -0.1283
 2236SOL    HW118344   1.308   2.700  11.688  0.1033  0.2317  0.3811
 2236SOL    HW218345   1.280   2.804  11.785  0.0350  1.5685 -0.4215
 2237SOL     OW18346   2.494   0.925   6.657  0.4078  0.0334 -0.1180
 2237SOL    HW118347   2.584   0.894   6.652  0.1969 -0.7879  1.5095
 2237SOL    HW218348   2.464   0.925   6.566  0.0202  0.6180  0.0019
 2238SOL     OW18349   1.107   0.505   6.884  0.2310  0.0405 -0.3750
 2238SOL    HW118350   1.035   0.450   6.853  0.2458 -0.9606  1.3306
 2238SOL    HW218351   1.081   0.516   6.976 -3.0396  1.5450 -1.4467
 2239SOL     OW18352   0.021   1.989   5.382  0.2543  0.0735 -0.5962
 2239SOL    HW118353   0.056   1.905   5.350  1.0977  0.7066 -1.3616
 2239SOL    HW218354   4.677   1.990   5.335 -0.5801  0.5140  0.9124
 2240SOL     OW18355   3.002   1.223   5.945 -0.2967  0.3173 -0.0005
 2240SOL    HW118356   2.989   1.264   6.030 -2.9816 -0.5647  0.0304
 2240SOL    HW218357   3.059   1.287   5.903  1.1427  0.0071  1.5014
 2241SOL     OW18358   3.823   3.592   2.717 -0.1514  0.0798 -0.6473
 2241SOL    HW118359   3.844   3.548   2.635  0.3884  1.0688 -1.0402
 2241SOL    HW218360   3.908   3.635   2.721 -0.8725  1.4253  0.3039
 2242SOL     OW18361   0.972   4.326   5.846 -0.0729 -0.2569 -0.0529
 2242SOL    HW118362   1.054   4.335   5.797  0.0513 -0.3558  0.1370
 2242SOL    HW218363   1.010   4.306   5.931 -1.4083  0.2340  0.6600
 2243SOL     OW18364   0.011   1.427   4.373 -0.0848  0.0698  0.0524
 2243SOL    HW118365   4.692   1.403   4.445  1.1347 -2.4896  0.1816
 2243SOL    HW218366   4.725   1.519   4.363 -0.4707 -0.1020 -0.5866
 2244SOL     OW18367   3.798   2.943   3.331  0.0199 -0.3284 -0.0901
 2244SOL    HW118368   3.728   2.988   3.284  1.2100  1.2327 -0.3744
 2244SOL    HW218369   3.762   2.953   3.419 -1.0539  1.0601 -0.6911
 2245SOL     OW18370   1.244   2.944   8.383  0.1240 -0.4312 -0.2938
 2245SOL    HW118371   1.265   2.851   8.372  2.3964  0.0153  0.2720
 2245SOL    HW218372   1.177   2.940   8.452 -0.4046 -1.0018 -0.8446
 2246SOL     OW18373   2.743   0.014   1.538  0.3286  0.2993  0.2216
 2246SOL    HW118374   2.719   0.052   1.622  0.6178 -1.2646  1.0206
 2246SOL    HW218375   2.822   0.058   1.506  0.0889 -0.2139 -1.0881
 2247SOL     OW18376   0.013   2.372  12.394  0.1975 -0.2675 -0.4968
 2247SOL    HW118377   0.084   2.387  12.331 -1.6626  2.0326 -2.0323
 2247SOL    HW218378   4.701   2.306  12.347 -0.5843  0.3296 -0.4880
 2248SOL     OW18379   3.494   0.062   3.809  0.3142 -0.2840 -0.1746
 2248SOL    HW118380   3.494   0.020   3.723  0.0393  1.8423 -1.1942
 2248SOL    HW218381   3.432   0.135   3.800  0.0059 -0.3999  0.9586
 2249SOL     OW18382   4.252   4.440   9.658 -0.3741  0.2783  0.0862
 2249SOL    HW118383   4.304   4.370   9.697 -0.9182  0.1569  0.5901
 2249SOL    HW218384   4.221   4.483   9.738  1.4876  0.7995  0.5326
 2250SOL     OW18385   3.821   0.647   8.086 -0.6449  0.1054 -0.2372
 2250SOL    HW118386   3.874   0.725   8.070 -0.7953  0.2386 -0.0860
 2250SOL    HW218387   3.790   0.653   8.176 -1.7417 -1.1251 -0.5446
 2251SOL     OW18388   1.945   4.035  15.843  0.3722  0.4846 -0.3707
 2251SOL    HW118389   1.963   4.051  15.751  2.1249  0.7234  0.0173
 2251SOL    HW218390   1.908   3.947  15.841  1.1553  0.1484  0.0402
 2252SOL     OW18391   2.603   3.217  15.554 -0.3103  0.4258  0.4184
 2252SOL    HW118392   2.682   3.196  15.505 -2.2788 -1.3921 -2.0300
 2252SOL    HW218393   2.630   3.303  15.587  1.1309 -0.5897  1.8498
 2253SOL     OW18394   0.392   3.973   3.201 -0.0220 -0.5010  0.4625
 2253SOL    HW118395   0.442   3.996   3.123 -0.2328 -3.1624 -0.4455
 2253SOL    HW218396   0.402   4.053   3.253  1.6714  1.2260 -2.5158
 2254SOL     OW18397   2.471   4.173  11.533 -0.2779  0.6171  0.0129
 2254SOL    HW118398   2.380   4.146  11.549  0.2296 -0.8029  0.5340
 2254SOL    HW218399   2.487   4.248  11.591  0.0904  0.7023 -0.2021
 2255SOL     OW18400   1.926   0.964  12.419 -0.3284 -0.5508  0.7604
 2255SOL    HW118401   2.020   0.976  12.414 -0.4141  0.3085  1.1749
 2255SOL    HW218402   1.914   0.888  12.476 -0.5103  0.8038  2.5626
 2256SOL     OW18403   4.222   4.382   8.173 -0.6049 -0.4126  0.2009
 2256SOL    HW118404   4.241   4.413   8.084  0.4393  0.6328  0.7705
 2256SOL    HW218405   4.307   4.397   8.215 -1.0709 -0.6631  1.2454
 2257SOL     OW18406   3.613   0.197   7.988 -0.0635 -0.9604 -0.0685
 2257SOL    HW118407   3.605   0.204   8.083 -1.8687 -1.0527 -0.2119
 2257SOL    HW218408   3.695   0.149   7.977  0.2163 -0.2765 -0.9745
 2258SOL     OW18409   3.781   3.234  11.684 -0.5672 -0.4294 -0.1835
 2258SOL    HW118410   3.808   3.192  11.603  1.9199  0.5122  0.1307
 2258SOL    HW218411   3.833   3.315  11.684 -1.2519  0.0141  0.7094
 2259SOL     OW18412   4.238   2.668   5.577 -0.5179  0.2787  0.0372
 2259SOL    HW118413   4.314   2.658   5.634  0.4885 -1.0016 -1.5110
 2259SOL    HW218414   4.250   2.763   5.569 -0.4901  0.1815 -1.1302
 2260SOL     OW18415   2.989   4.079  15.516 -0.1131  0.5964 -0.1986
 2260SOL    HW118416   2.963   4.162  15.555 -1.1062  0.7405 -1.1541
 2260SOL    HW218417   2.966   4.011  15.579  0.8564 -1.1356 -1.6926
 2261SOL     OW18418   2.946   1.408   0.004 -0.0586 -0.1718  0.3427
 2261SOL    HW118419   3.001   1.337   0.036 -0.0327  0.4849  1.7572
 2261SOL    HW218420   2.976   1.427  17.668  1.2821 -0.6534  0.7034
 2262SOL     OW18421   2.459   3.830   6.916  0.1885 -0.4125 -0.0443
 2262SOL    HW118422   2.471   3.828   7.011  1.4743  0.3829 -0.1975
 2262SOL    HW218423   2.397   3.902   6.909  0.0303 -0.5233  0.2280
 2263SOL     OW18424   1.764   2.424   5.615  0.5507 -0.0004 -0.1563
 2263SOL    HW118425   1.680   2.394   5.580  0.2918 -0.8049  1.1431
 2263SOL    HW218426   1.788   2.357   5.679 -0.2329 -0.8863 -0.8061
 2264SOL     OW18427   0.265   3.933  15.207  0.6713  0.1769 -0.1175
 2264SOL    HW118428   0.284   3.848  15.247  1.5937  0.5722  0.2800
 2264SOL    HW218429   0.342   3.986  15.228  0.0123  0.8409  0.6191
 2265SOL     OW18430   2.739   3.170   5.973  0.2231 -0.1285  0.2511
 2265SOL    HW118431   2.686   3.205   5.902 -1.4446  0.1589  1.6386
 2265SOL    HW218432   2.726   3.078   5.953  1.0229 -0.0896 -0.4240
 2266SOL     OW18433   1.536   3.514  11.461  0.1291  0.5554 -0.4747
 2266SOL    HW118434   1.621   3.485  11.493  1.1261  0.7394 -2.9104
 2266SOL    HW218435   1.521   3.591  11.517  0.7947  0.9683 -0.8571
 2267SOL     OW18436   4.455   2.061  13.856 -0.7417 -0.3237  0.1247
 2267SOL    HW118437   4.377   2.109  13.884  0.1946  2.2319 -1.6179
 2267SOL    HW218438   4.419   2.009  13.784 -2.8396  1.7329 -0.3180
 2268SOL     OW18439   3.604   2.016   3.127 -0.1024 -0.5735  0.0281
 2268SOL    HW118440   3.520   2.021   3.082  0.6778 -0.1488 -1.3885
 2268SOL    HW218441   3.568   2.004   3.215 -0.8406  0.0778 -0.1828
 2269SOL     OW18442   3.378   1.321   3.374 -0.2652 -0.2110 -0.2358
 2269SOL    HW118443   3.310   1.278   3.426 -1.6672  0.4317 -1.5320
 2269SOL    HW218444   3.347   1.412   3.370  2.7486  0.7212 -1.8977
 2270SOL     OW18445   4.573   4.662   4.209 -0.6443 -0.6201 -0.0013
 2270SOL    HW118446   4.544   4.616   4.131 -1.4821 -1.7211  0.9601
 2270SOL    HW218447   4.510   4.731   4.230 -1.1554 -0.6740 -1.4164
 2271SOL     OW18448   2.163   4.100  10.913 -0.2578  0.0776 -0.0795
 2271SOL    HW118449   2.255   4.092  10.889  0.0807  0.2318  1.1693
 2271SOL    HW218450   2.148   4.194  10.920 -0.4804 -0.0312  0.8832
 2272SOL     OW18451   2.208   0.739   9.243 -0.0035  0.0175 -0.1986
 2272SOL    HW118452   2.220   0.700   9.156  1.2574 -1.1246  0.4928
 2272SOL    HW218453   2.157   0.815   9.215  1.0245 -0.5027 -3.4538
 2273SOL     OW18454   0.258   4.439   7.408  0.2659 -0.1828 -0.8036
 2273SOL    HW118455   0.230   4.373   7.345 -0.9510 -1.0144  0.6268
 2273SOL    HW218456   0.354   4.434   7.403  0.0881 -1.1744 -3.0989
 2274SOL     OW18457   4.478   4.377   7.157 -0.5471  0.3096 -0.3717
 2274SOL    HW118458   4.562   4.421   7.155 -0.9254  1.0398 -0.2794
 2274SOL    HW218459   4.489   4.325   7.077  0.4547 -3.1096  1.9541
 2275SOL     OW18460   1.458   1.625  10.175  0.0436  0.4668  0.5491
 2275SOL    HW118461   1.405   1.583  10.107  3.5085  0.3425 -2.0555
 2275SOL    HW218462   1.524   1.563  10.206 -0.0259  0.8364  1.4280
 2276SOL     OW18463   0.049   2.106   0.911 -0.5080 -0.1722  0.2356
 2276SOL    HW118464   0.095   2.178   0.956  2.7171 -0.3791 -2.6552
 2276SOL    HW218465   0.013   2.148   0.833  1.3751 -0.8146 -0.9983
 2277SOL     OW18466   4.416   2.976  11.024  0.5801 -0.5815  0.1109
 2277SOL    HW118467   4.445   2.987  11.115  0.6871  1.3128 -0.1447
 2277SOL    HW218468   4.376   2.890  11.021 -1.0425  0.0986  2.6794
 2278SOL     OW18469   0.324   3.212   9.028  0.4425  0.1923 -0.0796
 2278SOL    HW118470   0.400   3.153   9.033  0.2314  0.0972  1.7843
 2278SOL    HW218471   0.278   3.172   8.954  0.3125  0.1433  0.0285
 2279SOL     OW18472   2.645   0.317   9.733  0.5842 -0.0341  0.6903
 2279SOL    HW118473   2.690   0.310   9.649 -0.3936  1.8704 -0.0076
 2279SOL    HW218474   2.694   0.380   9.786  0.3504  0.6012  0.1618
 2280SOL     OW18475   1.493   3.309   1.934  0.4230  0.0573 -0.2573
 2280SOL    HW118476   1.409   3.288   1.975  0.3174 -0.3678 -0.6969
 2280SOL    HW218477   1.550   3.237   1.963  2.7214  1.2932 -1.7498
 2281SOL     OW18478   4.698   3.009  11.000 -0.1452  0.7977 -0.3067
 2281SOL    HW118479   4.696   2.965  11.085  0.1590  1.0689 -0.1555
 2281SOL    HW218480   4.608   2.987  10.977  0.9663 -0.7937 -3.0454
 2282SOL     OW18481   2.084   2.849   5.677 -0.2028  0.0652 -0.1974
 2282SOL    HW118482   2.047   2.858   5.765 -1.7947 -0.8888 -0.7566
 2282SOL    HW218483   2.064   2.934   5.637 -0.3080 -0.0310 -0.3518
 2283SOL     OW18484   4.300   2.652   3.382  0.1453  0.9641  0.0736
 2283SOL    HW118485   4.316   2.727   3.440  0.5293 -0.7497  2.2013
 2283SOL    HW218486   4.209   2.664   3.354 -0.0272 -2.4368 -0.7772
 2284SOL     OW18487   2.335   3.718   7.582 -0.1180  0.0673 -0.3878
 2284SOL    HW118488   2.368   3.628   7.579  0.3606  0.2076  0.9302
 2284SOL    HW218489   2.242   3.708   7.562 -0.5127  0.8595  1.0586
 2285SOL     OW18490   2.461   4.150   8.227 -0.2390  0.1162  0.2281
 2285SOL    HW118491   2.462   4.244   8.242  0.1582 -0.4415  3.6882
 2285SOL    HW218492   2.407   4.121   8.300  2.7873 -0.5803  2.1986
 2286SOL     OW18493   3.056   0.751   3.814  1.1605  0.4345 -0.1479
 2286SOL    HW118494   3.106   0.688   3.763  1.2482  0.2305  0.1896
 2286SOL    HW218495   3.043   0.693   3.889  0.6777  2.1976  1.1490
 2287SOL     OW18496   2.435   0.344   3.390  0.5186  0.0577 -0.1709
 2287SOL    HW118497   2.440   0.392   3.473 -0.1866  1.7380 -1.0967
 2287SOL    HW218498   2.340   0.329   3.383  0.8416 -1.7775 -0.7431
 2288SOL     OW18499   0.602   4.485  10.301 -0.0628 -0.0889  0.0628
 2288SOL    HW118500   0.639   4.555  10.247 -0.0731  0.2670  0.5188
 2288SOL    HW218501   0.510   4.500  10.279 -0.0057 -1.0974 -0.8127
 2289SOL     OW18502   3.078   3.000   8.466  0.2544 -0.1137  0.1711
 2289SOL    HW118503   3.042   3.032   8.383 -0.3969 -0.7768  0.1950
 2289SOL    HW218504   3.115   3.084   8.491  0.0057  0.0355  0.0417
 2290SOL     OW18505   4.713   4.159   9.730  0.9047  0.1649  0.2580
 2290SOL    HW118506   4.732   4.162   9.824 -0.0134  0.4904  0.4412
 2290SOL    HW218507   4.725   4.065   9.719 -0.5463  0.0678 -0.5121
 2291SOL     OW18508   4.611   3.354   1.639  0.5443 -0.2377 -0.1250
 2291SOL    HW118509   4.605   3.358   1.544  0.8797 -0.0406 -0.1396
 2291SOL    HW218510   4.523   3.375   1.668  0.0455  1.8946 -3.1740
 2292SOL     OW18511   2.945   2.466   6.511 -0.2502  0.0040  0.5890
 2292SOL    HW118512   3.033   2.501   6.523  0.3991 -1.7503  0.9873
 2292SOL    HW218513   2.891   2.526   6.563 -1.9143 -0.9443 -0.0515
 2293SOL     OW18514   3.914   1.797  11.426  0.3955 -0.0808 -0.2292
 2293SOL    HW118515   3.832   1.809  11.378 -1.1763  1.5865  2.8816
 2293SOL    HW218516   3.964   1.738  11.370 -0.5380 -2.3662  1.3347
 2294SOL     OW18517   4.061   1.247   2.024  0.3058  0.3025 -0.0562
 2294SOL    HW118518   4.152   1.232   2.050 -0.5820 -1.0882  2.2440
 2294SOL    HW218519   4.066   1.202   1.939 -0.5678 -1.7872  0.9962
 2295SOL     OW18520   3.216   0.425   2.878  0.0657  0.0074  0.6785
 2295SOL    HW118521   3.192   0.462   2.963  3.1447  0.5142  1.3124
 2295SOL    HW218522   3.209   0.508   2.831 -1.0433 -0.4668 -0.0096
 2296SOL     OW18523   4.154   2.061   7.487 -0.0253  0.6463  0.1478
 2296SOL    HW118524   4.129   2.140   7.535  1.8915  0.3314  1.6863
 2296SOL    HW218525   4.111   1.989   7.533  4.5837 -1.9395  0.3828
 2297SOL     OW18526   1.987   4.609  10.897 -0.0359  0.6306 -0.3049
 2297SOL    HW118527   1.974   4.602  10.991 -0.3839  0.3206 -0.3795
 2297SOL    HW218528   2.050   4.681  10.884  1.1235 -0.0656  1.4686
 2298SOL     OW18529   4.428   2.020   0.216  0.3955  0.2472 -0.5630
 2298SOL    HW118530   4.376   1.953   0.261  2.3846 -0.4936  0.6323
 2298SOL    HW218531   4.409   1.994   0.126 -0.7928 -2.3657  0.4304
 2299SOL     OW18532   2.990   0.834   5.855  0.6520 -0.0632 -0.1003
 2299SOL    HW118533   2.938   0.773   5.908  2.9445 -0.6178  1.5222
 2299SOL    HW218534   2.942   0.842   5.773 -0.8353 -0.4461  0.7430
 2300SOL     OW18535   0.187   4.546  11.238  0.3510  0.5802 -0.2220
 2300SOL    HW118536   0.225   4.591  11.163 -2.5907  0.7164 -1.6391
 2300SOL    HW218537   0.258   4.485  11.259  0.0204 -0.1414 -1.2115
 2301SOL     OW18538   2.927   2.442   4.955  0.2773  0.2703 -0.2104
 2301SOL    HW118539   2.940   2.528   4.994 -0.4494 -0.8010  2.3991
 2301SOL    HW218540   3.017   2.411   4.945 -0.9516 -3.9043  1.5370
 2302SOL     OW18541   3.988   2.509   1.714 -0.2519 -0.6550 -0.0593
 2302SOL    HW118542   4.028   2.429   1.679  1.7333  0.1842  0.2886
 2302SOL    HW218543   4.037   2.581   1.676  0.7842 -1.8408 -0.9389
 2303SOL     OW18544   1.660   1.396   2.866  0.1402  0.1557  0.2966
 2303SOL    HW118545   1.756   1.395   2.867  0.1116 -1.4128  2.2748
 2303SOL    HW218546   1.640   1.304   2.845 -0.0937  0.2746  0.0038
 2304SOL     OW18547   3.010   2.335   2.535 -0.3239 -0.1681 -0.1219
 2304SOL    HW118548   2.918   2.311   2.544 -0.1101  0.0957  2.7364
 2304SOL    HW218549   3.051   2.249   2.532  2.3068  1.0004  2.1799
 2305SOL     OW18550   0.681   3.580  12.396 -0.4591  0.1491 -0.7546
 2305SOL    HW118551   0.661   3.568  12.304  0.7944  1.1471 -1.1541
 2305SOL    HW218552   0.622   3.650  12.425  1.0176  2.2105 -2.7322
 2306SOL     OW18553   1.818   4.516  10.391  0.7891 -0.4876 -0.0893
 2306SOL    HW118554   1.730   4.512  10.353  0.7382 -0.1369 -0.0158
 2306SOL    HW218555   1.847   4.564  10.313  1.3712  0.4056  0.6785
 2307SOL     OW18556   2.084   1.178  15.889 -0.1841 -0.1561 -0.8150
 2307SOL    HW118557   2.112   1.198  15.800 -3.7647 -0.3711 -1.9827
 2307SOL    HW218558   1.990   1.186  15.873 -0.4708 -0.0630  0.9729
 2308SOL     OW18559   1.256   3.681   5.292 -0.2327 -0.0403  0.4769
 2308SOL    HW118560   1.324   3.632   5.339 -0.6284 -0.4872  0.5827
 2308SOL    HW218561   1.236   3.607   5.235  0.2532 -0.4913  0.8940
 2309SOL     OW18562   1.223   0.525  10.361  0.1093 -0.5362  0.6246
 2309SOL    HW118563   1.216   0.564  10.448  1.5412  1.6340 -0.2114
 2309SOL    HW218564   1.137   0.493  10.337 -0.4109  1.8379 -0.7021
 2310SOL     OW18565   2.598   1.805   4.301  0.2336  0.0732 -0.2342
 2310SOL    HW118566   2.574   1.863   4.373 -1.8376  0.2378 -1.0468
 2310SOL    HW218567   2.657   1.749   4.352 -0.1314  0.5697  0.7289
 2311SOL     OW18568   4.161   4.612   1.992 -0.3051  0.4054  0.3501
 2311SOL    HW118569   4.234   4.646   1.941 -2.5255  1.8237 -1.9198
 2311SOL    HW218570   4.157   4.519   1.967  0.5666  0.0980  1.3792
 2312SOL     OW18571   1.632   4.667   3.800  0.5461 -0.0723  0.4304
 2312SOL    HW118572   1.632   4.573   3.820 -2.1513 -0.3989 -1.1632
 2312SOL    HW218573   1.557   4.704   3.846  0.9261  0.8007  0.3440
 2313SOL     OW18574   3.184   2.202   6.937  0.1498  0.7586 -0.1155
 2313SOL    HW118575   3.158   2.200   7.029  1.1639 -1.2593  0.1230
 2313SOL    HW218576   3.152   2.117   6.906  2.2586 -0.5228  1.1952
 2314SOL     OW18577   3.575   0.550  14.608 -0.6008 -0.2513  0.4146
 2314SOL    HW118578   3.521   0.551  14.686 -2.3832  0.2295 -0.8348
 2314SOL    HW218579   3.664   0.530  14.636  0.4250  1.7145 -1.4352
 2315SOL     OW18580   1.573   2.833   3.983 -0.0072  0.5599 -0.1667
 2315SOL    HW118581   1.574   2.777   4.061 -0.5302 -0.9626 -1.2576
 2315SOL    HW218582   1.663   2.816   3.954 -0.3215  0.5031 -1.0984
 2316SOL     OW18583   3.581   3.281  14.931  0.3258  0.4635  0.6727
 2316SOL    HW118584   3.591   3.366  14.887 -3.0855 -1.1082 -3.1408
 2316SOL    HW218585   3.492   3.288  14.966 -0.0357  0.6080 -0.2880
 2317SOL     OW18586   3.121   4.380  14.013 -0.9510  0.1564  0.0759
 2317SOL    HW118587   3.075   4.376  14.097 -3.5609 -1.1159 -1.4130
 2317SOL    HW218588   3.075   4.453  13.972 -1.8368 -0.2242  0.3883
 2318SOL     OW18589   0.173   0.896   2.741  0.1760  0.4262 -0.4747
 2318SOL    HW118590   0.090   0.938   2.719  0.2067  1.3880  1.3306
 2318SOL    HW218591   0.145   0.812   2.776 -0.5998  1.0530  0.3997
 2319SOL     OW18592   0.763   1.322   1.796  0.3970 -0.7404  0.1359
 2319SOL    HW118593   0.743   1.350   1.885  2.4385  0.3194  0.2639
 2319SOL    HW218594   0.849   1.285   1.813 -0.5504 -2.6523  0.7584
 2320SOL     OW18595   0.691   4.549  15.453  0.0979 -0.0723  0.1784
 2320SOL    HW118596   0.722   4.551  15.363  1.3319 -0.4572  0.5936
 2320SOL    HW218597   0.596   4.555  15.443  0.3841  4.6544  0.4981
 2321SOL     OW18598   3.323   2.321  13.734 -0.6227 -0.3500 -0.6947
 2321SOL    HW118599   3.397   2.364  13.777 -0.8450 -0.4556 -0.2062
 2321SOL    HW218600   3.336   2.346  13.643 -1.2435  0.6881 -0.4939
 2322SOL     OW18601   0.463   1.816   3.799 -0.0816 -0.2330 -0.1760
 2322SOL    HW118602   0.420   1.744   3.846 -2.8567  0.9768 -0.8697
 2322SOL    HW218603   0.456   1.883   3.867  0.5220  0.6506 -0.9838
 2323SOL     OW18604   1.250   0.569   8.514  0.8546 -0.2225  0.2185
 2323SOL    HW118605   1.224   0.477   8.511  0.3796 -0.1408  1.4820
 2323SOL    HW218606   1.334   0.571   8.560  0.7592  0.5713  0.3673
 2324SOL     OW18607   3.867   3.857   0.338 -0.1579 -0.1303 -0.0813
 2324SOL    HW118608   3.800   3.842   0.405 -1.3460 -0.5170 -1.3478
 2324SOL    HW218609   3.900   3.767   0.327  0.3664  0.2733 -1.8445
 2325SOL     OW18610   1.264   1.876   7.600  0.6127 -0.6584  0.3365
 2325SOL    HW118611   1.282   1.862   7.507 -1.0545 -1.4132  0.1217
 2325SOL    HW218612   1.349   1.898   7.637 -0.0940  2.2099  0.2918
 2326SOL     OW18613   4.295   3.505   6.164 -0.2565 -0.3869 -0.2503
 2326SOL    HW118614   4.270   3.415   6.144  1.2913 -0.5362 -1.5695
 2326SOL    HW218615   4.228   3.557   6.120  0.8960  1.2648 -0.0652
 2327SOL     OW18616   1.436   4.196   5.860  0.5291  0.6804  0.0986
 2327SOL    HW118617   1.477   4.162   5.780 -2.3455  0.8675 -1.4654
 2327SOL    HW218618   1.499   4.264   5.887 -0.6861  1.7967  0.1400
 2328SOL     OW18619   3.259   2.515  16.664 -0.2096  0.3531 -0.1076
 2328SOL    HW118620   3.248   2.525  16.758 -1.0127  1.2134 -0.2901
 2328SOL    HW218621   3.294   2.601  16.638  0.4045  0.7549  2.0957
 2329SOL     OW18622   3.390   1.372   9.119  0.0658 -0.4005 -0.6748
 2329SOL    HW118623   3.427   1.332   9.040  0.4328 -0.9230 -0.2382
 2329SOL    HW218624   3.354   1.292   9.155 -1.7619  0.9657  0.5274
 2330SOL     OW18625   2.457   4.654   0.395  0.1877 -0.0917  0.4453
 2330SOL    HW118626   2.371   4.617   0.375  0.6620 -0.0614 -1.5736
 2330SOL    HW218627   2.516   4.631   0.324 -1.5088 -3.0917  0.0001
 2331SOL     OW18628   2.617   4.190   2.937  0.1708  0.4313 -0.3296
 2331SOL    HW118629   2.564   4.216   2.861 -0.8058  0.9556  0.5301
 2331SOL    HW218630   2.704   4.220   2.910 -0.4449  0.5119 -2.1881
 2332SOL     OW18631   2.630   2.133  16.843 -0.0098 -0.3092 -0.4373
 2332SOL    HW118632   2.681   2.108  16.766  0.8288  1.9255 -0.6177
 2332SOL    HW218633   2.609   2.221  16.811  2.5930  0.3354 -0.3710
 2333SOL     OW18634   3.917   4.262   3.893  0.2808  0.0051 -0.3260
 2333SOL    HW118635   3.994   4.214   3.863 -0.7119 -1.4246 -0.6157
 2333SOL    HW218636   3.842   4.203   3.879  1.0456 -0.6976 -1.4490
 2334SOL     OW18637   2.709   1.099  14.924 -0.3141 -0.2523  0.1065
 2334SOL    HW118638   2.634   1.158  14.925  0.0487  0.1687  2.1486
 2334SOL    HW218639   2.670   1.023  14.882 -2.0540 -0.0852  1.4153
 2335SOL     OW18640   1.938   1.314   6.264  0.2095 -0.7292 -0.2963
 2335SOL    HW118641   1.929   1.222   6.290 -0.2739  0.1601  2.7449
 2335SOL    HW218642   1.884   1.366   6.323  1.1030  0.1184 -0.2395
 2336SOL     OW18643   0.409   2.667   9.293 -0.2741 -0.0026 -0.0230
 2336SOL    HW118644   0.405   2.703   9.381  0.1347 -0.9183  0.3791
 2336SOL    HW218645   0.429   2.574   9.308  0.0622 -0.4214 -3.0587
 2337SOL     OW18646   4.117   2.721  14.181 -0.1548 -0.5047 -0.4028
 2337SOL    HW118647   4.159   2.644  14.144  1.2113  0.7224 -1.4220
 2337SOL    HW218648   4.150   2.732  14.270  0.8710 -1.1196 -0.7126
 2338SOL     OW18649   4.501   3.066   4.615  0.2849  0.4534 -0.1318
 2338SOL    HW118650   4.578   3.115   4.587  0.7040  0.2419  0.6639
 2338SOL    HW218651   4.527   2.983   4.576 -0.0093 -0.1988  1.0729
 2339SOL     OW18652   0.986   2.088   2.391 -0.5345 -0.5065 -0.0546
 2339SOL    HW118653   0.944   2.026   2.452 -1.2357 -0.6513 -0.6854
 2339SOL    HW218654   0.972   2.063   2.300 -0.8007 -1.5791  0.2766
 2340SOL     OW18655   1.337   2.596  15.233 -0.5551 -0.3283 -0.2107
 2340SOL    HW118656   1.252   2.613  15.274 -0.5316 -1.2832  0.2212
 2340SOL    HW218657   1.322   2.656  15.161 -0.9680 -0.8141 -0.5250
 2341SOL     OW18658   3.151   2.665  16.246  0.6554 -0.6718 -0.0573
 2341SOL    HW118659   3.128   2.603  16.316  0.4389 -1.3307 -0.7080
 2341SOL    HW218660   3.069   2.671  16.198  0.8563  1.0000 -0.1919
 2342SOL     OW18661   4.487   3.751   2.249 -0.3441 -0.0922 -0.0615
 2342SOL    HW118662   4.392   3.750   2.241 -0.2210 -1.1675 -1.2965
 2342SOL    HW218663   4.513   3.731   2.159  2.0090  1.9031  0.1818
 2343SOL     OW18664   4.559   3.614   6.216 -0.2747 -0.1714  0.3239
 2343SOL    HW118665   4.493   3.546   6.220 -0.1770 -0.3224 -0.5867
 2343SOL    HW218666   4.550   3.637   6.124  0.2587  1.4946  0.6882
 2344SOL     OW18667   4.500   4.252  10.324 -0.0622 -0.2900 -0.0413
 2344SOL    HW118668   4.548   4.175  10.356 -1.5816 -0.3790  2.0464
 2344SOL    HW218669   4.429   4.207  10.277 -0.0611  0.8918 -1.1671
 2345SOL     OW18670   0.653   2.184   3.887 -0.4423  0.1803  0.0960
 2345SOL    HW118671   0.602   2.185   3.805 -0.2384 -1.8390 -0.0524
 2345SOL    HW218672   0.680   2.273   3.906 -1.2894  0.5985 -0.6267
 2346SOL     OW18673   2.333   4.489   1.038  0.0820  0.6798  0.0452
 2346SOL    HW118674   2.285   4.560   0.997 -2.4506 -0.6741  0.6556
 2346SOL    HW218675   2.283   4.424   0.989  0.2314 -0.1058  0.9223
 2347SOL     OW18676   3.415   0.238   5.515  0.5081  0.2211  0.2767
 2347SOL    HW118677   3.418   0.143   5.502  2.6777  0.2242  0.8596
 2347SOL    HW218678   3.497   0.260   5.472  1.0622 -2.4452 -0.0452
 2348SOL     OW18679   1.185   2.557   9.218 -0.1463 -0.3138  0.3835
 2348SOL    HW118680   1.142   2.589   9.139 -1.2786  0.5920  1.3774
 2348SOL    HW218681   1.276   2.565   9.187 -0.6426 -0.2626 -1.0478
 2349SOL     OW18682   2.354   0.615   9.802 -0.0607 -0.2506  0.1891
 2349SOL    HW118683   2.359   0.692   9.746  1.2537  0.3359  1.1337
 2349SOL    HW218684   2.378   0.543   9.743 -3.2870 -0.5989 -0.7163
 2350SOL     OW18685   3.957   2.106  12.181 -0.6710  0.1905  0.2370
 2350SOL    HW118686   4.031   2.116  12.121 -4.7085  3.1471 -4.2260
 2350SOL    HW218687   3.891   2.143  12.123  0.5703  1.9247 -0.0700
 2351SOL     OW18688   0.763   3.953  12.512  0.0638  0.1065  0.2317
 2351SOL    HW118689   0.746   4.000  12.594  0.9188 -0.5284  0.7765
 2351SOL    HW218690   0.825   4.017  12.476 -1.5293  1.0127 -0.9027
 2352SOL     OW18691   1.042   2.380  11.436 -0.0385  0.0469  0.3637
 2352SOL    HW118692   0.983   2.399  11.509 -0.3592  1.0588 -0.1608
 2352SOL    HW218693   1.103   2.453  11.442  1.1956 -0.8354 -1.1780
 2353SOL     OW18694   3.400   1.063   4.055 -0.0539  0.1807  0.1268
 2353SOL    HW118695   3.365   0.995   3.997  2.1956 -0.9214  0.0712
 2353SOL    HW218696   3.492   1.053   4.029 -0.4943  0.0583 -1.4296
 2354SOL     OW18697   2.471   3.990   3.417 -0.1206 -0.2168 -0.1732
 2354SOL    HW118698   2.497   3.903   3.387 -0.7020  0.1189 -1.6694
 2354SOL    HW218699   2.505   3.992   3.506  1.4388  0.8862 -0.7854
 2355SOL     OW18700   4.665   4.350   5.838 -0.2321  0.0245  0.4471
 2355SOL    HW118701   0.013   4.313   5.822 -1.0146 -0.3879 -2.9067
 2355SOL    HW218702   4.668   4.397   5.755  2.5668 -0.7135  0.1558
 2356SOL     OW18703   3.861   1.291   8.463  0.0700  0.4433  0.0453
 2356SOL    HW118704   3.838   1.339   8.543  1.0910  1.5343 -0.3161
 2356SOL    HW218705   3.804   1.347   8.410 -0.8585  0.7262  1.3247
 2357SOL     OW18706   0.409   4.031   4.848  0.5098  0.0643  0.1898
 2357SOL    HW118707   0.466   4.053   4.922  0.7881 -0.3371  0.0908
 2357SOL    HW218708   0.319   4.041   4.879  0.1628 -0.9049 -0.5270
 2358SOL     OW18709   3.483   1.938   7.048 -0.1111  0.0324  0.3502
 2358SOL    HW118710   3.476   2.028   7.018 -0.6820 -0.4599 -1.0081
 2358SOL    HW218711   3.456   1.911   6.960  0.5224 -1.7243  0.6809
 2359SOL     OW18712   4.156   2.596   8.135 -0.3721 -0.3399 -0.2261
 2359SOL    HW118713   4.241   2.584   8.093  0.4044  0.0612  1.2317
 2359SOL    HW218714   4.169   2.544   8.214 -0.0591 -0.3572 -0.2872
 2360SOL     OW18715   2.399   4.129   4.015 -0.3232 -0.2389  0.6815
 2360SOL    HW118716   2.343   4.184   4.069 -3.8743 -2.3371 -0.8732
 2360SOL    HW218717   2.462   4.197   3.992  0.6162 -0.5094  2.3906
 2361SOL     OW18718   1.542   1.953   6.200 -0.5894 -0.5524 -0.6138
 2361SOL    HW118719   1.506   1.907   6.276  1.8988 -2.1497 -0.4289
 2361SOL    HW218720   1.480   1.927   6.132  1.5903 -0.7344 -2.4942
 2362SOL     OW18721   0.637   0.878   0.962  0.0356  0.1821  0.3651
 2362SOL    HW118722   0.715   0.911   1.007  0.5345 -0.9415  0.3333
 2362SOL    HW218723   0.672   0.844   0.880 -0.5816  1.5821 -0.4716
 2363SOL     OW18724   1.298   0.392   4.191  0.0159 -0.4167 -0.4580
 2363SOL    HW118725   1.238   0.324   4.160 -1.7730  0.8227  0.3023
 2363SOL    HW218726   1.380   0.349   4.165 -0.8257 -1.8874 -0.6719
 2364SOL     OW18727   0.314   1.769   0.379  0.3687  0.1584 -0.0423
 2364SOL    HW118728   0.401   1.802   0.355  0.4945  0.5882  1.0344
 2364SOL    HW218729   0.318   1.684   0.334 -1.1127 -0.5052  1.0954
 2365SOL     OW18730   2.903   0.029   2.102 -0.1183 -0.4625 -0.0159
 2365SOL    HW118731   2.812   0.010   2.123 -0.7071  1.0797 -1.2587
 2365SOL    HW218732   2.899   0.121   2.125 -0.4996 -0.3118 -0.7001
 2366SOL     OW18733   3.993   2.447  15.326  0.5927 -0.4236 -0.0497
 2366SOL    HW118734   3.910   2.399  15.327  0.0498  0.5331  0.3021
 2366SOL    HW218735   3.994   2.491  15.241  1.1288  0.6891  0.5386
 2367SOL     OW18736   0.871   0.256   2.571 -0.3643  0.1169 -0.2945
 2367SOL    HW118737   0.823   0.195   2.627 -0.1565 -0.0516 -0.2985
 2367SOL    HW218738   0.825   0.339   2.574  0.0387  0.3985 -1.9073
 2368SOL     OW18739   3.423   3.589   2.382  0.4402 -0.4555  0.1853
 2368SOL    HW118740   3.427   3.672   2.334 -0.7671 -0.3554  0.2369
 2368SOL    HW218741   3.443   3.607   2.474  1.3311  2.4875 -0.5846
 2369SOL     OW18742   1.243   3.349   0.340 -0.1592 -0.3198 -0.0861
 2369SOL    HW118743   1.163   3.385   0.379  0.9404 -0.0762  1.9502
 2369SOL    HW218744   1.251   3.275   0.400 -0.7124  1.2734  1.9697
 2370SOL     OW18745   3.075   2.421   9.161  0.1671  0.1490  0.0006
 2370SOL    HW118746   3.044   2.468   9.238 -0.0986  0.3938 -0.2537
 2370SOL    HW218747   3.089   2.497   9.104  0.9891  0.2651  0.3615
 2371SOL     OW18748   4.573   0.563   2.929  0.6067 -1.1315 -0.0056
 2371SOL    HW118749   4.556   0.536   3.019  3.0026 -1.3202  0.4088
 2371SOL    HW218750   4.487   0.555   2.887  0.4198 -1.0660  0.3684
 2372SOL     OW18751   2.227   4.005   4.558 -0.4115  0.3398 -0.0053
 2372SOL    HW118752   2.313   3.964   4.567  1.1610  3.5015 -0.8908
 2372SOL    HW218753   2.215   3.987   4.464  1.3471  2.6249 -0.6718
 2373SOL     OW18754   2.357   3.366   5.880 -0.3314  0.6942  0.4005
 2373SOL    HW118755   2.401   3.442   5.920  0.8336  0.8170 -1.1081
 2373SOL    HW218756   2.325   3.325   5.960  1.3425 -1.8138 -0.2215
 2374SOL     OW18757   4.344   1.481   7.867  0.7452 -0.4171  0.1006
 2374SOL    HW118758   4.282   1.553   7.853  2.5573  1.0545 -0.3668
 2374SOL    HW218759   4.289   1.405   7.881  2.5685 -2.0704 -1.7209
 2375SOL     OW18760   3.538   4.173  14.536  0.3867  0.5205 -0.2929
 2375SOL    HW118761   3.457   4.176  14.486  0.4007 -1.0835 -0.4267
 2375SOL    HW218762   3.587   4.249  14.507  1.1160 -0.2249 -1.0283
 2376SOL     OW18763   1.143   1.011  16.037 -0.6428  0.6251 -0.3222
 2376SOL    HW118764   1.232   1.031  16.063  0.3161 -0.1060 -3.0442
 2376SOL    HW218765   1.114   0.963  16.115  2.4192  1.0915  1.0647
 2377SOL     OW18766   0.887   1.931  11.798 -0.0096  0.8154  0.2996
 2377SOL    HW118767   0.794   1.939  11.820 -0.1259  0.4025 -0.0467
 2377SOL    HW218768   0.902   2.003  11.737 -1.2484 -0.5010 -1.5383
 2378SOL     OW18769   4.683   3.418   4.638  0.3084  0.5881  0.0645
 2378SOL    HW118770   0.017   3.471   4.671  0.0970 -0.3077  1.9433
 2378SOL    HW218771   4.673   3.467   4.555 -0.1154  1.7498  0.8003
 2379SOL     OW18772   1.167   4.396  12.704  0.1864  0.4368  0.5274
 2379SOL    HW118773   1.076   4.375  12.726  0.1401 -0.3950 -0.4460
 2379SOL    HW218774   1.194   4.390  12.795  1.8783  1.3152  0.0756
 2380SOL     OW18775   2.903   2.846  16.927  0.0951 -0.4282 -0.4871
 2380SOL    HW118776   2.900   2.771  16.869  0.4772 -0.0995 -0.9321
 2380SOL    HW218777   2.991   2.881  16.910 -1.3583  3.1117 -0.8610
 2381SOL     OW18778   3.585   2.391  13.825 -0.9857  0.1732  0.6141
 2381SOL    HW118779   3.608   2.442  13.903  1.6853  0.4814 -0.3489
 2381SOL    HW218780   3.628   2.306  13.840  1.0839  0.9141 -1.1181
 2382SOL     OW18781   2.305   2.020   0.325 -0.0838  0.2249 -0.1098
 2382SOL    HW118782   2.218   2.033   0.288 -0.0921  0.6767  0.0653
 2382SOL    HW218783   2.355   2.079   0.268 -2.1143  1.6451 -0.4077
 2383SOL     OW18784   1.894   3.827  16.449 -0.0076  0.6665 -0.0180
 2383SOL    HW118785   1.913   3.758  16.513  1.4310 -0.3766 -1.5826
 2383SOL    HW218786   1.809   3.853  16.485 -0.4706  1.2305 -1.4966
 2384SOL     OW18787   2.796   4.275   3.883  0.3215 -0.4115  0.1063
 2384SOL    HW118788   2.743   4.307   3.810  0.4533  0.2518  0.3024
 2384SOL    HW218789   2.723   4.252   3.940  0.0335  0.5443  0.1249
 2385SOL     OW18790   1.860   3.320  12.386  0.2671 -0.3388  0.6951
 2385SOL    HW118791   1.922   3.292  12.319  0.7524 -0.1357  1.0592
 2385SOL    HW218792   1.894   3.409  12.395  1.7489 -0.9795  1.4000
 2386SOL     OW18793   2.682   3.658  17.633  0.1531  0.3300 -0.4083
 2386SOL    HW118794   2.639   3.589  17.582 -3.4976  0.4143  2.5395
 2386SOL    HW218795   2.715   3.607  17.707 -2.2121  1.9725  1.7335
 2387SOL     OW18796   1.865   4.355   3.498 -0.2439  0.1946  0.5194
 2387SOL    HW118797   1.927   4.348   3.570  1.8735 -1.6139 -1.4967
 2387SOL    HW218798   1.907   4.295   3.437 -1.4557  0.4457 -0.5661
 2388SOL     OW18799   2.544   1.328   3.868  0.0744 -0.0329 -0.4721
 2388SOL    HW118800   2.626   1.325   3.917 -0.3285  2.2755  0.3626
 2388SOL    HW218801   2.527   1.422   3.868 -2.1742 -0.4472 -1.1824
 2389SOL     OW18802   1.874   0.238   6.840 -0.2721  0.3556 -0.5961
 2389SOL    HW118803   1.791   0.271   6.875  0.8889  0.4348  2.0560
 2389SOL    HW218804   1.925   0.317   6.855 -0.5949  0.6285 -0.9214
 2390SOL     OW18805   2.119   2.924   4.962  0.5609  0.3753 -0.4877
 2390SOL    HW118806   2.115   2.916   5.057 -1.8609 -0.9348 -0.7026
 2390SOL    HW218807   2.027   2.909   4.942  0.4254 -0.8336  1.0909
 2391SOL     OW18808   4.667   3.432   0.840 -0.5015 -0.1279  0.6211
 2391SOL    HW118809   4.735   3.418   0.775 -1.6089 -1.2711 -0.2847
 2391SOL    HW218810   4.711   3.486   0.906  0.9564 -0.7120  0.1190
 2392SOL     OW18811   1.920   3.082   7.114 -0.2326  0.6136  0.4747
 2392SOL    HW118812   1.859   3.014   7.143  0.0709 -0.2004 -0.8162
 2392SOL    HW218813   1.863   3.114   7.044 -2.1763 -1.0969  1.2575
 2393SOL     OW18814   4.418   3.117   3.387  0.6402 -0.2454  0.5325
 2393SOL    HW118815   4.498   3.163   3.412  0.7147 -0.8125  1.3246
 2393SOL    HW218816   4.373   3.138   3.469 -0.8959  0.5646 -0.5082
 2394SOL     OW18817   3.500   3.335   2.967  0.2523 -0.2470 -0.3732
 2394SOL    HW118818   3.531   3.307   3.053  0.4605 -0.0885 -0.3953
 2394SOL    HW218819   3.575   3.302   2.917 -0.5445  0.4526 -2.0218
 2395SOL     OW18820   2.500   0.736   5.926  0.3739  0.6051  0.2690
 2395SOL    HW118821   2.522   0.736   6.019 -2.2842  1.1912  0.9017
 2395SOL    HW218822   2.552   0.807   5.889  1.2623  0.0986  0.5528
 2396SOL     OW18823   1.642   3.318   9.742 -0.4267 -0.9604 -0.2495
 2396SOL    HW118824   1.592   3.266   9.805 -0.9343 -2.1631 -1.6324
 2396SOL    HW218825   1.645   3.288   9.651  0.8922  1.8664 -1.1439
 2397SOL     OW18826   1.862   4.201  10.408 -0.2908 -0.2749  0.6027
 2397SOL    HW118827   1.886   4.293  10.396  0.9614 -0.6333  0.3575
 2397SOL    HW218828   1.806   4.180  10.334  0.7480 -0.7931 -0.0261
 2398SOL     OW18829   0.655   1.476   6.096 -0.0768 -0.2873  0.4904
 2398SOL    HW118830   0.632   1.383   6.103 -1.0264 -0.2255 -1.7787
 2398SOL    HW218831   0.749   1.466   6.080 -0.1084 -3.4995  2.2533
 2399SOL     OW18832   2.718   2.941   8.109  0.8658  0.2934  0.4901
 2399SOL    HW118833   2.652   2.874   8.127  0.8060 -0.4307 -2.4387
 2399SOL    HW218834   2.783   2.888   8.063 -2.2548 -1.8962 -1.4710
 2400SOL     OW18835   3.743   2.156   8.963  0.0029 -0.9286 -0.3617
 2400SOL    HW118836   3.799   2.207   9.021  1.4142 -2.0376 -0.7474
 2400SOL    HW218837   3.681   2.122   9.027 -0.5223  0.0408 -0.3563
 2401SOL     OW18838   3.872   4.068   7.670  0.0673 -0.8283 -0.7495
 2401SOL    HW118839   3.948   4.120   7.644 -0.4670 -0.7201 -2.0735
 2401SOL    HW218840   3.858   4.004   7.601  0.4194 -3.2472  1.4110
 2402SOL     OW18841   0.201   3.781   6.053 -0.0388  0.0841  0.3427
 2402SOL    HW118842   0.120   3.805   6.008 -0.3471 -1.3429  0.1534
 2402SOL    HW218843   0.231   3.712   5.994  0.7142  0.7378 -0.0469
 2403SOL     OW18844   3.273   1.078   6.743  0.6029  0.5589  0.5297
 2403SOL    HW118845   3.294   1.065   6.650 -0.1018 -1.3456  0.6306
 2403SOL    HW218846   3.327   1.156   6.754  1.8141 -0.2131  0.0646
 2404SOL     OW18847   1.011   1.089   9.145  0.4729  0.3849  0.1097
 2404SOL    HW118848   0.998   1.179   9.114 -0.0657 -0.2936 -1.6378
 2404SOL    HW218849   1.082   1.102   9.208  3.0496  0.9835 -2.8680
 2405SOL     OW18850   2.852   0.385   5.331 -0.0942  0.4475  0.1094
 2405SOL    HW118851   2.913   0.331   5.281 -1.2792 -0.8726  0.1106
 2405SOL    HW218852   2.801   0.319   5.378  0.1427  0.1292 -0.0815
 2406SOL     OW18853   3.932   2.660   8.398 -0.3635  0.5385  0.3319
 2406SOL    HW118854   3.913   2.752   8.379  0.4864  0.5337 -0.5240
 2406SOL    HW218855   3.891   2.624   8.320 -2.5662 -0.4772  1.9505
 2407SOL     OW18856   1.433   3.751  11.629  0.3822  0.1857  0.2180
 2407SOL    HW118857   1.412   3.698  11.706  0.2192 -0.6073 -0.3767
 2407SOL    HW218858   1.352   3.749  11.578  0.8159 -0.5175 -0.4557
 2408SOL     OW18859   4.294   0.514   7.630 -0.0449 -0.6152  0.0917
 2408SOL    HW118860   4.214   0.468   7.606 -0.5899 -0.2793  1.2747
 2408SOL    HW218861   4.298   0.574   7.556  0.2450 -0.3168  0.3518
 2409SOL     OW18862   2.235   3.774   1.644 -0.5158 -0.5448 -0.3447
 2409SOL    HW118863   2.308   3.755   1.703 -0.6331  0.5123  0.1255
 2409SOL    HW218864   2.191   3.842   1.694 -0.3586 -0.6211 -0.1046
 2410SOL     OW18865   2.693   0.162   1.753  0.3144 -0.2244  0.6776
 2410SOL    HW118866   2.618   0.107   1.779 -1.4068  1.3483 -0.9178
 2410SOL    HW218867   2.671   0.248   1.790 -0.6204 -0.3942  0.5193
 2411SOL     OW18868   1.117   4.125   8.748 -0.3966 -0.6896  0.8060
 2411SOL    HW118869   1.062   4.188   8.701 -1.2569 -1.9857  0.0800
 2411SOL    HW218870   1.083   4.037   8.731  1.0265 -1.4031  1.6047
 2412SOL     OW18871   4.023   3.894  15.050 -0.6307 -0.6630  0.3312
 2412SOL    HW118872   4.014   3.982  15.085  0.0987 -0.5767  0.2920
 2412SOL    HW218873   3.975   3.901  14.968 -0.0222 -1.9022 -0.1356
 2413SOL     OW18874   3.842   0.550   6.345 -0.4864  0.6386  0.2495
 2413SOL    HW118875   3.750   0.564   6.326 -1.2005 -0.4502  2.8318
 2413SOL    HW218876   3.835   0.456   6.366  0.0581  1.2698  3.2565
 2414SOL     OW18877   3.215   4.165   6.401  0.3758  0.4872 -0.2879
 2414SOL    HW118878   3.258   4.080   6.396 -1.2834 -0.3579 -0.1000
 2414SOL    HW218879   3.250   4.199   6.483  0.7873 -0.7922  0.0637
 2415SOL     OW18880   4.017   4.633   6.161  0.0400 -0.1010  0.4401
 2415SOL    HW118881   4.018   4.538   6.145 -2.0299 -0.3195  1.6285
 2415SOL    HW218882   4.111   4.649   6.158  0.2071 -1.0830  0.2943
 2416SOL     OW18883   3.700   0.981   4.872  0.7926 -0.5833  0.0130
 2416SOL    HW118884   3.763   1.018   4.810  2.8606 -0.2497  2.3133
 2416SOL    HW218885   3.725   1.016   4.957 -0.2833 -0.8087  0.4312
 2417SOL     OW18886   4.135   0.593   0.754 -0.5436  0.5603 -0.3001
 2417SOL    HW118887   4.071   0.592   0.825  0.7684 -0.3574  0.8964
 2417SOL    HW218888   4.134   0.685   0.728  1.3624  0.9695  1.0613
 2418SOL     OW18889   1.209   0.802   7.320 -0.0112 -0.1932  0.3707
 2418SOL    HW118890   1.254   0.839   7.244 -0.0170  0.2069  0.5683
 2418SOL    HW218891   1.276   0.754   7.370 -0.0537 -1.5930 -0.8818
 2419SOL     OW18892   1.587   3.080   7.075 -0.0125  0.1337  0.2918
 2419SOL    HW118893   1.566   3.130   6.996  3.1233  0.0586 -0.5699
 2419SOL    HW218894   1.531   3.005   7.055 -0.2258  0.0727  1.1205
 2420SOL     OW18895   2.255   3.594   3.235  0.5597 -0.2643 -0.0110
 2420SOL    HW118896   2.336   3.586   3.185  1.6324 -1.1169  1.8774
 2420SOL    HW218897   2.285   3.580   3.325  0.5844  2.5689  0.4164
 2421SOL     OW18898   3.692   4.367   7.921  0.5479 -0.2088  0.0213
 2421SOL    HW118899   3.628   4.374   7.992  0.1535 -0.0808 -0.3489
 2421SOL    HW218900   3.768   4.335   7.970  0.7750  0.4555  0.1029
 2422SOL     OW18901   4.190   1.025   7.156 -0.2141  0.8326 -0.2015
 2422SOL    HW118902   4.155   0.957   7.098  1.1659 -0.3224  0.3331
 2422SOL    HW218903   4.131   1.032   7.231  1.7626 -0.9585  1.5212
 2423SOL     OW18904   2.661   1.991   4.548  0.0885  0.4010 -0.4977
 2423SOL    HW118905   2.732   1.928   4.557 -1.6879 -1.3742  1.0484
 2423SOL    HW218906   2.706   2.066   4.508 -0.7640  0.6259 -1.0421
 2424SOL     OW18907   1.829   1.772   8.030 -0.4488 -0.0975 -0.5810
 2424SOL    HW118908   1.906   1.813   7.990  0.1625 -1.0026 -0.3348
 2424SOL    HW218909   1.835   1.806   8.120  0.4260 -1.9956  0.0719
 2425SOL     OW18910   2.853   3.031  12.542 -0.5884 -0.5104 -0.1830
 2425SOL    HW118911   2.802   3.016  12.462 -0.1245  0.0374 -0.5816
 2425SOL    HW218912   2.936   2.990  12.518  0.1107  1.6228 -1.3907
 2426SOL     OW18913   0.852   1.313  10.495 -0.4115  0.2938  0.4744
 2426SOL    HW118914   0.921   1.282  10.436 -1.5005  0.2197 -0.7545
 2426SOL    HW218915   0.804   1.233  10.519  3.9373 -2.2092  0.8101
 2427SOL     OW18916   0.851   3.365  10.240  0.0806 -0.4372  0.5684
 2427SOL    HW118917   0.935   3.391  10.277 -1.4955  2.9233  1.7374
 2427SOL    HW218918   0.806   3.308  10.303  1.4984 -0.7113  1.3468
 2428SOL     OW18919   2.442   0.722   3.587  0.8554 -0.4821 -0.5662
 2428SOL    HW118920   2.381   0.649   3.597  1.5004 -1.1336 -1.2893
 2428SOL    HW218921   2.465   0.736   3.679  1.2232  0.1751 -0.7596
 2429SOL     OW18922   0.276   1.102  16.323  0.1858  0.0012 -0.1057
 2429SOL    HW118923   0.324   1.138  16.398  0.4450 -1.0363  0.2216
 2429SOL    HW218924   0.342   1.036  16.303  0.6212  1.0048 -1.9917
 2430SOL     OW18925   0.682   0.978  16.581 -0.3405 -0.2370  0.0951
 2430SOL    HW118926   0.695   0.946  16.670  0.0654  0.4868  0.2987
 2430SOL    HW218927   0.655   0.896  16.540 -0.8030 -0.7271  1.3875
 2431SOL     OW18928   3.037   1.851  12.094 -0.2910 -0.7203  0.0164
 2431SOL    HW118929   2.970   1.891  12.149  1.1365  2.3216 -0.4438
 2431SOL    HW218930   3.009   1.880  12.007  1.4204 -0.0692 -0.3210
 2432SOL     OW18931   4.090   0.342   7.017  0.1781  0.7567  0.1834
 2432SOL    HW118932   4.135   0.297   6.945 -1.1940  1.9719 -1.4311
 2432SOL    HW218933   4.125   0.305   7.098  0.1433 -0.3595 -0.3226
 2433SOL     OW18934   3.485   4.628   1.962  0.2037 -0.3883 -0.4795
 2433SOL    HW118935   3.494   4.714   1.923 -2.0949 -0.3072 -0.7882
 2433SOL    HW218936   3.570   4.591   1.936  0.0918 -0.9952  0.0247
 2434SOL     OW18937   4.289   2.990  10.189 -0.5996 -0.4909 -0.4976
 2434SOL    HW118938   4.302   3.059  10.125 -1.8187 -0.3213 -0.5548
 2434SOL    HW218939   4.194   2.980  10.189 -0.4395 -2.0153 -2.0051
 2435SOL     OW18940   3.761   0.062  10.366  0.3679 -0.5266  0.0420
 2435SOL    HW118941   3.747   0.100  10.279  2.5829  1.7996  0.6748
 2435SOL    HW218942   3.749   4.706  10.355  0.9449 -0.5814 -0.1505
 2436SOL     OW18943   2.087   2.151   0.120 -0.5433  0.1955  0.5924
 2436SOL    HW118944   2.104   2.112   0.034 -0.2510  2.0129 -0.1757
 2436SOL    HW218945   2.143   2.228   0.109 -1.2557  0.1156 -3.8112
 2437SOL     OW18946   2.574   4.403   9.577  0.2636  0.1851  0.4217
 2437SOL    HW118947   2.608   4.314   9.587 -2.1598 -0.7622  0.1779
 2437SOL    HW218948   2.496   4.392   9.522  0.0258  1.1891  0.5586
 2438SOL     OW18949   0.551   2.157   2.508  0.1692 -0.0098  0.4160
 2438SOL    HW118950   0.636   2.182   2.471  0.1286 -0.4427  0.0266
 2438SOL    HW218951   0.554   2.069   2.472  1.8678 -1.0175  3.0255
 2439SOL     OW18952   1.353   4.157   7.189  0.0096  0.4432  0.4272
 2439SOL    HW118953   1.402   4.107   7.123 -0.9125  0.4770 -0.2755
 2439SOL    HW218954   1.398   4.120   7.265  0.5967  0.1039 -0.0848
 2440SOL     OW18955   2.548   3.461   5.060 -0.4316  0.2306 -0.6377
 2440SOL    HW118956   2.578   3.471   5.150  0.9079  0.9766 -1.1607
 2440SOL    HW218957   2.454   3.476   5.062 -0.1294  2.0296 -0.0246
 2441SOL     OW18958   2.845   1.780   7.708  0.3846 -0.2178  0.6477
 2441SOL    HW118959   2.773   1.781   7.644  2.0570  0.9981 -1.1958
 2441SOL    HW218960   2.848   1.872   7.734  0.3791 -0.0005 -0.1390
 2442SOL     OW18961   1.469   0.255   7.771  0.3418  0.1378 -0.3499
 2442SOL    HW118962   1.439   0.308   7.845  1.5965 -1.4287  1.3034
 2442SOL    HW218963   1.408   0.291   7.707  1.0358  0.4040 -0.8633
 2443SOL     OW18964   2.108   1.843   3.962 -0.2085 -0.1417 -0.0051
 2443SOL    HW118965   2.162   1.764   3.951  1.4789  1.2060 -1.3407
 2443SOL    HW218966   2.174   1.911   3.973 -0.4462 -0.3001  2.5121
 2444SOL     OW18967   3.677   3.289   3.748  1.1846 -0.1345  0.1368
 2444SOL    HW118968   3.723   3.253   3.824  0.6883 -1.5797 -0.2650
 2444SOL    HW218969   3.753   3.294   3.690  1.1866  1.4399  0.2679
 2445SOL     OW18970   3.770   0.991   8.123 -0.5862 -0.1234  0.0275
 2445SOL    HW118971   3.765   0.997   8.219 -1.1525 -0.4640  0.0224
 2445SOL    HW218972   3.862   0.973   8.102 -0.2384  0.3748  1.1252
 2446SOL     OW18973   0.619   2.490   6.329 -0.4567 -0.1494 -0.2168
 2446SOL    HW118974   0.581   2.467   6.244 -0.6255 -2.9002  0.5739
 2446SOL    HW218975   0.694   2.433   6.347 -0.1751 -0.0156 -1.0103
 2447SOL     OW18976   1.325   0.315   7.521  0.0155  0.0727 -0.0638
 2447SOL    HW118977   1.336   0.333   7.428 -0.9558  1.9571  0.1918
 2447SOL    HW218978   1.309   0.400   7.563  1.7036 -0.1531  1.0505
 2448SOL     OW18979   0.046   3.132   3.899  0.5126  0.4856 -0.1520
 2448SOL    HW118980   0.010   3.050   3.931 -0.9943  1.0791 -0.3021
 2448SOL    HW218981   0.079   3.112   3.811  2.4331 -1.0756  0.9209
 2449SOL     OW18982   1.035   1.019   2.668  0.6429 -0.0136 -0.0243
 2449SOL    HW118983   1.062   0.962   2.740  0.6443 -1.4558 -1.1729
 2449SOL    HW218984   0.940   1.009   2.676  0.3595  2.5179 -0.3210
 2450SOL     OW18985   0.588   1.185  10.797 -0.0352  0.0801  0.4484
 2450SOL    HW118986   0.609   1.272  10.829 -2.1558  1.7290 -2.7449
 2450SOL    HW218987   0.521   1.206  10.732  0.0641 -2.1911 -0.3963
 2451SOL     OW18988   0.615   1.437  15.462  0.1505  0.3692 -0.5486
 2451SOL    HW118989   0.630   1.355  15.414  1.0760  2.3643 -3.6984
 2451SOL    HW218990   0.626   1.417  15.555 -0.5997 -1.3224 -0.8166
 2452SOL     OW18991   2.611   0.259   3.700  0.0031  0.3250 -0.0787
 2452SOL    HW118992   2.699   0.241   3.734  0.6239  2.7301 -0.4095
 2452SOL    HW218993   2.641   0.305   3.621 -2.2348  0.0896 -1.0580
 2453SOL     OW18994   2.277   0.238   8.833 -0.1562  0.2293 -0.9219
 2453SOL    HW118995   2.336   0.287   8.775  0.9709 -0.7875 -0.6391
 2453SOL    HW218996   2.197   0.289   8.825 -2.0046 -2.2654  1.7115
 2454SOL     OW18997   1.844   3.347  15.519 -0.6056  0.0901  0.1831
 2454SOL    HW118998   1.864   3.296  15.441 -0.5488 -0.6440  0.6819
 2454SOL    HW218999   1.929   3.378  15.550 -0.3489 -0.1525 -0.2853
 2455SOL     OW19000   3.364   2.005   2.977 -0.3313  0.8073  0.0622
 2455SOL    HW119001   3.278   2.039   3.001 -0.9914 -0.2564 -0.8100
 2455SOL    HW219002   3.344   1.929   2.923  0.4424  1.1217 -0.6538
 2456SOL     OW19003   0.319   2.913   4.161 -0.8593 -0.0233 -0.2488
 2456SOL    HW119004   0.391   2.976   4.165 -0.0267 -0.9833 -0.2646
 2456SOL    HW219005   0.328   2.875   4.073  0.5048  0.6472 -0.4063
 2457SOL     OW19006   0.102   0.874   6.769  0.0682 -0.1685  0.0924
 2457SOL    HW119007   0.090   0.891   6.676  0.1269  0.9020  0.2838
 2457SOL    HW219008   0.066   0.787   6.790 -1.4963  0.8818  1.7922
 2458SOL     OW19009   3.642   1.572   3.235 -0.0418  0.2008 -0.0309
 2458SOL    HW119010   3.720   1.601   3.282 -0.8521  1.4480  0.5324
 2458SOL    HW219011   3.571   1.581   3.298  0.1372  0.8126  0.0809
 2459SOL     OW19012   0.257   3.039   9.277 -0.0719  0.0212 -0.2984
 2459SOL    HW119013   0.303   3.053   9.194 -0.4132 -0.8044 -0.6216
 2459SOL    HW219014   0.196   2.969   9.255  1.8936 -1.0840 -2.2664
 2460SOL     OW19015   0.016   2.864   3.496 -0.1487  0.1896 -0.3335
 2460SOL    HW119016   0.092   2.894   3.445 -1.9722  0.3266 -2.9793
 2460SOL    HW219017   0.040   2.773   3.517 -0.6361  0.3363  0.8465
 2461SOL     OW19018   3.389   1.558   6.706  0.4466 -0.3954  0.3347
 2461SOL    HW119019   3.464   1.598   6.662 -1.2095  2.7235  0.3763
 2461SOL    HW219020   3.315   1.613   6.679  0.7314 -0.0342  0.2940
 2462SOL     OW19021   4.715   3.044   0.879  0.0046 -0.0882 -0.6420
 2462SOL    HW119022   4.737   2.992   0.801 -0.7248 -1.5531  0.1152
 2462SOL    HW219023   0.050   3.104   0.874 -0.1938  0.2260  0.2587
 2463SOL     OW19024   2.339   3.213   2.232  0.0102 -0.1271 -0.3019
 2463SOL    HW119025   2.287   3.145   2.275 -0.2889  2.0168  2.6995
 2463SOL    HW219026   2.282   3.289   2.232  0.0680 -0.0839 -0.9696
 2464SOL     OW19027   2.255   4.150   4.776 -0.4906  0.2038  0.1921
 2464SOL    HW119028   2.240   4.106   4.692  0.0655  0.0959  0.1523
 2464SOL    HW219029   2.240   4.078   4.837 -2.0296  0.3223 -0.0536
 2465SOL     OW19030   3.214   3.885  10.067  0.4680 -0.5589 -0.0166
 2465SOL    HW119031   3.153   3.841  10.126 -0.2629 -0.1126 -0.4362
 2465SOL    HW219032   3.286   3.909  10.126 -0.6109  0.0880  1.0371
 2466SOL     OW19033   2.329   2.592   1.559 -0.1411  0.0705  0.1861
 2466SOL    HW119034   2.322   2.631   1.472  2.0040 -0.5730 -0.2605
 2466SOL    HW219035   2.408   2.539   1.549 -0.7157 -1.1755  2.2736
 2467SOL     OW19036   1.899   1.777   4.757 -0.6884 -0.0084 -0.3618
 2467SOL    HW119037   1.919   1.693   4.715  0.7059  1.0687 -1.8689
 2467SOL    HW219038   1.939   1.755   4.841 -0.4359 -1.0998 -0.7690
 2468SOL     OW19039   3.580   4.698   6.204  0.4448 -0.3474 -0.9368
 2468SOL    HW119040   3.576   0.001   6.290 -0.4598 -1.5689 -0.3918
 2468SOL    HW219041   3.631   4.621   6.230  2.1380  0.5459 -1.6097
 2469SOL     OW19042   1.711   4.238  14.328 -0.5761  0.3758  0.3800
 2469SOL    HW119043   1.618   4.258  14.322 -0.6145 -0.1437 -0.6972
 2469SOL    HW219044   1.714   4.167  14.264 -1.4847  0.2823  0.4444
 2470SOL     OW19045   1.444   1.988   5.249 -0.2642  0.0677 -0.3308
 2470SOL    HW119046   1.426   2.077   5.218 -1.8678  0.9731  3.1266
 2470SOL    HW219047   1.472   1.940   5.172  1.8560 -0.1239  0.5785
 2471SOL     OW19048   0.418   4.111   1.036  0.1566  0.2834 -0.6647
 2471SOL    HW119049   0.374   4.027   1.054 -0.7980  0.4431 -2.3122
 2471SOL    HW219050   0.343   4.164   1.062  0.6676  1.3121 -1.2936
 2472SOL     OW19051   3.755   0.412   7.548 -0.1432  0.3517 -0.5198
 2472SOL    HW119052   3.703   0.483   7.509  0.8733  1.1851 -0.3877
 2472SOL    HW219053   3.728   0.406   7.639 -1.5783 -0.0340 -0.9751
 2473SOL     OW19054   3.245   2.289   5.838 -0.0850  0.3814 -0.3582
 2473SOL    HW119055   3.256   2.367   5.892 -0.7730  0.9360 -1.0135
 2473SOL    HW219056   3.294   2.218   5.878 -0.3638  1.9334  2.6968
 2474SOL     OW19057   1.798   0.131   1.110  0.3271 -0.0983  0.7148
 2474SOL    HW119058   1.748   0.153   1.188 -1.5054 -0.8526 -0.2529
 2474SOL    HW219059   1.744   0.183   1.050  0.0195 -1.5782 -0.2935
 2475SOL     OW19060   4.035   2.634   3.239  0.0202 -0.3116  0.0492
 2475SOL    HW119061   3.998   2.691   3.172  0.9471 -1.7887 -1.7160
 2475SOL    HW219062   4.035   2.555   3.185  1.9205 -0.0387 -0.3538
 2476SOL     OW19063   0.221   2.757   6.122  0.0224 -0.3282 -0.5447
 2476SOL    HW119064   0.213   2.757   6.218  1.7939  0.3015 -0.3953
 2476SOL    HW219065   0.164   2.828   6.096 -0.2513 -0.6403 -0.7884
 2477SOL     OW19066   4.591   0.997   2.487 -0.1068 -0.6793 -0.2293
 2477SOL    HW119067   4.574   0.904   2.474  2.6606 -1.2113 -0.0992
 2477SOL    HW219068   4.662   1.007   2.425 -2.1358 -2.4134 -2.8073
 2478SOL     OW19069   2.625   3.363  17.458  0.0631  0.1570 -0.2510
 2478SOL    HW119070   2.608   3.271  17.480 -0.2738  0.5584  1.1836
 2478SOL    HW219071   2.558   3.415  17.503 -0.0830 -0.7087  0.5390
 2479SOL     OW19072   1.728   0.148   1.410 -0.1783 -0.2978  0.8731
 2479SOL    HW119073   1.675   0.157   1.489  2.8631 -1.6258  3.0706
 2479SOL    HW219074   1.780   0.072   1.437  0.6131  0.9956  3.0167
 2480SOL     OW19075   1.939   0.327   9.887  0.5469  0.1382  0.6993
 2480SOL    HW119076   1.986   0.383   9.825 -1.4093 -1.2567 -2.0665
 2480SOL    HW219077   1.960   0.370   9.970  0.0837 -1.0019  1.4092
 2481SOL     OW19078   2.414   4.556   3.753 -0.4181  0.1384  0.0308
 2481SOL    HW119079   2.437   4.632   3.700  0.4124  0.5357  0.9664
 2481SOL    HW219080   2.354   4.511   3.693 -1.2858  1.6827 -0.2538
 2482SOL     OW19081   3.155   3.275   8.086 -0.1167 -0.4970 -0.1652
 2482SOL    HW119082   3.194   3.191   8.110  0.5002 -0.1540  0.0353
 2482SOL    HW219083   3.065   3.269   8.118 -0.9437  0.1882 -2.3821
 2483SOL     OW19084   4.104   3.363   4.109  0.1897  0.2705  0.3932
 2483SOL    HW119085   4.042   3.364   4.183  1.7514 -0.6114  1.7017
 2483SOL    HW219086   4.174   3.313   4.151 -0.7250  1.0708  2.9046
 2484SOL     OW19087   3.912   3.716   3.054 -0.1903  0.1355 -0.2042
 2484SOL    HW119088   3.832   3.714   3.002 -1.5164  0.9536  1.7764
 2484SOL    HW219089   3.914   3.624   3.080  2.2399  0.7061  1.6606
 2485SOL     OW19090   1.311   3.043   4.039 -0.1775  0.5316  0.2176
 2485SOL    HW119091   1.296   3.082   3.952 -0.2906 -1.9874 -0.8765
 2485SOL    HW219092   1.254   2.968   4.054 -1.2582  0.5724 -3.6449
 2486SOL     OW19093   1.379   3.971   6.361  0.1083  0.3007  0.0069
 2486SOL    HW119094   1.346   3.918   6.433  0.2767  1.0563  0.6342
 2486SOL    HW219095   1.372   3.916   6.282  1.3748 -0.9169  0.7383
 2487SOL     OW19096   4.218   3.201   3.234  0.2915  0.1924  0.3649
 2487SOL    HW119097   4.281   3.157   3.292 -1.1086 -0.3273  1.5117
 2487SOL    HW219098   4.182   3.116   3.208 -1.3407  0.8974  0.3335
 2488SOL     OW19099   1.354   1.871  10.286  0.2177 -0.7325 -0.1748
 2488SOL    HW119100   1.343   1.779  10.264 -1.5089 -0.2008 -1.4892
 2488SOL    HW219101   1.270   1.911  10.266  0.7244  1.1460  1.3762
 2489SOL     OW19102   4.382   2.979   8.013  0.2315  0.0874  0.4958
 2489SOL    HW119103   4.339   3.054   7.974 -2.4322 -0.7194  1.9226
 2489SOL    HW219104   4.373   2.995   8.106 -0.7122 -2.8610  0.9205
 2490SOL     OW19105   1.054   0.830   4.595 -0.0478 -0.1150  0.7052
 2490SOL    HW119106   1.133   0.844   4.543  0.0781 -0.5950  0.7726
 2490SOL    HW219107   1.058   0.738   4.622  0.3737 -1.1240 -2.7907
 2491SOL     OW19108   4.166   0.031   7.675 -0.2543 -0.0659 -0.1490
 2491SOL    HW119109   4.162   0.126   7.682  1.5261 -0.2634  3.3180
 2491SOL    HW219110   4.071   0.024   7.663 -0.2605 -1.6326  0.8330
 2492SOL     OW19111   2.965   2.862   4.036 -0.1666 -0.2809 -0.3326
 2492SOL    HW119112   3.002   2.943   4.001  1.2795 -0.5912  0.4950
 2492SOL    HW219113   2.925   2.902   4.113  1.0181 -0.0056  0.1436
 2493SOL     OW19114   1.755   2.840   9.074  0.0269  0.0508  0.0576
 2493SOL    HW119115   1.717   2.756   9.050  2.0929 -0.8932  0.1064
 2493SOL    HW219116   1.695   2.911   9.053  0.7701  0.6400 -0.0885
 2494SOL     OW19117   0.481   1.308   7.572  0.2759 -0.7334 -0.3746
 2494SOL    HW119118   0.468   1.392   7.529  0.3546 -0.3800  0.3032
 2494SOL    HW219119   0.402   1.300   7.626  0.1161 -0.7961 -0.6170
 2495SOL     OW19120   1.804   3.522   3.859 -0.0090 -0.8825  0.0029
 2495SOL    HW119121   1.749   3.553   3.931  0.9741  0.2608  0.2585
 2495SOL    HW219122   1.868   3.471   3.910 -0.9944 -1.8679  0.2796
 2496SOL     OW19123   1.785   3.412   9.405  0.6149  0.5061  0.4199
 2496SOL    HW119124   1.727   3.353   9.454  2.5311  0.1652  2.2691
 2496SOL    HW219125   1.868   3.364   9.414  1.1973  1.4413  0.0119
 2497SOL     OW19126   2.817   0.375  15.815 -0.4545 -0.5063 -0.1463
 2497SOL    HW119127   2.836   0.341  15.902 -0.7149 -0.3095 -0.0141
 2497SOL    HW219128   2.903   0.397  15.779 -1.1301  0.7433 -0.9950
 2498SOL     OW19129   1.047   1.223   1.128  0.7692  0.0231 -0.4233
 2498SOL    HW119130   1.001   1.259   1.052  1.7822  0.1338 -0.9771
 2498SOL    HW219131   1.069   1.309   1.166  0.9746  0.3178 -1.2211
 2499SOL     OW19132   1.992   0.460   6.872 -0.4074 -0.6011 -0.0806
 2499SOL    HW119133   1.948   0.514   6.806 -0.7842  0.8679  1.3875
 2499SOL    HW219134   2.046   0.531   6.907 -0.1888 -1.1793  0.7471
 2500SOL     OW19135   1.477   4.519   9.628 -0.1834 -0.0487  0.5902
 2500SOL    HW119136   1.495   4.536   9.536  0.2314  2.9079  1.2174
 2500SOL    HW219137   1.499   4.426   9.628 -3.3804 -0.8104  1.1204
 2501SOL     OW19138   3.664   0.140   5.933 -0.1609  0.5819 -0.3821
 2501SOL    HW119139   3.646   0.145   6.027 -1.1665  0.1724 -0.5519
 2501SOL    HW219140   3.579   0.155   5.891  1.2260  1.6850 -2.7957
 2502SOL     OW19141   0.567   0.140   2.705 -0.0130  0.3825 -0.7519
 2502SOL    HW119142   0.580   0.051   2.673  1.0711 -0.9081  3.3999
 2502SOL    HW219143   0.548   0.122   2.797  1.3177  2.4772 -0.0596
 2503SOL     OW19144   1.115   3.994   9.315 -0.1208  0.6561  0.9834
 2503SOL    HW119145   1.177   4.048   9.266 -0.0991  0.1167  0.4090
 2503SOL    HW219146   1.142   3.905   9.293  2.4579  1.7295 -0.2060
 2504SOL     OW19147   4.437   1.569  13.004 -0.1490  0.3651  0.0139
 2504SOL    HW119148   4.373   1.639  13.020  0.8617  0.9742  1.3292
 2504SOL    HW219149   4.514   1.625  13.004 -0.1099  0.3125 -0.2323
 2505SOL     OW19150   3.378   4.650   4.011  0.0563  0.0426  0.1592
 2505SOL    HW119151   3.285   4.670   4.002 -0.0788 -0.6088  0.1045
 2505SOL    HW219152   3.410   4.661   3.921  1.1771  0.7856  0.6375
 2506SOL     OW19153   4.197   1.876   6.193 -0.0287  0.6504  0.7975
 2506SOL    HW119154   4.224   1.850   6.105  1.0473 -0.7992  1.5485
 2506SOL    HW219155   4.262   1.944   6.210  0.5762 -0.2871  2.2370
 2507SOL     OW19156   3.646   1.623   2.832  0.0893 -0.1866  0.0683
 2507SOL    HW119157   3.617   1.542   2.876  1.7755 -0.8691 -0.0989
 2507SOL    HW219158   3.568   1.678   2.842 -0.2644 -0.6999  0.1854
 2508SOL     OW19159   0.490   0.463   6.545  0.2074 -0.4422 -0.3579
 2508SOL    HW119160   0.547   0.387   6.532  1.2517  0.1195  0.9145
 2508SOL    HW219161   0.485   0.505   6.459  3.3198  1.6415  0.5047
 2509SOL     OW19162   3.691   0.805   8.639 -1.0096  0.2153 -0.0697
 2509SOL    HW119163   3.618   0.859   8.671 -0.9360 -0.9239  2.0335
 2509SOL    HW219164   3.688   0.738   8.707 -0.7238 -1.6878 -1.9811
 2510SOL     OW19165   4.282   1.373   5.182  0.2575 -0.4137 -1.0945
 2510SOL    HW119166   4.370   1.403   5.161  0.6644 -0.8843 -0.0143
 2510SOL    HW219167   4.230   1.453   5.169  0.3207 -0.2538 -0.3119
 2511SOL     OW19168   3.803   1.405   6.753 -0.2324 -0.2603  0.6702
 2511SOL    HW119169   3.746   1.359   6.814 -1.1156  2.2752  1.7818
 2511SOL    HW219170   3.791   1.497   6.776 -2.9187 -0.3124 -0.5169
 2512SOL     OW19171   1.160   0.983   8.702 -0.3358 -0.8311 -0.0534
 2512SOL    HW119172   1.244   0.992   8.747 -1.2878 -1.8768  1.9423
 2512SOL    HW219173   1.101   0.976   8.777 -0.1666 -0.8792  0.0757
 2513SOL     OW19174   1.998   0.609   7.993 -0.6797  0.3668  0.3360
 2513SOL    HW119175   1.919   0.557   7.979  0.5833 -0.5286 -3.3446
 2513SOL    HW219176   1.963   0.698   8.006  2.1360  1.4590  0.4446
 2514SOL     OW19177   3.095   4.109   7.691  0.6634  0.7477  0.3160
 2514SOL    HW119178   3.015   4.159   7.674  1.0294  0.4483 -2.3443
 2514SOL    HW219179   3.086   4.090   7.784 -1.5817  0.7378  0.1013
 2515SOL     OW19180   4.602   0.759   8.175  0.7756 -0.0436 -0.9594
 2515SOL    HW119181   4.563   0.809   8.247 -0.8938 -1.6494 -0.7520
 2515SOL    HW219182   4.596   0.670   8.212 -0.1851  0.6964  0.6702
 2516SOL     OW19183   3.502   4.514  12.582  0.4745  0.9115 -0.5873
 2516SOL    HW119184   3.469   4.602  12.561  0.7574  0.9654 -0.8085
 2516SOL    HW219185   3.587   4.532  12.623  0.3045  0.7672 -0.1768
 2517SOL     OW19186   4.142   1.954  10.494 -0.9519  0.5880  0.1971
 2517SOL    HW119187   4.082   1.935  10.422 -0.0097  1.3211 -0.7883
 2517SOL    HW219188   4.174   2.041  10.467  1.5799 -0.8977 -1.6720
 2518SOL     OW19189   4.096   2.540   5.768 -0.3999  0.0284 -0.3975
 2518SOL    HW119190   4.125   2.582   5.687  3.6853  0.1618  1.1463
 2518SOL    HW219191   4.003   2.526   5.748 -0.2141 -1.1855 -0.4118
 2519SOL     OW19192   1.458   3.377   4.829 -0.2133  0.1263 -0.3559
 2519SOL    HW119193   1.519   3.328   4.885 -0.8856  1.1307  1.2641
 2519SOL    HW219194   1.406   3.304   4.795  0.7226  0.5941 -2.8130
 2520SOL     OW19195   3.387   0.297  10.944 -0.1541 -0.1232 -0.6745
 2520SOL    HW119196   3.455   0.360  10.967 -0.7181  0.3395 -0.2643
 2520SOL    HW219197   3.324   0.351  10.897 -0.2757 -0.7053 -1.1772
 2521SOL     OW19198   3.974   1.343   4.463 -0.0390 -0.2499  0.3096
 2521SOL    HW119199   4.037   1.415   4.461  1.1486 -1.3313 -0.9811
 2521SOL    HW219200   4.030   1.266   4.477  2.3986  1.5161  0.2011
 2522SOL     OW19201   1.962   2.458   8.987  0.1525 -0.5490  0.4666
 2522SOL    HW119202   2.047   2.501   8.994 -0.2546  0.0719  1.5575
 2522SOL    HW219203   1.979   2.364   8.997  3.9920  0.1463  0.4729
 2523SOL     OW19204   3.241   2.193   0.139 -0.1553  0.3131  0.1856
 2523SOL    HW119205   3.278   2.150   0.216  1.2627  2.9640  1.0204
 2523SOL    HW219206   3.275   2.282   0.149  1.0905 -0.0420 -0.8745
 2524SOL     OW19207   2.700   2.366   5.182  0.1749  0.2915 -0.0926
 2524SOL    HW119208   2.612   2.356   5.145  0.5087 -3.5486  0.1241
 2524SOL    HW219209   2.750   2.291   5.151  0.1222  1.6113 -3.2927
 2525SOL     OW19210   2.769   2.550   0.470 -0.2342  0.1981  0.5918
 2525SOL    HW119211   2.861   2.567   0.451 -0.6956  0.5420 -1.2808
 2525SOL    HW219212   2.763   2.463   0.430  4.8265 -0.5935  1.6156
 2526SOL     OW19213   0.668   1.022   4.702  0.2445 -0.0122 -0.4122
 2526SOL    HW119214   0.687   0.931   4.677 -1.8645  0.1042 -2.4580
 2526SOL    HW219215   0.756   1.049   4.727 -0.1733  0.1259  0.8821
 2527SOL     OW19216   4.587   3.896   6.304 -0.0689  0.4002 -0.3392
 2527SOL    HW119217   4.596   3.804   6.278  1.4348  0.2656  0.6117
 2527SOL    HW219218   4.566   3.926   6.216 -1.8909  2.2579  0.7255
 2528SOL     OW19219   0.427   4.198   5.349  0.0615  0.4373  0.1864
 2528SOL    HW119220   0.395   4.222   5.262 -0.4965 -0.6291  0.0898
 2528SOL    HW219221   0.412   4.103   5.349 -0.5143  0.5262 -1.1103
 2529SOL     OW19222   0.924   1.532   5.992  0.1062 -0.3908 -0.0330
 2529SOL    HW119223   0.849   1.557   5.938  1.1246 -0.0172 -1.2726
 2529SOL    HW219224   0.997   1.586   5.961 -0.3415  0.4193  0.3230
 2530SOL     OW19225   0.542   2.168   5.455  0.5844  0.4176  0.8755
 2530SOL    HW119226   0.525   2.245   5.509 -0.5898  1.2169 -0.6342
 2530SOL    HW219227   0.458   2.121   5.451  0.9574 -0.1876  0.1501
 2531SOL     OW19228   0.211   4.738   3.335  0.3342 -0.1864 -0.3584
 2531SOL    HW119229   0.234   4.681   3.261 -2.0209  0.2150 -1.4229
 2531SOL    HW219230   0.122   4.711   3.359  0.1034 -1.1206 -2.2769
 2532SOL     OW19231   3.407   3.704   6.678 -0.8773  0.5443  0.0054
 2532SOL    HW119232   3.419   3.656   6.760  1.5087  0.1329 -0.5668
 2532SOL    HW219233   3.329   3.664   6.638 -0.1673  0.2754 -1.1353
 2533SOL     OW19234   2.038   1.498   4.790 -0.6110 -0.2287  0.0610
 2533SOL    HW119235   2.012   1.408   4.774 -1.3237 -0.1689  0.8636
 2533SOL    HW219236   2.133   1.489   4.789 -0.7106 -1.3533  0.9917
 2534SOL     OW19237   2.813   1.224   3.661 -0.1924  0.1759 -0.1769
 2534SOL    HW119238   2.845   1.205   3.749  0.4861  1.0976 -0.2265
 2534SOL    HW219239   2.736   1.167   3.662  0.1473 -0.2579  0.9717
 2535SOL     OW19240   2.675   1.962   7.310  0.2841  0.2724  0.7627
 2535SOL    HW119241   2.596   2.012   7.291  0.0996  0.5062  2.1067
 2535SOL    HW219242   2.678   1.888   7.250  2.3715  0.9456  0.0300
 2536SOL     OW19243   0.494   0.980   3.370 -0.3685  0.7345  0.3503
 2536SOL    HW119244   0.402   0.991   3.345 -1.1445 -0.1328  2.8424
 2536SOL    HW219245   0.534   0.993   3.284 -1.2461  0.4020 -0.1055
 2537SOL     OW19246   3.960   1.740   4.062 -0.7446 -0.2822 -0.4112
 2537SOL    HW119247   3.936   1.822   4.105 -0.3882  0.8551 -2.3779
 2537SOL    HW219248   4.054   1.757   4.056 -0.1074 -3.0837  1.6357
 2538SOL     OW19249   2.077   0.587   4.330 -0.9012  0.0020 -0.5592
 2538SOL    HW119250   2.015   0.593   4.403  0.2168  1.0514  0.3111
 2538SOL    HW219251   2.091   0.492   4.325  2.4726  0.3406  2.6112
 2539SOL     OW19252   2.280   0.660  14.334 -0.8029  0.2837 -0.1752
 2539SOL    HW119253   2.221   0.721  14.289 -0.5453  0.8192  0.2055
 2539SOL    HW219254   2.215   0.600  14.369 -1.9106  2.5783  1.7420
 2540SOL     OW19255   4.034   4.649   3.237  0.2324  0.0425 -0.2680
 2540SOL    HW119256   4.032   4.555   3.256 -0.5697 -0.5862 -3.4313
 2540SOL    HW219257   4.122   4.656   3.200 -0.2389  1.4964 -1.1108
 2541SOL     OW19258   3.324   4.302   5.036  0.2714 -0.3101  0.6942
 2541SOL    HW119259   3.250   4.241   5.029  0.8793 -1.1115  1.3484
 2541SOL    HW219260   3.363   4.280   5.120 -1.4642  0.3332  1.6908
 2542SOL     OW19261   1.077   0.076  11.930 -0.2864  0.6574 -0.3410
 2542SOL    HW119262   0.989   0.114  11.926 -0.0591  1.1024 -1.0602
 2542SOL    HW219263   1.127   0.151  11.900  1.0099  0.2161  0.7135
 2543SOL     OW19264   2.168   2.084   5.229  0.1248 -0.2304  0.1441
 2543SOL    HW119265   2.235   2.044   5.174 -1.6479 -1.4742 -1.0969
 2543SOL    HW219266   2.141   2.006   5.277  0.0268 -1.1337 -1.3849
 2544SOL     OW19267   0.299   1.952   0.879  0.3406  0.6421  0.4080
 2544SOL    HW119268   0.212   1.990   0.875 -0.0482 -0.5985 -3.3068
 2544SOL    HW219269   0.289   1.891   0.805  1.5459  2.4620 -1.2697
 2545SOL     OW19270   3.468   2.138   4.552  0.3711  0.0720 -0.1166
 2545SOL    HW119271   3.562   2.156   4.560 -0.0005  0.9767  2.5188
 2545SOL    HW219272   3.468   2.064   4.613  0.7403 -0.5818 -0.9203
 2546SOL     OW19273   4.343   0.585   4.364  0.2892  0.2323 -0.7988
 2546SOL    HW119274   4.331   0.627   4.279 -0.0102 -1.2886 -1.5057
 2546SOL    HW219275   4.418   0.639   4.388  1.7834 -1.8983 -0.5760
 2547SOL     OW19276   0.531   4.527  13.699 -0.2785 -0.1118 -0.0947
 2547SOL    HW119277   0.518   4.546  13.792 -4.3906 -3.0176 -0.0800
 2547SOL    HW219278   0.498   4.608  13.661 -1.8536  0.3711  2.3299
 2548SOL     OW19279   1.691   0.780  11.573 -0.3301 -0.1394 -0.1564
 2548SOL    HW119280   1.718   0.705  11.519  1.8715  0.8167 -0.3841
 2548SOL    HW219281   1.615   0.814  11.526  1.2200  1.9249 -1.1694
 2549SOL     OW19282   4.281   4.045   9.969  0.6381  0.0257 -0.1527
 2549SOL    HW119283   4.228   4.096   9.909  1.1740  1.8993  0.9746
 2549SOL    HW219284   4.318   3.978   9.912  1.9217 -0.5158  1.3008
 2550SOL     OW19285   1.241   0.351  12.647 -0.1067  0.1525  0.1432
 2550SOL    HW119286   1.228   0.259  12.626 -1.9253  0.8909 -1.9922
 2550SOL    HW219287   1.197   0.396  12.575 -0.9572  0.1170  0.6341
 2551SOL     OW19288   3.104   0.825  12.240  0.5434  0.2172 -0.0383
 2551SOL    HW119289   3.124   0.812  12.332  1.9739  0.2293 -0.3311
 2551SOL    HW219290   3.014   0.855  12.247 -0.1912 -1.7629 -1.0540
 2552SOL     OW19291   0.565   1.193  15.947 -0.3189 -0.4698  0.0798
 2552SOL    HW119292   0.616   1.232  16.018 -2.1750  1.1359  0.5413
 2552SOL    HW219293   0.477   1.183  15.982  0.0323 -0.1063  1.0664
 2553SOL     OW19294   1.797   4.380  13.167  0.6158 -0.0172 -0.1488
 2553SOL    HW119295   1.773   4.455  13.112  0.7283 -0.0207 -0.2030
 2553SOL    HW219296   1.835   4.325  13.099  1.0357 -0.7363  0.6689
 2554SOL     OW19297   0.611   2.749   0.851 -0.0379 -0.4445  0.0343
 2554SOL    HW119298   0.670   2.693   0.801 -1.2254 -0.9339 -0.8307
 2554SOL    HW219299   0.657   2.748   0.935  2.1672 -1.1335 -1.2041
 2555SOL     OW19300   2.415   3.492  10.187  0.8856 -0.4290 -0.2357
 2555SOL    HW119301   2.449   3.538  10.264  0.4889 -1.3677  0.4988
 2555SOL    HW219302   2.497   3.470  10.142  0.7782  0.3984 -0.8429
 2556SOL     OW19303   2.479   3.464   9.605  0.4869 -0.0460 -0.4866
 2556SOL    HW119304   2.396   3.423   9.580  0.1021  0.8831 -0.7708
 2556SOL    HW219305   2.524   3.443   9.523  1.0603 -0.1095 -0.1515
 2557SOL     OW19306   2.114   2.329   3.455 -0.2762 -0.1136  0.3879
 2557SOL    HW119307   2.100   2.238   3.482  0.2650  0.1351  1.4933
 2557SOL    HW219308   2.058   2.332   3.377 -1.5592  0.0916  1.3130
 2558SOL     OW19309   1.550   2.042   4.152 -0.2199 -0.4879 -0.3892
 2558SOL    HW119310   1.512   1.992   4.080 -0.7752  0.0275 -0.4540
 2558SOL    HW219311   1.643   2.041   4.128 -0.4641 -1.1656 -1.2955
 2559SOL     OW19312   0.355   1.999   3.212 -0.1610  0.0253 -0.6971
 2559SOL    HW119313   0.264   1.998   3.242  0.0877 -0.9333  0.0132
 2559SOL    HW219314   0.396   2.062   3.271 -1.9407 -1.2385  1.8563
 2560SOL     OW19315   1.067   3.801   1.299 -0.1525 -0.4514  0.2213
 2560SOL    HW119316   1.034   3.854   1.227  0.9324 -0.1588 -0.0540
 2560SOL    HW219317   1.160   3.794   1.280  0.0049  0.7344  0.6008
 2561SOL     OW19318   1.734   1.424   6.438  0.0082  0.0335  0.1995
 2561SOL    HW119319   1.653   1.425   6.387 -0.2007  0.2582  0.5420
 2561SOL    HW219320   1.729   1.505   6.490  1.3070  0.9532 -1.0896
 2562SOL     OW19321   3.635   3.357   8.845 -0.4311  0.5946  0.0876
 2562SOL    HW119322   3.639   3.404   8.928 -1.3205  1.0061 -0.1013
 2562SOL    HW219323   3.626   3.428   8.781  0.6038  0.4627 -0.2019
 2563SOL     OW19324   4.325   3.108   3.843  0.3044 -0.3852  0.3616
 2563SOL    HW119325   4.270   3.103   3.764  2.1290  2.6635 -1.1125
 2563SOL    HW219326   4.380   3.034   3.818  0.5649 -0.7494  2.0452
 2564SOL     OW19327   2.883   3.548   3.945 -0.1242  0.5113  0.0835
 2564SOL    HW119328   2.817   3.608   3.910  0.1930  1.0563  0.4235
 2564SOL    HW219329   2.853   3.464   3.909  2.2295 -0.7596  1.0733
 2565SOL     OW19330   3.516   4.516   7.201 -0.9369 -0.5302  0.6302
 2565SOL    HW119331   3.498   4.470   7.283  2.6178 -3.2222 -0.1072
 2565SOL    HW219332   3.584   4.455   7.174  0.7713  2.0544 -0.9589
 2566SOL     OW19333   4.397   3.546   0.388  0.0713  0.1613  0.2274
 2566SOL    HW119334   4.304   3.543   0.369  0.3766  1.9334 -1.5592
 2566SOL    HW219335   4.400   3.531   0.483  1.0762 -2.3581 -0.1864
 2567SOL     OW19336   0.011   3.708  10.034  0.3984 -0.4680 -0.6633
 2567SOL    HW119337   0.059   3.689  10.115 -0.0736 -2.1816 -0.7766
 2567SOL    HW219338   0.068   3.775   9.997 -1.3429  0.1183 -2.2513
 2568SOL     OW19339   2.366   0.368  16.417  0.0490  0.3687  0.1557
 2568SOL    HW119340   2.319   0.429  16.360  0.5391  0.4312 -0.1752
 2568SOL    HW219341   2.312   0.290  16.405 -0.5517  0.5008  1.9261
 2569SOL     OW19342   4.495   1.011   8.312 -0.6809  0.0595  0.3693
 2569SOL    HW119343   4.498   1.096   8.268 -1.8642 -0.0871 -0.0006
 2569SOL    HW219344   4.540   1.022   8.396  0.6199 -0.1626 -0.3155
 2570SOL     OW19345   2.895   2.849   1.899  0.3222 -0.0135  0.1293
 2570SOL    HW119346   2.851   2.933   1.914 -1.1257 -0.8286  0.4728
 2570SOL    HW219347   2.856   2.793   1.966  0.4120  0.5370  0.6522
 2571SOL     OW19348   0.615   4.481   4.275 -0.1247 -0.0807  0.6655
 2571SOL    HW119349   0.657   4.471   4.361 -1.7347 -1.0973  1.3344
 2571SOL    HW219350   0.575   4.567   4.290  2.1065  1.0563  0.1007
 2572SOL     OW19351   1.634   1.880   3.072  0.6297  0.2703 -0.1269
 2572SOL    HW119352   1.581   1.803   3.052 -0.3110  1.1012 -0.7841
 2572SOL    HW219353   1.591   1.948   3.021 -1.2322  0.4832  1.7264
 2573SOL     OW19354   1.578   4.060   4.366 -0.5355 -0.5367  0.5490
 2573SOL    HW119355   1.524   3.983   4.350 -0.3573  0.2421 -3.9291
 2573SOL    HW219356   1.538   4.140   4.331 -3.4402 -1.9296  0.7051
 2574SOL     OW19357   0.061   1.244   3.798 -0.0741 -0.1635 -0.1443
 2574SOL    HW119358   0.145   1.208   3.770  1.1297  2.0378  0.6756
 2574SOL    HW219359   0.062   1.229   3.893 -2.3146 -0.7663 -0.2053
 2575SOL     OW19360   3.728   2.961  14.042 -0.0729 -0.1662  0.1554
 2575SOL    HW119361   3.774   3.041  14.015 -0.0708 -0.6744 -1.2865
 2575SOL    HW219362   3.676   2.931  13.969 -1.5773  1.2804  0.6183
 2576SOL     OW19363   1.381   3.677   6.958  0.4493 -0.1736 -0.0430
 2576SOL    HW119364   1.443   3.629   7.012  0.6161  0.2544  0.1506
 2576SOL    HW219365   1.413   3.767   6.966 -1.1663  0.4498 -0.7046
 2577SOL     OW19366   2.522   1.773   2.409  0.2687  0.0001  0.5683
 2577SOL    HW119367   2.597   1.829   2.429 -0.4634  0.8866  0.8047
 2577SOL    HW219368   2.453   1.836   2.428  2.0388  1.0825  3.4037
 2578SOL     OW19369   3.440   2.060   2.090 -0.1461  0.2014  0.6734
 2578SOL    HW119370   3.508   2.098   2.034 -2.0462  1.2069 -0.9558
 2578SOL    HW219371   3.409   2.004   2.018 -0.2452 -1.5695  2.1074
 2579SOL     OW19372   4.173   0.270   9.912  0.0087 -0.3683 -0.1435
 2579SOL    HW119373   4.236   0.323   9.960 -2.2383  1.3755  0.8845
 2579SOL    HW219374   4.222   0.257   9.830 -1.0687  0.0525 -0.8542
 2580SOL     OW19375   1.025   0.557   4.687  0.3548  0.0696  0.5964
 2580SOL    HW119376   1.095   0.547   4.751  0.9087  0.9990  0.1282
 2580SOL    HW219377   1.068   0.521   4.610  1.9063 -0.3850  1.6768
 2581SOL     OW19378   3.301   4.664   7.620 -0.2735 -0.0618 -0.2826
 2581SOL    HW119379   3.290   4.674   7.714  0.7258 -0.5226 -0.1183
 2581SOL    HW219380   3.387   4.623   7.615 -0.0436  0.3353  0.4267
 2582SOL     OW19381   2.297   4.353   3.546  0.1486 -0.2974  0.2367
 2582SOL    HW119382   2.312   4.309   3.463 -1.6212 -1.0021  0.2845
 2582SOL    HW219383   2.238   4.426   3.526 -0.8626 -0.9471  0.8139
 2583SOL     OW19384   2.251   0.883   7.184 -0.0623  0.4832  0.7989
 2583SOL    HW119385   2.330   0.930   7.211  1.8523 -1.5317 -1.2950
 2583SOL    HW219386   2.273   0.792   7.201  1.8874  1.0370  1.2551
 2584SOL     OW19387   1.884   3.836   6.441 -0.4038 -0.3196 -0.2051
 2584SOL    HW119388   1.918   3.786   6.366  0.9532 -0.0454  0.2278
 2584SOL    HW219389   1.794   3.847   6.410  0.4398  1.8718 -1.9482
 2585SOL     OW19390   2.198   4.167   9.541  0.4462  0.8049 -0.8335
 2585SOL    HW119391   2.128   4.107   9.515  1.3070 -1.3154  1.7328
 2585SOL    HW219392   2.210   4.151   9.635 -0.1818  0.0746 -0.8812
 2586SOL     OW19393   3.873   3.267   3.952  0.5524  0.3846 -0.1507
 2586SOL    HW119394   3.957   3.272   3.997  0.1390  2.4155  0.4103
 2586SOL    HW219395   3.807   3.293   4.017  1.2253  1.1474  0.2322
 2587SOL     OW19396   2.925   1.343  12.516  0.4575  0.0385  0.4363
 2587SOL    HW119397   2.866   1.314  12.446 -1.2081 -1.1269  2.3239
 2587SOL    HW219398   2.884   1.426  12.540  4.3187  2.0701 -0.0743
 2588SOL     OW19399   3.685   1.980   7.245  0.4422  0.1677  0.2903
 2588SOL    HW119400   3.721   1.986   7.157 -0.6130  0.0116 -0.1491
 2588SOL    HW219401   3.599   1.977   7.205  1.0952  0.6791 -1.1468
 2589SOL     OW19402   1.973   4.129   4.098  0.1309  0.2544 -0.1288
 2589SOL    HW119403   2.025   4.055   4.065 -1.8897 -0.2935 -2.0362
 2589SOL    HW219404   1.896   4.073   4.109  0.7880 -0.5054  0.7066
 2590SOL     OW19405   1.692   3.370  17.583  0.3417  0.4429 -0.7861
 2590SOL    HW119406   1.656   3.355  17.671  2.3071 -0.6896 -0.1827
 2590SOL    HW219407   1.723   3.461  17.583  0.3309  0.4440 -0.0041
 2591SOL     OW19408   0.497   4.143  10.336  0.6522 -0.5420  0.4336
 2591SOL    HW119409   0.540   4.099  10.409 -0.6257 -0.9333  0.9473
 2591SOL    HW219410   0.439   4.070  10.312  1.3988 -0.1411 -2.5296
 2592SOL     OW19411   1.718   4.278  11.651 -0.2298  0.5537  0.3561
 2592SOL    HW119412   1.787   4.323  11.602 -0.2926  1.3502  1.0110
 2592SOL    HW219413   1.737   4.186  11.634 -0.3161  0.4941  0.5860
 2593SOL     OW19414   4.004   4.032   3.327  0.1329 -0.6868 -1.1171
 2593SOL    HW119415   4.084   4.071   3.362  0.3509  0.3901 -2.7944
 2593SOL    HW219416   4.045   4.000   3.246 -1.1176 -2.6273 -0.9770
 2594SOL     OW19417   1.090   0.259   2.885  0.2476  0.7016  0.0936
 2594SOL    HW119418   1.149   0.272   2.959  0.9605 -0.7717 -0.2289
 2594SOL    HW219419   1.124   0.177   2.850  1.7207  1.8511 -1.1743
 2595SOL     OW19420   3.732   2.951   8.526 -0.0112 -0.5020 -0.6256
 2595SOL    HW119421   3.825   2.938   8.509  0.3679  1.4532 -0.0996
 2595SOL    HW219422   3.699   2.909   8.446 -1.9823  0.1696 -0.1644
 2596SOL     OW19423   0.463   1.418   2.007  0.0037 -0.0735 -0.5968
 2596SOL    HW119424   0.477   1.478   1.933 -0.7623  0.8542  0.0104
 2596SOL    HW219425   0.425   1.471   2.077  1.0328  0.2599 -0.2949
 2597SOL     OW19426   3.300   2.966   2.744  0.0169  0.4792 -0.1235
 2597SOL    HW119427   3.335   2.880   2.767 -0.0978  0.8741  1.5153
 2597SOL    HW219428   3.306   2.957   2.649 -0.4275 -3.2837  0.2195
 2598SOL     OW19429   0.334   3.390   4.821  0.5009  0.3915 -0.1311
 2598SOL    HW119430   0.256   3.433   4.787  0.0171 -0.7486 -0.4328
 2598SOL    HW219431   0.390   3.393   4.743 -0.0264 -1.7600 -0.5862
 2599SOL     OW19432   4.218   1.039   9.625 -0.3909  0.9162 -0.3669
 2599SOL    HW119433   4.161   0.963   9.641 -1.4454  1.7693 -0.0988
 2599SOL    HW219434   4.172   1.106   9.675  1.9820  2.6796 -0.5794
 2600SOL     OW19435   2.995   0.617   7.820  0.1639 -0.2583  0.1586
 2600SOL    HW119436   3.050   0.691   7.846  0.8706 -0.5160 -0.6375
 2600SOL    HW219437   2.940   0.665   7.758 -1.0700  0.1734  1.5767
 2601SOL     OW19438   0.045   1.535   5.215 -0.3322 -0.4333  0.6101
 2601SOL    HW119439   0.111   1.507   5.151 -0.4610 -0.2593  0.3995
 2601SOL    HW219440   0.092   1.530   5.298  0.2090 -1.6712  0.2280
 2602SOL     OW19441   1.074   0.564  10.864  0.2177  0.1694  0.6700
 2602SOL    HW119442   1.000   0.624  10.868 -1.3263 -1.8600  2.0855
 2602SOL    HW219443   1.049   0.520  10.783 -2.2138 -1.1216  2.1166
 2603SOL     OW19444   4.240   2.224  13.939 -1.0466  0.6655  0.1366
 2603SOL    HW119445   4.220   2.301  13.993  0.1275  0.5894  0.6710
 2603SOL    HW219446   4.179   2.158  13.971 -1.0581  0.5078 -0.2152
 2604SOL     OW19447   0.488   3.436  10.288  0.1914  0.7413  0.4553
 2604SOL    HW119448   0.424   3.484  10.341 -0.2094  1.4548 -0.6645
 2604SOL    HW219449   0.546   3.407  10.358 -0.6766 -0.7324  0.5518
 2605SOL     OW19450   3.187   2.869  16.900 -0.2353  0.1314 -0.0567
 2605SOL    HW119451   3.248   2.797  16.918  0.6428  0.2128 -2.6694
 2605SOL    HW219452   3.249   2.943  16.904 -0.6124  0.3195  2.0236
 2606SOL     OW19453   0.331   3.147   2.539  0.3491 -0.9029  0.1677
 2606SOL    HW119454   0.299   3.229   2.501 -1.0852 -2.1743 -1.3564
 2606SOL    HW219455   0.335   3.093   2.460 -1.3981 -0.2960 -0.3550
 2607SOL     OW19456   2.015   1.765   2.322 -0.0578 -0.2121 -0.1554
 2607SOL    HW119457   2.091   1.754   2.266  0.3760 -0.9162  0.5600
 2607SOL    HW219458   2.058   1.722   2.397  0.8195 -0.9953 -1.1124
 2608SOL     OW19459   3.213   4.439   6.779 -0.0610 -0.4663  0.1146
 2608SOL    HW119460   3.222   4.354   6.738  0.7196 -0.1823 -0.2959
 2608SOL    HW219461   3.278   4.417   6.845 -0.9786 -0.0339  1.1721
 2609SOL     OW19462   0.341   4.495   8.597  0.4664  0.0775 -0.1759
 2609SOL    HW119463   0.407   4.524   8.659  0.8511 -1.6745  0.2227
 2609SOL    HW219464   0.272   4.561   8.611  0.9709  0.5639 -0.0056
 2610SOL     OW19465   0.847   1.608  16.780 -0.8661 -0.5687  0.8745
 2610SOL    HW119466   0.861   1.660  16.702  1.9664 -1.2910  0.8896
 2610SOL    HW219467   0.817   1.525  16.743 -0.7786  0.2662 -1.0206
 2611SOL     OW19468   0.841   0.335   6.808  0.1595 -0.2828  0.0693
 2611SOL    HW119469   0.816   0.252   6.848  0.8785  0.8233  2.7970
 2611SOL    HW219470   0.909   0.305   6.748 -0.4127  1.1799 -1.3076
 2612SOL     OW19471   3.808   3.905   7.452  0.2789 -0.9837 -0.1042
 2612SOL    HW119472   3.716   3.930   7.443 -0.2343 -2.5243  0.8037
 2612SOL    HW219473   3.799   3.826   7.506  0.1813 -0.7713  0.1899
 2613SOL     OW19474   3.147   2.129   1.639  0.1655 -0.5388 -0.5073
 2613SOL    HW119475   3.105   2.079   1.709  2.6176 -0.6517  0.8877
 2613SOL    HW219476   3.126   2.080   1.560 -1.1533  1.4691 -1.3900
 2614SOL     OW19477   2.608   3.239   7.667 -1.0903 -0.2291  0.3846
 2614SOL    HW119478   2.630   3.146   7.670 -1.0437 -0.3299 -2.2776
 2614SOL    HW219479   2.679   3.277   7.614  0.6042 -0.2129  2.6632
 2615SOL     OW19480   4.525   4.657   6.225  0.3947  0.4225  0.0261
 2615SOL    HW119481   4.547   0.003   6.186 -2.2982  0.8134 -0.6582
 2615SOL    HW219482   4.607   4.611   6.210  0.3550  1.0828 -2.3035
 2616SOL     OW19483   1.721   2.171   3.190  0.0158 -0.0534  0.5232
 2616SOL    HW119484   1.732   2.217   3.273  1.0707  1.5264 -0.4888
 2616SOL    HW219485   1.807   2.194   3.155 -1.1205  2.0498 -0.9134
 2617SOL     OW19486   0.937   2.609   2.393  0.0703  0.5726 -0.5851
 2617SOL    HW119487   0.913   2.520   2.419 -1.3066  1.4668  1.2503
 2617SOL    HW219488   0.876   2.657   2.450  1.3442  1.1117  0.3280
 2618SOL     OW19489   3.719   0.423   5.931  0.5453 -0.2589 -0.4289
 2618SOL    HW119490   3.684   0.334   5.927  1.2219 -0.5192 -0.5150
 2618SOL    HW219491   3.653   0.476   5.885  1.0433  1.6746  1.0884
 2619SOL     OW19492   3.877   3.452   3.109 -0.2832 -0.3105 -0.3255
 2619SOL    HW119493   3.949   3.392   3.089 -0.1572 -0.0290 -0.7380
 2619SOL    HW219494   3.813   3.423   3.043 -0.2373  1.6428 -1.2437
 2620SOL     OW19495   2.588   1.603   5.249 -0.9786  0.0286  0.3104
 2620SOL    HW119496   2.543   1.578   5.168 -0.3464 -0.4791  0.1108
 2620SOL    HW219497   2.577   1.698   5.239  1.4359  0.1606 -1.1387
 2621SOL     OW19498   3.363   0.724   6.780 -0.3871  0.4688 -0.3192
 2621SOL    HW119499   3.306   0.736   6.704 -0.2141  0.9482 -0.3681
 2621SOL    HW219500   3.447   0.708   6.738 -0.1537  0.0630  0.2944
 2622SOL     OW19501   4.380   2.329   0.894 -0.3593  0.2159 -0.2544
 2622SOL    HW119502   4.318   2.272   0.848  1.0463 -1.7646  0.3012
 2622SOL    HW219503   4.324   2.392   0.939  0.5175  1.6510 -1.2053
 2623SOL     OW19504   4.605   0.568   3.541 -0.4687 -0.0067 -0.2773
 2623SOL    HW119505   4.673   0.515   3.583 -3.1902 -0.5608  3.3557
 2623SOL    HW219506   4.560   0.508   3.481  1.5894 -0.1679 -1.6682
 2624SOL     OW19507   4.629   4.349   2.472  0.0819 -0.0204  0.4252
 2624SOL    HW119508   4.672   4.315   2.394  0.4323 -0.0046  0.6134
 2624SOL    HW219509   4.539   4.363   2.440 -0.0745  1.1152  1.3623
 2625SOL     OW19510   3.912   1.153   5.905  0.0030  0.1369  0.0608
 2625SOL    HW119511   3.821   1.178   5.884  0.5721  2.1551 -0.0437
 2625SOL    HW219512   3.943   1.231   5.951  0.3848 -1.3867  2.3373
 2626SOL     OW19513   0.159   3.823   4.314  0.2647 -0.3248 -0.0316
 2626SOL    HW119514   0.199   3.909   4.307 -1.1149  0.4588  1.7489
 2626SOL    HW219515   0.186   3.777   4.234  3.5505  0.4030  0.6492
 2627SOL     OW19516   0.259   3.346   1.066  0.1742  0.0729  0.4056
 2627SOL    HW119517   0.222   3.317   0.983 -0.5157  0.4702  0.5746
 2627SOL    HW219518   0.193   3.326   1.132  0.6639  0.1541  0.9188
 2628SOL     OW19519   2.973   4.087  10.395  0.3194  0.1077  0.1807
 2628SOL    HW119520   3.037   4.105  10.464  1.5497  0.0430 -0.9467
 2628SOL    HW219521   2.999   4.004  10.356  0.8642  0.6684 -0.6487
 2629SOL     OW19522   4.093   2.605   3.756  0.3088 -0.3450  0.3548
 2629SOL    HW119523   4.130   2.518   3.740 -3.6555 -2.3110  1.9599
 2629SOL    HW219524   4.051   2.608   3.670 -2.9337  0.6825  1.9720
 2630SOL     OW19525   3.213   1.276   4.056 -0.2891 -0.3370 -0.5291
 2630SOL    HW119526   3.252   1.193   4.082 -0.0904 -0.6927 -1.9207
 2630SOL    HW219527   3.256   1.292   3.972  2.2146  1.3726  1.0745
 2631SOL     OW19528   0.970   2.987   8.147  0.2058  0.1760 -0.1403
 2631SOL    HW119529   1.021   2.955   8.221 -1.8610  1.8499  2.0135
 2631SOL    HW219530   0.998   3.078   8.147  0.9013 -0.0479 -1.1502
 2632SOL     OW19531   3.996   3.366  13.778  0.4122 -0.3198 -0.6764
 2632SOL    HW119532   3.920   3.421  13.759  1.1838  0.9577 -0.0735
 2632SOL    HW219533   3.998   3.304  13.705 -0.7078  0.0121 -0.9933
 2633SOL     OW19534   3.090   0.392  15.197 -0.1868  0.3370 -0.8199
 2633SOL    HW119535   3.030   0.456  15.160  1.0573  1.1657 -1.3862
 2633SOL    HW219536   3.125   0.425  15.280 -0.5112  2.1847 -1.4305
 2634SOL     OW19537   0.197   1.968  11.874  0.6874 -0.6948 -0.5763
 2634SOL    HW119538   0.153   1.885  11.860 -0.6969 -0.1455  0.5301
 2634SOL    HW219539   0.229   1.985  11.786 -1.0546 -0.1977 -1.1056
 2635SOL     OW19540   3.839   0.735   3.868 -0.1717 -0.1530  0.4366
 2635SOL    HW119541   3.876   0.722   3.781 -0.1465 -1.0706  0.5873
 2635SOL    HW219542   3.745   0.720   3.864 -0.4813  1.3092  2.0253
 2636SOL     OW19543   1.478   2.720   3.009 -0.5532 -0.1111  0.5441
 2636SOL    HW119544   1.535   2.686   3.078  1.1953 -0.8254 -1.2455
 2636SOL    HW219545   1.404   2.660   3.010 -1.1031  0.5277 -1.7194
 2637SOL     OW19546   1.271   2.249   6.284 -0.2515  0.7821 -0.1970
 2637SOL    HW119547   1.255   2.155   6.292 -2.1097  1.1986  0.7538
 2637SOL    HW219548   1.323   2.261   6.364 -0.5464  0.6037  0.0207
 2638SOL     OW19549   3.260   0.086   2.342 -0.3599 -0.1303  0.7780
 2638SOL    HW119550   3.249   0.147   2.269 -0.9811 -0.1735  0.8383
 2638SOL    HW219551   3.199   0.117   2.408 -2.8689 -0.6442 -1.3077
 2639SOL     OW19552   0.977   2.845   2.696  0.4064  0.0898 -0.2677
 2639SOL    HW119553   1.043   2.891   2.747 -1.3517  2.4105 -0.0956
 2639SOL    HW219554   1.005   2.755   2.711  0.3157  0.3739  1.5815
 2640SOL     OW19555   1.492   3.217   3.942 -0.0519 -0.3110  0.3960
 2640SOL    HW119556   1.469   3.137   3.990 -0.9456 -0.1090  0.3121
 2640SOL    HW219557   1.475   3.288   4.005 -1.8727 -1.1795  0.9086
 2641SOL     OW19558   0.011   2.887   0.484  0.3939 -0.2936 -0.3820
 2641SOL    HW119559   0.035   2.795   0.473  1.0349 -0.2546  0.6633
 2641SOL    HW219560   4.668   2.881   0.534  1.9547 -0.7938  2.1119
 2642SOL     OW19561   3.111   2.261   0.439  0.2046  0.3861  0.2268
 2642SOL    HW119562   3.054   2.329   0.474 -1.5599 -1.3225  0.6872
 2642SOL    HW219563   3.052   2.197   0.399 -0.4164  2.3419 -1.9960
 2643SOL     OW19564   1.341   4.326   7.799  0.0756  0.1164  0.6241
 2643SOL    HW119565   1.367   4.307   7.889 -1.2489 -1.1343  0.7303
 2643SOL    HW219566   1.318   4.418   7.811  1.0985  0.1896  2.1065
 2644SOL     OW19567   2.504   2.651   4.440  0.2817  0.3551  0.3459
 2644SOL    HW119568   2.444   2.707   4.390 -1.8358 -1.8478  0.3863
 2644SOL    HW219569   2.558   2.633   4.363 -0.4896 -0.3291 -0.0320
 2645SOL     OW19570   2.993   4.063   3.884  0.2066  0.4959 -0.4359
 2645SOL    HW119571   2.982   4.059   3.979  0.2344 -2.1333 -0.5445
 2645SOL    HW219572   2.943   4.143   3.864 -0.7683  0.1436  0.5500
 2646SOL     OW19573   3.888   2.863   6.290 -0.1529  0.1907 -0.3455
 2646SOL    HW119574   3.908   2.770   6.282 -1.2294 -0.2013  1.6466
 2646SOL    HW219575   3.882   2.895   6.200  0.3840  0.9995 -0.0949
 2647SOL     OW19576   0.793   4.684   4.142 -0.0324  0.4274 -0.0248
 2647SOL    HW119577   0.719   4.737   4.173  1.1294  2.1894 -0.2922
 2647SOL    HW219578   0.782   4.710   4.051 -0.8683 -2.3575 -0.7416
 2648SOL     OW19579   2.422   3.000   3.824  0.2345  0.5129 -0.2778
 2648SOL    HW119580   2.474   2.984   3.903  1.0644  3.0661 -0.3221
 2648SOL    HW219581   2.383   3.086   3.838 -1.5025 -0.1717 -0.9466
 2649SOL     OW19582   2.426   4.505   4.163  0.4038  0.1788 -0.5702
 2649SOL    HW119583   2.405   4.585   4.210 -2.3076 -1.3849  0.8701
 2649SOL    HW219584   2.350   4.501   4.104  0.4009  2.5327 -0.7065
 2650SOL     OW19585   4.518   1.352  16.417  0.5439  0.3066  0.0327
 2650SOL    HW119586   4.580   1.423  16.398  0.9556 -0.6576 -2.2161
 2650SOL    HW219587   4.481   1.350  16.329  0.3042  0.6536  0.1255
 2651SOL     OW19588   2.914   4.508   8.350 -0.0826  0.2150 -0.6574
 2651SOL    HW119589   2.944   4.575   8.411  0.0779 -3.1447  2.9391
 2651SOL    HW219590   2.986   4.512   8.287  1.2183  0.3920  0.8645
 2652SOL     OW19591   4.083   3.966   4.956 -0.3212  0.0911 -0.3975
 2652SOL    HW119592   4.079   4.028   5.028  0.2458 -0.1910 -0.1267
 2652SOL    HW219593   3.999   3.931   4.985 -0.5456  1.0325  0.0966
 2653SOL     OW19594   0.957   0.578   6.096 -0.0103 -0.4083  0.1085
 2653SOL    HW119595   0.914   0.499   6.130 -2.1145  0.7772  0.1571
 2653SOL    HW219596   1.014   0.603   6.169  1.0553  0.1144 -0.9000
 2654SOL     OW19597   1.999   0.558   0.308  0.1935 -0.0514 -0.1975
 2654SOL    HW119598   1.965   0.646   0.328  0.4825 -0.3694  1.6615
 2654SOL    HW219599   1.920   0.505   0.309 -0.0123  0.2512 -0.3694
 2655SOL     OW19600   0.188   1.086   3.492 -0.4497  0.7739  0.2306
 2655SOL    HW119601   0.225   1.031   3.423  0.1897  0.9743  0.4189
 2655SOL    HW219602   0.102   1.090   3.450 -0.9712 -3.9030  0.8455
 2656SOL     OW19603   2.147   1.115   8.421  0.5180 -0.0261 -0.1678
 2656SOL    HW119604   2.178   1.187   8.476 -0.6795  1.1365 -1.0303
 2656SOL    HW219605   2.121   1.164   8.343  0.1148 -2.3296 -1.4634
 2657SOL     OW19606   4.499   0.598  11.875  0.5899 -0.1192  0.6001
 2657SOL    HW119607   4.544   0.517  11.853  0.6099 -0.2621  1.1663
 2657SOL    HW219608   4.408   0.572  11.888  0.4542  0.4584  0.8078
 2658SOL     OW19609   2.721   3.184   3.213  0.0978 -0.0412  0.3055
 2658SOL    HW119610   2.628   3.206   3.211 -0.1223 -0.8778  1.5455
 2658SOL    HW219611   2.751   3.191   3.303 -0.6419 -0.8413  0.6109
 2659SOL     OW19612   3.391   1.316   8.016 -0.3283 -0.4823  0.0223
 2659SOL    HW119613   3.415   1.383   7.951 -0.6341 -0.0667  0.3350
 2659SOL    HW219614   3.302   1.293   7.989 -0.6167  1.2961 -0.5965
 2660SOL     OW19615   1.909   3.683   7.167  0.4112  0.1814 -0.2218
 2660SOL    HW119616   1.898   3.742   7.242  2.4825  0.8805 -0.4605
 2660SOL    HW219617   1.829   3.700   7.117  1.5077  1.7531 -1.4251
 2661SOL     OW19618   1.249   3.810   8.887  0.0606 -0.3696  0.7272
 2661SOL    HW119619   1.291   3.854   8.813 -0.0700  0.5859  1.2177
 2661SOL    HW219620   1.307   3.832   8.960 -0.5893  1.1175  0.7977
 2662SOL     OW19621   2.516   2.220   1.987 -0.5268 -0.2290 -0.4665
 2662SOL    HW119622   2.433   2.173   1.990 -0.8275  0.5139  2.4580
 2662SOL    HW219623   2.485   2.289   2.046 -0.0816  1.5538 -2.3316
 2663SOL     OW19624   3.118   3.686   3.011  0.3237  0.0760  0.1632
 2663SOL    HW119625   3.173   3.647   3.079  0.3035  1.0052  0.7151
 2663SOL    HW219626   3.109   3.604   2.961  0.5429  0.1637 -0.0228
 2664SOL     OW19627   2.002   2.685   2.323 -0.0246  0.2211  0.5025
 2664SOL    HW119628   2.065   2.709   2.255  0.8433 -0.9952  0.8704
 2664SOL    HW219629   2.058   2.694   2.400  1.6795  0.3975 -0.7558
 2665SOL     OW19630   0.737   1.899   5.168 -0.1369  0.1657  0.2357
 2665SOL    HW119631   0.793   1.833   5.129  1.3253  1.7417 -0.3175
 2665SOL    HW219632   0.658   1.863   5.127 -0.6739 -0.7458  2.0478
 2666SOL     OW19633   2.766   1.454   4.737  0.1523 -0.3322 -0.1060
 2666SOL    HW119634   2.859   1.447   4.713  0.3165  0.8689  0.1859
 2666SOL    HW219635   2.724   1.492   4.660 -1.9398  1.0488  1.7479
 2667SOL     OW19636   4.125   3.090  10.989  0.2169 -0.3709 -0.1071
 2667SOL    HW119637   4.216   3.102  11.016 -0.6321 -2.0420  3.4085
 2667SOL    HW219638   4.089   3.176  11.010  1.9171  0.8601 -2.1541
 2668SOL     OW19639   3.832   2.405   6.565  0.0970  0.1003 -0.3074
 2668SOL    HW119640   3.906   2.366   6.611  1.3525  1.3863 -1.2276
 2668SOL    HW219641   3.778   2.330   6.543  0.2473 -0.8832  2.7390
 2669SOL     OW19642   0.928   0.212  14.388 -0.0269 -0.2007  0.0926
 2669SOL    HW119643   0.891   0.288  14.343 -0.0766  1.0296  2.2129
 2669SOL    HW219644   1.019   0.241  14.397 -0.9543  1.6133  3.4933
 2670SOL     OW19645   0.733   2.440   3.976  0.4439  0.0163 -0.4475
 2670SOL    HW119646   0.682   2.521   3.984  3.4938  1.7349  1.7459
 2670SOL    HW219647   0.809   2.475   3.928 -0.2161 -0.3808 -1.7985
 2671SOL     OW19648   2.787   1.425   3.978 -0.5555 -0.3710 -0.6821
 2671SOL    HW119649   2.726   1.465   4.039 -1.3673 -0.1288 -1.6501
 2671SOL    HW219650   2.822   1.350   4.026 -3.0510 -0.7397  0.5020
 2672SOL     OW19651   2.469   3.649  16.574  0.0453  0.5040  0.3539
 2672SOL    HW119652   2.553   3.605  16.580 -0.1666  0.0499  0.0277
 2672SOL    HW219653   2.445   3.622  16.485  1.4542  0.8643 -0.1233
 2673SOL     OW19654   3.440   3.737  10.249 -0.6640  0.3478 -0.6441
 2673SOL    HW119655   3.390   3.807  10.291  0.7233  0.7294  0.3704
 2673SOL    HW219656   3.524   3.781  10.236 -0.2736  0.1998  1.3930
 2674SOL     OW19657   1.250   1.972   8.993 -0.0488 -0.1344 -0.0265
 2674SOL    HW119658   1.162   1.968   8.955 -0.0386 -0.6313  0.0013
 2674SOL    HW219659   1.247   2.064   9.020 -0.1678 -0.3188  0.6057
 2675SOL     OW19660   1.907   2.889   3.234  0.1677  0.5115 -0.0367
 2675SOL    HW119661   1.872   2.974   3.209  0.6952  0.4201 -1.0933
 2675SOL    HW219662   1.964   2.918   3.305  0.9800 -0.2907 -0.3635
 2676SOL     OW19663   3.206   3.390   4.612  0.0674  0.2184 -0.0938
 2676SOL    HW119664   3.260   3.324   4.656  0.2422 -0.0652 -0.7406
 2676SOL    HW219665   3.257   3.422   4.538  1.2961 -1.1568  0.1452
 2677SOL     OW19666   4.118   4.305   3.423 -0.2734  0.3784  0.3363
 2677SOL    HW119667   4.061   4.324   3.348  0.1103  1.1100  0.2278
 2677SOL    HW219668   4.174   4.382   3.424  0.3333 -0.0799  1.3268
 2678SOL     OW19669   0.393   1.723   3.285  0.0138 -0.4890  0.2800
 2678SOL    HW119670   0.340   1.719   3.205  0.4568 -0.7978  0.0001
 2678SOL    HW219671   0.417   1.815   3.291 -0.1253 -0.3469 -1.2575
 2679SOL     OW19672   1.585   1.383  17.411 -0.3017  0.3071 -0.1388
 2679SOL    HW119673   1.622   1.458  17.364 -1.4524  0.8988 -0.0767
 2679SOL    HW219674   1.662   1.360  17.464  0.2869 -1.2822 -1.6756
 2680SOL     OW19675   0.754   1.093   8.693 -0.4793  0.1267 -0.5929
 2680SOL    HW119676   0.782   1.132   8.610 -1.4685 -1.9413 -1.9020
 2680SOL    HW219677   0.746   1.165   8.755  0.4834  1.1027 -1.6105
 2681SOL     OW19678   3.801   3.496  10.518 -0.5989 -0.0826  0.2231
 2681SOL    HW119679   3.776   3.495  10.611 -1.6941 -2.5275 -0.1213
 2681SOL    HW219680   3.870   3.431  10.506 -0.2365 -0.0190  1.8742
 2682SOL     OW19681   2.934   1.657  15.639  0.2170  0.1380 -0.1775
 2682SOL    HW119682   3.014   1.630  15.683  0.1332  0.6407  0.2776
 2682SOL    HW219683   2.982   1.671  15.558 -1.0760  1.4036 -0.7356
 2683SOL     OW19684   2.619   4.413  15.994 -0.2711 -0.4536 -0.2025
 2683SOL    HW119685   2.653   4.357  16.064 -1.1571 -1.3268 -0.4622
 2683SOL    HW219686   2.542   4.358  15.977 -1.2324  0.9703 -0.3996
 2684SOL     OW19687   1.635   2.135   4.474 -0.1170 -0.0322  0.1206
 2684SOL    HW119688   1.596   2.149   4.388 -1.2334  0.5257  0.7253
 2684SOL    HW219689   1.709   2.081   4.446  0.9083  2.4908 -1.9812
 2685SOL     OW19690   1.227   4.647   4.603  0.2647 -0.2380  0.0357
 2685SOL    HW119691   1.302   4.613   4.555  0.3475  0.0083 -0.0069
 2685SOL    HW219692   1.267   4.726   4.638  0.2541  0.8992 -2.5212
 2686SOL     OW19693   1.605   3.901   8.310  0.3156 -0.5168  0.5284
 2686SOL    HW119694   1.680   3.856   8.271  0.4871  0.9354 -0.8349
 2686SOL    HW219695   1.605   3.875   8.402 -0.7330 -1.5855  0.2098
 2687SOL     OW19696   2.958   1.586  12.337  0.5532 -0.9156 -0.2776
 2687SOL    HW119697   2.882   1.642  12.350  2.1008  1.1691 -0.3392
 2687SOL    HW219698   2.943   1.534  12.258 -0.1745 -0.5271 -0.3915
 2688SOL     OW19699   0.055   3.010  15.495 -0.0667 -0.2744 -0.0786
 2688SOL    HW119700   4.705   2.976  15.507 -0.7114  0.5237 -2.5849
 2688SOL    HW219701   0.089   2.934  15.448  0.0701 -0.4604  0.3184
 2689SOL     OW19702   4.292   1.770   5.884  0.0752 -0.0976  0.0548
 2689SOL    HW119703   4.352   1.715   5.834  0.2722 -1.3473  1.6791
 2689SOL    HW219704   4.346   1.848   5.885 -1.7908  1.1787  1.4320
 2690SOL     OW19705   2.660   1.073   2.766  0.0364  0.0740  0.3526
 2690SOL    HW119706   2.653   0.986   2.807  1.4034  0.3518  1.1692
 2690SOL    HW219707   2.610   1.052   2.687 -0.9457  2.6320  0.3091
 2691SOL     OW19708   2.609   2.366   7.180  0.2273  0.6056  0.3409
 2691SOL    HW119709   2.561   2.323   7.251 -0.8142  2.3308  0.6677
 2691SOL    HW219710   2.620   2.452   7.219 -1.4625  1.0055 -0.1037
 2692SOL     OW19711   1.884   3.677   9.470  0.7223 -0.6856 -0.6391
 2692SOL    HW119712   1.867   3.654   9.561  0.0593  2.6694  0.0780
 2692SOL    HW219713   1.851   3.594   9.435 -0.6491 -0.6172  0.4764
 2693SOL     OW19714   1.050   2.374   6.157  0.1275  0.3714 -0.2457
 2693SOL    HW119715   1.114   2.325   6.209 -0.9847 -1.4290 -0.5506
 2693SOL    HW219716   1.075   2.356   6.067 -1.3120 -1.3511 -0.2997
 2694SOL     OW19717   0.070   2.438   2.842 -0.6516 -0.1913 -0.3311
 2694SOL    HW119718   0.149   2.391   2.870 -1.7702 -1.3627  0.8437
 2694SOL    HW219719   0.063   2.501   2.914  4.5902 -0.9447  0.8833
 2695SOL     OW19720   4.057   1.007   8.581 -0.4349 -0.0537 -0.2590
 2695SOL    HW119721   3.989   1.030   8.644 -2.0335 -3.2877 -0.7950
 2695SOL    HW219722   4.058   0.912   8.592 -0.8207  0.1209  1.2360
 2696SOL     OW19723   3.127   2.753   6.836 -0.3425 -0.2714  0.1671
 2696SOL    HW119724   3.183   2.769   6.760 -0.3530 -3.0201 -0.4227
 2696SOL    HW219725   3.114   2.839   6.878 -1.3426 -1.1905  1.7579
 2697SOL     OW19726   1.209   4.306   3.407  1.0789 -0.5653  0.5588
 2697SOL    HW119727   1.198   4.387   3.458 -0.0818 -0.1910 -0.2962
 2697SOL    HW219728   1.213   4.351   3.323  1.1496 -0.8451  0.4150
 2698SOL     OW19729   3.638   4.203  14.770 -0.6365 -0.0906  0.0101
 2698SOL    HW119730   3.591   4.187  14.689 -1.3755  1.0564  0.2120
 2698SOL    HW219731   3.611   4.124  14.817  2.5074 -1.3103 -0.2315
 2699SOL     OW19732   1.595   1.888  15.421 -0.6439  0.3277 -0.3460
 2699SOL    HW119733   1.653   1.943  15.475 -0.5802 -1.9026  1.8706
 2699SOL    HW219734   1.549   1.959  15.377 -0.2168  1.3385  0.8479
 2700SOL     OW19735   3.355   1.853   1.922  0.7264  0.3212  0.3827
 2700SOL    HW119736   3.271   1.837   1.879 -0.2208 -2.1672  3.2183
 2700SOL    HW219737   3.421   1.820   1.860 -0.8482 -0.5710 -0.8163
 2701SOL     OW19738   1.847   3.510   6.835 -0.4105 -0.0278 -0.0332
 2701SOL    HW119739   1.880   3.551   6.756  0.7329  0.3590  0.6499
 2701SOL    HW219740   1.914   3.519   6.903 -1.9591  0.2501  1.4785
 2702SOL     OW19741   1.173   4.097  16.811 -0.2272  0.4536  0.7431
 2702SOL    HW119742   1.234   4.058  16.749 -2.6621  0.7093 -1.8212
 2702SOL    HW219743   1.149   4.020  16.863 -3.5447  1.1222  0.1983
 2703SOL     OW19744   2.497   4.251   2.714  0.0087  0.0648  0.4183
 2703SOL    HW119745   2.401   4.246   2.705  0.1438 -1.4445 -0.3336
 2703SOL    HW219746   2.517   4.235   2.621  2.4793  4.2716  0.2402
 2704SOL     OW19747   0.515   1.348   4.654  0.0358  0.0534 -0.0178
 2704SOL    HW119748   0.574   1.328   4.727  0.2845 -0.0300 -0.2415
 2704SOL    HW219749   0.523   1.443   4.653 -0.0408  0.0544 -0.9921
 2705SOL     OW19750   0.852   1.598   1.775 -0.1038 -0.5471 -0.0809
 2705SOL    HW119751   0.796   1.633   1.706 -1.4595 -2.4941  0.0503
 2705SOL    HW219752   0.838   1.505   1.762 -0.3469 -0.5002 -0.1476
 2706SOL     OW19753   2.677   0.030  12.433 -0.1278  0.0787  0.4822
 2706SOL    HW119754   2.709   4.704  12.370 -3.6732  1.2702 -2.5849
 2706SOL    HW219755   2.610   0.068  12.376  0.0896 -0.4112 -0.0983
 2707SOL     OW19756   0.272   2.608   3.791  0.1025  0.1206 -0.3854
 2707SOL    HW119757   0.229   2.588   3.874 -0.4785 -2.8210 -1.4037
 2707SOL    HW219758   0.286   2.519   3.758 -2.4809 -0.7229  0.8553
 2708SOL     OW19759   0.255   0.482   5.804  0.0891  0.1884  0.4631
 2708SOL    HW119760   0.253   0.391   5.776 -2.5380  0.1910  0.6666
 2708SOL    HW219761   0.343   0.488   5.842  0.3898 -0.9991 -0.0326
 2709SOL     OW19762   4.600   2.577  11.501  0.1911 -0.3675  0.4957
 2709SOL    HW119763   4.661   2.510  11.530 -0.4078 -0.7491  0.8855
 2709SOL    HW219764   4.583   2.541  11.414  0.6259 -1.0670  0.7033
 2710SOL     OW19765   1.743   2.847   5.582 -0.4303 -0.4089 -0.6139
 2710SOL    HW119766   1.805   2.817   5.649 -2.1075 -3.6713 -0.5112
 2710SOL    HW219767   1.774   2.800   5.504  0.3503  1.9097 -1.6948
 2711SOL     OW19768   3.647   0.330   4.749  0.0083  0.4023  0.3493
 2711SOL    HW119769   3.583   0.387   4.706 -0.7033 -0.9985 -0.4564
 2711SOL    HW219770   3.664   0.263   4.682 -0.4092  0.7794 -0.1350
 2712SOL     OW19771   4.172   2.871   5.120  0.0438  0.7211  0.3598
 2712SOL    HW119772   4.221   2.953   5.118  0.5682  0.3542 -1.9516
 2712SOL    HW219773   4.245   2.810   5.110 -1.6068 -1.1753 -0.1483
 2713SOL     OW19774   3.639   1.238   3.331 -0.0177  0.2307 -0.0561
 2713SOL    HW119775   3.627   1.202   3.243 -0.5948  0.7901 -0.2047
 2713SOL    HW219776   3.550   1.269   3.346  0.3181  0.8830  0.5566
 2714SOL     OW19777   4.342   1.065   6.186  0.3452 -0.1288  0.4577
 2714SOL    HW119778   4.248   1.080   6.193  0.5380  2.3999 -2.0592
 2714SOL    HW219779   4.360   1.062   6.092 -0.8069  1.1296  0.2022
 2715SOL     OW19780   4.314   3.230  15.613  0.5428 -0.0781 -0.7793
 2715SOL    HW119781   4.221   3.239  15.594  0.3801  0.1148  0.1145
 2715SOL    HW219782   4.349   3.299  15.557  1.7559  0.1749  0.2905
 2716SOL     OW19783   1.703   4.157   2.042  0.1906 -0.4759 -0.2729
 2716SOL    HW119784   1.626   4.213   2.049  0.9233  0.3892  0.7302
 2716SOL    HW219785   1.744   4.177   2.126 -0.9602  1.5070 -0.1821
 2717SOL     OW19786   2.764   1.664   8.909  0.5900  0.9713  0.1438
 2717SOL    HW119787   2.756   1.759   8.895 -0.6908  0.5353 -2.2226
 2717SOL    HW219788   2.855   1.651   8.884  1.2102  0.0727  2.8748
 2718SOL     OW19789   0.496   1.254   5.813  0.1509 -0.0488 -0.8666
 2718SOL    HW119790   0.537   1.180   5.769 -2.8185 -2.5230  0.5169
 2718SOL    HW219791   0.569   1.285   5.866  1.0143 -0.1069 -2.0088
 2719SOL     OW19792   4.206   2.113   9.373 -0.2418 -0.1003 -0.5624
 2719SOL    HW119793   4.130   2.171   9.385 -0.3396 -0.7745  2.1320
 2719SOL    HW219794   4.275   2.157   9.422  0.9818 -1.8180 -0.7517
 2720SOL     OW19795   0.199   1.016   3.022  0.4654  0.1392  0.2207
 2720SOL    HW119796   0.168   0.985   2.937  0.1263 -0.6057  0.6136
 2720SOL    HW219797   0.255   1.088   2.993  0.5038 -0.5146 -1.3377
 2721SOL     OW19798   2.950   1.196  12.120  0.1484 -0.1839 -0.2484
 2721SOL    HW119799   3.036   1.157  12.132 -2.3320 -5.8582 -0.8843
 2721SOL    HW219800   2.909   1.173  12.204 -0.7358  0.8007 -0.4049
 2722SOL     OW19801   4.595   1.643   0.909  0.4236  0.3170 -0.2779
 2722SOL    HW119802   4.528   1.711   0.906 -0.2388 -0.5110 -4.4089
 2722SOL    HW219803   4.606   1.633   0.815 -0.9927 -1.9293 -0.2040
 2723SOL     OW19804   4.285   1.756   8.507  0.5418 -0.1035  0.2688
 2723SOL    HW119805   4.361   1.732   8.560  0.0269  0.7406  1.3786
 2723SOL    HW219806   4.272   1.845   8.539  1.5613 -0.0894  0.6322
 2724SOL     OW19807   3.827   0.892  11.219 -0.4096  0.3809  0.0966
 2724SOL    HW119808   3.838   0.882  11.124 -3.3522  0.7524 -0.2571
 2724SOL    HW219809   3.747   0.944  11.222  0.2619  1.3770  0.8786
 2725SOL     OW19810   4.661   1.593  15.314  0.7024  0.2842 -0.4889
 2725SOL    HW119811   4.641   1.654  15.385  1.3860  0.6954 -0.6485
 2725SOL    HW219812   0.015   1.570  15.326  0.6421 -0.3196 -1.1194
 2726SOL     OW19813   0.892   0.800  17.016 -0.4337  0.0839 -0.5911
 2726SOL    HW119814   0.950   0.733  16.981  2.2979  1.9572  0.3453
 2726SOL    HW219815   0.872   0.757  17.099  0.2990  2.2605  0.7108
 2727SOL     OW19816   1.032   4.735  10.320 -0.1771  0.0168 -0.0310
 2727SOL    HW119817   1.068   0.068  10.373  0.1993 -0.6140  0.5579
 2727SOL    HW219818   1.002   0.040  10.240 -1.4095  0.6360  0.7693
 2728SOL     OW19819   2.257   2.941   9.246  0.1022  0.0521 -0.2728
 2728SOL    HW119820   2.331   3.001   9.259 -0.0739  0.3879 -0.8274
 2728SOL    HW219821   2.190   2.979   9.303 -1.1339 -1.2283 -0.8885
 2729SOL     OW19822   0.747   2.376   1.276  0.1343 -0.5767  0.7669
 2729SOL    HW119823   0.714   2.465   1.262  3.0425  0.0603 -1.8748
 2729SOL    HW219824   0.681   2.342   1.337  1.2874 -2.5272  0.9236
 2730SOL     OW19825   4.282   4.019   8.227  0.3869 -0.5305 -0.1237
 2730SOL    HW119826   4.212   4.019   8.162  1.2161  0.5355 -1.0004
 2730SOL    HW219827   4.348   4.065   8.176 -1.1368  2.0679  0.2577
 2731SOL     OW19828   0.568   0.156  16.476 -0.3546 -0.3907  0.5114
 2731SOL    HW119829   0.644   0.144  16.533 -0.7987 -1.7523  0.8359
 2731SOL    HW219830   0.532   0.233  16.519 -0.8359 -0.1303 -0.3581
 2732SOL     OW19831   1.548   1.779  13.119 -0.3648  0.1841  0.2363
 2732SOL    HW119832   1.485   1.730  13.066 -0.4606  0.9276 -0.3403
 2732SOL    HW219833   1.603   1.815  13.050 -1.1447 -0.7952 -0.9086
 2733SOL     OW19834   3.221   3.596   0.897  0.0839  0.0145  0.3988
 2733SOL    HW119835   3.161   3.670   0.895  0.0910 -0.0070 -0.5278
 2733SOL    HW219836   3.177   3.540   0.962 -0.9177 -0.4145 -0.6533
 2734SOL     OW19837   0.304   0.316   7.801 -0.6432  0.1382  0.5552
 2734SOL    HW119838   0.268   0.402   7.779  1.8985  1.3299  1.0768
 2734SOL    HW219839   0.370   0.316   7.732 -1.8283 -0.0102 -0.5950
 2735SOL     OW19840   3.005   1.500   5.288  0.2420 -0.2933 -0.0538
 2735SOL    HW119841   3.014   1.417   5.241 -1.2917 -0.2289 -0.4326
 2735SOL    HW219842   3.027   1.469   5.376 -2.1456 -1.5424  0.0884
 2736SOL     OW19843   1.348   1.513   6.568 -0.0736 -0.3044  0.0340
 2736SOL    HW119844   1.318   1.600   6.596 -0.1557  0.0901 -1.2736
 2736SOL    HW219845   1.277   1.488   6.509  2.4868  0.0882 -3.2239
 2737SOL     OW19846   4.603   0.744  15.023  0.0390 -0.1663 -0.2152
 2737SOL    HW119847   4.611   0.783  15.110  0.0788 -0.8886  0.1080
 2737SOL    HW219848   4.557   0.660  15.023 -0.2992  0.0152 -1.4606
 2738SOL     OW19849   3.785   4.654  15.474 -0.8839  0.2806 -0.2303
 2738SOL    HW119850   3.832   4.575  15.448  0.7417  1.4713 -0.8750
 2738SOL    HW219851   3.848   4.711  15.517  2.0930 -0.6491 -3.3517
 2739SOL     OW19852   1.667   2.408   6.324  0.1637 -0.0765  0.5330
 2739SOL    HW119853   1.700   2.359   6.248  0.1701 -2.8256  2.2869
 2739SOL    HW219854   1.649   2.333   6.380 -0.7329  0.0133  0.3580
 2740SOL     OW19855   1.198   3.132   6.602  0.4210 -0.4494  0.6387
 2740SOL    HW119856   1.125   3.080   6.567 -0.9633  2.3301 -0.5957
 2740SOL    HW219857   1.210   3.199   6.535  0.1616 -0.0085  1.0348
 2741SOL     OW19858   3.272   3.852   9.489  0.1452  0.1588 -0.1831
 2741SOL    HW119859   3.270   3.944   9.517  0.5432  0.2251 -0.3728
 2741SOL    HW219860   3.248   3.809   9.570 -1.0330  0.4803 -0.3590
 2742SOL     OW19861   4.473   4.180   6.966  0.5197  0.4223  0.1917
 2742SOL    HW119862   4.451   4.182   6.873 -0.1601 -1.4131  0.3064
 2742SOL    HW219863   4.504   4.089   6.970 -1.7718 -0.3149  1.6077
 2743SOL     OW19864   4.338   2.289   5.219  0.1708  0.3240  0.1086
 2743SOL    HW119865   4.358   2.227   5.149  1.3262  0.9840 -0.1516
 2743SOL    HW219866   4.385   2.263   5.298 -0.2212 -1.9737 -0.4087
 2744SOL     OW19867   1.365   2.652   7.267 -0.3906  0.1639 -0.4092
 2744SOL    HW119868   1.450   2.621   7.296 -0.9801 -2.2459 -1.3064
 2744SOL    HW219869   1.394   2.706   7.193 -1.7589 -1.8826 -2.4549
 2745SOL     OW19870   3.390   2.406   0.227  0.2644 -1.2179 -0.6931
 2745SOL    HW119871   3.401   2.501   0.235 -0.6509 -1.2579  1.0688
 2745SOL    HW219872   3.437   2.376   0.305  1.8045 -0.3603 -1.2805
 2746SOL     OW19873   0.321   2.470  12.451  0.3219  0.2313 -0.0083
 2746SOL    HW119874   0.292   2.447  12.363  1.9902 -2.4470  0.1342
 2746SOL    HW219875   0.311   2.390  12.503  1.7691  0.4333  0.5831
 2747SOL     OW19876   2.540   0.004   4.956  0.3829 -0.4937  0.3353
 2747SOL    HW119877   2.587   4.682   4.898  2.9831  1.0503  0.8311
 2747SOL    HW219878   2.582   0.086   4.931  0.5365 -0.3835  0.9594
 2748SOL     OW19879   1.881   4.115   7.003 -0.0587 -0.3795  0.1911
 2748SOL    HW119880   1.965   4.120   6.958 -0.2360 -1.3026 -0.2489
 2748SOL    HW219881   1.853   4.207   6.999  1.1838  0.0261  0.8454
 2749SOL     OW19882   0.051   4.331   8.566 -0.3288 -0.5036  0.2756
 2749SOL    HW119883   0.090   4.264   8.623 -1.7063 -0.3927  1.3601
 2749SOL    HW219884   0.128   4.358   8.516  0.4307 -3.2559 -0.0562
 2750SOL     OW19885   1.297   3.664   6.377 -0.1794 -0.2744  0.2824
 2750SOL    HW119886   1.252   3.648   6.294  0.4232  0.9379 -0.2785
 2750SOL    HW219887   1.219   3.687   6.426 -0.4799  0.4067 -0.5176
 2751SOL     OW19888   1.904   2.421   1.015  0.1087 -0.1459  0.5565
 2751SOL    HW119889   1.975   2.448   0.958  1.8527 -1.8610  1.9315
 2751SOL    HW219890   1.844   2.495   1.025  0.6259  0.4507 -0.8732
 2752SOL     OW19891   1.038   0.964   5.543 -0.0274 -0.2967  0.1081
 2752SOL    HW119892   1.015   1.045   5.590  1.1977 -0.4921  1.0529
 2752SOL    HW219893   1.040   1.008   5.457  3.8117  0.6060  0.6447
 2753SOL     OW19894   1.171   3.858   5.104  0.0001 -0.3106  0.1273
 2753SOL    HW119895   1.189   3.792   5.171  0.0645 -0.2088  0.2109
 2753SOL    HW219896   1.259   3.891   5.086 -0.7000  0.0042 -2.7447
 2754SOL     OW19897   1.838   0.076   8.427 -0.1876 -0.2510  0.0926
 2754SOL    HW119898   1.833   0.072   8.332 -1.9628  1.5991  0.1026
 2754SOL    HW219899   1.810   4.730   8.461  0.4276  0.4904  2.4569
 2755SOL     OW19900   2.934   1.922   4.188 -0.1346  0.0154  0.3090
 2755SOL    HW119901   2.936   2.018   4.184  0.6268  0.0165  0.7634
 2755SOL    HW219902   2.917   1.898   4.097 -1.3284  3.3830 -0.3615
 2756SOL     OW19903   4.370   1.313   6.486 -0.5925  0.3111 -0.3175
 2756SOL    HW119904   4.295   1.365   6.514 -2.6658 -2.4458 -0.8462
 2756SOL    HW219905   4.446   1.364   6.515  0.5755 -2.1375  1.0007
 2757SOL     OW19906   3.294   4.522   9.381  0.2288  0.0420 -0.2508
 2757SOL    HW119907   3.337   4.465   9.317  0.4121 -0.2708  0.1449
 2757SOL    HW219908   3.247   4.572   9.315  0.2495  1.3235  0.7072
 2758SOL     OW19909   1.440   0.907   8.457 -0.5332 -0.0562  0.5307
 2758SOL    HW119910   1.508   0.955   8.505 -0.8312 -1.2415  2.1732
 2758SOL    HW219911   1.362   0.953   8.489  0.2670  3.0175 -1.9259
 2759SOL     OW19912   1.424   3.486   5.437 -0.4655 -0.8693  0.2845
 2759SOL    HW119913   1.478   3.408   5.422  3.0971  1.6549 -0.1414
 2759SOL    HW219914   1.496   3.548   5.421  0.1937 -1.8063 -0.3853
 2760SOL     OW19915   2.210   0.275   6.891  0.2451 -0.1181  0.3742
 2760SOL    HW119916   2.132   0.331   6.889  0.9063  0.8013  0.7958
 2760SOL    HW219917   2.232   0.281   6.798 -1.3367 -0.4122 -0.0243
 2761SOL     OW19918   4.070   1.727   6.772 -0.1955  0.3167 -0.4939
 2761SOL    HW119919   4.037   1.682   6.850  2.0219 -0.2421  0.1081
 2761SOL    HW219920   4.150   1.767   6.807 -0.1221 -0.2198 -0.0372
 2762SOL     OW19921   4.087   1.619   7.808 -0.3744  0.2711 -0.0750
 2762SOL    HW119922   4.020   1.583   7.750  0.1446  1.4939 -1.4318
 2762SOL    HW219923   4.038   1.593   7.886 -1.7234  0.4854 -0.8385
 2763SOL     OW19924   0.099   2.877  14.627  0.4823  0.5419  0.3743
 2763SOL    HW119925   0.164   2.823  14.581  0.4539  0.3142  0.6023
 2763SOL    HW219926   0.057   2.805  14.674 -1.4081  1.3652 -0.0792
 2764SOL     OW19927   4.598   0.358   3.131  0.3267 -0.2580 -0.0987
 2764SOL    HW119928   4.661   0.335   3.200 -0.2122 -0.9406  0.1656
 2764SOL    HW219929   4.640   0.335   3.048  0.9382 -1.9814  0.6895
 2765SOL     OW19930   1.300   3.106   7.905 -0.2241  0.6041  0.0647
 2765SOL    HW119931   1.322   3.093   7.997  0.6684 -0.2039 -0.2683
 2765SOL    HW219932   1.320   3.199   7.893  1.0698  0.2191 -0.6309
 2766SOL     OW19933   1.174   3.524   0.742  0.0342  0.4517 -0.5971
 2766SOL    HW119934   1.246   3.462   0.745 -0.4074 -0.0915 -1.2638
 2766SOL    HW219935   1.144   3.517   0.652  0.8410  2.1973 -0.9897
 2767SOL     OW19936   3.011   2.747  10.796  0.1458 -0.0437 -0.0199
 2767SOL    HW119937   2.925   2.779  10.769  0.6355  1.6067  0.3666
 2767SOL    HW219938   3.033   2.689  10.724  1.6162 -1.5680  1.6559
 2768SOL     OW19939   3.446   2.918   5.811  0.4323 -0.1702 -0.1970
 2768SOL    HW119940   3.420   2.992   5.756 -1.3503  0.1423  1.0703
 2768SOL    HW219941   3.536   2.935   5.838  0.4088  0.1111 -0.2956
 2769SOL     OW19942   3.120   3.248   5.521  0.0533  0.4170 -0.3291
 2769SOL    HW119943   3.108   3.230   5.614  1.7603  0.3787 -0.1073
 2769SOL    HW219944   3.067   3.183   5.476  0.6277 -0.6277  0.5019
 2770SOL     OW19945   1.831   1.638   6.691 -0.1381 -0.1841 -0.4287
 2770SOL    HW119946   1.837   1.681   6.776 -0.7686 -2.2579  0.6702
 2770SOL    HW219947   1.805   1.552   6.724  2.5002 -1.2330 -1.1147
 2771SOL     OW19948   4.271   0.546   4.940 -0.0701 -0.3609  0.5726
 2771SOL    HW119949   4.269   0.641   4.955  0.8312 -0.2636  0.0923
 2771SOL    HW219950   4.182   0.533   4.909 -0.2750  0.9963  0.5768
 2772SOL     OW19951   4.100   3.597   9.458 -0.1560 -0.4029  0.3916
 2772SOL    HW119952   4.146   3.514   9.455 -3.2151 -2.1496  1.3787
 2772SOL    HW219953   4.130   3.621   9.371  0.2383  2.2603  1.2536
 2773SOL     OW19954   1.884   0.048   8.840 -0.2857  0.4345 -0.2565
 2773SOL    HW119955   1.912   0.138   8.857 -0.3939  0.2016  1.1815
 2773SOL    HW219956   1.791   0.057   8.860 -0.5652 -0.3900 -1.2276
 2774SOL     OW19957   2.704   0.033   2.854  0.3246  0.2102  0.1736
 2774SOL    HW119958   2.631   0.095   2.851 -0.7637 -1.0638  0.7065
 2774SOL    HW219959   2.752   0.055   2.933  1.3364 -1.4796  0.0305
 2775SOL     OW19960   2.626   4.470   8.980 -0.4200 -0.1469 -0.6946
 2775SOL    HW119961   2.575   4.501   8.906  1.9865 -0.6801 -2.6009
 2775SOL    HW219962   2.691   4.540   8.983  1.4772 -1.8463 -1.5417
 2776SOL     OW19963   1.840   2.447   3.658 -0.1344 -0.4597 -0.4813
 2776SOL    HW119964   1.930   2.416   3.645  0.2004 -0.3741  1.5652
 2776SOL    HW219965   1.829   2.464   3.752  1.0557 -0.4179 -0.3474
 2777SOL     OW19966   3.338   2.576   5.948  0.5009  0.0904 -0.5144
 2777SOL    HW119967   3.280   2.559   6.022  1.2524 -0.6641 -0.1075
 2777SOL    HW219968   3.279   2.591   5.874 -0.1300  1.1041  0.1988
 2778SOL     OW19969   1.196   4.356   6.292 -0.6078 -0.0431 -0.2821
 2778SOL    HW119970   1.153   4.313   6.218  1.7627 -1.7198 -0.6766
 2778SOL    HW219971   1.238   4.283   6.337 -0.7838  0.1587  0.2022
 2779SOL     OW19972   3.028   2.203   5.537 -0.4464  0.0510 -0.8374
 2779SOL    HW119973   3.003   2.293   5.557  1.3461  0.4122 -0.1749
 2779SOL    HW219974   3.066   2.213   5.449 -1.4203 -0.7382 -1.3424
 2780SOL     OW19975   1.441   1.438   3.061 -0.0309 -0.1674 -0.3157
 2780SOL    HW119976   1.524   1.421   3.017 -1.9158 -1.8126 -3.2296
 2780SOL    HW219977   1.448   1.362   3.118  0.0893 -0.3678 -0.6005
 2781SOL     OW19978   4.335   3.363   1.677 -0.5252 -0.0857 -0.2230
 2781SOL    HW119979   4.273   3.327   1.613 -0.0047  0.2309 -0.9026
 2781SOL    HW219980   4.295   3.448   1.694  0.0978  0.6916 -2.6895
 2782SOL     OW19981   0.915   1.586   9.268  0.4797 -0.0193  0.2813
 2782SOL    HW119982   0.846   1.567   9.205 -0.0075 -2.2022  1.4727
 2782SOL    HW219983   0.989   1.599   9.209  0.0678  2.7709  0.3801
 2783SOL     OW19984   4.498   3.390   2.602 -0.1889 -0.3029  0.4782
 2783SOL    HW119985   4.504   3.297   2.580 -1.7015 -0.4174  0.5742
 2783SOL    HW219986   4.545   3.434   2.531  0.4415 -0.1073  1.0112
 2784SOL     OW19987   1.781   2.501  11.949  0.1781  0.3430 -0.4528
 2784SOL    HW119988   1.800   2.445  11.873 -1.1066 -1.7986  0.7970
 2784SOL    HW219989   1.838   2.574  11.923 -0.2063  0.2550 -1.5321
 2785SOL     OW19990   0.101   1.725   3.523  0.1874  0.8709 -0.0942
 2785SOL    HW119991   0.150   1.646   3.546  1.6328  2.1688  1.2519
 2785SOL    HW219992   0.012   1.690   3.516 -0.0213  1.1686  1.1232
 2786SOL     OW19993   4.726   1.787   8.859 -0.3923  0.1696 -0.0196
 2786SOL    HW119994   4.736   1.732   8.937  1.7180  1.8744  0.9043
 2786SOL    HW219995   4.658   1.846   8.892 -1.5229 -1.2783  0.2392
 2787SOL     OW19996   0.514   4.552  17.348  0.4118 -0.0711  0.4437
 2787SOL    HW119997   0.480   4.628  17.395 -2.1509 -0.7217 -0.3368
 2787SOL    HW219998   0.482   4.477  17.397  0.3176  0.0520  0.5719
 2788SOL     OW19999   3.689   3.194   2.863  0.1669  0.3094  0.2156
 2788SOL    HW120000   3.657   3.165   2.778  0.9964 -0.0430  0.0181
 2788SOL    HW220001   3.784   3.193   2.849  0.2396  0.1219  0.7449
 2789SOL     OW20002   0.063   0.442   2.745 -0.3826  0.6071  0.4801
 2789SOL    HW120003   0.137   0.404   2.696 -4.8119 -3.3641 -3.1734
 2789SOL    HW220004   0.025   0.480   2.665  0.8689 -0.1926 -0.4948
 2790SOL     OW20005   0.725   0.686   7.315 -0.2148  0.1613 -0.5382
 2790SOL    HW120006   0.817   0.686   7.289  0.2712  3.8022  1.1496
 2790SOL    HW220007   0.686   0.755   7.262  0.4956 -0.1288 -1.4455
 2791SOL     OW20008   0.021   4.594   7.530  0.8608 -0.6712 -0.4737
 2791SOL    HW120009   4.706   4.515   7.520  0.2156 -0.4411  1.1046
 2791SOL    HW220010   0.093   4.568   7.472 -0.2241 -2.7691 -0.8923
 2792SOL     OW20011   4.548   3.753  10.254 -0.0954  0.2108  0.4700
 2792SOL    HW120012   4.562   3.805  10.333  1.2556  0.3157  0.1617
 2792SOL    HW220013   4.635   3.767  10.217  0.8362  0.9103  2.8909
 2793SOL     OW20014   1.498   4.206   8.326  0.0752 -0.0873 -0.2019
 2793SOL    HW120015   1.565   4.274   8.319 -1.4891  1.7216  2.2970
 2793SOL    HW220016   1.427   4.228   8.266 -1.2709 -3.4093  0.1656
 2794SOL     OW20017   1.866   0.384   5.594 -0.5858  0.1020  0.5416
 2794SOL    HW120018   1.792   0.409   5.538 -0.6959  2.3300  1.6992
 2794SOL    HW220019   1.935   0.450   5.592  0.3774 -0.9093  0.2848
 2795SOL     OW20020   2.687   1.410   8.916  0.0896  0.1074 -0.0991
 2795SOL    HW120021   2.703   1.504   8.923  0.3468  0.0389  0.2768
 2795SOL    HW220022   2.685   1.386   9.009 -0.9551  2.4981  0.5108
 2796SOL     OW20023   1.081   0.417   7.170 -0.2898 -0.0992 -0.2163
 2796SOL    HW120024   1.054   0.327   7.150 -0.3545 -0.4525  1.3794
 2796SOL    HW220025   1.121   0.400   7.256 -0.8751 -0.0247  0.0698
 2797SOL     OW20026   0.802   0.894  12.231  0.5469  0.3194 -0.0377
 2797SOL    HW120027   0.814   0.828  12.300 -2.6250  0.9945  1.1971
 2797SOL    HW220028   0.788   0.841  12.153  0.6343  0.7105 -0.3153
 2798SOL     OW20029   1.153   2.312  17.749  0.4267  0.4358 -0.1423
 2798SOL    HW120030   1.093   2.366   0.048 -0.7675 -0.2268 -0.8351
 2798SOL    HW220031   1.215   2.300   0.068  0.3827 -3.2618 -0.6976
 2799SOL     OW20032   3.591   2.242   7.499 -0.2134  0.4206 -0.4497
 2799SOL    HW120033   3.553   2.265   7.414 -0.0579  0.5446 -0.4853
 2799SOL    HW220034   3.657   2.176   7.476 -1.0183 -0.2244 -0.8812
 2800SOL     OW20035   2.399   3.713  17.386 -0.1049  0.3657 -0.1664
 2800SOL    HW120036   2.316   3.749  17.416 -0.9815  2.0575 -4.5573
 2800SOL    HW220037   2.416   3.657  17.461 -1.8084  0.6046  0.3887
 2801SOL     OW20038   2.262   1.513  12.131  0.1255  0.1839  0.1331
 2801SOL    HW120039   2.337   1.455  12.137  0.0464 -0.0333 -0.9090
 2801SOL    HW220040   2.300   1.593  12.166  0.6297  0.4675 -1.0436
 2802SOL     OW20041   1.497   3.358   6.016 -0.2949 -0.2418 -0.2427
 2802SOL    HW120042   1.546   3.412   6.079 -0.8827 -0.6795  0.5855
 2802SOL    HW220043   1.479   3.277   6.063  2.8679 -0.5608  0.4823
 2803SOL     OW20044   1.978   2.490   4.396 -0.1265  0.2310  0.5496
 2803SOL    HW120045   1.928   2.420   4.438 -0.4333  0.7293  1.0159
 2803SOL    HW220046   1.911   2.523   4.335  0.1257 -1.4813 -0.6684
 2804SOL     OW20047   1.968   1.948   3.279 -0.4497  0.2178 -0.2892
 2804SOL    HW120048   1.880   1.918   3.300 -1.0847  0.4586 -2.5241
 2804SOL    HW220049   1.975   1.940   3.183  0.4281  1.1947 -0.2977
 2805SOL     OW20050   1.618   1.387  12.292 -0.1068 -0.1335 -0.2162
 2805SOL    HW120051   1.600   1.378  12.386  0.3120 -1.8872 -0.3053
 2805SOL    HW220052   1.558   1.456  12.263 -1.3717 -0.9632  0.4049
 2806SOL     OW20053   3.664   4.457  17.309 -0.4241 -0.3018 -0.0893
 2806SOL    HW120054   3.693   4.393  17.374  0.9871 -0.0231 -0.4462
 2806SOL    HW220055   3.705   4.534  17.347  2.4925 -1.7257 -0.2888
 2807SOL     OW20056   2.825   3.193   6.628 -0.3034  0.6000 -0.0278
 2807SOL    HW120057   2.795   3.240   6.550 -0.3608  0.8974  0.1786
 2807SOL    HW220058   2.807   3.100   6.613 -0.6963  0.7369 -0.4052
 2808SOL     OW20059   0.127   1.966   0.359  0.1997 -0.3472  0.5083
 2808SOL    HW120060   0.077   1.910   0.299 -2.4536  0.1165  2.2661
 2808SOL    HW220061   0.205   1.912   0.373  0.7917  0.5973  0.8086
 2809SOL     OW20062   4.307   1.180   2.117 -0.2560 -0.8597 -0.8463
 2809SOL    HW120063   4.371   1.209   2.182 -1.5432  1.7477 -0.7202
 2809SOL    HW220064   4.358   1.123   2.060  0.0085 -0.9924 -0.4755
 2810SOL     OW20065   3.136   2.531   3.941 -0.1771  0.4794  1.1829
 2810SOL    HW120066   3.140   2.442   3.974  0.0174  0.1113  0.1517
 2810SOL    HW220067   3.220   2.561   3.974  0.4110 -1.3594  1.3281
 2811SOL     OW20068   2.154   3.851   4.987 -0.1427 -0.2173 -0.0483
 2811SOL    HW120069   2.070   3.893   4.967  0.3733  0.9793  0.2663
 2811SOL    HW220070   2.213   3.918   5.023 -0.6614  0.3659 -0.2846
 2812SOL     OW20071   0.041   3.127   6.902  0.3011 -0.0635 -0.2228
 2812SOL    HW120072   0.052   3.222   6.911  2.4110 -0.1728 -1.4759
 2812SOL    HW220073   0.089   3.115   6.820  1.8862  1.4947  0.4826
 2813SOL     OW20074   2.583   3.604   8.908 -0.5994  0.6511  0.2631
 2813SOL    HW120075   2.623   3.547   8.843 -1.1337  1.2444 -0.5973
 2813SOL    HW220076   2.498   3.562   8.921 -0.3276 -0.1946 -0.7256
 2814SOL     OW20077   1.656   3.700   4.411 -0.5962  0.1780  0.3541
 2814SOL    HW120078   1.579   3.754   4.432  0.1293  0.7354  1.6015
 2814SOL    HW220079   1.642   3.617   4.457  1.8428  0.1127  1.0097
 2815SOL     OW20080   2.550   1.827   6.493  0.0055 -0.4346  0.2319
 2815SOL    HW120081   2.559   1.814   6.587  1.0265  1.9243  0.4516
 2815SOL    HW220082   2.607   1.754   6.468  0.1137 -1.4768  3.5609
 2816SOL     OW20083   2.751   2.463   6.750 -0.1423  0.5429  0.2919
 2816SOL    HW120084   2.744   2.368   6.763 -1.4048  0.6063  0.0137
 2816SOL    HW220085   2.831   2.487   6.798 -0.6339 -2.1349  2.4915
 2817SOL     OW20086   3.960   1.878   2.550  0.2585  0.4686  0.1876
 2817SOL    HW120087   3.995   1.817   2.485 -1.3302 -1.6820  1.3650
 2817SOL    HW220088   3.943   1.819   2.623 -1.0438  0.6803  0.0444
 2818SOL     OW20089   3.837   0.077  13.457  0.7981  0.3321  0.0958
 2818SOL    HW120090   3.913   0.107  13.407 -0.6887  1.9511 -1.2071
 2818SOL    HW220091   3.884   0.050  13.536  1.1763  1.0561  0.1125
 2819SOL     OW20092   0.065   2.964   6.037 -0.3284 -0.5194 -0.3858
 2819SOL    HW120093   0.135   3.025   6.060  0.7730 -2.2770  1.0017
 2819SOL    HW220094   4.734   2.993   6.095  0.6740 -2.9985  2.0689
 2820SOL     OW20095   3.015   1.437   3.361 -0.1085  0.6085  0.5065
 2820SOL    HW120096   2.976   1.437   3.274  0.5823  1.1626  0.1954
 2820SOL    HW220097   2.942   1.475   3.410 -1.3177 -1.9212  0.6645
 2821SOL     OW20098   0.700   3.668   5.121 -0.2190 -0.0830 -0.2677
 2821SOL    HW120099   0.662   3.589   5.161 -1.2250  0.5744  0.0582
 2821SOL    HW220100   0.790   3.668   5.152 -0.2195  0.0288 -0.2696
 2822SOL     OW20101   0.762   4.306  10.457 -0.3568 -0.3588  0.1517
 2822SOL    HW120102   0.685   4.343  10.415  0.1166  1.5065  0.8936
 2822SOL    HW220103   0.777   4.220  10.417 -0.9657 -0.9285  1.1510
 2823SOL     OW20104   1.522   3.427   6.585  0.2361  0.1291 -0.6113
 2823SOL    HW120105   1.546   3.515   6.556  1.5975 -0.3557 -0.9724
 2823SOL    HW220106   1.606   3.381   6.574  0.8750  0.3795  3.2750
 2824SOL     OW20107   4.618   1.082   8.953 -0.4244 -0.0735 -0.1473
 2824SOL    HW120108   4.592   0.998   8.915  0.4247 -0.0639 -0.7648
 2824SOL    HW220109   4.667   1.044   9.026 -0.7241  0.5445  0.3674
 2825SOL     OW20110   1.620   1.143   8.993 -0.0041 -0.1378 -0.1922
 2825SOL    HW120111   1.642   1.224   8.946 -0.9720 -0.1775 -0.7044
 2825SOL    HW220112   1.549   1.181   9.044 -1.6652 -1.5037 -1.5083
 2826SOL     OW20113   1.654   2.948  17.641 -0.2315  0.3677 -0.4040
 2826SOL    HW120114   1.644   2.978  17.731 -3.1098  0.6559 -0.8262
 2826SOL    HW220115   1.701   3.021  17.601  0.2397 -0.6655 -1.7288
 2827SOL     OW20116   0.761   2.963   7.965  0.0710 -0.0998  0.0005
 2827SOL    HW120117   0.838   2.956   8.021  0.9250  0.4366 -1.0999
 2827SOL    HW220118   0.725   3.039   8.010  0.3309  0.0186  0.0083
 2828SOL     OW20119   2.227   0.908   2.280 -0.5121 -0.5491 -0.5354
 2828SOL    HW120120   2.147   0.863   2.307 -0.3023 -2.6325 -3.4256
 2828SOL    HW220121   2.206   0.993   2.319  1.2123 -1.6437  2.7905
 2829SOL     OW20122   1.511   0.449   3.859 -0.1326 -0.2126  0.1535
 2829SOL    HW120123   1.418   0.447   3.881 -0.7597 -0.2469 -2.4889
 2829SOL    HW220124   1.508   0.473   3.766  0.5329 -0.3120  0.1102
 2830SOL     OW20125   0.631   4.725   3.324 -0.3588 -0.0311  0.3349
 2830SOL    HW120126   0.569   0.002   3.396 -1.0023 -0.4189 -0.1341
 2830SOL    HW220127   0.639   0.072   3.282 -0.6656  0.2018  0.7498
 2831SOL     OW20128   0.850   3.236  10.625 -0.2571 -0.0894 -0.0609
 2831SOL    HW120129   0.938   3.267  10.604 -0.5682  1.3001  0.7140
 2831SOL    HW220130   0.858   3.187  10.707  0.4789 -0.9311 -0.6421
 2832SOL     OW20131   0.048   1.893   5.782  0.1864  0.1158  0.2215
 2832SOL    HW120132   0.095   1.811   5.803 -1.0661 -0.4907  0.6654
 2832SOL    HW220133   0.123   1.943   5.751  0.9141  0.2235  2.1609
 2833SOL     OW20134   0.892   3.598   2.377  0.1108 -0.5518 -0.0048
 2833SOL    HW120135   0.828   3.529   2.358  1.0663 -1.4014 -0.1396
 2833SOL    HW220136   0.939   3.598   2.293  0.2816  0.6649  0.0974
 2834SOL     OW20137   2.260   2.278   7.230 -0.2292  0.6427 -0.8004
 2834SOL    HW120138   2.176   2.321   7.218 -1.5778 -0.7835  3.5376
 2834SOL    HW220139   2.291   2.279   7.139 -1.5466  2.0443 -1.2167
 2835SOL     OW20140   1.618   4.411   5.961 -0.0453  0.1258  0.7853
 2835SOL    HW120141   1.675   4.488   5.952 -1.7924  1.3005 -0.3978
 2835SOL    HW220142   1.539   4.441   5.916 -0.3052  0.1253  1.2413
 2836SOL     OW20143   1.065   1.824   3.535 -0.0647  0.4546 -0.4458
 2836SOL    HW120144   1.147   1.846   3.489  0.2060 -0.4804 -0.4204
 2836SOL    HW220145   0.999   1.809   3.467 -1.7942  0.9477  1.1324
 2837SOL     OW20146   1.008   1.083   5.267  0.6325 -0.4433 -0.0644
 2837SOL    HW120147   0.950   1.023   5.221  0.2868  0.9596 -1.4465
 2837SOL    HW220148   1.015   1.154   5.203  1.9962  0.5672  1.1820
 2838SOL     OW20149   0.476   3.912  14.008  0.1671  0.2263  0.5329
 2838SOL    HW120150   0.546   3.977  14.001 -0.3656  0.6595 -0.8777
 2838SOL    HW220151   0.428   3.949  14.081 -0.8946 -1.7167  0.8208
 2839SOL     OW20152   4.511   1.753   0.420  0.2191  0.7174  0.6243
 2839SOL    HW120153   4.539   1.829   0.472 -0.4502  0.8893  0.7326
 2839SOL    HW220154   4.599   1.735   0.386  0.8198  0.0832  2.5430
 2840SOL     OW20155   1.501   1.372   5.627 -0.0101 -0.0012  0.0986
 2840SOL    HW120156   1.475   1.447   5.574  2.1732  0.4770 -0.2759
 2840SOL    HW220157   1.438   1.302   5.609  1.5082 -1.0164 -1.2208
 2841SOL     OW20158   4.043   1.713   7.294  0.7385  0.1062 -0.1564
 2841SOL    HW120159   3.957   1.705   7.253  0.3883 -1.5454  0.9220
 2841SOL    HW220160   4.095   1.638   7.263 -0.1652 -0.9310  0.8762
 2842SOL     OW20161   0.465   2.963   0.808 -0.1682  0.4649  0.3476
 2842SOL    HW120162   0.503   2.877   0.824 -1.1849 -0.0035  0.2616
 2842SOL    HW220163   0.410   2.939   0.733  1.1320  1.5092 -0.9415
 2843SOL     OW20164   3.593   4.279  17.135  0.2105 -0.2980 -0.1264
 2843SOL    HW120165   3.677   4.256  17.096  0.3909  0.9761 -0.4600
 2843SOL    HW220166   3.619   4.355  17.186 -1.0582  0.3050 -0.3855
 2844SOL     OW20167   3.402   3.534   4.436  0.0946  0.1870 -0.0317
 2844SOL    HW120168   3.357   3.600   4.383  1.4343  0.4448 -0.8302
 2844SOL    HW220169   3.483   3.535   4.387 -0.2571 -1.3382 -0.6290
 2845SOL     OW20170   4.719   0.362   1.230 -0.6266 -0.1093  0.1258
 2845SOL    HW120171   4.708   0.272   1.197 -1.1358  0.4662 -1.2833
 2845SOL    HW220172   0.071   0.379   1.205 -0.0820 -0.3474  1.9261
 2846SOL     OW20173   4.279   2.923   6.758  0.4894  0.2538  0.4195
 2846SOL    HW120174   4.342   2.866   6.802 -1.2909 -1.5942  0.5643
 2846SOL    HW220175   4.274   2.891   6.668  0.9981 -1.0006  0.8385
 2847SOL     OW20176   0.853   0.755   8.446  0.7156  0.1478 -0.2551
 2847SOL    HW120177   0.819   0.695   8.380 -1.2830 -0.6984  1.5331
 2847SOL    HW220178   0.831   0.717   8.531  0.0057  1.5930  0.2058
 2848SOL     OW20179   1.046   2.755   1.659  0.1731  0.3479  0.7851
 2848SOL    HW120180   0.957   2.780   1.684  0.0191  0.3697  0.2246
 2848SOL    HW220181   1.065   2.826   1.598 -3.0702  0.3804 -0.2102
 2849SOL     OW20182   3.485   1.769  14.600  0.1483 -0.2601 -0.4512
 2849SOL    HW120183   3.567   1.719  14.598  1.5120  1.9868  0.2653
 2849SOL    HW220184   3.505   1.857  14.570  2.4980 -1.3140 -1.9665
 2850SOL     OW20185   1.310   1.736  11.137 -0.9234  0.1508  0.1695
 2850SOL    HW120186   1.395   1.770  11.111 -0.7633 -0.0698  0.4119
 2850SOL    HW220187   1.330   1.677  11.210 -0.2699  0.4557  0.2366
 2851SOL     OW20188   2.268   4.696   6.522 -0.4772  0.1471  0.4695
 2851SOL    HW120189   2.317   4.683   6.603  1.0404 -1.2487 -0.6747
 2851SOL    HW220190   2.214   4.617   6.515  1.6478 -1.1167 -2.0265
 2852SOL     OW20191   3.814   3.325   6.618 -0.6542 -0.2121 -0.2619
 2852SOL    HW120192   3.778   3.259   6.677  1.4757  1.1487  2.5799
 2852SOL    HW220193   3.880   3.360   6.679  2.2319  1.0731 -4.1335
 2853SOL     OW20194   3.171   0.516   9.916  0.0642  0.5152 -0.1999
 2853SOL    HW120195   3.099   0.533   9.856  0.1623  1.0972 -0.1496
 2853SOL    HW220196   3.193   0.425   9.896 -0.6481  0.7439 -1.9540
 2854SOL     OW20197   1.558   4.716  16.933  0.7524 -0.0945 -0.0324
 2854SOL    HW120198   1.590   4.710  17.023 -1.3512 -3.0536  0.5235
 2854SOL    HW220199   1.462   4.709  16.941  0.6292  1.4325 -0.1085
 2855SOL     OW20200   4.613   0.755   0.460  0.4084  0.4236 -0.0395
 2855SOL    HW120201   4.522   0.783   0.469  0.8457  1.3077  1.4827
 2855SOL    HW220202   4.608   0.659   0.456  1.9954  0.3121  0.7223
 2856SOL     OW20203   2.731   3.543  17.275  0.0594  1.1188 -0.1913
 2856SOL    HW120204   2.681   3.481  17.328  0.2901 -0.7617 -2.1833
 2856SOL    HW220205   2.811   3.542  17.329  0.8555  1.5721 -1.3778
 2857SOL     OW20206   2.025   4.732  14.969  0.2226  0.2719 -0.4031
 2857SOL    HW120207   2.005   4.692  15.053  0.8270  0.1199 -0.3314
 2857SOL    HW220208   2.058   0.078  15.002 -0.0294 -0.0536  0.6865
 2858SOL     OW20209   4.414   2.427   9.001 -0.3739  0.0764  0.1268
 2858SOL    HW120210   4.434   2.401   8.912 -3.5067 -0.8575 -0.3053
 2858SOL    HW220211   4.345   2.364   9.021 -1.0102  0.8619  0.3941
 2859SOL     OW20212   0.125   2.233   5.458  0.2760  0.0979  0.4422
 2859SOL    HW120213   0.093   2.301   5.400  3.1284 -0.7287 -2.0872
 2859SOL    HW220214   0.098   2.158   5.405  0.1497 -0.3808  1.1862
 2860SOL     OW20215   1.069   3.377   5.406  0.0710 -0.5603  1.0092
 2860SOL    HW120216   1.065   3.461   5.452 -0.3860 -0.0293 -0.0043
 2860SOL    HW220217   1.094   3.411   5.320  1.1787 -1.7383  0.8749
 2861SOL     OW20218   3.060   3.157   5.775  0.1245  0.1690  0.4568
 2861SOL    HW120219   3.147   3.183   5.803 -0.9915  2.3204  1.8862
 2861SOL    HW220220   3.048   3.070   5.813 -0.0155  0.5364  1.2404
 2862SOL     OW20221   4.570   3.903   1.934 -0.5945 -0.2098 -0.1959
 2862SOL    HW120222   4.633   3.954   1.883  0.1190  0.8940  1.8318
 2862SOL    HW220223   4.526   3.969   1.987  1.0978 -0.7928  1.8903
 2863SOL     OW20224   1.682   3.342  16.780  0.3717  0.3340 -0.0505
 2863SOL    HW120225   1.633   3.323  16.700  2.9451  1.3049 -1.8550
 2863SOL    HW220226   1.760   3.287  16.778 -0.5845 -1.0681  1.1338
 2864SOL     OW20227   0.152   4.056   5.006  0.0616 -0.0896 -0.2612
 2864SOL    HW120228   0.106   4.046   5.090  1.5551 -4.0266  0.0802
 2864SOL    HW220229   0.076   4.060   4.948  0.4153 -1.3809 -0.8268
 2865SOL     OW20230   0.365   0.644   7.160 -0.1640 -0.2988  0.2665
 2865SOL    HW120231   0.420   0.721   7.156  2.3142 -2.0657  0.4932
 2865SOL    HW220232   0.425   0.569   7.153  1.4351  0.8507  1.8603
 2866SOL     OW20233   1.665   0.934  11.783  0.2036 -0.8679  0.4970
 2866SOL    HW120234   1.631   0.869  11.722  1.4352 -0.5311 -0.5379
 2866SOL    HW220235   1.750   0.942  11.739 -1.1006 -0.7273 -1.9855
 2867SOL     OW20236   4.577   1.668   4.687  0.4437  0.4821 -0.3098
 2867SOL    HW120237   4.597   1.757   4.661 -0.0304  0.3033 -1.2862
 2867SOL    HW220238   4.481   1.673   4.684  0.3451 -1.7229 -1.0841
 2868SOL     OW20239   0.207   3.778   8.895  0.0579  0.3237  0.8229
 2868SOL    HW120240   0.186   3.735   8.812  0.0449  0.7433  0.6069
 2868SOL    HW220241   0.267   3.845   8.863 -1.2253  0.4795 -1.2970
 2869SOL     OW20242   1.128   3.919   5.947 -0.3478  0.5529 -0.1990
 2869SOL    HW120243   1.065   3.961   5.888  2.1034  1.8527 -1.9335
 2869SOL    HW220244   1.203   3.911   5.887 -0.1046 -2.3010  0.4922
 2870SOL     OW20245   3.463   0.293   5.032  0.6511  0.4482 -0.5816
 2870SOL    HW120246   3.503   0.226   4.977  1.5498 -0.0668  0.7058
 2870SOL    HW220247   3.439   0.353   4.961 -2.6079 -0.2905 -0.0592
 2871SOL     OW20248   2.655   2.649   2.392 -0.2324  0.4362  0.1387
 2871SOL    HW120249   2.715   2.613   2.457 -1.0406 -0.8315  0.1805
 2871SOL    HW220250   2.578   2.677   2.441  1.3231  0.9949  2.2936
 2872SOL     OW20251   3.467   1.475   7.792  0.2958  0.2112 -0.0602
 2872SOL    HW120252   3.467   1.567   7.766 -0.0157  0.3318  0.3587
 2872SOL    HW220253   3.494   1.436   7.709 -2.1748 -0.3718 -0.5979
 2873SOL     OW20254   0.780   0.314   7.487  0.3121  0.4629  0.2162
 2873SOL    HW120255   0.875   0.319   7.495  0.2744  0.5271  0.6181
 2873SOL    HW220256   0.760   0.393   7.437 -0.1587  1.1311  1.4648
 2874SOL     OW20257   0.195   0.262   6.059 -0.3694  0.3502 -0.2672
 2874SOL    HW120258   0.165   0.179   6.095  0.0924  0.2437 -0.1273
 2874SOL    HW220259   0.166   0.324   6.126 -0.1604 -0.9609  1.0248
 2875SOL     OW20260   2.195   1.854   2.835 -0.1741 -0.5598  0.6557
 2875SOL    HW120261   2.162   1.936   2.872 -1.9382  0.0009 -2.1988
 2875SOL    HW220262   2.109   1.817   2.818 -0.1514 -0.7396  0.9214
 2876SOL     OW20263   4.138   3.590   2.766  1.0650 -0.1480  0.1303
 2876SOL    HW120264   4.176   3.560   2.849  1.9520 -0.9214 -0.5666
 2876SOL    HW220265   4.192   3.663   2.736 -3.2573  3.3085  0.7877
 2877SOL     OW20266   2.003   1.787  17.570 -0.6913 -0.2295  0.1721
 2877SOL    HW120267   2.036   1.697  17.577  0.1075 -0.0925 -1.8824
 2877SOL    HW220268   2.067   1.830  17.627  0.9558 -2.5331  0.1107
 2878SOL     OW20269   3.038   3.861   6.559  0.1400 -0.1450  0.3978
 2878SOL    HW120270   3.063   3.877   6.650  3.0398 -2.3924 -0.0259
 2878SOL    HW220271   2.951   3.901   6.565  0.3917  0.4308  0.1895
 2879SOL     OW20272   1.118   1.285   7.712 -0.1352 -0.1781  0.2548
 2879SOL    HW120273   1.156   1.288   7.800  1.8746 -0.7888 -0.5874
 2879SOL    HW220274   1.171   1.219   7.667  0.7382 -1.0810  2.5944
 2880SOL     OW20275   2.148   4.020   0.559 -0.1871 -0.4162  0.4113
 2880SOL    HW120276   2.107   4.082   0.620  0.1032  0.1497  0.0335
 2880SOL    HW220277   2.108   4.031   0.472 -0.3366 -1.2229  0.3780
 2881SOL     OW20278   0.168   0.005  10.409  0.3922  0.2292 -0.0732
 2881SOL    HW120279   0.161   4.735  10.504  3.8901  1.8769  0.3580
 2881SOL    HW220280   0.162   0.100  10.394 -0.5592  0.0308 -0.9301
 2882SOL     OW20281   0.527   0.851   8.212 -0.3763 -0.1443  0.1542
 2882SOL    HW120282   0.591   0.889   8.273 -0.0547  0.3483 -0.5042
 2882SOL    HW220283   0.553   0.759   8.213 -2.0003 -0.6149  1.1378
 2883SOL     OW20284   4.563   2.526   8.254 -0.0148  0.5484  0.1321
 2883SOL    HW120285   4.506   2.566   8.189 -0.8223  0.5744  0.8609
 2883SOL    HW220286   4.502   2.515   8.327  0.1124 -1.0890 -0.0176
 2884SOL     OW20287   0.164   1.123   6.011  0.3665 -0.1914 -0.5456
 2884SOL    HW120288   0.116   1.131   5.929 -0.4287  0.0288 -0.0650
 2884SOL    HW220289   0.151   1.032   6.035 -1.3686  0.2233  0.0788
 2885SOL     OW20290   0.956   3.853   1.575 -0.0645  0.6834 -0.5051
 2885SOL    HW120291   0.955   3.826   1.483 -1.9176  1.8546 -0.8262
 2885SOL    HW220292   1.039   3.900   1.584 -0.6175  1.5654  0.0004
 2886SOL     OW20293   3.422   1.869   7.598 -0.2362 -0.1001 -0.3107
 2886SOL    HW120294   3.398   1.889   7.507 -0.5472 -2.7070 -0.8064
 2886SOL    HW220295   3.335   1.848   7.634 -0.6428 -0.0477 -1.2596
 2887SOL     OW20296   3.413   2.719   2.848 -0.4814  0.0649  0.2096
 2887SOL    HW120297   3.392   2.651   2.785  3.3876 -1.3261  0.3852
 2887SOL    HW220298   3.377   2.691   2.932  2.7462  2.5944  2.4980
 2888SOL     OW20299   2.776   0.415   4.186 -0.1674  0.4492 -0.0352
 2888SOL    HW120300   2.782   0.500   4.230  0.6117  0.0062  0.7204
 2888SOL    HW220301   2.739   0.447   4.104  1.6896  1.8946 -0.3387
 2889SOL     OW20302   1.865   4.702   1.896  0.2228 -0.4254  0.0168
 2889SOL    HW120303   1.820   4.635   1.846 -1.5126 -1.4989  3.0068
 2889SOL    HW220304   1.858   4.671   1.987 -1.7962  2.4457  0.8344
 2890SOL     OW20305   3.980   4.562  16.329 -0.1504 -0.0658  0.7254
 2890SOL    HW120306   3.962   4.630  16.264  0.1629  0.2201  0.9382
 2890SOL    HW220307   3.992   4.490  16.268 -0.7644  0.9353 -0.5790
 2891SOL     OW20308   1.512   1.256  10.219 -0.4708 -0.3605 -0.1009
 2891SOL    HW120309   1.521   1.282  10.128  4.1773  0.3956  0.5696
 2891SOL    HW220310   1.576   1.319  10.254  0.0149 -0.7063 -0.3644
 2892SOL     OW20311   3.658   3.095   8.190 -0.6242 -0.5239  0.0051
 2892SOL    HW120312   3.623   3.008   8.212 -0.4824 -0.3044  1.0798
 2892SOL    HW220313   3.748   3.070   8.170  0.4319  0.7991  3.1278
 2893SOL     OW20314   1.964   3.671   6.624 -0.2091 -0.6374 -0.4351
 2893SOL    HW120315   1.978   3.595   6.568  0.9630 -2.3769  2.2124
 2893SOL    HW220316   1.934   3.742   6.567  2.1978 -0.9834 -2.1870
 2894SOL     OW20317   3.890   2.718   8.662 -0.0522  0.4467 -0.0299
 2894SOL    HW120318   3.967   2.749   8.709  0.7804  0.3581 -1.3295
 2894SOL    HW220319   3.918   2.687   8.576 -2.3006 -0.0083 -0.6023
 2895SOL     OW20320   3.316   3.291   5.841 -0.2271 -0.3192 -0.5853
 2895SOL    HW120321   3.305   3.383   5.866  1.2267 -1.0826  2.8619
 2895SOL    HW220322   3.396   3.256   5.881 -1.7690 -2.9785  0.2065
 2896SOL     OW20323   1.446   2.196  10.402  0.2920  0.8505 -0.5688
 2896SOL    HW120324   1.400   2.185  10.319 -1.1764 -0.5165  0.4374
 2896SOL    HW220325   1.488   2.110  10.399  0.7535  1.0437  0.2741
 2897SOL     OW20326   3.067   3.123   6.104  0.3465 -0.2727 -0.6016
 2897SOL    HW120327   3.134   3.056   6.091  0.5796 -0.0415 -0.5852
 2897SOL    HW220328   3.113   3.193   6.150 -2.7915  1.3345  0.1133
 2898SOL     OW20329   1.891   2.849   9.887  0.1366 -0.2280 -0.6381
 2898SOL    HW120330   1.889   2.756   9.862  0.1966  0.0255 -1.5852
 2898SOL    HW220331   1.977   2.848   9.930 -0.1205 -1.1877 -0.1464
 2899SOL     OW20332   4.639   0.353   2.475  0.8394  0.2932 -0.1708
 2899SOL    HW120333   4.556   0.370   2.520  1.1483  0.8007  0.2014
 2899SOL    HW220334   4.657   0.259   2.475 -0.1773  0.1009 -2.9065
 2900SOL     OW20335   0.552   4.621   2.594 -0.6226 -0.1165 -0.0069
 2900SOL    HW120336   0.563   4.539   2.641  3.1962  1.0656  1.1363
 2900SOL    HW220337   0.596   4.596   2.513 -3.0411 -0.0210 -1.3374
 2901SOL     OW20338   1.500   1.943   5.747 -0.3102  0.4407  0.1399
 2901SOL    HW120339   1.529   1.853   5.762  0.2228  0.5751 -0.0673
 2901SOL    HW220340   1.477   1.944   5.654  0.9141 -2.6101 -0.1906
 2902SOL     OW20341   3.844   0.681  16.126 -0.1820 -0.4103 -0.2165
 2902SOL    HW120342   3.842   0.694  16.031  1.6289  0.5710 -0.1154
 2902SOL    HW220343   3.756   0.656  16.155 -0.1583  0.0048  0.2081
 2903SOL     OW20344   2.813   0.452  16.191 -0.2383  0.0553  0.6475
 2903SOL    HW120345   2.784   0.366  16.162  1.1812 -0.1350 -0.2266
 2903SOL    HW220346   2.883   0.440  16.255 -1.5636  1.4596  2.3677
 2904SOL     OW20347   1.008   0.298   3.677 -0.2580  0.6659  0.5486
 2904SOL    HW120348   0.920   0.272   3.650  0.3329 -0.4666 -0.2696
 2904SOL    HW220349   1.059   0.242   3.618  0.7334  1.0947  1.0084
 2905SOL     OW20350   4.734   0.623   1.342  0.3271 -0.0027  0.6264
 2905SOL    HW120351   4.671   0.608   1.413  0.2059 -1.2558  0.2568
 2905SOL    HW220352   4.730   0.539   1.296  1.2356 -0.0114  0.5569
 2906SOL     OW20353   1.114   2.005   2.759  0.6583 -0.2582  0.3452
 2906SOL    HW120354   1.195   1.958   2.738  1.4492  0.9382  0.7186
 2906SOL    HW220355   1.056   1.986   2.685  0.5147  0.7446  0.2008
 2907SOL     OW20356   2.496   0.436   5.510 -0.7446  0.4628  0.2937
 2907SOL    HW120357   2.460   0.480   5.587  2.6452  0.9408  1.6190
 2907SOL    HW220358   2.530   0.517   5.472  1.1323  0.0020  0.9628
 2908SOL     OW20359   3.579   2.151   1.875  0.2575  0.0377  0.3366
 2908SOL    HW120360   3.502   2.163   1.819 -0.5438  0.5235  1.5527
 2908SOL    HW220361   3.645   2.175   1.809  2.0481 -2.1942  1.3260
 2909SOL     OW20362   3.555   2.187   2.815  0.2590 -0.5849 -0.7202
 2909SOL    HW120363   3.532   2.186   2.722 -2.6113  0.6210 -0.0507
 2909SOL    HW220364   3.480   2.137   2.847  1.4603 -0.6210  1.9915
 2910SOL     OW20365   3.616   1.757   7.793 -0.0903  0.3415 -0.2342
 2910SOL    HW120366   3.539   1.800   7.756 -0.5590  1.1352  1.6443
 2910SOL    HW220367   3.674   1.834   7.798  0.8159 -0.3930  0.6789
 2911SOL     OW20368   1.288   4.474   4.367 -0.0686  0.2193  0.5147
 2911SOL    HW120369   1.339   4.394   4.370  1.2463  1.0710  0.6889
 2911SOL    HW220370   1.203   4.431   4.358 -0.4820  1.3754 -1.1137
 2912SOL     OW20371   0.832   3.340   9.655 -0.5543  0.1583  0.3165
 2912SOL    HW120372   0.760   3.278   9.661 -1.1453  0.9035  0.9603
 2912SOL    HW220373   0.864   3.333   9.744 -0.3224 -2.1274  0.0495
 2913SOL     OW20374   4.132   1.876   7.740  0.3230 -0.1492 -0.3344
 2913SOL    HW120375   4.156   1.881   7.833 -1.9821  1.0881  0.1868
 2913SOL    HW220376   4.103   1.785   7.732 -1.8379  0.6947 -1.9553
 2914SOL     OW20377   1.251   2.476   5.336 -0.2554 -0.5252 -0.4380
 2914SOL    HW120378   1.271   2.530   5.413 -2.9430 -3.3249  2.2401
 2914SOL    HW220379   1.166   2.439   5.361 -0.6848  1.9214  1.8243
 2915SOL     OW20380   1.276   0.548   8.923  0.4080  0.0606  0.3211
 2915SOL    HW120381   1.254   0.577   9.011  1.5262 -0.3842  0.7543
 2915SOL    HW220382   1.217   0.595   8.864  1.9805  0.4529 -0.9568
 2916SOL     OW20383   0.220   1.503  12.007 -0.2809 -0.8954  0.2989
 2916SOL    HW120384   0.226   1.431  12.070 -0.3934 -0.6942  0.5402
 2916SOL    HW220385   0.176   1.565  12.065 -0.1261 -1.3682  0.9269
 2917SOL     OW20386   2.065   4.283   3.730 -0.1837 -0.0376  0.3251
 2917SOL    HW120387   2.143   4.291   3.675 -0.7915  0.5674 -0.4520
 2917SOL    HW220388   2.081   4.193   3.757  2.9529  0.8921  1.6679
 2918SOL     OW20389   1.556   4.504   2.921 -0.3258  0.0857 -0.0357
 2918SOL    HW120390   1.593   4.592   2.911  2.7226 -1.0961  0.7785
 2918SOL    HW220391   1.496   4.505   2.846 -1.8830 -1.8517  1.1845
 2919SOL     OW20392   2.950   3.142   1.584 -0.5316  0.3173  0.3680
 2919SOL    HW120393   2.972   3.155   1.491  1.2064 -1.7917  0.5079
 2919SOL    HW220394   3.032   3.152   1.632 -0.4375  2.0473 -0.1536
 2920SOL     OW20395   2.561   1.416   9.800 -0.0561  0.1123  0.5261
 2920SOL    HW120396   2.584   1.496   9.846 -1.2424 -0.0024  1.3060
 2920SOL    HW220397   2.467   1.429   9.794  0.0048 -0.5526 -1.8283
 2921SOL     OW20398   1.100   2.690   1.920  0.2209  0.1754  0.3083
 2921SOL    HW120399   1.097   2.702   1.825 -0.6319  0.1766  0.3376
 2921SOL    HW220400   1.007   2.698   1.941 -0.2048 -1.5294 -0.8951
 2922SOL     OW20401   0.572   1.949   3.057  0.3461  0.0330 -1.1166
 2922SOL    HW120402   0.496   1.942   3.115  0.4236 -0.8332 -1.1146
 2922SOL    HW220403   0.604   2.035   3.085  0.5658 -0.6670  0.8049
 2923SOL     OW20404   3.642   3.702  11.629  0.5919  0.4079 -0.3850
 2923SOL    HW120405   3.696   3.776  11.602  2.3886 -0.8436 -0.2289
 2923SOL    HW220406   3.709   3.633  11.636 -0.9807 -1.1970 -1.2703
 2924SOL     OW20407   2.411   0.034   8.958 -0.4287  0.0752 -0.0955
 2924SOL    HW120408   2.414   0.084   9.040 -0.4409 -1.3961  0.8078
 2924SOL    HW220409   2.366   0.104   8.911  0.1863  0.6329  0.1411
 2925SOL     OW20410   2.002   2.883  10.666  0.0754  0.0668 -0.1293
 2925SOL    HW120411   1.977   2.832  10.743  1.4579 -0.1608  0.1689
 2925SOL    HW220412   2.080   2.839  10.631  1.5128  1.2089  1.6532
 2926SOL     OW20413   2.678   1.358  16.077 -0.5073  0.5710  0.2369
 2926SOL    HW120414   2.606   1.297  16.091  1.1024 -1.2929  0.4027
 2926SOL    HW220415   2.628   1.440  16.082  0.0117  0.7277  2.8046
 2927SOL     OW20416   2.512   2.631   7.958 -0.5543  0.4697 -0.2482
 2927SOL    HW120417   2.576   2.659   8.024  0.0886 -2.8139  0.4938
 2927SOL    HW220418   2.508   2.536   7.966  0.0302  0.4839  0.1925
 2928SOL     OW20419   3.248   1.142   7.724  0.5803  0.1846 -0.5238
 2928SOL    HW120420   3.179   1.100   7.673 -0.6238  1.4802  0.0429
 2928SOL    HW220421   3.200   1.215   7.762 -0.8674 -1.3242  0.5166
 2929SOL     OW20422   3.743   2.305   5.517 -0.1870  0.0064  0.4676
 2929SOL    HW120423   3.691   2.255   5.579  0.4513  0.4171  1.3301
 2929SOL    HW220424   3.675   2.336   5.457  1.8190  1.6874 -0.9576
 2930SOL     OW20425   1.154   3.183   6.235 -0.3033 -0.3604 -0.3001
 2930SOL    HW120426   1.171   3.219   6.322 -0.2708  0.5267 -0.6810
 2930SOL    HW220427   1.112   3.100   6.258 -1.2758  0.4494  0.8562
 2931SOL     OW20428   2.130   4.051  13.938 -0.1351  0.1609 -0.5312
 2931SOL    HW120429   2.219   4.086  13.940 -0.5976  1.2598  0.5761
 2931SOL    HW220430   2.093   4.089  14.018 -0.0069  1.4956 -1.1095
 2932SOL     OW20431   2.758   2.479   5.433 -0.3449 -1.5279  0.0509
 2932SOL    HW120432   2.691   2.414   5.456 -2.4369  0.1651 -1.2260
 2932SOL    HW220433   2.775   2.445   5.345  1.2877  1.1815 -0.6753
 2933SOL     OW20434   3.115   0.547   3.481 -0.2809  0.6856  0.0918
 2933SOL    HW120435   3.158   0.582   3.559 -0.5696  1.9320 -0.3070
 2933SOL    HW220436   3.198   0.521   3.441 -0.8067 -0.7833 -0.0431
 2934SOL     OW20437   1.298   2.031   8.652  0.4103 -0.1759  0.1043
 2934SOL    HW120438   1.207   2.051   8.677  0.7907 -1.2307  2.3364
 2934SOL    HW220439   1.312   1.980   8.732  1.2325 -0.7234 -0.3981
 2935SOL     OW20440   4.533   3.062   9.206 -0.5748 -0.0240  0.7565
 2935SOL    HW120441   4.549   3.142   9.257 -3.4855 -0.3634  2.1710
 2935SOL    HW220442   4.505   2.998   9.272  0.3156  1.1426  2.2857
 2936SOL     OW20443   2.709   4.106  11.409 -0.2427  0.0383 -0.1921
 2936SOL    HW120444   2.749   4.076  11.491  1.3666 -2.7520 -1.9587
 2936SOL    HW220445   2.629   4.146  11.442  0.5429  0.7457  0.8206
 2937SOL     OW20446   4.006   3.648   7.281  0.6969  0.0240  0.0617
 2937SOL    HW120447   4.030   3.740   7.279 -1.6251  0.6116 -1.4141
 2937SOL    HW220448   3.941   3.646   7.210  0.3291  0.3360  0.3895
 2938SOL     OW20449   4.234   1.001   3.440 -0.2399  0.3082  0.6276
 2938SOL    HW120450   4.276   1.035   3.519 -1.8775  1.6334  0.9412
 2938SOL    HW220451   4.229   0.910   3.468  0.6634  0.2299  0.5269
 2939SOL     OW20452   2.055   0.007  16.447 -0.2618 -0.0051  0.2089
 2939SOL    HW120453   1.989   0.066  16.411  0.7394  0.4960 -0.8038
 2939SOL    HW220454   2.044   4.678  16.381 -3.1823  0.0497  0.6426
 2940SOL     OW20455   2.358   2.570  14.309 -0.1247  0.5518 -0.3183
 2940SOL    HW120456   2.341   2.482  14.344  0.3320  0.1688 -1.0793
 2940SOL    HW220457   2.338   2.555  14.217 -1.4978  0.3986 -0.0042
 2941SOL     OW20458   2.827   0.597   2.612 -0.0235 -0.4025  0.4814
 2941SOL    HW120459   2.797   0.678   2.572  0.8726 -1.3823 -2.1709
 2941SOL    HW220460   2.860   0.625   2.698  1.9791  1.0646 -0.7808
 2942SOL     OW20461   3.924   4.573  10.092  0.4804 -0.6453  0.3146
 2942SOL    HW120462   3.983   4.639  10.128 -1.6910  1.1214  0.6007
 2942SOL    HW220463   3.934   4.499  10.152  0.0513 -0.1095  1.0415
 2943SOL     OW20464   3.875   2.604   6.394  0.1671 -0.2870  0.4211
 2943SOL    HW120465   3.915   2.667   6.455  0.2475 -0.9644  1.0735
 2943SOL    HW220466   3.848   2.538   6.458 -0.0672 -1.4035 -0.8281
 2944SOL     OW20467   2.039   1.522   2.736 -0.5687 -0.3549 -0.2177
 2944SOL    HW120468   1.980   1.546   2.808 -1.2446 -1.2893 -0.4614
 2944SOL    HW220469   2.098   1.463   2.782 -1.0144 -1.6202 -1.2687
 2945SOL     OW20470   3.749   4.522  10.386  0.2616 -0.1095  0.6141
 2945SOL    HW120471   3.745   4.525  10.481 -0.9985 -0.9276  0.5920
 2945SOL    HW220472   3.835   4.480  10.383 -0.5800 -1.6551 -1.9195
 2946SOL     OW20473   3.780   4.583   1.904 -0.2937 -0.1929 -0.6902
 2946SOL    HW120474   3.825   4.500   1.888 -1.9334 -1.1172 -0.4789
 2946SOL    HW220475   3.789   4.610   1.813  1.9788 -0.4097 -0.5408
 2947SOL     OW20476   4.464   4.662  13.188 -0.1388  0.1875  0.2871
 2947SOL    HW120477   4.422   4.723  13.250 -2.6639  0.9538 -2.1483
 2947SOL    HW220478   4.506   4.725  13.130  1.7166 -2.0013 -0.7086
 2948SOL     OW20479   3.467   2.441   5.365 -0.3014  0.0987 -0.1133
 2948SOL    HW120480   3.385   2.450   5.318  0.2068 -1.1111 -1.2343
 2948SOL    HW220481   3.443   2.381   5.435 -0.6794  0.9531  0.4900
 2949SOL     OW20482   1.427   0.969  15.229  0.1598  0.2498  0.3968
 2949SOL    HW120483   1.374   0.973  15.149  0.6301 -1.3361 -0.0024
 2949SOL    HW220484   1.450   0.876  15.224  0.2566  0.2352  1.2890
 2950SOL     OW20485   4.213   3.246  11.207 -1.1083  0.3473  0.5256
 2950SOL    HW120486   4.131   3.287  11.235 -0.3321  3.1327 -1.1811
 2950SOL    HW220487   4.218   3.176  11.272 -0.9918 -0.7224 -0.6334
 2951SOL     OW20488   4.643   4.686   9.418  0.4448  0.0695  0.3548
 2951SOL    HW120489   4.589   4.626   9.365  1.9537  0.7891 -2.0084
 2951SOL    HW220490   4.624   0.036   9.388 -0.3373  0.4322  1.9307
 2952SOL     OW20491   4.026   3.077   7.624 -0.1813  0.0363 -0.5328
 2952SOL    HW120492   4.039   3.172   7.630  3.1379 -0.4358 -0.1233
 2952SOL    HW220493   4.106   3.043   7.585 -0.6527  0.5619 -1.9384
 2953SOL     OW20494   4.162   0.825   9.408  0.0068  0.7595 -0.7670
 2953SOL    HW120495   4.076   0.788   9.429 -0.6680  2.7048 -0.1405
 2953SOL    HW220496   4.136   0.905   9.363 -0.3402  1.1073  0.0533
 2954SOL     OW20497   0.905   3.829  15.678 -0.0180  0.1129  0.3589
 2954SOL    HW120498   0.996   3.849  15.657 -0.3553  0.4011 -0.8438
 2954SOL    HW220499   0.907   3.846  15.772 -0.3242  0.3183  0.3275
 2955SOL     OW20500   1.832   4.112   4.383  0.4048 -0.5924  0.0032
 2955SOL    HW120501   1.807   4.199   4.351  1.3313 -0.7543 -1.1429
 2955SOL    HW220502   1.786   4.057   4.321  0.7306 -1.7644  0.7958
 2956SOL     OW20503   3.702   3.002  14.607  0.2232 -0.6536  0.6964
 2956SOL    HW120504   3.685   3.027  14.698 -0.1247  0.9636  0.1786
 2956SOL    HW220505   3.795   2.989  14.630  0.7424  0.4194 -0.8018
 2957SOL     OW20506   3.814   1.603   7.676 -0.3342 -0.4460  0.0300
 2957SOL    HW120507   3.741   1.644   7.722 -0.2127 -0.9109  0.6399
 2957SOL    HW220508   3.789   1.511   7.682 -1.4473 -0.2460 -1.5881
 2958SOL     OW20509   0.286   1.825   6.160 -0.8378 -0.1894  0.7815
 2958SOL    HW120510   0.271   1.732   6.144 -0.9697 -0.4154  2.2321
 2958SOL    HW220511   0.379   1.815   6.182 -1.0634 -0.7787  1.4404
 2959SOL     OW20512   2.471   2.760   7.068 -0.9363  0.3627 -0.0611
 2959SOL    HW120513   2.541   2.729   7.126 -1.2120 -0.0849  0.0280
 2959SOL    HW220514   2.401   2.736   7.128  0.5081 -0.8447  1.1457
 2960SOL     OW20515   3.502   2.433   6.466 -0.1248  0.3882  0.1773
 2960SOL    HW120516   3.495   2.511   6.411  2.1055  1.2407  1.1075
 2960SOL    HW220517   3.499   2.359   6.406 -1.9603  0.1918  0.4954
 2961SOL     OW20518   4.408   4.570   2.935 -0.0171 -0.9752 -0.4200
 2961SOL    HW120519   4.438   4.526   2.856 -0.7605 -1.3113 -0.5060
 2961SOL    HW220520   4.490   4.596   2.978 -0.2764 -0.7035 -0.0847
 2962SOL     OW20521   2.479   1.187   3.280  0.3625  0.1500  0.4093
 2962SOL    HW120522   2.475   1.092   3.293  0.0764  0.1978  0.6642
 2962SOL    HW220523   2.392   1.209   3.247 -1.4269 -4.2344  2.1348
 2963SOL     OW20524   3.941   1.528   8.019 -0.3987  0.5355  0.2399
 2963SOL    HW120525   3.846   1.529   8.029 -0.4495  2.0130 -0.3895
 2963SOL    HW220526   3.980   1.469   8.083 -1.9436 -0.7580 -0.0205
 2964SOL     OW20527   4.657   3.875   4.009  0.4866 -0.1133 -0.1970
 2964SOL    HW120528   4.572   3.866   3.968 -1.7166  1.4648  3.9667
 2964SOL    HW220529   4.655   3.967   4.036 -0.6939  0.3190 -1.7946
 2965SOL     OW20530   4.194   1.748  11.607 -0.1336 -0.2714 -0.5368
 2965SOL    HW120531   4.194   1.684  11.678  1.8021  1.4667  1.0239
 2965SOL    HW220532   4.116   1.725  11.556 -0.5477  1.3716 -0.6388
 2966SOL     OW20533   1.598   3.701   5.771  0.1028  0.1500 -0.4527
 2966SOL    HW120534   1.676   3.719   5.824 -0.2546 -3.1794  1.2384
 2966SOL    HW220535   1.637   3.639   5.710 -0.9259  1.4643 -2.4317
 2967SOL     OW20536   4.039   3.332   7.694 -0.8341  0.2938  0.2437
 2967SOL    HW120537   4.088   3.378   7.761 -0.0516  0.7509 -0.6358
 2967SOL    HW220538   4.041   3.407   7.634 -1.2463 -0.3884 -0.6382
 2968SOL     OW20539   1.586   1.937  10.394  0.9547  0.1193  0.6987
 2968SOL    HW120540   1.508   1.901  10.352  0.6617 -0.5710  1.8358
 2968SOL    HW220541   1.576   1.894  10.479  1.5260  0.8299  1.1136
 2969SOL     OW20542   1.633   1.256   4.551  0.2358 -0.4668 -0.1906
 2969SOL    HW120543   1.627   1.288   4.461 -0.1367 -0.8304 -0.2927
 2969SOL    HW220544   1.643   1.163   4.534  0.2128 -0.2116 -1.6047
 2970SOL     OW20545   1.792   2.831  12.357 -0.0714  0.5967  0.1766
 2970SOL    HW120546   1.867   2.807  12.412  0.5350  0.4185 -0.7095
 2970SOL    HW220547   1.758   2.741  12.353 -2.7191  1.6844 -1.2547
 2971SOL     OW20548   1.676   3.200  10.781 -0.4240  0.1078 -0.0629
 2971SOL    HW120549   1.683   3.282  10.830 -1.4327  0.2888 -0.2168
 2971SOL    HW220550   1.765   3.187  10.749 -0.5383 -0.9455  0.0482
 2972SOL     OW20551   1.777   0.937   1.403 -0.0783  0.3907 -0.5057
 2972SOL    HW120552   1.778   1.003   1.333 -0.1321  2.5495  1.5140
 2972SOL    HW220553   1.683   0.923   1.419  0.5554 -2.7206  0.3484
 2973SOL     OW20554   4.533   0.160   6.104 -0.2658 -0.1388 -0.8598
 2973SOL    HW120555   4.563   0.144   6.014 -1.1327  1.8376 -1.4996
 2973SOL    HW220556   4.597   0.220   6.142 -2.2022  0.6625  1.0906
 2974SOL     OW20557   0.502   4.692  13.168 -0.8182  0.1092  0.2828
 2974SOL    HW120558   0.458   0.035  13.192 -0.6489 -0.1078  1.3623
 2974SOL    HW220559   0.559   4.724  13.099 -1.0266 -0.2016 -0.0301
 2975SOL     OW20560   1.948   2.812   1.064 -0.2700 -0.2292  0.2695
 2975SOL    HW120561   2.001   2.805   1.144  0.0524 -1.1370 -0.0228
 2975SOL    HW220562   1.872   2.831   1.118 -0.3562  0.0437  0.0504
 2976SOL     OW20563   3.330   0.427   3.342  0.1543 -0.2175  0.0172
 2976SOL    HW120564   3.398   0.493   3.332 -0.0941 -0.4852 -3.4546
 2976SOL    HW220565   3.329   0.374   3.263  1.1109  0.6098 -0.5340
 2977SOL     OW20566   3.084   0.524   9.469  0.9211 -0.2189 -0.4429
 2977SOL    HW120567   3.053   0.441   9.434  1.2214  0.0424 -1.3300
 2977SOL    HW220568   3.078   0.579   9.390  2.8654  1.4540  0.5838
 2978SOL     OW20569   4.303   0.601   9.742 -0.5233 -0.0528 -0.1173
 2978SOL    HW120570   4.254   0.547   9.681 -2.1806  0.8805  0.4123
 2978SOL    HW220571   4.354   0.537   9.792 -0.2425  0.6523  0.5112
 2979SOL     OW20572   4.486   4.045  14.914  0.9610 -0.1335 -0.3307
 2979SOL    HW120573   4.514   4.100  14.841 -1.1543  2.4123  0.7851
 2979SOL    HW220574   4.570   4.010  14.942  1.6538  2.3381  0.5898
 2980SOL     OW20575   4.647   3.148   1.254 -0.3024  0.4146  0.1821
 2980SOL    HW120576   4.710   3.217   1.276 -1.7558  1.4837  0.9801
 2980SOL    HW220577   4.636   3.118   1.345 -1.2057 -1.8810 -0.6798
 2981SOL     OW20578   1.617   0.638  11.857 -0.6188 -0.0991 -0.1240
 2981SOL    HW120579   1.650   0.727  11.851  2.1200 -1.1987 -1.5004
 2981SOL    HW220580   1.603   0.636  11.951  0.7235  3.2561  0.1391
 2982SOL     OW20581   4.091   1.618  14.231 -0.1456 -0.2630  0.3300
 2982SOL    HW120582   4.131   1.564  14.299 -3.0118 -0.8953  1.5095
 2982SOL    HW220583   4.081   1.558  14.158  0.4808 -0.6322  0.5500
 2983SOL     OW20584   1.818   3.400   1.888 -0.3385  0.1888  0.6485
 2983SOL    HW120585   1.749   3.438   1.834  0.1702 -0.7852 -0.6723
 2983SOL    HW220586   1.826   3.465   1.958  2.8791 -1.1362  1.5188
 2984SOL     OW20587   3.682   4.267   8.702 -0.1174 -0.9331  0.5749
 2984SOL    HW120588   3.777   4.269   8.702 -0.1626  1.8667  0.3523
 2984SOL    HW220589   3.667   4.247   8.609 -0.4360  2.0390 -0.0358
 2985SOL     OW20590   2.054   1.264  12.058  0.0984 -0.1803 -0.0458
 2985SOL    HW120591   2.020   1.175  12.049 -1.5366  0.6930 -2.4897
 2985SOL    HW220592   1.986   1.309  12.108  0.2097 -0.1918  0.1150
 2986SOL     OW20593   2.059   1.408  12.867  0.3046  0.1067 -0.0967
 2986SOL    HW120594   2.071   1.459  12.787  1.0791 -0.7938 -0.5442
 2986SOL    HW220595   2.066   1.318  12.835  3.4051  0.1388  0.5369
 2987SOL     OW20596   3.030   1.347  17.261  0.2408  0.3350 -0.7016
 2987SOL    HW120597   3.002   1.427  17.307  1.2766 -0.3257  1.0653
 2987SOL    HW220598   3.124   1.354  17.276 -0.0009  1.1984  0.4661
 2988SOL     OW20599   2.003   2.824   3.688  0.2261 -0.1077 -0.3440
 2988SOL    HW120600   1.938   2.884   3.651 -0.0692  0.3320  0.8905
 2988SOL    HW220601   2.025   2.762   3.619  0.8884  0.3011 -0.4900
 2989SOL     OW20602   1.624   1.952   8.765  0.0868 -0.2481  0.0190
 2989SOL    HW120603   1.563   2.002   8.712  0.2011 -1.2015 -1.0196
 2989SOL    HW220604   1.692   2.018   8.781  0.7803 -1.1825  0.9463
 2990SOL     OW20605   2.379   4.617   0.629  0.4865 -0.4470  0.2784
 2990SOL    HW120606   2.437   4.656   0.563  1.4954  1.2367  2.1544
 2990SOL    HW220607   2.421   4.649   0.709  3.6190 -3.5544 -0.1586
 2991SOL     OW20608   2.843   3.939   6.921  0.1484  0.0014  0.1581
 2991SOL    HW120609   2.790   3.862   6.943 -0.2691  1.3192  3.7903
 2991SOL    HW220610   2.779   4.008   6.938  2.5516  1.9943  1.0232
 2992SOL     OW20611   0.782   2.963   6.861  0.2116 -0.0036 -0.1600
 2992SOL    HW120612   0.827   2.932   6.940  0.1171 -1.1228 -0.5450
 2992SOL    HW220613   0.827   3.045   6.841  1.2868 -0.4533  0.3960
 2993SOL     OW20614   1.567   1.060   7.716  0.5529 -0.5416  0.6463
 2993SOL    HW120615   1.617   0.978   7.714  1.1306 -0.1914  0.8313
 2993SOL    HW220616   1.629   1.130   7.733 -0.5045  0.3217  0.9788
 2994SOL     OW20617   1.063   1.511   7.588 -0.1533  0.1269  0.1511
 2994SOL    HW120618   1.062   1.428   7.636 -3.2639  0.0066 -0.1763
 2994SOL    HW220619   1.022   1.562   7.658  0.6828 -1.8209  2.0843
 2995SOL     OW20620   0.717   3.833   9.994  0.0885  0.1189  0.7050
 2995SOL    HW120621   0.678   3.814  10.079  0.8754 -2.9504  0.3844
 2995SOL    HW220622   0.755   3.920  10.003  0.6563 -0.2328  1.6425
 2996SOL     OW20623   4.020   0.036   5.585 -0.0419 -0.0412 -0.0759
 2996SOL    HW120624   4.059   0.075   5.663  2.3272 -0.4635 -1.0463
 2996SOL    HW220625   4.045   0.099   5.518 -0.9794 -0.9177 -1.2668
 2997SOL     OW20626   4.420   1.335   9.263 -0.2524 -0.2113 -0.0244
 2997SOL    HW120627   4.401   1.250   9.304 -1.3330 -0.9624 -2.0990
 2997SOL    HW220628   4.385   1.390   9.333  0.7794  0.5025 -0.0759
 2998SOL     OW20629   1.504   2.895   8.062  0.7033  0.2984  0.1450
 2998SOL    HW120630   1.421   2.853   8.041  0.1104  1.4733  0.1184
 2998SOL    HW220631   1.481   2.968   8.120  3.1934  0.0039  1.5121
 2999SOL     OW20632   3.417   1.298   6.671 -0.2174  0.2763 -0.1404
 2999SOL    HW120633   3.408   1.393   6.684 -1.1368  0.1293  0.2790
 2999SOL    HW220634   3.475   1.289   6.595  0.1752  0.7107  0.1121
 3000SOL     OW20635   2.722   4.121   9.101 -0.8027 -0.4473  0.7319
 3000SOL    HW120636   2.669   4.055   9.145  0.3048 -1.3933  0.6459
 3000SOL    HW220637   2.771   4.064   9.042 -1.9763  0.0657 -0.7715
 3001SOL     OW20638   3.133   1.260   7.967 -0.4878  0.0956 -0.2321
 3001SOL    HW120639   3.099   1.348   7.983 -1.5488  0.1731 -2.8291
 3001SOL    HW220640   3.067   1.204   8.007  0.6366 -0.3599  0.9838
 3002SOL     OW20641   2.652   2.715   3.062 -0.2995 -0.6214  0.3461
 3002SOL    HW120642   2.668   2.743   2.972  0.0598 -0.5625  0.4274
 3002SOL    HW220643   2.688   2.627   3.070  0.3232 -0.4270 -0.3049
 3003SOL     OW20644   2.766   1.077   6.007 -0.5181  0.0331 -0.7799
 3003SOL    HW120645   2.777   1.017   5.933 -1.0041  0.7538 -1.4402
 3003SOL    HW220646   2.833   1.140   5.980  2.2264 -2.3227  0.5612
 3004SOL     OW20647   0.017   0.187   3.588  0.2339 -0.0871  0.2667
 3004SOL    HW120648   0.011   0.194   3.684 -0.3598 -0.2859  0.2435
 3004SOL    HW220649   0.029   0.093   3.582 -0.6246 -0.2344  0.7526
 3005SOL     OW20650   0.855   0.210   3.012 -0.1188 -0.0017  0.4954
 3005SOL    HW120651   0.842   0.121   2.980  1.4299  1.0026 -2.8807
 3005SOL    HW220652   0.945   0.214   2.981 -1.0260 -0.5313 -2.2048
 3006SOL     OW20653   0.183   4.290   7.195  0.6214 -0.3895  0.1592
 3006SOL    HW120654   0.150   4.335   7.117 -1.1221 -0.6058  0.7864
 3006SOL    HW220655   0.141   4.205   7.179  0.0413  0.0336 -0.5818
 3007SOL     OW20656   1.900   0.007   1.584 -0.1968 -0.2071 -0.2007
 3007SOL    HW120657   1.966   0.002   1.653 -0.8278  4.3909  0.7282
 3007SOL    HW220658   1.838   4.691   1.632 -0.1042 -0.0522  0.0999
 3008SOL     OW20659   3.894   3.346   7.331  0.3085  0.4463  0.2417
 3008SOL    HW120660   3.924   3.257   7.315 -3.4512 -1.4199  3.4971
 3008SOL    HW220661   3.970   3.397   7.357  0.3525  0.8782 -0.7227
 3009SOL     OW20662   0.352   0.669   4.517 -0.0103 -0.1552  0.2845
 3009SOL    HW120663   0.416   0.610   4.556  0.7874 -0.6703 -1.7923
 3009SOL    HW220664   0.408   0.747   4.512 -0.0925  0.0030  1.8331
 3010SOL     OW20665   4.296   2.784   3.828 -0.1582  0.0218 -0.4931
 3010SOL    HW120666   4.225   2.726   3.854 -0.8720  0.6126 -1.1514
 3010SOL    HW220667   4.311   2.828   3.912 -1.6863 -0.4345  0.0161
 3011SOL     OW20668   3.981   1.401   6.016  0.4171  0.0472  0.0278
 3011SOL    HW120669   4.056   1.457   6.037  0.4485  0.4443 -1.1541
 3011SOL    HW220670   3.927   1.423   6.093 -1.8995 -2.1346 -0.9851
 3012SOL     OW20671   0.885   0.400   3.206 -0.0527  0.0550 -0.3110
 3012SOL    HW120672   0.975   0.433   3.213 -0.7387  1.5052  1.5228
 3012SOL    HW220673   0.876   0.379   3.113  1.1463  1.7240 -0.8077
 3013SOL     OW20674   2.314   1.743   3.627  0.0225  0.0259  0.3349
 3013SOL    HW120675   2.326   1.822   3.681 -2.9414  0.9348 -0.3077
 3013SOL    HW220676   2.305   1.791   3.545 -0.5447 -0.1859  0.2755
 3014SOL     OW20677   3.796   1.297  17.147  0.0302  0.8390 -0.2130
 3014SOL    HW120678   3.713   1.287  17.193 -0.6955 -1.1521 -2.0152
 3014SOL    HW220679   3.780   1.300  17.053  0.0977 -0.5615 -0.2687
 3015SOL     OW20680   3.937   4.574   7.057 -0.2250  0.3112  0.0791
 3015SOL    HW120681   3.935   4.584   7.152  0.1645  2.2127 -0.1103
 3015SOL    HW220682   4.026   4.602   7.037  0.5840 -1.4013  1.2474
 3016SOL     OW20683   4.363   4.116  11.339  0.1054 -0.4359 -0.4134
 3016SOL    HW120684   4.275   4.154  11.331 -0.5734 -1.6974  1.1953
 3016SOL    HW220685   4.352   4.022  11.353  1.3101 -0.2396  1.7586
 3017SOL     OW20686   1.492   1.236  15.169  0.2993 -0.1806 -0.0529
 3017SOL    HW120687   1.557   1.223  15.100  2.7134  1.7104  1.8563
 3017SOL    HW220688   1.468   1.151  15.205  1.0055 -1.3857 -2.3808
 3018SOL     OW20689   2.883   3.183   8.141  0.6554  0.1790  0.2490
 3018SOL    HW120690   2.855   3.107   8.090  1.9607 -1.5377  2.1033
 3018SOL    HW220691   2.815   3.172   8.208 -0.0818 -2.8181 -0.9968
 3019SOL     OW20692   0.552   0.183   9.499 -0.0726  0.0416 -0.6376
 3019SOL    HW120693   0.568   0.276   9.514  0.4441 -0.1693  0.1081
 3019SOL    HW220694   0.458   0.196   9.489  0.1613  2.8062  0.9480
 3020SOL     OW20695   1.863   0.735   8.491  0.4297  0.4212  0.3698
 3020SOL    HW120696   1.792   0.698   8.438 -0.0529 -1.5853  2.4328
 3020SOL    HW220697   1.850   0.830   8.479  2.0331  0.9371  2.7946
 3021SOL     OW20698   3.769   0.522   4.354 -0.4192  0.4350 -0.2823
 3021SOL    HW120699   3.816   0.442   4.378  1.0013  1.1408 -0.7136
 3021SOL    HW220700   3.805   0.546   4.269  0.2937 -0.9609 -0.3577
 3022SOL     OW20701   4.708   4.551   3.801 -0.1258  0.6248 -0.0227
 3022SOL    HW120702   4.669   4.634   3.773  1.8589  0.4405 -3.4305
 3022SOL    HW220703   4.647   4.526   3.870  0.0210  0.6792  0.1257
 3023SOL     OW20704   3.764   2.414   6.903  0.6542 -0.3178 -0.6364
 3023SOL    HW120705   3.728   2.350   6.841 -1.2036 -0.8992  1.0548
 3023SOL    HW220706   3.724   2.492   6.864 -1.2327 -0.6010  0.7519
 3024SOL     OW20707   4.433   4.413   1.878 -0.2921  0.2916 -0.1685
 3024SOL    HW120708   4.520   4.400   1.917  0.2369  0.1875 -1.3975
 3024SOL    HW220709   4.429   4.342   1.813 -3.7597 -0.0002  0.3517
 3025SOL     OW20710   3.499   2.709   8.502  0.2095  0.2155  0.0563
 3025SOL    HW120711   3.432   2.653   8.463  1.4631 -0.8730 -0.5311
 3025SOL    HW220712   3.551   2.643   8.549 -0.5400 -0.6527 -0.3380
 3026SOL     OW20713   3.491   0.610   5.049 -0.5546  0.1637 -0.1994
 3026SOL    HW120714   3.433   0.559   4.994  1.8907 -0.9123 -1.7564
 3026SOL    HW220715   3.438   0.688   5.066  0.8894  1.1072 -0.0304
 3027SOL     OW20716   0.644   0.296   5.780 -0.1802 -0.4505 -0.6102
 3027SOL    HW120717   0.615   0.231   5.845  0.6325 -0.1594  0.0506
 3027SOL    HW220718   0.631   0.243   5.702  0.9302 -1.0780 -0.3602
 3028SOL     OW20719   4.365   2.918   9.414 -0.3162 -0.1490 -0.1060
 3028SOL    HW120720   4.407   2.968   9.484 -0.9268 -1.3140  1.0876
 3028SOL    HW220721   4.296   2.880   9.468 -0.7343 -0.1701 -0.6643
 3029SOL     OW20722   3.645   1.817  13.289  0.3263  0.2469  0.0588
 3029SOL    HW120723   3.651   1.912  13.301 -1.2615  0.2379  0.9159
 3029SOL    HW220724   3.570   1.799  13.231 -0.3155  0.0861  0.9436
 3030SOL     OW20725   2.067   2.080   3.558  0.2810  0.1752 -0.7672
 3030SOL    HW120726   2.009   2.023   3.610  1.1724 -0.5741 -0.5907
 3030SOL    HW220727   2.133   2.018   3.526  0.4393  0.3042 -0.6905
 3031SOL     OW20728   1.780   1.624  10.997  0.2655  0.2314 -0.3836
 3031SOL    HW120729   1.789   1.535  10.962  1.6140 -0.3179  1.4169
 3031SOL    HW220730   1.781   1.678  10.917 -1.5926 -0.3374 -0.7960
 3032SOL     OW20731   4.034   0.560   7.612  0.7973 -0.0239 -0.5129
 3032SOL    HW120732   4.075   0.572   7.697 -1.5592  0.6158  0.5558
 3032SOL    HW220733   3.944   0.592   7.623  0.1261 -1.7834 -0.9251
 3033SOL     OW20734   1.702   1.883   3.341  0.4765  0.7329 -0.2863
 3033SOL    HW120735   1.687   1.901   3.248 -1.3504 -1.1523 -0.3539
 3033SOL    HW220736   1.631   1.922   3.392  2.0030  3.9192 -0.6332
 3034SOL     OW20737   0.480   3.891   6.694 -0.1905  0.4382  0.4092
 3034SOL    HW120738   0.491   3.849   6.608 -1.2032  0.9963  0.0086
 3034SOL    HW220739   0.566   3.878   6.734  0.4898  1.2375 -0.7758
 3035SOL     OW20740   3.018   1.061   6.332 -0.7723 -0.5170  0.5802
 3035SOL    HW120741   3.008   1.120   6.257 -1.1278  1.4026  2.1476
 3035SOL    HW220742   3.095   1.007   6.313  0.1534  1.2484 -0.7103
 3036SOL     OW20743   2.014   4.635   4.092 -0.5973  0.0865 -0.2550
 3036SOL    HW120744   1.982   4.678   4.171 -2.2529  0.6275 -1.2176
 3036SOL    HW220745   1.938   4.591   4.054  0.3138  0.3711 -2.4442
 3037SOL     OW20746   1.880   2.947   2.036 -0.2065 -0.2127 -0.8337
 3037SOL    HW120747   1.863   3.020   1.977 -0.9400  0.0040 -0.3571
 3037SOL    HW220748   1.975   2.946   2.048 -0.3575 -0.0437  0.4650
 3038SOL     OW20749   3.827   3.982   2.786 -0.1586 -0.2921 -0.2800
 3038SOL    HW120750   3.902   4.042   2.790  0.7222 -1.3529 -0.8455
 3038SOL    HW220751   3.850   3.906   2.840  0.5325  0.1426  0.0471
 3039SOL     OW20752   1.222   1.164   9.292 -0.0617 -0.3862  0.0743
 3039SOL    HW120753   1.204   1.224   9.364 -0.1885  1.5674 -1.5673
 3039SOL    HW220754   1.264   1.087   9.328  2.0385 -0.6633 -2.9500
 3040SOL     OW20755   3.331   3.306  15.027 -0.4520 -0.3937  0.0739
 3040SOL    HW120756   3.305   3.291  15.118 -0.3083 -1.9851 -0.1417
 3040SOL    HW220757   3.264   3.258  14.978  0.1710 -1.6003  0.3935
 3041SOL     OW20758   0.103   2.746   8.112 -0.5086 -0.1736  0.3028
 3041SOL    HW120759   0.079   2.656   8.091 -0.4669  0.5229 -2.6972
 3041SOL    HW220760   0.193   2.759   8.084 -0.3391 -2.3427 -0.1856
 3042SOL     OW20761   3.332   3.927  12.401 -0.1389 -0.0841  0.6023
 3042SOL    HW120762   3.425   3.918  12.420 -0.3269 -0.7111  1.2274
 3042SOL    HW220763   3.317   3.900  12.310 -1.4520 -0.1969  0.8474
 3043SOL     OW20764   2.908   4.314  13.061  0.3391 -0.1300 -0.1579
 3043SOL    HW120765   2.927   4.274  12.977 -1.1301  0.8737 -0.9687
 3043SOL    HW220766   2.988   4.287  13.106  0.8161 -1.2698 -1.6872
 3044SOL     OW20767   0.501   1.462   1.733  0.0965 -0.2153  0.5227
 3044SOL    HW120768   0.583   1.418   1.712  0.4120  0.5423  0.1633
 3044SOL    HW220769   0.440   1.394   1.706  1.5943 -1.8757  1.3666
 3045SOL     OW20770   2.392   3.462   7.111  0.5434 -0.0423 -0.3961
 3045SOL    HW120771   2.463   3.462   7.175 -0.3530  0.9041  0.5962
 3045SOL    HW220772   2.388   3.372   7.078  0.6089  0.5455 -2.0135
 3046SOL     OW20773   2.328   4.258   0.736 -0.1592  0.1352  0.7350
 3046SOL    HW120774   2.304   4.293   0.650  1.7902  2.7204  1.2317
 3046SOL    HW220775   2.372   4.176   0.712 -1.1942  0.0182 -0.7112
 3047SOL     OW20776   4.115   0.995   6.508  0.1659 -0.2238  0.4276
 3047SOL    HW120777   4.091   1.035   6.425 -0.8792 -2.3726 -0.2965
 3047SOL    HW220778   4.050   1.032   6.567 -1.1920 -2.8695  0.6037
 3048SOL     OW20779   3.593   3.520  17.586 -0.1686 -0.0791 -0.2496
 3048SOL    HW120780   3.535   3.473  17.527 -0.6272  1.1117 -0.7523
 3048SOL    HW220781   3.669   3.535  17.530  0.6203  0.7260  1.0151
 3049SOL     OW20782   3.896   0.319   9.947  0.1273 -0.7288 -0.2903
 3049SOL    HW120783   3.990   0.301   9.951 -0.1605 -2.3676 -0.9404
 3049SOL    HW220784   3.862   0.242   9.901  1.4549 -1.3267 -0.2733
 3050SOL     OW20785   0.321   3.823   5.146  0.3337 -0.3290  0.1969
 3050SOL    HW120786   0.300   3.735   5.114  1.4782 -0.1158 -1.1447
 3050SOL    HW220787   0.249   3.859   5.095  1.2137 -1.1259 -1.6048
 3051SOL     OW20788   4.664   2.246   7.216  0.4455 -0.0872 -0.6419
 3051SOL    HW120789   4.614   2.188   7.274  3.0250 -2.2366 -0.5588
 3051SOL    HW220790   0.016   2.234   7.244  0.2546 -1.5390 -0.6825
 3052SOL     OW20791   3.148   0.991   2.903 -0.4958  0.5005 -0.4048
 3052SOL    HW120792   3.089   0.957   2.970  2.1259 -1.0694  1.1178
 3052SOL    HW220793   3.104   0.959   2.824 -2.0379 -0.7050  0.9373
 3053SOL     OW20794   1.480   0.599   8.032  0.7242 -0.3870 -0.0076
 3053SOL    HW120795   1.446   0.639   7.952  1.7393 -1.9445 -1.1974
 3053SOL    HW220796   1.423   0.640   8.098  0.0586 -4.4096  1.9086
 3054SOL     OW20797   3.229   0.015  11.408 -0.2310  0.0536  0.0907
 3054SOL    HW120798   3.180   0.011  11.326 -1.6906 -1.4898  1.0465
 3054SOL    HW220799   3.319   0.019  11.375 -0.3437  0.5483 -0.1580
 3055SOL     OW20800   1.774   4.105  13.564  0.3038 -0.2285  0.1321
 3055SOL    HW120801   1.751   4.058  13.484 -0.9279  1.1927 -0.3604
 3055SOL    HW220802   1.688   4.132  13.597 -0.7596 -1.4495 -1.6552
 3056SOL     OW20803   0.276   1.044   2.290  1.2373 -0.2011  0.0021
 3056SOL    HW120804   0.252   1.137   2.290  0.9190 -0.2817 -0.4444
 3056SOL    HW220805   0.283   1.035   2.385  0.6720  0.0788  0.0701
 3057SOL     OW20806   2.920   2.868   5.576 -0.3233  0.3050  0.5589
 3057SOL    HW120807   2.904   2.819   5.494  2.0021 -0.3890  0.5330
 3057SOL    HW220808   2.988   2.926   5.542  0.9419 -0.7809  1.2680
 3058SOL     OW20809   2.736   3.668   8.563  0.6317  0.4975 -0.6850
 3058SOL    HW120810   2.814   3.721   8.582  1.0488 -0.2268 -0.3902
 3058SOL    HW220811   2.772   3.580   8.574  0.0346  0.3960  0.4412
 3059SOL     OW20812   0.098   2.262  16.612  0.3651 -0.2094  0.1793
 3059SOL    HW120813   0.189   2.293  16.613 -0.1483  1.3309 -1.5037
 3059SOL    HW220814   0.102   2.233  16.703  1.4960  1.6133  0.7218
 3060SOL     OW20815   2.649   4.624   5.215  0.1452  0.0114 -0.3109
 3060SOL    HW120816   2.744   4.634   5.205  0.4509  0.2359  2.7001
 3060SOL    HW220817   2.613   4.707   5.185  0.1749 -0.0443 -0.5012
 3061SOL     OW20818   0.186   3.271   8.117  0.1185  0.3983 -0.0609
 3061SOL    HW120819   0.156   3.359   8.139 -0.0815  0.3027  0.0474
 3061SOL    HW220820   0.104   3.222   8.116  0.4233 -0.1574  2.7615
 3062SOL     OW20821   4.490   1.198   2.339 -0.1375 -0.4598  0.1214
 3062SOL    HW120822   4.437   1.237   2.409  0.5738  1.3399 -0.3314
 3062SOL    HW220823   4.519   1.115   2.377  0.6879  0.1217  0.7617
 3063SOL     OW20824   2.919   0.205  15.444 -0.6952  0.3689 -0.1751
 3063SOL    HW120825   2.988   0.217  15.509 -1.0785  0.1414  0.2718
 3063SOL    HW220826   2.959   0.253  15.371 -1.0406  2.7216  1.1980
 3064SOL     OW20827   3.724   0.432   3.250  0.2957 -0.3809 -0.3497
 3064SOL    HW120828   3.774   0.514   3.250  0.6527 -0.6005  2.9595
 3064SOL    HW220829   3.674   0.439   3.169 -2.0717 -1.7472  1.0133
 3065SOL     OW20830   2.534   3.878   9.031 -0.1689 -0.0886 -0.2054
 3065SOL    HW120831   2.573   3.843   9.111  0.0287 -0.1597 -0.3345
 3065SOL    HW220832   2.561   3.816   8.963 -0.1577  0.5384 -0.7718
 3066SOL     OW20833   2.851   3.833   3.802 -0.4898  0.0845  0.2355
 3066SOL    HW120834   2.899   3.908   3.836 -0.5337  0.6460 -0.9853
 3066SOL    HW220835   2.833   3.863   3.713  1.0413  0.8187  0.1789
 3067SOL     OW20836   2.752   4.065  14.898  0.4674  0.6794  0.0810
 3067SOL    HW120837   2.756   3.987  14.844 -1.3698  1.5126 -1.2260
 3067SOL    HW220838   2.657   4.056  14.906  0.6518 -1.9049 -0.6245
 3068SOL     OW20839   1.551   4.439   5.414  0.0381 -0.5184 -0.1602
 3068SOL    HW120840   1.493   4.394   5.475  0.5341 -1.7505 -0.5819
 3068SOL    HW220841   1.526   4.529   5.433 -0.6595 -1.1487  1.9403
 3069SOL     OW20842   1.784   0.784  15.885 -0.1129  0.5018  0.0197
 3069SOL    HW120843   1.705   0.781  15.832 -0.4294 -2.1834  0.6790
 3069SOL    HW220844   1.788   0.879  15.871  1.8730  0.1536 -1.8837
 3070SOL     OW20845   2.439   4.364   2.223 -0.3103  0.4096 -0.3908
 3070SOL    HW120846   2.380   4.438   2.226 -0.1161  0.5161  0.5291
 3070SOL    HW220847   2.518   4.392   2.268  0.3839 -0.6118 -0.9613
 3071SOL     OW20848   0.603   0.211   4.783  0.3017 -1.0005  0.1844
 3071SOL    HW120849   0.670   0.279   4.794  1.2874 -1.3450 -3.5030
 3071SOL    HW220850   0.621   0.176   4.695  0.1940  0.9768 -0.6192
 3072SOL     OW20851   1.057   2.392   6.881  0.0556 -0.0317 -0.1328
 3072SOL    HW120852   1.075   2.441   6.801 -1.8797  2.5898  1.0376
 3072SOL    HW220853   1.021   2.472   6.919  1.6035 -0.1457  1.5629
 3073SOL     OW20854   0.087   4.266   8.246  0.2785  0.3147  0.0714
 3073SOL    HW120855   0.114   4.348   8.203  0.1734 -0.8807 -2.2598
 3073SOL    HW220856   0.158   4.251   8.308 -0.6275 -3.0402  0.2909
 3074SOL     OW20857   3.225   3.805  12.172 -0.2768 -0.1855  0.3584
 3074SOL    HW120858   3.199   3.732  12.229 -1.7988 -0.7989 -1.1497
 3074SOL    HW220859   3.240   3.753  12.093 -0.8144 -0.2103  0.2721
 3075SOL     OW20860   4.294   1.435   4.474 -0.7526 -0.6420  0.2110
 3075SOL    HW120861   4.383   1.438   4.509  0.0034 -0.4689 -1.7205
 3075SOL    HW220862   4.257   1.484   4.547 -2.0908  0.2441 -1.0659
 3076SOL     OW20863   4.293   1.655  16.793  0.2702  0.4116 -0.2617
 3076SOL    HW120864   4.361   1.599  16.756  0.3030 -0.7869  1.5978
 3076SOL    HW220865   4.354   1.695  16.854  1.9828  0.6658 -2.1564
 3077SOL     OW20866   1.510   3.003   9.304 -0.0445 -0.4193 -0.3701
 3077SOL    HW120867   1.577   2.988   9.237  2.0661  3.9773  0.7893
 3077SOL    HW220868   1.527   2.931   9.364  3.1948  0.1770 -0.6185
 3078SOL     OW20869   1.582   1.452   3.664 -0.1005  0.1134  0.7689
 3078SOL    HW120870   1.653   1.413   3.714  0.1740 -0.4734 -0.0800
 3078SOL    HW220871   1.603   1.544   3.678 -0.0295  0.4671 -1.6805
 3079SOL     OW20872   2.653   3.849   7.608  0.1435  0.5171  0.3477
 3079SOL    HW120873   2.560   3.872   7.610  0.1859  0.5751  2.2579
 3079SOL    HW220874   2.677   3.855   7.701 -0.9005  0.9145  0.5988
 3080SOL     OW20875   1.745   4.483   4.252 -0.1829 -0.3932  0.1283
 3080SOL    HW120876   1.779   4.503   4.340 -2.1891  0.0440  0.8153
 3080SOL    HW220877   1.826   4.451   4.213 -0.2694 -1.0860  0.5187
 3081SOL     OW20878   0.844   0.896   9.226  0.2055 -0.5824 -0.1659
 3081SOL    HW120879   0.911   0.961   9.201  0.3260 -1.2681 -1.5968
 3081SOL    HW220880   0.813   0.944   9.303 -1.5233 -2.1122  0.0914
 3082SOL     OW20881   3.133   3.146   3.464  0.8202  0.5431  0.3623
 3082SOL    HW120882   3.187   3.067   3.452  3.5147  2.4890 -0.3009
 3082SOL    HW220883   3.124   3.157   3.558  1.6346  1.8953  0.2785
 3083SOL     OW20884   3.984   3.047   5.647 -0.4852 -0.1247  0.2109
 3083SOL    HW120885   3.978   3.142   5.657  0.9610  0.0354 -0.3790
 3083SOL    HW220886   3.929   3.010   5.716  0.7481 -2.1734  0.1036
 3084SOL     OW20887   1.637   4.441   7.231  0.4144  0.1438 -0.1195
 3084SOL    HW120888   1.626   4.534   7.253  1.5895  0.1414  0.4794
 3084SOL    HW220889   1.553   4.423   7.188  0.8562 -0.3957 -0.7507
 3085SOL     OW20890   2.342   3.076   5.943 -0.4141  0.5441  0.4326
 3085SOL    HW120891   2.427   3.082   5.899  0.1240 -0.4645  1.3246
 3085SOL    HW220892   2.312   2.992   5.910  0.9863  0.9797 -1.9389
 3086SOL     OW20893   3.420   3.821   7.008  0.0681 -0.1363 -0.2605
 3086SOL    HW120894   3.495   3.857   6.961 -0.2484  1.1600  0.2358
 3086SOL    HW220895   3.452   3.734   7.031 -1.8328  0.2612  3.8569
 3087SOL     OW20896   4.652   1.083  16.516  0.3412 -0.0472 -0.1306
 3087SOL    HW120897   4.612   1.071  16.602  1.8835  1.7589  0.8515
 3087SOL    HW220898   4.623   1.172  16.494 -1.5343 -1.0232 -1.5554
 3088SOL     OW20899   4.352   0.891   3.680 -0.0694 -0.4430 -0.4147
 3088SOL    HW120900   4.273   0.892   3.735  1.3116 -0.4211  1.5704
 3088SOL    HW220901   4.425   0.882   3.742 -1.4532  1.1929  1.4700
 3089SOL     OW20902   2.452   3.973  17.244 -0.4633 -0.4127  0.0737
 3089SOL    HW120903   2.389   3.904  17.266 -2.2089  0.5992 -1.8119
 3089SOL    HW220904   2.407   4.050  17.277  1.5348 -0.0855  2.0640
 3090SOL     OW20905   0.847   1.926  12.086 -0.4275 -0.2893  0.2381
 3090SOL    HW120906   0.906   1.858  12.119  2.3019  2.0992  0.2008
 3090SOL    HW220907   0.843   1.923  11.991  0.0647  2.2192  0.1482
 3091SOL     OW20908   3.793   2.327   7.677 -0.4520  0.7923 -0.2076
 3091SOL    HW120909   3.810   2.419   7.659  1.3614  0.8674  1.8946
 3091SOL    HW220910   3.725   2.301   7.614  0.2193 -0.2749 -0.4885
 3092SOL     OW20911   0.728   3.651  11.908 -0.6650  0.2570  0.6450
 3092SOL    HW120912   0.790   3.607  11.966 -1.0550  0.1396  0.9715
 3092SOL    HW220913   0.664   3.666  11.977 -0.2701 -0.3651  1.1519
 3093SOL     OW20914   1.178   2.785   8.736 -0.2161  0.4157 -0.4524
 3093SOL    HW120915   1.189   2.721   8.666  2.2569  0.9528 -0.5354
 3093SOL    HW220916   1.115   2.843   8.692  0.7166  2.7578  1.2759
 3094SOL     OW20917   0.524   2.791   3.554 -0.3884 -0.7441 -0.2978
 3094SOL    HW120918   0.558   2.840   3.479 -0.4346  0.9552  0.7807
 3094SOL    HW220919   0.434   2.825   3.560 -0.1442  0.0759 -1.2940
 3095SOL     OW20920   2.025   1.263   7.438  0.2041  0.1730  0.1573
 3095SOL    HW120921   2.022   1.282   7.531 -3.4086 -1.7536  0.4245
 3095SOL    HW220922   2.109   1.299   7.411  0.4829  0.1085  0.9579
 3096SOL     OW20923   3.177   0.478   7.994  0.0840 -0.3286  0.3430
 3096SOL    HW120924   3.095   0.450   8.033 -0.3412  0.9968  0.3988
 3096SOL    HW220925   3.149   0.531   7.919 -0.5032 -1.4748 -0.2371
 3097SOL     OW20926   0.664   0.601   1.391 -0.5320 -0.4769  0.2833
 3097SOL    HW120927   0.638   0.638   1.476  1.6837  0.7276  0.4304
 3097SOL    HW220928   0.667   0.682   1.340  0.4851 -0.0765  0.9825
 3098SOL     OW20929   1.883   3.509   8.885  0.6270 -0.0160 -0.0290
 3098SOL    HW120930   1.840   3.588   8.916  0.7144  0.2705 -0.6441
 3098SOL    HW220931   1.931   3.538   8.807 -1.1008 -0.5777 -1.2894
 3099SOL     OW20932   1.707   4.490   7.725 -0.0932 -0.1976  0.4766
 3099SOL    HW120933   1.661   4.409   7.706 -1.8554  0.8040  0.4767
 3099SOL    HW220934   1.772   4.466   7.792  1.4622  0.7953 -0.6870
 3100SOL     OW20935   0.050   0.613   8.880 -0.0188 -0.0585  0.0893
 3100SOL    HW120936   0.135   0.569   8.887  0.2886  0.4542 -0.4776
 3100SOL    HW220937   0.042   0.640   8.971 -2.5816 -2.8756  0.7033
 3101SOL     OW20938   2.104   2.765   3.962  0.0190 -0.7887  0.7801
 3101SOL    HW120939   2.063   2.798   3.882 -0.0575  0.3627  1.2906
 3101SOL    HW220940   2.130   2.843   4.010  2.9964 -1.8598  0.9323
 3102SOL     OW20941   2.588   0.337  12.056  0.5260  0.2506  0.1549
 3102SOL    HW120942   2.672   0.306  12.091 -0.1348  0.9613  2.3959
 3102SOL    HW220943   2.565   0.280  11.983 -1.7747  0.4450  0.7372
 3103SOL     OW20944   2.296   0.640   7.288  0.1472 -0.3195 -0.4510
 3103SOL    HW120945   2.285   0.550   7.257 -2.1473  0.6708 -2.4457
 3103SOL    HW220946   2.348   0.620   7.367  0.3709  0.5996 -0.3683
 3104SOL     OW20947   3.879   2.516   7.446 -0.3899 -0.0465  0.0610
 3104SOL    HW120948   3.959   2.561   7.471 -0.2536  0.0480 -0.5344
 3104SOL    HW220949   3.830   2.590   7.411 -2.9085 -1.6688  0.1583
 3105SOL     OW20950   3.855   3.528   8.577 -0.1820 -0.1800  0.7053
 3105SOL    HW120951   3.876   3.534   8.670  0.6254 -1.9507  0.6519
 3105SOL    HW220952   3.837   3.617   8.550  0.4303 -0.1640  0.3381
 3106SOL     OW20953   4.305   0.866   2.154 -0.0443 -0.3024 -0.3933
 3106SOL    HW120954   4.314   0.931   2.084 -1.0846 -0.9211 -1.1071
 3106SOL    HW220955   4.368   0.803   2.121 -0.0758 -0.0763 -0.8800
 3107SOL     OW20956   2.571   1.996   7.703  0.0087  0.2014 -0.5100
 3107SOL    HW120957   2.644   2.030   7.754  0.8776 -0.6348 -1.2123
 3107SOL    HW220958   2.556   2.052   7.627 -0.9384  0.4709 -0.1388
 3108SOL     OW20959   2.927   1.489   1.448  0.0135 -0.5839 -0.1428
 3108SOL    HW120960   2.964   1.400   1.454 -0.4183 -0.6984  0.7439
 3108SOL    HW220961   2.915   1.509   1.541  0.4960  0.5379 -0.3245
 3109SOL     OW20962   2.360   4.402   6.577  0.3013 -0.4125  0.0697
 3109SOL    HW120963   2.330   4.433   6.662 -0.9526 -0.4603 -0.3548
 3109SOL    HW220964   2.281   4.411   6.524 -0.6828 -1.4056  1.3556
 3110SOL     OW20965   3.754   3.289   2.121  0.4058  0.2289 -0.0426
 3110SOL    HW120966   3.846   3.312   2.132  0.2170  0.8670  0.2230
 3110SOL    HW220967   3.714   3.349   2.184  2.3627  0.6750  0.7703
 3111SOL     OW20968   4.650   3.213   0.520  0.2267  0.6670  0.5719
 3111SOL    HW120969   4.653   3.175   0.432  2.9613 -0.2488  1.0511
 3111SOL    HW220970   4.569   3.264   0.523 -0.7817 -0.7998 -2.2375
 3112SOL     OW20971   2.322   0.446   8.476  0.4481 -0.0102  0.2791
 3112SOL    HW120972   2.373   0.384   8.423  1.1640  1.3092 -0.5612
 3112SOL    HW220973   2.260   0.480   8.412 -0.2856 -0.4369  0.7601
 3113SOL     OW20974   3.919   3.888   3.966 -0.1816 -0.2153 -0.3967
 3113SOL    HW120975   3.990   3.914   3.907 -0.3259  0.1293 -0.4141
 3113SOL    HW220976   3.924   3.945   4.043 -1.5296  0.1794 -0.6084
 3114SOL     OW20977   3.676   2.999   3.624  0.2835 -0.5100 -0.4966
 3114SOL    HW120978   3.594   3.013   3.577  0.6601  0.8111 -0.7907
 3114SOL    HW220979   3.639   2.949   3.696  2.6900 -3.0125 -1.0031
 3115SOL     OW20980   0.837   3.386   5.843 -0.4340  0.3936 -0.1256
 3115SOL    HW120981   0.857   3.442   5.918 -0.3387  0.8948 -0.5301
 3115SOL    HW220982   0.926   3.355   5.831 -1.1941 -2.0474  0.6039
 3116SOL     OW20983   3.351   3.657   4.041 -0.0868 -0.2884  0.0624
 3116SOL    HW120984   3.288   3.721   4.009  0.1852 -0.3991 -0.7045
 3116SOL    HW220985   3.398   3.628   3.962 -2.2296  1.8360 -2.0077
 3117SOL     OW20986   0.811   3.181   3.846 -0.1589 -0.0224  0.6965
 3117SOL    HW120987   0.818   3.106   3.905 -3.3578 -0.1536  0.9443
 3117SOL    HW220988   0.861   3.146   3.772 -0.6702  1.6325 -0.4261
 3118SOL     OW20989   1.818   2.069   4.084  0.2080 -0.5795  0.5383
 3118SOL    HW120990   1.868   2.051   4.164  0.0426  0.7005  0.9311
 3118SOL    HW220991   1.893   2.092   4.029  0.5412 -0.2544  1.1321
 3119SOL     OW20992   0.616   4.259  11.507 -0.1373  0.3454 -0.3498
 3119SOL    HW120993   0.661   4.189  11.556 -0.4406  1.3445  1.3751
 3119SOL    HW220994   0.682   4.325  11.529  2.9041 -2.0552 -2.2163
 3120SOL     OW20995   3.716   2.660   3.476  0.0208 -0.0793 -0.0989
 3120SOL    HW120996   3.645   2.603   3.506  0.6610 -1.2179 -0.7039
 3120SOL    HW220997   3.685   2.701   3.395  2.8514 -0.8277 -1.6019
 3121SOL     OW20998   0.388   1.233   2.989 -0.2812 -0.1838  0.1350
 3121SOL    HW120999   0.401   1.326   3.010  0.3224 -0.5750  1.4875
 3121SOL    HW221000   0.468   1.224   2.937 -0.4813 -2.0837  0.1588
 3122SOL     OW21001   2.691   4.620   4.758  0.5928 -0.6997 -0.6145
 3122SOL    HW121002   2.657   4.556   4.695  0.5991  0.3223 -1.6642
 3122SOL    HW221003   2.771   4.644   4.711  0.2125 -1.2100 -1.5228
 3123SOL     OW21004   1.074   2.900   4.159  0.0960 -0.2979 -0.2592
 3123SOL    HW121005   1.118   2.935   4.236 -0.9635 -0.1137  0.2533
 3123SOL    HW221006   1.102   2.809   4.157  1.3056  0.0677 -0.1948
 3124SOL     OW21007   2.866   1.169   8.971 -0.4448 -0.6203 -0.2022
 3124SOL    HW121008   2.862   1.087   8.921  0.5783 -0.4447 -0.5618
 3124SOL    HW221009   2.807   1.136   9.039 -0.8785  0.3352 -0.1175
 3125SOL     OW21010   3.911   0.434   6.795  0.0046 -0.3697 -0.2286
 3125SOL    HW121011   3.935   0.347   6.764  2.0745  0.1876 -0.1645
 3125SOL    HW221012   3.949   0.493   6.730  0.8564  0.1813  0.7803
 3126SOL     OW21013   4.186   3.786  17.462  0.3104  0.3749  0.2764
 3126SOL    HW121014   4.221   3.700  17.481  1.1112  0.8474  0.9254
 3126SOL    HW221015   4.118   3.755  17.402 -0.2548  1.1733  0.4913
 3127SOL     OW21016   0.110   3.943   8.597  0.4507 -0.5347 -0.0390
 3127SOL    HW121017   0.030   3.975   8.638  0.7202  1.0626 -0.7617
 3127SOL    HW221018   0.172   3.955   8.669  2.4936  2.5839 -2.3015
 3128SOL     OW21019   2.372   3.467   8.329 -0.2845  0.2036 -0.0936
 3128SOL    HW121020   2.405   3.514   8.253  0.3529  1.3334  0.8928
 3128SOL    HW221021   2.301   3.529   8.346 -0.0025  0.6979 -0.7287
 3129SOL     OW21022   3.010   0.318   8.174  0.2995  0.0470  0.0105
 3129SOL    HW121023   2.926   0.283   8.204 -0.9449  1.1467 -2.1973
 3129SOL    HW221024   3.020   0.394   8.231  2.0109 -0.3703  0.2607
 3130SOL     OW21025   1.095   2.333   1.705 -0.2722  0.4689 -0.0729
 3130SOL    HW121026   1.046   2.324   1.623 -0.2061  0.3379 -0.0976
 3130SOL    HW221027   1.039   2.320   1.782  0.1110 -1.6895 -0.1640
 3131SOL     OW21028   3.815   2.245  15.230 -0.2497  0.0035 -0.3334
 3131SOL    HW121029   3.735   2.294  15.210 -2.5241 -3.6252 -0.2951
 3131SOL    HW221030   3.833   2.190  15.153 -2.1987  0.4441 -1.1152
 3132SOL     OW21031   2.787   1.314  14.525 -0.4006 -0.6004  0.5528
 3132SOL    HW121032   2.799   1.338  14.617  1.6728 -0.6167  0.2647
 3132SOL    HW221033   2.691   1.305  14.529 -0.3532 -0.7148  1.4365
 3133SOL     OW21034   0.648   0.602  16.687  0.4021  0.3397 -0.4530
 3133SOL    HW121035   0.623   0.672  16.747 -0.7004  1.0089 -1.7000
 3133SOL    HW221036   0.649   0.650  16.604 -2.2436  0.7420 -0.2440
 3134SOL     OW21037   0.410   2.033  12.357 -0.1316  0.3448 -0.4782
 3134SOL    HW121038   0.404   1.964  12.423 -2.6232 -0.6226 -1.7279
 3134SOL    HW221039   0.494   1.999  12.325 -0.1865  1.0054 -1.3440
 3135SOL     OW21040   1.676   3.136  11.919 -0.8907  0.2793  0.6158
 3135SOL    HW121041   1.748   3.185  11.959  0.3014 -2.5006  1.8608
 3135SOL    HW221042   1.674   3.176  11.832  1.3847  0.8083  0.8190
 3136SOL     OW21043   2.484   4.009   9.339 -0.1723  0.6329  0.4935
 3136SOL    HW121044   2.506   3.920   9.312  2.4678  1.2229  0.7082
 3136SOL    HW221045   2.421   3.991   9.408 -1.4000 -0.6279 -0.9695
 3137SOL     OW21046   0.176   3.591   4.117  0.1149 -0.2338  0.0352
 3137SOL    HW121047   0.240   3.527   4.145 -1.5506 -1.2400  1.4964
 3137SOL    HW221048   0.145   3.543   4.040  0.0892  1.3405 -0.9512
 3138SOL     OW21049   0.263   4.073   7.567  0.3706  0.2041  0.7573
 3138SOL    HW121050   0.353   4.076   7.598  0.2982 -2.0589  1.1499
 3138SOL    HW221051   0.252   3.987   7.526 -2.1039  2.3397 -3.1338
 3139SOL     OW21052   2.430   2.888   4.778  0.0015 -0.3152 -0.2070
 3139SOL    HW121053   2.385   2.920   4.700 -1.3254 -1.0565  0.2352
 3139SOL    HW221054   2.484   2.963   4.801 -2.1694  0.9490  0.7789
 3140SOL     OW21055   0.052   0.935   5.446  0.1301 -0.3432  0.1025
 3140SOL    HW121056   4.717   0.985   5.411  2.0412  3.2402  1.2181
 3140SOL    HW221057   0.017   0.909   5.531  2.3591 -2.7393  0.2783
 3141SOL     OW21058   1.154   3.223  11.513  0.4952 -0.0236 -0.3323
 3141SOL    HW121059   1.083   3.276  11.551  0.2529  1.3400 -2.6874
 3141SOL    HW221060   1.113   3.140  11.490 -1.4668  0.7502  0.3662
 3142SOL     OW21061   0.793   2.143   5.832  0.0202 -0.3303 -0.4254
 3142SOL    HW121062   0.832   2.124   5.916  0.9218  0.9095 -0.5609
 3142SOL    HW221063   0.706   2.103   5.824  0.4070 -0.9436 -1.5288
 3143SOL     OW21064   2.807   0.706   9.375  0.2735 -0.1320  0.2072
 3143SOL    HW121065   2.858   0.786   9.360 -0.7821  0.4788 -0.1380
 3143SOL    HW221066   2.758   0.693   9.294  0.9896  0.5058 -0.3248
 3144SOL     OW21067   3.852   1.296   3.715 -0.1831  0.1974 -0.3285
 3144SOL    HW121068   3.763   1.330   3.710 -0.2084 -0.2510 -2.9107
 3144SOL    HW221069   3.884   1.360   3.779 -0.2293  0.2416 -0.3497
 3145SOL     OW21070   3.293   1.202   5.736 -0.2224 -0.6172 -0.3560
 3145SOL    HW121071   3.249   1.287   5.728 -0.2103 -0.7493 -1.7805
 3145SOL    HW221072   3.337   1.187   5.652  0.4910 -1.3413  0.1487
 3146SOL     OW21073   4.358   3.191   2.846  0.4270 -0.1801 -0.0629
 3146SOL    HW121074   4.317   3.234   2.771 -2.0499 -0.4380  1.1127
 3146SOL    HW221075   4.347   3.100   2.818 -0.1776  0.2069 -1.0646
 3147SOL     OW21076   1.725   2.619  10.999  0.0016  0.4727 -0.2215
 3147SOL    HW121077   1.794   2.618  11.065  0.9242  0.2676 -1.1896
 3147SOL    HW221078   1.775   2.626  10.918  2.7267  0.5533  1.4545
 3148SOL     OW21079   3.896   0.727   4.575  0.0524 -0.2345  0.0115
 3148SOL    HW121080   3.859   0.800   4.525 -0.0466 -0.6926 -0.5862
 3148SOL    HW221081   3.830   0.658   4.568 -0.7253  0.4313  0.6779
 3149SOL     OW21082   4.287   0.767   8.197 -0.0648  0.4567 -0.0792
 3149SOL    HW121083   4.303   0.677   8.169  0.9325  0.1941  1.3248
 3149SOL    HW221084   4.288   0.809   8.111 -0.8745  4.0165  1.6614
 3150SOL     OW21085   1.227   3.522   1.305  0.4176 -0.1403 -0.2546
 3150SOL    HW121086   1.242   3.611   1.274  1.7197  0.3748  1.8218
 3150SOL    HW221087   1.308   3.496   1.260  1.3077  0.8656  0.7650
 3151SOL     OW21088   3.701   1.982   5.931 -0.7533 -0.4355 -0.9624
 3151SOL    HW121089   3.758   1.951   6.002 -0.4433  0.7563 -0.7015
 3151SOL    HW221090   3.642   1.908   5.914 -2.3551  0.1141  2.2084
 3152SOL     OW21091   4.709   1.331   8.010  0.0259 -0.3822 -0.5711
 3152SOL    HW121092   4.723   1.274   7.934  1.4718  1.5986 -1.8043
 3152SOL    HW221093   4.714   1.420   7.973 -4.0949  1.0091  2.2196
 3153SOL     OW21094   2.959   1.200   0.325  0.0999 -0.2646  0.1848
 3153SOL    HW121095   2.954   1.182   0.419  0.3799 -0.3423  0.1843
 3153SOL    HW221096   2.869   1.185   0.297  0.0883 -2.4171  1.4239
 3154SOL     OW21097   1.143   3.516   7.282 -0.5577 -0.7711 -0.0301
 3154SOL    HW121098   1.219   3.474   7.324  1.1828  0.0582 -2.3445
 3154SOL    HW221099   1.191   3.587   7.239 -0.5964 -0.7186  0.0141
 3155SOL     OW21100   3.246   2.040  15.323 -0.2115 -0.2772  0.3153
 3155SOL    HW121101   3.238   2.046  15.418  0.1339  1.7383  0.2219
 3155SOL    HW221102   3.336   2.011  15.309 -0.0632 -0.3933  1.4928
 3156SOL     OW21103   4.557   2.031   7.407  0.2528  0.5339 -0.1412
 3156SOL    HW121104   4.497   2.058   7.477  0.6425  2.2621 -0.4826
 3156SOL    HW221105   4.615   1.981   7.464  1.1962  1.5188 -0.2513
 3157SOL     OW21106   4.024   3.911  11.181  0.3554 -0.0966 -0.2795
 3157SOL    HW121107   4.108   3.866  11.184  1.5224  2.1635  0.9371
 3157SOL    HW221108   3.965   3.845  11.215 -1.4822  1.2442 -0.8525
 3158SOL     OW21109   0.991   1.168   7.446 -0.3762  0.4011  0.1544
 3158SOL    HW121110   1.002   1.263   7.442  0.6429  0.2798  0.0700
 3158SOL    HW221111   0.901   1.179   7.475 -0.9486 -1.2899 -0.9893
 3159SOL     OW21112   2.110   2.918  16.630 -0.4377  0.3393  0.6547
 3159SOL    HW121113   2.078   2.879  16.712  1.1859 -0.7123  0.7828
 3159SOL    HW221114   2.204   2.920  16.649 -0.3242  1.7518  0.0020
 3160SOL     OW21115   1.509   4.086   7.470 -0.0423 -0.1917  0.0970
 3160SOL    HW121116   1.429   4.115   7.514  0.5316 -1.1809  1.7928
 3160SOL    HW221117   1.516   3.991   7.482  0.2598 -0.2998 -0.9001
 3161SOL     OW21118   3.345   1.841   8.398  0.6457  0.5647 -0.0007
 3161SOL    HW121119   3.342   1.779   8.325 -2.9929  0.0689  0.5363
 3161SOL    HW221120   3.434   1.824   8.428  0.8682  2.0231  0.1685
 3162SOL     OW21121   0.666   3.416   9.959 -0.0850  0.5780 -0.1057
 3162SOL    HW121122   0.759   3.396   9.952 -0.3246 -0.8820  0.8178
 3162SOL    HW221123   0.657   3.428  10.053  1.6489 -0.8897  0.2414
 3163SOL     OW21124   3.125   2.370   2.818 -0.0253 -0.0999 -0.5444
 3163SOL    HW121125   3.109   2.390   2.726  1.2230  0.4057 -0.6530
 3163SOL    HW221126   3.071   2.295   2.844  0.2714 -0.8773 -2.1531
 3164SOL     OW21127   4.201   1.582   1.443 -1.0331 -0.5356  0.0841
 3164SOL    HW121128   4.202   1.672   1.475  0.4814 -0.6232  0.2880
 3164SOL    HW221129   4.264   1.544   1.504  1.0264  3.6902  0.5452
 3165SOL     OW21130   2.044   3.041   3.431 -0.1610  0.0131  0.1960
 3165SOL    HW121131   1.969   3.038   3.491 -0.2140  0.7580  0.1677
 3165SOL    HW221132   2.115   3.020   3.491  0.6642  1.0542 -0.4123
 3166SOL     OW21133   4.418   0.094   2.728  0.0648  0.1706  0.3822
 3166SOL    HW121134   4.439   0.001   2.720 -1.1370  0.0292 -1.0538
 3166SOL    HW221135   4.375   0.115   2.646 -1.0546 -1.2032  0.6171
 3167SOL     OW21136   0.126   4.210   4.057 -0.3713 -0.1706  0.0108
 3167SOL    HW121137   0.037   4.211   4.093 -0.2315 -1.6825  0.3595
 3167SOL    HW221138   0.153   4.119   4.054 -0.0355 -0.0343 -1.1501
 3168SOL     OW21139   1.747   3.249  11.673  0.1640 -0.8670  0.0575
 3168SOL    HW121140   1.677   3.314  11.669  1.0716  0.0889 -0.6366
 3168SOL    HW221141   1.820   3.308  11.692 -1.2911  1.0988 -0.4633
 3169SOL     OW21142   4.547   1.949   4.650 -0.0201  0.0203  0.5522
 3169SOL    HW121143   4.491   1.984   4.719 -1.6196 -2.6685  0.6333
 3169SOL    HW221144   4.577   2.032   4.613  1.0045  0.2861  1.9838
 3170SOL     OW21145   3.614   3.629   4.263  0.8101 -0.6034 -0.0562
 3170SOL    HW121146   3.699   3.629   4.218  1.0667  0.4096  0.4472
 3170SOL    HW221147   3.572   3.708   4.231 -1.8602 -1.8390  0.4295
 3171SOL     OW21148   1.652   1.655   8.834 -0.2362  0.3406 -0.4061
 3171SOL    HW121149   1.702   1.635   8.755  0.6878 -1.2373  0.5732
 3171SOL    HW221150   1.636   1.750   8.834  1.7791  0.6851 -0.5152
 3172SOL     OW21151   1.261   2.173   4.149  0.6355 -0.1427  0.5160
 3172SOL    HW121152   1.217   2.096   4.113 -0.1012 -0.0795  1.2707
 3172SOL    HW221153   1.346   2.137   4.172 -0.2554 -1.4662  1.7407
 3173SOL     OW21154   2.982   3.569   1.155 -0.3381 -0.7178  0.6467
 3173SOL    HW121155   2.923   3.608   1.219  0.1281 -0.3298  0.8423
 3173SOL    HW221156   3.053   3.552   1.218  1.5362 -0.6610 -1.4513
 3174SOL     OW21157   4.598   2.652  12.922  0.3492  0.0148  0.8195
 3174SOL    HW121158   4.509   2.615  12.928  0.2700  0.1879  0.6864
 3174SOL    HW221159   4.652   2.576  12.945 -2.3052 -2.0887  0.1789
 3175SOL     OW21160   0.708   2.173   7.236 -0.0050 -0.6684  0.0642
 3175SOL    HW121161   0.695   2.234   7.164 -1.3680 -3.8098 -2.3133
 3175SOL    HW221162   0.693   2.218   7.320 -3.3608 -1.8069  0.0848
 3176SOL     OW21163   3.310   2.446   2.998  0.0859 -0.4464 -0.0295
 3176SOL    HW121164   3.220   2.420   2.975 -0.2412  0.9310 -0.3184
 3176SOL    HW221165   3.294   2.519   3.058 -1.9640 -1.4994  0.7093
 3177SOL     OW21166   3.373   0.216   0.782 -0.3617  0.0686 -0.2451
 3177SOL    HW121167   3.359   0.309   0.767 -1.3182  0.0281  0.4158
 3177SOL    HW221168   3.426   0.186   0.708  1.1772  0.7830  0.5715
 3178SOL     OW21169   3.440   3.129   5.172  0.0527  0.0464 -0.2054
 3178SOL    HW121170   3.403   3.207   5.130  0.1610  0.4423  0.4334
 3178SOL    HW221171   3.531   3.154   5.156 -0.2260  0.5049 -1.0708
 3179SOL     OW21172   0.558   4.514   6.018  0.0089  1.1062 -0.0298
 3179SOL    HW121173   0.604   4.495   5.936  0.6028  0.5404  0.4326
 3179SOL    HW221174   0.636   4.511   6.075 -1.0633  0.3240  1.3835
 3180SOL     OW21175   0.483   1.122   4.435  0.1161 -0.3639 -0.3510
 3180SOL    HW121176   0.542   1.173   4.490 -0.4616  0.5781 -0.6044
 3180SOL    HW221177   0.401   1.158   4.468  1.0533  1.0843  0.3591
 3181SOL     OW21178   3.118   1.479   1.063  0.1843  0.0236 -0.7860
 3181SOL    HW121179   3.031   1.482   1.024  0.7299  0.3876 -1.9753
 3181SOL    HW221180   3.177   1.472   0.988  2.0982 -2.8711  0.9742
 3182SOL     OW21181   1.233   0.099   4.215  0.4599 -0.1479  0.2248
 3182SOL    HW121182   1.297   0.131   4.152 -0.3912  1.7551  0.3355
 3182SOL    HW221183   1.294   0.046   4.266 -2.1555 -2.3885  1.0118
 3183SOL     OW21184   2.073   1.954   6.882  0.7857 -0.0409 -0.2843
 3183SOL    HW121185   2.039   1.973   6.969 -0.1805 -1.1534 -0.4200
 3183SOL    HW221186   2.117   1.868   6.885 -2.6963 -1.8819 -2.2093
 3184SOL     OW21187   4.469   4.359   1.214 -0.6625 -0.2723  0.1289
 3184SOL    HW121188   4.475   4.294   1.284 -2.2089 -0.2987  0.2404
 3184SOL    HW221189   4.462   4.438   1.268 -0.4050  0.0384 -0.2982
 3185SOL     OW21190   0.784   1.836  16.946 -0.4401  0.6703  0.1782
 3185SOL    HW121191   0.772   1.753  16.901  0.6151  1.5231 -1.6887
 3185SOL    HW221192   0.843   1.805  17.015 -0.5078  0.1230 -0.0099
 3186SOL     OW21193   3.292   0.489  17.313  0.3634 -0.3256  0.6051
 3186SOL    HW121194   3.247   0.514  17.233 -0.9886  0.6986  1.6673
 3186SOL    HW221195   3.307   0.397  17.295  2.4479  0.1400 -0.0679
 3187SOL     OW21196   1.388   0.142  13.943  0.3502  0.3998 -0.0059
 3187SOL    HW121197   1.437   0.162  13.863 -0.8775 -0.5033 -0.9816
 3187SOL    HW221198   1.460   0.173  13.998  1.3478 -3.3037  0.7993
 3188SOL     OW21199   4.313   3.571   2.407 -0.1021 -0.1950  0.0363
 3188SOL    HW121200   4.220   3.554   2.419  0.0660 -1.1252  0.0274
 3188SOL    HW221201   4.344   3.511   2.340 -2.7595 -0.2991 -1.1091
 3189SOL     OW21202   2.393   0.036   2.404 -0.0419  0.4133  0.6120
 3189SOL    HW121203   2.364   4.734   2.486  1.2742 -1.8099 -0.0119
 3189SOL    HW221204   2.474   0.074   2.437 -0.1171 -0.4024  1.7497
 3190SOL     OW21205   2.666   1.690   0.353 -0.1307 -0.3224 -0.0878
 3190SOL    HW121206   2.677   1.595   0.359 -0.9536 -0.4703 -0.9067
 3190SOL    HW221207   2.682   1.696   0.259 -2.0320  0.1813 -0.3835
 3191SOL     OW21208   1.495   2.195   4.788  0.3145 -0.1431 -0.1782
 3191SOL    HW121209   1.444   2.119   4.815  0.2186 -0.0497 -0.1023
 3191SOL    HW221210   1.505   2.169   4.696  0.7416 -2.3174  0.4798
 3192SOL     OW21211   3.144   0.504   1.562 -0.6070  0.0952 -0.0616
 3192SOL    HW121212   3.179   0.500   1.651  0.5368 -1.7423 -0.6087
 3192SOL    HW221213   3.050   0.501   1.579 -0.2970 -2.2485  1.2402
 3193SOL     OW21214   0.642   4.289  15.233 -0.3767 -0.1076 -0.0201
 3193SOL    HW121215   0.659   4.357  15.168  0.9591  0.2959  0.7498
 3193SOL    HW221216   0.718   4.286  15.291 -0.4907 -0.9588  0.0888
 3194SOL     OW21217   4.533   0.391   9.728 -0.0681  0.5421 -0.1675
 3194SOL    HW121218   4.605   0.337   9.695  0.0409 -0.7244  2.1455
 3194SOL    HW221219   4.462   0.326   9.728 -1.4258  2.0205  0.2413
 3195SOL     OW21220   1.065   3.250   4.494  0.3009 -0.0322 -0.2826
 3195SOL    HW121221   1.015   3.325   4.463 -0.9319 -0.3827  0.8459
 3195SOL    HW221222   1.095   3.218   4.409  1.5275 -2.1158  0.9311
 3196SOL     OW21223   2.273   0.707   1.776 -0.4460 -0.0023  0.1258
 3196SOL    HW121224   2.178   0.702   1.766 -0.5505 -0.6308  1.3254
 3196SOL    HW221225   2.294   0.616   1.753 -1.3502  0.2054 -1.5182
 3197SOL     OW21226   1.783   2.827   7.115  0.5141  0.1438 -0.3573
 3197SOL    HW121227   1.745   2.851   7.030  0.9309  0.0109 -0.5849
 3197SOL    HW221228   1.719   2.770   7.157  0.5145  0.7750  0.5019
 3198SOL     OW21229   4.522   0.126   3.213  0.3469 -0.0074  0.2129
 3198SOL    HW121230   4.444   0.124   3.158  0.2250  0.3499  0.3759
 3198SOL    HW221231   4.571   0.200   3.178  2.1944  0.5599  4.0292
 3199SOL     OW21232   4.241   3.356   9.306 -0.1898 -0.2337 -0.1121
 3199SOL    HW121233   4.201   3.320   9.386 -0.7629 -1.8607 -1.1367
 3199SOL    HW221234   4.308   3.416   9.340  0.1066 -0.1168 -0.9125
 3200SOL     OW21235   2.745   2.823  10.702  0.1433 -0.5246  0.5400
 3200SOL    HW121236   2.660   2.809  10.660  0.2859  0.8462 -0.2168
 3200SOL    HW221237   2.808   2.844  10.633  0.4155  3.0919  1.8677
 3201SOL     OW21238   3.257   4.341  17.138 -0.3689 -0.4618  0.3133
 3201SOL    HW121239   3.179   4.394  17.123  0.5080  0.2446 -1.7668
 3201SOL    HW221240   3.257   4.338  17.234 -2.4100  0.1602  0.3428
 3202SOL     OW21241   1.688   1.755  15.671  0.3650 -0.1468 -0.3145
 3202SOL    HW121242   1.688   1.843  15.707  4.0222 -0.7220  1.0212
 3202SOL    HW221243   1.656   1.775  15.583  0.9916 -0.9157 -0.7132
 3203SOL     OW21244   3.158   3.620  15.286 -0.5371 -0.3720 -0.2694
 3203SOL    HW121245   3.130   3.708  15.262  1.7303  0.5444  0.4200
 3203SOL    HW221246   3.212   3.606  15.208  0.2294 -1.7952  0.5125
 3204SOL     OW21247   4.192   4.374   1.505 -0.4537 -0.3500  0.2724
 3204SOL    HW121248   4.206   4.468   1.515 -1.7774 -0.4076  2.8780
 3204SOL    HW221249   4.280   4.339   1.491  0.3940  1.7605  0.3905
 3205SOL     OW21250   4.046   4.026   6.932 -0.5854  0.3752  0.0209
 3205SOL    HW121251   4.129   4.068   6.909 -0.3846 -0.1545 -0.2311
 3205SOL    HW221252   3.983   4.098   6.940 -0.0286  0.7926  0.7313
 3206SOL     OW21253   0.318   3.435   0.311 -0.0291  0.5899 -0.1723
 3206SOL    HW121254   0.294   3.356   0.261  2.1569 -0.5189  0.5450
 3206SOL    HW221255   0.314   3.502   0.242 -1.3821 -0.3366 -1.0123
 3207SOL     OW21256   1.669   3.909  16.568  0.3919  0.2610 -0.2653
 3207SOL    HW121257   1.647   3.999  16.546 -1.8127 -0.5688 -1.4404
 3207SOL    HW221258   1.674   3.914  16.664  2.6156  3.1878 -0.5428
 3208SOL     OW21259   4.502   2.122  16.017 -0.0763  0.5618 -0.4835
 3208SOL    HW121260   4.495   2.176  16.096  0.4013 -2.0698  1.3433
 3208SOL    HW221261   4.411   2.114  15.988 -0.2497 -0.5870  0.3671
 3209SOL     OW21262   2.911   0.795   2.295 -0.0311 -0.2644  0.0769
 3209SOL    HW121263   2.880   0.785   2.205 -1.9921 -1.4345  0.8737
 3209SOL    HW221264   3.005   0.791   2.278  0.2605  2.6295  0.8985
 3210SOL     OW21265   1.759   1.964   8.502  0.9863  0.1812 -0.3118
 3210SOL    HW121266   1.794   2.053   8.510 -1.6270  1.0852  1.3123
 3210SOL    HW221267   1.750   1.941   8.594 -0.6664 -0.6058 -0.6637
 3211SOL     OW21268   4.225   1.413   0.070  0.0873 -0.6890 -0.2945
 3211SOL    HW121269   4.235   1.322   0.042  1.2188 -0.8449  0.6366
 3211SOL    HW221270   4.195   1.398   0.159 -1.8535 -3.0730 -1.3586
 3212SOL     OW21271   1.085   2.122   5.150 -0.3612  0.4020  0.4203
 3212SOL    HW121272   1.020   2.192   5.146 -1.0037 -0.2420 -0.2843
 3212SOL    HW221273   1.043   2.061   5.210  1.0760  0.3055  1.3339
 3213SOL     OW21274   0.097   4.407   3.327  0.6785  0.1247  0.1260
 3213SOL    HW121275   0.126   4.321   3.297  1.1844  0.6908 -1.0138
 3213SOL    HW221276   0.006   4.421   3.301  0.4803 -1.0318  0.1850
 3214SOL     OW21277   2.495   3.771  12.374 -0.0852 -0.2052  0.4650
 3214SOL    HW121278   2.571   3.723  12.342 -0.1458  0.2676 -0.3799
 3214SOL    HW221279   2.541   3.850  12.402 -1.1962  0.3278  0.8284
 3215SOL     OW21280   1.115   0.962   8.432  0.2996 -0.3886 -0.5278
 3215SOL    HW121281   1.112   0.971   8.528  0.2954  1.1636 -0.6777
 3215SOL    HW221282   1.027   0.925   8.420 -0.0567  0.0260  0.7037
 3216SOL     OW21283   0.270   4.090   5.576 -0.3841  0.0028 -0.3639
 3216SOL    HW121284   0.285   4.035   5.499  0.1642 -1.1799  0.6011
 3216SOL    HW221285   0.228   4.022   5.628  2.3720 -1.4230  0.0087
 3217SOL     OW21286   3.146   2.509  10.713 -0.1394  0.0078  0.5167
 3217SOL    HW121287   3.206   2.436  10.700 -0.9585 -0.5981  0.1604
 3217SOL    HW221288   3.172   2.528  10.803  2.8388 -1.0302 -0.1378
 3218SOL     OW21289   3.318   1.988   7.326 -0.3809 -0.1616 -0.4040
 3218SOL    HW121290   3.285   2.077   7.316 -0.2167 -0.0272  0.2183
 3218SOL    HW221291   3.403   1.995   7.283 -0.8375 -1.1290 -1.4611
 3219SOL     OW21292   2.732   4.690   3.151  0.4763 -0.1037  0.1503
 3219SOL    HW121293   2.691   4.710   3.235 -1.7797  0.8184 -1.1795
 3219SOL    HW221294   2.783   0.032   3.143  1.2214 -0.4264  1.5905
 3220SOL     OW21295   3.504   3.370   0.990 -0.1762 -0.1758 -0.1690
 3220SOL    HW121296   3.448   3.335   1.059  0.8831  0.1771  0.8849
 3220SOL    HW221297   3.590   3.334   1.012 -1.8688 -2.5915  2.4845
 3221SOL     OW21298   3.078   3.915   2.251  0.3592 -0.5166 -0.4738
 3221SOL    HW121299   3.165   3.874   2.253  0.5502 -0.1196 -0.7561
 3221SOL    HW221300   3.048   3.888   2.165  1.2319 -1.1573 -0.5839
 3222SOL     OW21301   1.045   3.669   5.528 -0.2180 -0.6415  0.3161
 3222SOL    HW121302   0.974   3.705   5.580 -1.9091 -1.0585 -1.6987
 3222SOL    HW221303   1.115   3.734   5.535 -0.9218  0.3086 -1.3917
 3223SOL     OW21304   0.688   1.672   8.449 -0.2384  0.0374  0.1044
 3223SOL    HW121305   0.775   1.680   8.410 -0.7459 -0.7822 -1.2006
 3223SOL    HW221306   0.673   1.753   8.497  1.7929 -0.5847  1.7601
 3224SOL     OW21307   0.675   2.644   2.053 -0.4639 -0.9082  0.8266
 3224SOL    HW121308   0.692   2.618   1.963  0.0790 -1.0551  0.9734
 3224SOL    HW221309   0.759   2.686   2.069 -1.1891 -0.1481  2.5914
 3225SOL     OW21310   3.191   0.034  11.121 -0.7485  0.1189 -0.3561
 3225SOL    HW121311   3.281   0.009  11.102 -1.1361 -0.8308 -0.9509
 3225SOL    HW221312   3.169   0.077  11.038 -1.2230 -0.2106 -0.4043
 3226SOL     OW21313   3.796   1.615   9.685  0.5934 -0.0322  0.0098
 3226SOL    HW121314   3.797   1.640   9.593 -1.6509 -0.5569 -0.1652
 3226SOL    HW221315   3.748   1.691   9.718 -1.5086 -1.5603  0.4999
 3227SOL     OW21316   1.638   1.623   8.199 -0.2491  0.5547 -0.2250
 3227SOL    HW121317   1.636   1.601   8.292  1.7969 -0.6133 -0.4598
 3227SOL    HW221318   1.724   1.665   8.203 -0.3800  0.6596  1.5200
 3228SOL     OW21319   2.838   1.934   3.598 -0.4749 -0.3406 -0.1672
 3228SOL    HW121320   2.861   1.996   3.667  0.2111 -0.2044 -0.5116
 3228SOL    HW221321   2.899   1.864   3.625  2.5312  2.1112 -0.5776
 3229SOL     OW21322   0.982   0.173   4.122 -0.5259 -0.4526  0.0271
 3229SOL    HW121323   1.073   0.150   4.141 -0.4428 -1.0655 -1.1273
 3229SOL    HW221324   0.933   0.097   4.152 -2.4487  1.1104  0.8102
 3230SOL     OW21325   4.335   2.056   6.530 -0.0975  0.2584  0.0855
 3230SOL    HW121326   4.366   2.090   6.614  0.0319 -0.0399  0.1588
 3230SOL    HW221327   4.413   2.052   6.475 -0.4765 -0.0452 -0.4267
 3231SOL     OW21328   3.960   4.094  12.197 -0.3008 -0.2056  0.2280
 3231SOL    HW121329   4.049   4.090  12.161  0.2621 -0.0296  1.6077
 3231SOL    HW221330   3.987   4.133  12.280 -2.0864  2.1716 -0.3438
 3232SOL     OW21331   4.232   0.174   6.832 -0.5714 -0.0019 -0.4729
 3232SOL    HW121332   4.262   0.212   6.749 -1.1510  0.6095 -0.4043
 3232SOL    HW221333   4.305   0.203   6.886 -2.1910  0.0179  1.6988
 3233SOL     OW21334   4.726   4.067   1.764 -0.0914 -0.5612  0.0823
 3233SOL    HW121335   4.658   4.131   1.744  0.7303  0.4136  0.4134
 3233SOL    HW221336   0.034   4.096   1.842  0.2721  0.6841 -0.5954
 3234SOL     OW21337   0.483   2.581   8.067 -0.0220 -0.3000 -0.1546
 3234SOL    HW121338   0.481   2.672   8.096  0.7600  0.3705 -2.1894
 3234SOL    HW221339   0.472   2.589   7.973  0.0328 -3.3226 -0.4240
 3235SOL     OW21340   3.731   1.632   2.161 -0.0629 -0.3833 -0.1162
 3235SOL    HW121341   3.744   1.595   2.248  0.0940 -1.1671 -0.4760
 3235SOL    HW221342   3.801   1.594   2.109  1.2891  1.6617  0.2023
 3236SOL     OW21343   2.622   2.066   4.840  0.8210 -0.2380  0.5448
 3236SOL    HW121344   2.544   2.103   4.799  0.7494 -3.2024 -2.0491
 3236SOL    HW221345   2.689   2.076   4.772 -1.5286  0.7068 -1.6035
 3237SOL     OW21346   0.913   3.649  17.070 -0.1920  0.2072 -0.1614
 3237SOL    HW121347   0.944   3.579  17.128  1.1225  1.3036  0.4422
 3237SOL    HW221348   0.894   3.605  16.987 -0.6447  1.8274 -0.8996
 3238SOL     OW21349   3.325   2.268   4.849 -0.3710 -0.1532 -0.0001
 3238SOL    HW121350   3.242   2.232   4.817 -1.4675  0.7579  1.8094
 3238SOL    HW221351   3.370   2.276   4.765 -0.7442  1.4915 -0.0344
 3239SOL     OW21352   1.403   1.813   2.404 -0.0378 -0.0164  0.1685
 3239SOL    HW121353   1.363   1.864   2.474 -0.7854  0.8265 -0.8709
 3239SOL    HW221354   1.333   1.754   2.375  0.4148 -0.5725  0.2204
 3240SOL     OW21355   1.742   3.291  11.106  0.2690 -0.1611 -0.5949
 3240SOL    HW121356   1.766   3.266  11.195 -0.3980 -0.9383 -0.6303
 3240SOL    HW221357   1.825   3.323  11.073  0.8311  0.0593  1.0417
 3241SOL     OW21358   1.608   3.129  12.768 -1.0164 -0.0690 -0.1283
 3241SOL    HW121359   1.654   3.045  12.776  0.9868  0.9908 -0.4586
 3241SOL    HW221360   1.593   3.153  12.859 -1.4355  0.6772 -0.3978
 3242SOL     OW21361   3.866   2.654   1.114 -0.0253  0.0399  0.4103
 3242SOL    HW121362   3.778   2.685   1.095  0.0612  0.4382  0.6554
 3242SOL    HW221363   3.899   2.644   1.025 -2.2093 -4.9734  0.1875
 3243SOL     OW21364   3.736   4.324  15.361  0.4452  0.1295  0.1021
 3243SOL    HW121365   3.667   4.390  15.347  2.7949  2.4930 -0.4238
 3243SOL    HW221366   3.733   4.276  15.279  2.3606  1.5678 -0.7986
 3244SOL     OW21367   1.197   4.463   8.106 -0.1455  0.3061  0.0742
 3244SOL    HW121368   1.193   4.467   8.201  1.9291  2.0145  0.0781
 3244SOL    HW221369   1.284   4.500   8.097 -1.0807  1.8116 -2.9614
 3245SOL     OW21370   1.630   0.846   6.633 -0.6953  0.1269  0.2146
 3245SOL    HW121371   1.666   0.930   6.662 -0.9327  0.3318 -0.0912
 3245SOL    HW221372   1.585   0.868   6.552  0.9818 -0.3037 -0.8413
 3246SOL     OW21373   0.504   3.090   6.309 -0.6414  0.4017  0.5877
 3246SOL    HW121374   0.497   2.995   6.309 -0.6418  0.4051 -1.6901
 3246SOL    HW221375   0.496   3.098   6.404  1.3158 -1.4349  0.9063
 3247SOL     OW21376   0.710   4.335   0.574 -0.2321 -0.1645 -0.2187
 3247SOL    HW121377   0.693   4.412   0.520  1.5619  0.8342  0.6435
 3247SOL    HW221378   0.751   4.378   0.649  0.2393  0.8772 -1.0688
 3248SOL     OW21379   0.532   1.306   8.014  0.1504  0.6306 -0.0996
 3248SOL    HW121380   0.478   1.228   8.029 -1.2477  1.5030 -0.5300
 3248SOL    HW221381   0.611   1.265   7.982  0.4485 -0.9666  2.7083
 3249SOL     OW21382   2.565   3.839   2.601 -0.7388 -0.4035  0.4275
 3249SOL    HW121383   2.641   3.889   2.631  0.5658 -2.0871 -0.0395
 3249SOL    HW221384   2.605   3.792   2.527 -3.5080 -0.3999 -1.0611
 3250SOL     OW21385   3.682   3.022  14.899  0.2054  0.2146  0.2878
 3250SOL    HW121386   3.612   2.959  14.914  0.3451 -0.4898 -2.1190
 3250SOL    HW221387   3.636   3.105  14.909  2.4111  1.7004 -2.0314
 3251SOL     OW21388   3.484   3.950   8.962 -0.0692  0.3175  0.5855
 3251SOL    HW121389   3.485   3.934   8.868  1.0066 -0.4734  0.7342
 3251SOL    HW221390   3.564   4.003   8.960  1.4140 -1.8828  2.1215
 3252SOL     OW21391   0.651   0.275   9.021 -0.2547 -0.1975 -0.1878
 3252SOL    HW121392   0.622   0.351   9.071 -0.9951 -2.1461  2.3058
 3252SOL    HW221393   0.597   0.210   9.065  0.7420 -2.3331 -2.1489
 3253SOL     OW21394   3.239   2.980  11.615 -0.0055 -0.7625 -0.5010
 3253SOL    HW121395   3.226   2.895  11.572  1.0414 -1.1851  0.0285
 3253SOL    HW221396   3.147   3.007  11.623 -0.1693 -1.0756 -1.3534
 3254SOL     OW21397   3.243   0.563   3.712  0.2880  0.1752  0.0080
 3254SOL    HW121398   3.264   0.563   3.805  3.6902  0.9228 -0.7416
 3254SOL    HW221399   3.290   0.484   3.685  1.3394  0.2937  1.4791
 3255SOL     OW21400   3.275   1.507   6.058 -0.5367  0.3057 -0.0170
 3255SOL    HW121401   3.340   1.461   6.005 -0.1003  1.1596 -0.2330
 3255SOL    HW221402   3.327   1.585   6.077 -0.9665  1.1544 -2.3013
 3256SOL     OW21403   0.807   1.051   1.113 -0.1448  0.2851 -0.2988
 3256SOL    HW121404   0.757   1.132   1.118 -0.3360  0.2916 -2.6050
 3256SOL    HW221405   0.889   1.084   1.148  0.4917  0.0917 -1.6114
 3257SOL     OW21406   4.068   3.410   1.818  0.5465  0.2403  0.0789
 3257SOL    HW121407   4.075   3.488   1.763  0.6995 -1.4118 -2.2339
 3257SOL    HW221408   4.086   3.443   1.906  0.9051  0.5198 -0.1031
 3258SOL     OW21409   0.809   1.723  12.394 -0.0440  0.1560  0.2127
 3258SOL    HW121410   0.829   1.708  12.486 -0.4776  0.9988  0.4483
 3258SOL    HW221411   0.885   1.764  12.353  2.0338 -2.1239  1.8606
 3259SOL     OW21412   1.690   2.866  12.099 -0.2402 -0.2348  0.2291
 3259SOL    HW121413   1.749   2.865  12.174 -1.0841 -2.3366  0.8437
 3259SOL    HW221414   1.673   2.960  12.095  0.2767 -0.1589 -0.2466
 3260SOL     OW21415   1.714   4.081  11.890  0.7527  0.2227  0.1466
 3260SOL    HW121416   1.640   4.139  11.909 -0.5482 -1.0240 -1.0619
 3260SOL    HW221417   1.690   4.039  11.807  2.3345  0.9296 -0.6689
 3261SOL     OW21418   3.919   4.078  13.566  0.8659  0.2220  0.1573
 3261SOL    HW121419   3.856   4.100  13.497  1.1677  0.6044  0.0065
 3261SOL    HW221420   3.883   3.990  13.577 -0.0929  0.3037 -2.2352
 3262SOL     OW21421   2.290   3.994   5.427 -0.0121  0.2141  0.3165
 3262SOL    HW121422   2.220   3.997   5.492 -1.3873  0.0234 -1.1723
 3262SOL    HW221423   2.338   4.076   5.439  0.9048 -0.2825  0.1147
 3263SOL     OW21424   2.473   0.942   7.847  0.2571  0.3363  0.5024
 3263SOL    HW121425   2.505   1.032   7.856  0.4717  0.4644 -1.5522
 3263SOL    HW221426   2.558   0.897   7.855 -0.3934 -0.4869  2.8752
 3264SOL     OW21427   3.757   2.345  17.232  0.6552 -0.1345 -0.2951
 3264SOL    HW121428   3.663   2.344  17.216  0.8453 -0.7056 -1.3586
 3264SOL    HW221429   3.795   2.291  17.163  3.9339  1.1781  0.4769
 3265SOL     OW21430   2.494   2.293   7.727  0.1171 -0.1540  0.2592
 3265SOL    HW121431   2.553   2.235   7.776  1.4788  0.3316 -0.7835
 3265SOL    HW221432   2.425   2.306   7.791  0.5091  1.6374  0.3045
 3266SOL     OW21433   3.518   2.480   1.295  0.1363 -0.2082 -0.5363
 3266SOL    HW121434   3.594   2.477   1.353 -0.4194  0.1219  0.1986
 3266SOL    HW221435   3.473   2.554   1.335  1.5477  1.6344 -2.3330
 3267SOL     OW21436   4.508   4.209   8.843 -0.0915 -0.7484  0.6325
 3267SOL    HW121437   4.455   4.245   8.772  1.0813  0.5697  0.4173
 3267SOL    HW221438   4.577   4.276   8.839 -1.2384  0.3360 -1.3788
 3268SOL     OW21439   3.351   0.280   3.111 -0.0373  0.7381  0.5105
 3268SOL    HW121440   3.413   0.215   3.077 -1.0737  0.1335 -0.2299
 3268SOL    HW221441   3.346   0.340   3.037 -0.2235  1.3875  1.0509
 3269SOL     OW21442   1.409   2.638   3.476  0.5819 -0.5928  0.3844
 3269SOL    HW121443   1.374   2.674   3.395  0.9207 -0.7279  0.1790
 3269SOL    HW221444   1.404   2.544   3.461 -1.4670 -0.3733 -0.2540
 3270SOL     OW21445   1.255   2.125  11.821  0.3244  0.0749  0.7109
 3270SOL    HW121446   1.285   2.153  11.908 -1.9945 -0.1438  1.5756
 3270SOL    HW221447   1.310   2.165  11.754  0.5986  1.5366  1.7825
 3271SOL     OW21448   1.835   1.251   9.163  0.2841  0.4784 -0.1331
 3271SOL    HW121449   1.788   1.188   9.109  1.1436 -0.5673  0.3504
 3271SOL    HW221450   1.923   1.258   9.128  0.0886  0.7854 -0.5744
 3272SOL     OW21451   1.885   3.071  12.613 -0.3039  0.5961  0.0846
 3272SOL    HW121452   1.918   2.987  12.644  0.4398 -1.0907 -5.3468
 3272SOL    HW221453   1.954   3.133  12.639  1.4271 -1.4363  0.2842
 3273SOL     OW21454   3.527   0.266   2.160 -0.2312  0.4233 -0.2827
 3273SOL    HW121455   3.503   0.338   2.217 -0.3254  0.3561 -0.2375
 3273SOL    HW221456   3.549   0.201   2.226 -2.5835 -1.3572 -1.2500
 3274SOL     OW21457   1.049   3.481   9.515  0.7145  0.4514 -0.1826
 3274SOL    HW121458   1.046   3.474   9.419 -0.1854 -1.4281 -0.0314
 3274SOL    HW221459   0.956   3.468   9.536  0.4872  1.4604 -0.5674
 3275SOL     OW21460   1.784   4.261   5.618  0.2150 -0.3048 -0.3038
 3275SOL    HW121461   1.837   4.244   5.540 -0.0434  2.5070 -1.1068
 3275SOL    HW221462   1.768   4.355   5.608 -0.6664 -0.5514 -1.2799
 3276SOL     OW21463   3.445   2.604   6.287  0.1932 -0.3302 -0.5224
 3276SOL    HW121464   3.440   2.695   6.258 -1.0643  0.1908  1.3117
 3276SOL    HW221465   3.508   2.572   6.222  0.9394 -0.8912  0.4733
 3277SOL     OW21466   4.274   0.456   6.335  0.0137 -0.2132 -0.0833
 3277SOL    HW121467   4.211   0.528   6.329  0.2629  0.1567  1.5850
 3277SOL    HW221468   4.343   0.491   6.390 -1.6988  0.4804  1.6239
 3278SOL     OW21469   0.774   3.350  12.505 -1.0647  0.2523 -0.1947
 3278SOL    HW121470   0.697   3.328  12.557 -0.6734 -0.7564 -0.0266
 3278SOL    HW221471   0.745   3.434  12.469  0.2140  0.1861 -1.3678
 3279SOL     OW21472   2.268   4.234   1.765 -0.1011  0.1415 -0.0579
 3279SOL    HW121473   2.287   4.278   1.849  1.7256  1.4023 -1.1356
 3279SOL    HW221474   2.331   4.274   1.706 -1.2322  0.3467 -1.1252
 3280SOL     OW21475   0.450   4.265  17.059  0.0993  0.1144  0.2707
 3280SOL    HW121476   0.402   4.215  16.993  1.1096  0.5818 -0.8195
 3280SOL    HW221477   0.404   4.348  17.048  1.5432  0.9658  0.6822
 3281SOL     OW21478   3.585   4.374   1.757 -0.5293  0.1396  0.8610
 3281SOL    HW121479   3.562   4.454   1.710  0.4948 -0.1028 -0.0512
 3281SOL    HW221480   3.638   4.330   1.691  0.0620 -0.6527  1.8781
 3282SOL     OW21481   3.901   3.947  14.262  0.4141 -0.0428  0.8693
 3282SOL    HW121482   3.973   4.009  14.250  0.7769 -0.8352 -1.0399
 3282SOL    HW221483   3.958   3.871  14.269 -1.4280 -1.7072 -2.2008
 3283SOL     OW21484   2.282   1.179   9.401  0.2539  0.8664 -0.4673
 3283SOL    HW121485   2.282   1.095   9.355 -1.5884 -0.0509  1.2277
 3283SOL    HW221486   2.368   1.188   9.442  0.3905 -1.0452 -0.3570
 3284SOL     OW21487   0.615   3.979   9.755 -0.6006  0.1609 -0.2760
 3284SOL    HW121488   0.639   3.952   9.843  0.0612  0.9093 -0.2290
 3284SOL    HW221489   0.678   4.051   9.747 -0.9215  0.6487  1.5596
 3285SOL     OW21490   1.433   4.596   8.020 -0.4889  0.2929  0.3210
 3285SOL    HW121491   1.404   4.685   8.039  2.7190  1.6877 -1.2742
 3285SOL    HW221492   1.457   4.610   7.928 -2.2658 -0.2069 -0.2086
 3286SOL     OW21493   4.429   3.568   8.921  0.3306 -0.1474 -0.3631
 3286SOL    HW121494   4.472   3.491   8.884 -2.5804 -1.6830 -0.5108
 3286SOL    HW221495   4.500   3.593   8.981  0.3562  1.4012 -1.0369
 3287SOL     OW21496   0.840   4.520   5.412  0.0816 -0.0840 -0.8803
 3287SOL    HW121497   0.929   4.490   5.432 -0.9123 -1.9956  0.6878
 3287SOL    HW221498   0.802   4.442   5.372  0.0788 -1.0138  0.9252
 3288SOL     OW21499   0.212   4.485   9.884  0.0359 -0.4424  0.5051
 3288SOL    HW121500   0.236   4.577   9.880 -1.0240 -0.1403  1.1449
 3288SOL    HW221501   0.192   4.481   9.977  1.2930 -2.7439  0.6893
 3289SOL     OW21502   4.463   4.656   5.101 -0.0074 -0.3389  0.1583
 3289SOL    HW121503   4.396   4.725   5.104  0.7375  0.4705 -2.3765
 3289SOL    HW221504   4.443   4.601   5.176 -0.6134  1.3276  1.2360
 3290SOL     OW21505   3.152   0.517  15.422 -0.2092  0.1761  0.0130
 3290SOL    HW121506   3.096   0.594  15.435  0.4098  0.5691  0.3830
 3290SOL    HW221507   3.242   0.550  15.434  0.0506 -1.2524  1.9697
 3291SOL     OW21508   2.152   1.167   2.714  0.4169  0.4210  0.1325
 3291SOL    HW121509   2.057   1.174   2.712  0.5191  1.7266 -0.5855
 3291SOL    HW221510   2.187   1.246   2.673 -1.5284  2.2279  1.9087
 3292SOL     OW21511   1.879   3.169   4.166  0.4930 -0.4245 -0.6074
 3292SOL    HW121512   1.922   3.216   4.237  0.5096 -0.7895 -0.3718
 3292SOL    HW221513   1.814   3.113   4.208  0.5743  0.4634  0.6891
 3293SOL     OW21514   3.487   1.871   4.199 -0.4448 -0.2008  0.2570
 3293SOL    HW121515   3.468   1.820   4.278  0.5128  3.2436  2.7054
 3293SOL    HW221516   3.573   1.842   4.168 -0.6746  0.4295 -0.9735
 3294SOL     OW21517   1.601   2.849  11.758  0.0268 -0.0256  0.1973
 3294SOL    HW121518   1.684   2.855  11.806  1.7168  2.4016 -3.0425
 3294SOL    HW221519   1.554   2.925  11.792 -1.1833 -0.5988 -0.1904
 3295SOL     OW21520   2.003   3.243   9.479 -0.1177  0.0247 -0.5396
 3295SOL    HW121521   2.025   3.198   9.561  0.1036 -0.5431 -0.9033
 3295SOL    HW221522   2.013   3.170   9.417 -3.2098 -0.3307 -0.5914
 3296SOL     OW21523   2.208   3.442   9.566 -0.1532 -0.3553 -0.3697
 3296SOL    HW121524   2.139   3.480   9.620  1.7961  0.1267  1.7539
 3296SOL    HW221525   2.164   3.362   9.535 -0.8389 -0.4103  0.7414
 3297SOL     OW21526   3.830   2.565  17.352  0.2453 -0.5296 -0.3096
 3297SOL    HW121527   3.786   2.557  17.437 -2.2399  3.4459 -1.2164
 3297SOL    HW221528   3.809   2.485  17.303 -2.3994  1.6544 -2.7036
 3298SOL     OW21529   4.161   3.050  13.497 -0.4574 -0.1844 -0.4073
 3298SOL    HW121530   4.230   3.094  13.447  0.5251 -1.6126 -0.3227
 3298SOL    HW221531   4.213   3.018  13.571  2.4227  1.0409 -1.8794
 3299SOL     OW21532   0.522   2.920  14.981  0.1882  0.4482  0.2777
 3299SOL    HW121533   0.560   2.951  15.064  0.0822 -0.4738  0.6645
 3299SOL    HW221534   0.569   2.967  14.912 -2.3010  0.5292 -1.3588
 3300SOL     OW21535   0.777   3.593   9.137 -0.1575 -0.2339  0.2677
 3300SOL    HW121536   0.859   3.564   9.178  1.0128  0.9992 -1.1569
 3300SOL    HW221537   0.807   3.609   9.047 -1.1700  0.6300  0.0841
 3301SOL     OW21538   2.346   2.708   6.821 -0.3929  0.0962  0.2844
 3301SOL    HW121539   2.320   2.786   6.772 -1.6092 -0.0619  0.6897
 3301SOL    HW221540   2.408   2.741   6.887 -0.8773  2.8159 -0.6113
 3302SOL     OW21541   0.437   1.235   3.995 -0.1866 -0.0163 -0.5634
 3302SOL    HW121542   0.378   1.280   4.056 -2.5323 -2.2255 -1.2011
 3302SOL    HW221543   0.382   1.211   3.920  0.9227 -1.1473 -1.0046
 3303SOL     OW21544   3.219   1.180   7.381  0.1342 -0.7354 -0.1241
 3303SOL    HW121545   3.308   1.209   7.402 -0.3001  1.6813 -1.5795
 3303SOL    HW221546   3.209   1.235   7.303 -1.7108 -0.1652  0.5114
 3304SOL     OW21547   4.517   4.390   5.494 -0.1875  0.1402  0.3311
 3304SOL    HW121548   4.475   4.309   5.520 -0.6878  0.3443  0.1626
 3304SOL    HW221549   4.474   4.413   5.411  1.8528  0.9582 -0.5082
 3305SOL     OW21550   4.665   4.438  17.707 -0.0134  0.3383  0.2028
 3305SOL    HW121551   4.606   4.366  17.684  0.7470  0.0070 -0.7000
 3305SOL    HW221552   4.609   4.511  17.682 -2.4628 -1.5673  0.1159
 3306SOL     OW21553   2.680   0.148   3.368 -0.1753  0.3077 -0.0656
 3306SOL    HW121554   2.770   0.143   3.399 -0.0327 -2.6295 -0.9008
 3306SOL    HW221555   2.664   0.242   3.367 -0.3721  0.2678 -0.4556
 3307SOL     OW21556   2.197   2.245   5.975 -0.4389 -0.0943  0.3201
 3307SOL    HW121557   2.208   2.194   6.055  0.7561 -0.7961 -0.2853
 3307SOL    HW221558   2.106   2.274   5.971 -0.5027 -0.3866 -0.4917
 3308SOL     OW21559   2.436   2.189   3.498  0.1633 -0.2852  0.0920
 3308SOL    HW121560   2.478   2.275   3.498 -1.2990  0.4581  2.5624
 3308SOL    HW221561   2.351   2.211   3.535  0.8273 -3.2535  3.3960
 3309SOL     OW21562   1.439   3.134   9.898  0.0523 -0.4188  0.0352
 3309SOL    HW121563   1.443   3.123   9.993  3.6084 -1.5392 -0.2279
 3309SOL    HW221564   1.479   3.055   9.862  2.0423  0.6092  0.0185
 3310SOL     OW21565   0.621   2.892   9.690  0.3079 -0.4816  0.3417
 3310SOL    HW121566   0.622   2.938   9.774  0.7659  0.7567 -0.3470
 3310SOL    HW221567   0.706   2.848   9.696 -0.0613 -1.2767 -0.2863
 3311SOL     OW21568   3.581   1.504   7.055 -0.4259  0.4323 -0.7645
 3311SOL    HW121569   3.545   1.587   7.085  1.4489  2.6978 -4.8648
 3311SOL    HW221570   3.622   1.534   6.974 -0.8769 -1.5125 -1.7049
 3312SOL     OW21571   2.720   0.947   3.471  0.1078 -0.4485  0.6335
 3312SOL    HW121572   2.776   0.949   3.549 -0.8370  2.9097  1.2114
 3312SOL    HW221573   2.657   1.015   3.495 -0.1685 -0.7170  0.6691
 3313SOL     OW21574   0.696   1.868   6.646  0.6963  0.5876  0.0877
 3313SOL    HW121575   0.699   1.776   6.674 -3.0447  0.2223 -0.6510
 3313SOL    HW221576   0.722   1.861   6.554 -1.9828  1.3448 -0.7391
 3314SOL     OW21577   3.840   4.616   8.354 -0.3340  0.2190 -0.2724
 3314SOL    HW121578   3.888   4.602   8.272  0.0841 -2.0706  0.3677
 3314SOL    HW221579   3.914   4.635   8.412  0.5831 -0.3404 -1.2664
 3315SOL     OW21580   3.943   0.491   8.528 -0.2435 -0.5997 -0.4580
 3315SOL    HW121581   4.024   0.440   8.530 -0.1548 -0.2962  3.6497
 3315SOL    HW221582   3.884   0.419   8.505 -0.0931 -0.8617 -0.0260
 3316SOL     OW21583   3.643   1.776  12.867 -0.0591  0.6899 -0.2556
 3316SOL    HW121584   3.679   1.848  12.919 -1.2266 -0.7219  2.5161
 3316SOL    HW221585   3.710   1.773  12.799  0.2806  1.4351  0.0419
 3317SOL     OW21586   0.953   3.749   4.974  0.2226  0.4429 -0.0730
 3317SOL    HW121587   0.904   3.753   5.056  2.6764  2.0019  1.3346
 3317SOL    HW221588   1.037   3.772   5.014  0.3628  1.3673 -0.8965
 3318SOL     OW21589   3.458   0.852   7.591  0.1558  0.0435 -0.2178
 3318SOL    HW121590   3.372   0.812   7.601  0.8884 -1.4113  0.3555
 3318SOL    HW221591   3.458   0.904   7.671 -1.1242  1.3925 -1.1112
 3319SOL     OW21592   4.254   3.264  15.225  0.1348  0.2380 -0.2879
 3319SOL    HW121593   4.162   3.245  15.245  0.3719 -0.8091 -0.2200
 3319SOL    HW221594   4.261   3.327  15.297  1.1842 -0.8145  0.5176
 3320SOL     OW21595   2.225   2.516   4.261 -0.1997  0.0355  0.0064
 3320SOL    HW121596   2.226   2.612   4.255 -0.3671 -0.0039 -0.7070
 3320SOL    HW221597   2.140   2.502   4.302 -0.2375  0.0919 -0.0507
 3321SOL     OW21598   2.852   0.253  12.091  0.0088 -0.3839  0.0603
 3321SOL    HW121599   2.914   0.323  12.111 -0.2995 -0.3613  0.9352
 3321SOL    HW221600   2.875   0.186  12.156 -0.2911 -0.4655  0.0801
 3322SOL     OW21601   0.026   2.984   7.985  0.0919 -0.4374  0.3658
 3322SOL    HW121602   0.009   2.915   8.049 -0.6607 -1.3451 -0.8188
 3322SOL    HW221603   0.119   2.966   7.972  0.0411 -0.2094 -0.2806
 3323SOL     OW21604   3.009   4.470   5.446 -0.1358  0.2689  0.0513
 3323SOL    HW121605   2.940   4.505   5.502 -0.9542 -0.6650 -0.3716
 3323SOL    HW221606   2.957   4.434   5.374  1.4364 -0.3289 -0.7913
 3324SOL     OW21607   1.938   0.231   3.669  0.4889 -0.0197 -0.1816
 3324SOL    HW121608   1.880   0.302   3.696  3.0123  2.1850 -0.4920
 3324SOL    HW221609   1.921   0.162   3.733 -0.1047 -1.0990 -1.4932
 3325SOL     OW21610   2.683   0.027   9.257 -0.0916  0.0773  0.2609
 3325SOL    HW121611   2.772   0.002   9.282  0.3574  0.5999 -0.8007
 3325SOL    HW221612   2.631   4.690   9.284 -0.2236 -0.1344 -0.5838
 3326SOL     OW21613   3.370   0.955   5.255  0.3699 -0.0425 -0.0950
 3326SOL    HW121614   3.371   0.939   5.161  0.1706  0.4220 -0.1796
 3326SOL    HW221615   3.462   0.967   5.280 -0.1564 -2.4949  2.9842
 3327SOL     OW21616   3.161   1.467  12.465  0.4000  0.1642  0.3601
 3327SOL    HW121617   3.098   1.407  12.506  0.5715 -0.7097 -0.6627
 3327SOL    HW221618   3.095   1.521  12.420  1.8184  1.5192 -0.0808
 3328SOL     OW21619   3.403   3.809   1.325 -0.0568 -0.0675 -0.0951
 3328SOL    HW121620   3.378   3.860   1.248  0.2787  2.0960  1.2109
 3328SOL    HW221621   3.424   3.731   1.275 -0.6346  1.8578 -3.3347
 3329SOL     OW21622   2.585   1.146   8.325 -0.3801  0.3067  0.4253
 3329SOL    HW121623   2.506   1.195   8.300 -1.3901 -1.9818 -0.8060
 3329SOL    HW221624   2.546   1.059   8.320 -1.2524  0.7174 -0.0083
 3330SOL     OW21625   2.234   2.258  13.184  0.4013  0.3496 -0.3764
 3330SOL    HW121626   2.261   2.239  13.094  0.0170  2.2947 -0.8976
 3330SOL    HW221627   2.176   2.334  13.175  1.1059  0.6013 -2.8516
 3331SOL     OW21628   3.001   0.922   9.330  0.1803 -0.1786  0.0453
 3331SOL    HW121629   3.078   0.970   9.361 -0.6636  0.1077  1.7185
 3331SOL    HW221630   3.046   0.840   9.311  1.6469  0.6028  0.1662
 3332SOL     OW21631   2.968   1.290   5.534 -0.1281 -0.3833 -0.2815
 3332SOL    HW121632   2.975   1.213   5.591  1.8849 -0.3665 -0.4942
 3332SOL    HW221633   2.885   1.270   5.491 -0.9915 -2.5782  2.3734
 3333SOL     OW21634   3.761   2.451   9.359  0.1439 -0.2846 -0.5902
 3333SOL    HW121635   3.674   2.461   9.319 -0.5778 -1.6080  0.6297
 3333SOL    HW221636   3.816   2.506   9.303 -0.2982 -0.1049 -0.8561
 3334SOL     OW21637   3.133   4.229   9.354  0.4910 -0.2167 -0.5212
 3334SOL    HW121638   3.121   4.183   9.437 -1.3967 -1.4246 -1.4590
 3334SOL    HW221639   3.183   4.165   9.304  1.7291  0.3587 -0.0080
 3335SOL     OW21640   1.187   3.906   8.275 -0.1563 -0.4712 -0.3060
 3335SOL    HW121641   1.126   3.889   8.346 -0.4672 -1.3341 -0.7766
 3335SOL    HW221642   1.139   3.982   8.241  1.0381 -0.9345 -3.0383
 3336SOL     OW21643   0.163   0.910   5.198 -0.6259  0.6220 -0.5528
 3336SOL    HW121644   0.246   0.862   5.193 -1.0120 -0.1039  0.2027
 3336SOL    HW221645   0.142   0.906   5.291 -0.1195  3.7741 -0.3132
 3337SOL     OW21646   0.923   3.173   2.273 -0.0933 -0.4057  0.0154
 3337SOL    HW121647   0.833   3.143   2.260 -0.2601  0.1000  0.0015
 3337SOL    HW221648   0.896   3.265   2.282  2.7240  0.4409 -0.2784
 3338SOL     OW21649   1.407   3.145   6.142  0.2856 -0.2640  0.8369
 3338SOL    HW121650   1.391   3.053   6.163 -1.0724  0.0975  1.4166
 3338SOL    HW221651   1.324   3.170   6.184  0.2831  1.3740 -0.1472
 3339SOL     OW21652   4.418   0.799  15.609 -0.1159 -0.3649  0.1279
 3339SOL    HW121653   4.351   0.778  15.544  1.0820  1.4876 -1.7024
 3339SOL    HW221654   4.376   0.768  15.689  1.0660 -1.6772  0.2495
 3340SOL     OW21655   4.640   2.446   4.646 -0.1451 -0.5916  0.2289
 3340SOL    HW121656   4.640   2.418   4.738 -0.0508 -1.8120 -0.1462
 3340SOL    HW221657   4.713   2.508   4.646  0.4731 -1.3063 -2.8635
 3341SOL     OW21658   4.297   3.368   2.235 -0.3664  0.4603  0.1329
 3341SOL    HW121659   4.277   3.304   2.304 -0.9847 -0.2319 -0.6843
 3341SOL    HW221660   4.328   3.310   2.165 -0.0153  0.9439 -0.1070
 3342SOL     OW21661   0.496   2.180   8.891 -0.0169  0.0450 -0.8097
 3342SOL    HW121662   0.480   2.087   8.905 -2.2062  0.6938  1.1393
 3342SOL    HW221663   0.490   2.212   8.981  0.2571 -1.9738 -0.0812
 3343SOL     OW21664   3.389   2.366   3.283  0.2815  0.2508  0.0632
 3343SOL    HW121665   3.470   2.319   3.300 -0.5543 -0.8090  1.0853
 3343SOL    HW221666   3.400   2.379   3.189 -1.8974  0.2087 -0.1865
 3344SOL     OW21667   1.741   1.453   6.027  0.2905  0.2627  0.2682
 3344SOL    HW121668   1.829   1.429   6.055  0.2070  0.2131  0.4907
 3344SOL    HW221669   1.693   1.375   6.056  1.4567  0.0866  1.7651
 3345SOL     OW21670   2.844   4.388  11.231 -0.4022 -0.4567  0.2831
 3345SOL    HW121671   2.866   4.295  11.232  2.3189  0.1915 -0.1872
 3345SOL    HW221672   2.925   4.436  11.217 -0.0789 -0.7952  0.9733
 3346SOL     OW21673   0.540   2.830   2.287 -0.3906 -0.0240  0.1698
 3346SOL    HW121674   0.514   2.739   2.269 -0.8950  0.0116  0.7324
 3346SOL    HW221675   0.461   2.875   2.259  0.2496  1.3207  0.5407
 3347SOL     OW21676   2.734   1.761   3.990 -0.0974 -0.5867  0.0412
 3347SOL    HW121677   2.825   1.771   3.964 -0.7438 -0.6296 -2.2175
 3347SOL    HW221678   2.711   1.847   4.025 -0.5486 -0.9174  0.5607
 3348SOL     OW21679   3.100   4.398   4.711  0.0841 -0.2306 -0.1346
 3348SOL    HW121680   3.120   4.487   4.683  1.0830  0.5302  3.0779
 3348SOL    HW221681   3.157   4.337   4.662 -0.8270 -1.0444 -0.1732
 3349SOL     OW21682   2.397   4.645   6.758  0.2268  0.7632 -0.5374
 3349SOL    HW121683   2.344   4.622   6.834 -1.4087  0.5716 -1.7378
 3349SOL    HW221684   2.481   4.600   6.767 -0.2991 -0.0230  0.3447
 3350SOL     OW21685   2.925   3.401   4.179  0.5745 -0.4372 -0.2356
 3350SOL    HW121686   2.902   3.470   4.116 -0.0830  1.3691  2.0007
 3350SOL    HW221687   2.869   3.422   4.254  0.4929  0.0519 -0.4358
 3351SOL     OW21688   3.562   3.200  13.631 -0.6501  0.1046 -0.4212
 3351SOL    HW121689   3.502   3.267  13.599  0.9820  0.5530 -2.5108
 3351SOL    HW221690   3.530   3.183  13.720 -0.3927  0.7407 -0.2112
 3352SOL     OW21691   1.319   0.497   7.731  0.0368  0.0680  0.2217
 3352SOL    HW121692   1.243   0.551   7.713 -0.3248 -0.2749  0.7070
 3352SOL    HW221693   1.297   0.453   7.813 -0.3386 -0.1643 -0.0050
 3353SOL     OW21694   2.538   3.724   9.338 -0.0568 -0.2689 -0.2634
 3353SOL    HW121695   2.478   3.650   9.344  0.1284 -0.7355 -3.7804
 3353SOL    HW221696   2.613   3.700   9.392 -0.4372 -3.0787 -0.9868
 3354SOL     OW21697   1.841   0.576   3.671  0.0517 -0.1871  0.2765
 3354SOL    HW121698   1.777   0.563   3.741  0.7897 -0.7498  0.8301
 3354SOL    HW221699   1.784   0.572   3.594  0.3449 -2.8538  0.1880
 3355SOL     OW21700   2.748   2.012   1.154  0.1987  0.9448 -0.1825
 3355SOL    HW121701   2.755   2.041   1.245  2.1831 -0.6145  0.1551
 3355SOL    HW221702   2.683   2.067   1.111 -2.0164 -0.6654  1.1249
 3356SOL     OW21703   2.705   0.419  13.529  0.1594 -0.3790 -0.2943
 3356SOL    HW121704   2.625   0.456  13.491 -1.0547 -1.7904  0.8605
 3356SOL    HW221705   2.689   0.436  13.622 -0.8149  0.9255 -0.6970
 3357SOL     OW21706   0.242   0.240   3.148 -0.0931  0.0637  0.3077
 3357SOL    HW121707   0.252   0.169   3.212  1.6499  0.7876  0.8518
 3357SOL    HW221708   0.175   0.295   3.189 -0.8022 -2.0982  2.0874
 3358SOL     OW21709   1.950   0.642   6.404  0.1796  0.2421  0.4634
 3358SOL    HW121710   1.870   0.609   6.364 -0.5023  0.7195  1.4403
 3358SOL    HW221711   2.013   0.625   6.334 -1.1201  0.8000 -0.8672
 3359SOL     OW21712   3.360   1.331   0.248 -0.0838 -0.2746 -0.7230
 3359SOL    HW121713   3.393   1.311   0.160  1.2527 -0.9929 -0.0597
 3359SOL    HW221714   3.268   1.347   0.227 -0.3722 -0.9306  0.0407
 3360SOL     OW21715   0.173   2.749   8.696 -0.2828 -0.2624  0.3051
 3360SOL    HW121716   0.119   2.672   8.717 -3.3368  1.3364 -1.7239
 3360SOL    HW221717   0.150   2.766   8.605  2.8277 -0.5689 -0.5401
 3361SOL     OW21718   2.402   0.452   3.678  0.1233 -0.2730  0.5440
 3361SOL    HW121719   2.323   0.434   3.728  0.6123 -2.5136  0.5280
 3361SOL    HW221720   2.471   0.431   3.741  0.1164 -1.4592  0.1544
 3362SOL     OW21721   3.251   3.277  17.655  0.5725 -0.0282 -0.0400
 3362SOL    HW121722   3.163   3.275  17.691  0.7727  1.8471  0.5651
 3362SOL    HW221723   3.240   3.306  17.564 -1.3805 -1.1227 -0.1326
 3363SOL     OW21724   1.513   2.450   2.707  0.3830  0.3394 -0.4965
 3363SOL    HW121725   1.568   2.415   2.777 -1.2314  0.5353  0.8562
 3363SOL    HW221726   1.475   2.363   2.689 -1.8131  0.7312  2.3142
 3364SOL     OW21727   4.218   4.441  13.708  0.6236 -0.1770 -0.3747
 3364SOL    HW121728   4.289   4.401  13.659  0.1836  1.8947 -2.7135
 3364SOL    HW221729   4.259   4.521  13.740  1.5578 -0.4306 -0.9564
 3365SOL     OW21730   1.183   4.308   7.009 -0.4599 -0.0235  0.3885
 3365SOL    HW121731   1.270   4.276   7.032  0.1595  1.8298  0.5777
 3365SOL    HW221732   1.167   4.381   7.068  3.3744  0.6764  0.5291
 3366SOL     OW21733   2.783   0.765   4.305  0.0570 -0.1389  0.0055
 3366SOL    HW121734   2.860   0.794   4.256 -0.3399 -1.5372 -1.4544
 3366SOL    HW221735   2.768   0.836   4.368 -0.0757 -0.5533  0.4385
 3367SOL     OW21736   4.590   3.373   3.368  0.4961 -0.1528 -0.3984
 3367SOL    HW121737   4.503   3.413   3.364  1.4166  1.6431 -2.4515
 3367SOL    HW221738   4.645   3.448   3.393  0.6350  0.0522 -1.3196
 3368SOL     OW21739   4.545   4.258   1.637  0.0746  0.0226 -0.4534
 3368SOL    HW121740   4.543   4.238   1.543 -1.4646  0.6311 -0.5516
 3368SOL    HW221741   4.580   4.346   1.624  3.7844 -1.6577 -1.7725
 3369SOL     OW21742   2.305   2.941   6.652  0.1214 -0.3710 -0.3451
 3369SOL    HW121743   2.352   3.024   6.653  1.1969 -0.9629 -1.4946
 3369SOL    HW221744   2.351   2.901   6.578  1.1430  0.9693 -0.4349
 3370SOL     OW21745   0.353   0.186   8.737  0.2190 -0.2189  0.1736
 3370SOL    HW121746   0.378   0.162   8.826 -2.1902  0.2808  0.9725
 3370SOL    HW221747   0.259   0.169   8.738 -0.0998  1.4997 -1.6259
 3371SOL     OW21748   4.526   0.899   1.260  0.3114 -0.3147  0.8010
 3371SOL    HW121749   4.492   0.911   1.171  1.6904  2.2430  0.6197
 3371SOL    HW221750   4.491   0.814   1.285 -3.3885  0.6976 -0.8961
 3372SOL     OW21751   0.781   4.083   8.616  0.0638  0.4005 -0.3282
 3372SOL    HW121752   0.846   4.150   8.633  0.6827 -0.3323  0.1837
 3372SOL    HW221753   0.764   4.048   8.703  2.7875 -2.0948 -0.8000
 3373SOL     OW21754   0.055   0.584   6.582 -0.5785  0.4730 -0.3327
 3373SOL    HW121755   0.049   0.540   6.667  1.0456  1.0119  0.0605
 3373SOL    HW221756   0.031   0.511   6.525  1.9189 -0.1060 -0.6214
 3374SOL     OW21757   4.638   4.013  10.394 -0.1624  0.3333  0.2237
 3374SOL    HW121758   4.719   4.063  10.391  0.8608 -1.4821 -2.8357
 3374SOL    HW221759   4.625   4.020  10.488 -1.2577 -0.1046  0.1090
 3375SOL     OW21760   1.503   0.054  11.003  0.0742 -0.1931 -0.2093
 3375SOL    HW121761   1.589   0.059  10.961 -0.0778 -1.0699 -0.6184
 3375SOL    HW221762   1.503   4.704  11.040  0.1949 -0.9492 -1.9909
 3376SOL     OW21763   4.429   4.267   4.562  0.3436  0.1709 -0.2537
 3376SOL    HW121764   4.411   4.350   4.606  4.3410  0.7299  0.2953
 3376SOL    HW221765   4.437   4.203   4.632 -1.8028 -0.2274 -0.3590
 3377SOL     OW21766   1.838   4.181   2.291 -0.5529  0.1536 -0.4084
 3377SOL    HW121767   1.874   4.269   2.291 -0.0246 -0.0620  2.9686
 3377SOL    HW221768   1.845   4.164   2.385  0.2005  0.3716 -0.4228
 3378SOL     OW21769   0.960   3.331  11.649 -0.0556  0.2187 -0.1226
 3378SOL    HW121770   0.867   3.312  11.662 -0.0977  1.4267  1.2121
 3378SOL    HW221771   0.947   3.425  11.639 -0.1482  0.2855  0.6463
 3379SOL     OW21772   0.567   0.434   9.584 -0.3284 -0.0257  0.2826
 3379SOL    HW121773   0.634   0.436   9.652 -1.1961 -0.1813  1.1495
 3379SOL    HW221774   0.557   0.524   9.553 -2.6603 -0.5263 -0.3933
 3380SOL     OW21775   0.019   4.095   7.452 -0.2070 -0.8759  0.3369
 3380SOL    HW121776   0.021   4.000   7.440  0.3508 -0.6877 -1.0286
 3380SOL    HW221777   0.105   4.104   7.493 -0.5266 -1.6220  1.1769
 3381SOL     OW21778   1.593   0.681   6.820 -0.4435 -0.1643  0.8088
 3381SOL    HW121779   1.653   0.705   6.890  2.1098 -0.7471 -1.1829
 3381SOL    HW221780   1.612   0.749   6.755  2.2790 -1.3436  0.3473
 3382SOL     OW21781   2.893   2.398   8.574  0.0551  0.2941 -0.7221
 3382SOL    HW121782   2.892   2.305   8.550 -0.1898  0.6946 -2.2006
 3382SOL    HW221783   2.950   2.402   8.651  0.4094  0.5352 -0.9972
 3383SOL     OW21784   2.553   0.458  10.939  0.3612  0.1403  0.1579
 3383SOL    HW121785   2.553   0.469  11.034  0.7892 -0.3228  0.2116
 3383SOL    HW221786   2.508   0.537  10.907  0.4396  1.0975  2.4381
 3384SOL     OW21787   0.462   2.610  13.259 -0.3527  0.1158  0.0114
 3384SOL    HW121788   0.552   2.610  13.293  0.0338  2.6269 -0.9776
 3384SOL    HW221789   0.452   2.705  13.245  0.6561  0.4573  1.5527
 3385SOL     OW21790   2.408   2.017   8.365 -0.3690 -0.0866 -0.3383
 3385SOL    HW121791   2.344   2.003   8.295  1.1778 -2.1708 -1.3806
 3385SOL    HW221792   2.479   2.050   8.310 -1.2193  1.6602 -0.3788
 3386SOL     OW21793   1.720   4.720   6.828 -0.0087  0.3039  0.2736
 3386SOL    HW121794   1.719   4.684   6.916  1.5756  1.0653  0.6044
 3386SOL    HW221795   1.770   0.063   6.835  1.5376 -0.5468 -0.7160
 3387SOL     OW21796   2.755   0.473   1.941 -0.4526 -0.2658  0.1752
 3387SOL    HW121797   2.671   0.497   1.981 -0.4726  0.7597 -0.4833
 3387SOL    HW221798   2.728   0.436   1.857 -3.7808  0.0867  1.0871
 3388SOL     OW21799   3.187   0.129   9.501  0.4005  0.3276 -0.6245
 3388SOL    HW121800   3.162   0.156   9.589  0.5323  0.9781 -0.7840
 3388SOL    HW221801   3.248   0.057   9.517  0.2979  0.2765 -0.4704
 3389SOL     OW21802   3.831   0.379  10.234  0.2823  0.1587 -0.0072
 3389SOL    HW121803   3.833   0.336  10.148 -0.8004  1.6811 -0.7938
 3389SOL    HW221804   3.780   0.315  10.282  3.2838 -0.0211  2.9175
 3390SOL     OW21805   1.651   3.915   6.349  0.7451 -0.1597  0.4522
 3390SOL    HW121806   1.693   3.942   6.267 -0.9454  1.0039 -0.0417
 3390SOL    HW221807   1.566   3.955   6.330 -0.2321 -1.2083  2.5575
 3391SOL     OW21808   3.098   1.844   9.049 -0.3685  0.0857  0.4748
 3391SOL    HW121809   3.154   1.881   8.981 -0.5954 -0.4671 -0.0075
 3391SOL    HW221810   3.143   1.761   9.064 -0.9325 -0.1470  0.8850
 3392SOL     OW21811   3.441   0.146  13.660  0.1503  0.4312  0.9152
 3392SOL    HW121812   3.474   0.086  13.593 -1.2441 -0.7542  1.2993
 3392SOL    HW221813   3.442   0.099  13.744 -1.5315 -1.3709 -0.0781
 3393SOL     OW21814   3.677   0.955   9.754 -0.3187  0.0109  0.8721
 3393SOL    HW121815   3.652   0.867   9.780  4.8172 -1.4850  0.8099
 3393SOL    HW221816   3.747   0.966   9.818  0.2819 -0.9305  0.3752
 3394SOL     OW21817   4.288   1.719   1.860 -0.0446 -0.1288  0.2712
 3394SOL    HW121818   4.363   1.723   1.919 -0.3045 -2.2468  0.7478
 3394SOL    HW221819   4.217   1.714   1.924  0.7026  1.6857  1.2418
 3395SOL     OW21820   4.628   2.404   6.484  0.2361 -0.1704  0.3460
 3395SOL    HW121821   4.656   2.334   6.543  0.6118  0.9406  1.4859
 3395SOL    HW221822   4.602   2.474   6.543 -0.8549  0.3751 -0.7698
 3396SOL     OW21823   2.730   4.494  16.418 -0.6849  0.0624  0.6292
 3396SOL    HW121824   2.708   4.526  16.331  1.1454 -2.2620 -0.6863
 3396SOL    HW221825   2.786   4.566  16.446 -2.5572  0.9267  2.1500
 3397SOL     OW21826   1.088   3.496  16.393 -0.1953  0.5099  0.0919
 3397SOL    HW121827   1.140   3.571  16.363 -0.1632  0.5960  0.3634
 3397SOL    HW221828   1.057   3.476  16.305 -0.5574 -1.2378  0.6303
 3398SOL     OW21829   1.729   0.463   8.000  0.3516  0.3592 -0.0343
 3398SOL    HW121830   1.645   0.507   8.010  0.1666 -0.6698  2.8730
 3398SOL    HW221831   1.744   0.470   7.905  1.5846  0.7668  0.1912
 3399SOL     OW21832   4.116   1.543   4.214 -0.3847 -0.8019  0.0935
 3399SOL    HW121833   4.105   1.635   4.239  0.7323 -1.1613  1.8318
 3399SOL    HW221834   4.167   1.509   4.286  0.5249  1.9317  0.7374
 3400SOL     OW21835   2.597   1.016  16.496 -0.3204 -0.1220  0.1735
 3400SOL    HW121836   2.596   1.017  16.400  0.6718  0.2817  0.1735
 3400SOL    HW221837   2.532   1.084  16.510  1.1019  0.9445  1.5567
 3401SOL     OW21838   3.603   2.240   3.443  0.2398 -0.3196 -0.1036
 3401SOL    HW121839   3.604   2.245   3.539  2.5166 -0.6571 -0.1102
 3401SOL    HW221840   3.695   2.246   3.417 -0.0173 -0.9340 -1.1410
 3402SOL     OW21841   4.464   1.024   6.491  0.1024  0.0839  0.1562
 3402SOL    HW121842   4.371   1.002   6.499 -0.0970  0.5927 -0.9065
 3402SOL    HW221843   4.493   1.048   6.579  0.2233  2.3427 -0.5114
 3403SOL     OW21844   0.405   3.520  13.994 -0.3730 -0.4439 -0.0189
 3403SOL    HW121845   0.472   3.559  14.049 -0.5493 -0.6089  0.3108
 3403SOL    HW221846   0.462   3.451  13.960  1.2685 -0.4465  2.7951
 3404SOL     OW21847   3.164   1.332   7.127 -0.3339 -0.2949  0.3464
 3404SOL    HW121848   3.100   1.316   7.057 -0.0515 -2.4167  0.5819
 3404SOL    HW221849   3.229   1.383   7.078 -0.5236  0.2645  0.6769
 3405SOL     OW21850   0.476   2.342   4.792 -0.0662 -0.0671  0.5518
 3405SOL    HW121851   0.422   2.403   4.843 -1.9584 -0.8847 -0.5101
 3405SOL    HW221852   0.476   2.262   4.844  2.3848 -0.7728 -0.5355
 3406SOL     OW21853   0.309   3.525   5.867  0.3547  0.4692 -0.5188
 3406SOL    HW121854   0.362   3.472   5.807  2.1380  0.8690  0.7192
 3406SOL    HW221855   0.226   3.510   5.820 -1.3304  2.5915  1.7835
 3407SOL     OW21856   2.011   4.538  11.158  0.2825  0.3331 -0.3654
 3407SOL    HW121857   2.042   4.620  11.198  0.1446  0.6657 -0.9364
 3407SOL    HW221858   2.094   4.496  11.138  0.2529 -0.5255  1.3409
 3408SOL     OW21859   2.179   3.325   3.719  0.0724 -0.5579 -0.2885
 3408SOL    HW121860   2.146   3.319   3.629  0.5020 -3.0434 -0.2860
 3408SOL    HW221861   2.111   3.268   3.755 -1.2159  1.0274 -0.1916
 3409SOL     OW21862   3.116   0.832   8.672 -0.0732 -0.1759  0.4687
 3409SOL    HW121863   3.064   0.832   8.591 -1.4242 -0.2410  1.3245
 3409SOL    HW221864   3.200   0.853   8.632 -0.5363  0.2625 -0.2850
 3410SOL     OW21865   0.936   1.964   5.335 -0.7674  0.5308 -0.7439
 3410SOL    HW121866   0.909   2.024   5.405 -0.9965  0.5734 -0.8668
 3410SOL    HW221867   0.856   1.960   5.282 -1.3669  1.9801  0.0351
 3411SOL     OW21868   3.091   3.038   3.849  0.1259  0.3828  0.2236
 3411SOL    HW121869   3.071   2.951   3.814 -1.4823  0.2321  1.5211
 3411SOL    HW221870   3.181   3.051   3.818  0.3689  1.4321  1.3873
 3412SOL     OW21871   4.436   4.057  17.088  0.3501  0.5418  0.4514
 3412SOL    HW121872   4.344   4.047  17.110  0.7305 -0.3688  1.6340
 3412SOL    HW221873   4.444   3.997  17.013  0.9041 -0.6969  1.5099
 3413SOL     OW21874   1.476   0.794   1.927  0.1121  0.0231  0.1286
 3413SOL    HW121875   1.530   0.825   1.854  0.8328 -2.1894 -0.2803
 3413SOL    HW221876   1.513   0.847   1.997  0.2073 -1.1835  0.9791
 3414SOL     OW21877   1.489   2.255  16.885 -0.4859 -0.0637  0.1037
 3414SOL    HW121878   1.467   2.184  16.824 -0.0735  1.1057 -1.4105
 3414SOL    HW221879   1.403   2.288  16.912 -0.1834  2.2177 -1.6872
 3415SOL     OW21880   0.436   3.456  12.878  0.2968  0.1134  0.4983
 3415SOL    HW121881   0.407   3.432  12.966 -0.3606  1.8639  0.7514
 3415SOL    HW221882   0.482   3.539  12.893  0.0511  0.4732 -0.7578
 3416SOL     OW21883   3.314   4.019   2.727 -0.1761  0.7780  0.1624
 3416SOL    HW121884   3.356   3.988   2.807  0.0315 -0.9701 -0.6070
 3416SOL    HW221885   3.389   4.042   2.672 -1.0922 -0.1221 -1.4790
 3417SOL     OW21886   4.342   1.040   2.646 -0.1193 -0.2299  0.8471
 3417SOL    HW121887   4.431   1.017   2.619  0.8283  2.3288  1.8283
 3417SOL    HW221888   4.290   0.992   2.581  2.3440 -0.2374 -1.1259
 3418SOL     OW21889   1.606   0.642   2.138 -0.4239 -0.3968 -0.3048
 3418SOL    HW121890   1.565   0.728   2.150  1.5363  0.5043 -0.0328
 3418SOL    HW221891   1.519   0.602   2.141 -0.2011 -0.8535  0.0802
 3419SOL     OW21892   0.042   1.305   2.915  0.4243  0.3008 -0.3935
 3419SOL    HW121893   0.015   1.289   3.005  1.4011  0.9452  0.0085
 3419SOL    HW221894   0.132   1.272   2.919  0.4955  0.1761 -2.6133
 3420SOL     OW21895   4.233   2.202   3.009  0.5387  0.0218  0.2852
 3420SOL    HW121896   4.325   2.175   3.001  0.2316 -1.0356  0.4112
 3420SOL    HW221897   4.225   2.282   2.957  1.6729 -0.0852 -0.0458
 3421SOL     OW21898   3.805   0.803   7.252 -0.1653  0.2080 -0.4983
 3421SOL    HW121899   3.724   0.821   7.205  0.0364  0.2139 -0.8422
 3421SOL    HW221900   3.770   0.789   7.340  1.7491 -0.6482  0.1286
 3422SOL     OW21901   3.718   4.009   5.052 -0.1510  0.2292  0.0478
 3422SOL    HW121902   3.774   3.931   5.044 -1.5975 -0.6671 -1.3912
 3422SOL    HW221903   3.756   4.039   5.134 -0.9289 -0.9864  0.8449
 3423SOL     OW21904   3.105   4.706  12.779 -0.1845 -0.1141 -0.5815
 3423SOL    HW121905   3.048   4.637  12.812 -1.9352  1.2237 -0.7896
 3423SOL    HW221906   3.094   4.689  12.685  2.4456  2.1757 -1.2878
 3424SOL     OW21907   2.447   3.570   8.065  0.0994 -0.5018 -0.2039
 3424SOL    HW121908   2.374   3.515   8.039 -0.5889  0.0567  0.5694
 3424SOL    HW221909   2.449   3.640   8.000 -2.3584 -1.1118 -0.9383
 3425SOL     OW21910   0.173   2.552   4.288  0.0783  0.1158 -0.1561
 3425SOL    HW121911   0.266   2.536   4.301 -0.1622 -0.0376  1.4381
 3425SOL    HW221912   0.163   2.512   4.202  1.1740 -0.4230 -0.0248
 3426SOL     OW21913   3.656   0.331   5.430 -0.1701  0.0491  0.0422
 3426SOL    HW121914   3.664   0.405   5.490  2.1956 -0.2205  0.0591
 3426SOL    HW221915   3.695   0.366   5.350 -0.9751 -2.0374 -1.2510
 3427SOL     OW21916   2.903   3.720   8.262 -0.5852 -0.1696  0.1523
 3427SOL    HW121917   2.901   3.693   8.171  0.7530  0.1190  0.0350
 3427SOL    HW221918   2.987   3.682   8.288 -0.5082  0.6517  1.1502
 3428SOL     OW21919   1.306   2.081  11.139  0.1245  0.3740 -0.5434
 3428SOL    HW121920   1.271   2.023  11.071  3.8012 -2.2622 -0.2253
 3428SOL    HW221921   1.400   2.061  11.137  0.1731  0.5740 -0.3542
 3429SOL     OW21922   2.933   2.675   4.384 -0.1599 -0.7725  0.3347
 3429SOL    HW121923   2.875   2.659   4.459  1.4407  2.1236  2.1881
 3429SOL    HW221924   2.951   2.768   4.399 -2.1216  0.1857 -3.2480
 3430SOL     OW21925   2.071   0.629   2.461 -0.1948  0.2291  0.1620
 3430SOL    HW121926   2.134   0.604   2.393 -0.6308 -1.2194  0.2911
 3430SOL    HW221927   2.052   0.543   2.500  0.5885  0.8957  2.0193
 3431SOL     OW21928   4.506   2.111   1.039 -0.4111  0.5745  0.9600
 3431SOL    HW121929   4.598   2.116   1.014  0.1815 -0.1325  3.0323
 3431SOL    HW221930   4.458   2.180   0.992 -0.7065  0.2043  0.7145
 3432SOL     OW21931   1.607   0.409   7.395  0.0451  0.3435 -0.6081
 3432SOL    HW121932   1.644   0.433   7.310  1.3881  0.5763  0.0370
 3432SOL    HW221933   1.524   0.381   7.358 -1.1806  3.8715 -0.5637
 3433SOL     OW21934   1.475   3.198   6.841 -0.5844 -0.5072 -0.2404
 3433SOL    HW121935   1.383   3.216   6.823 -0.1407  1.5729 -0.3932
 3433SOL    HW221936   1.484   3.137   6.767  0.5613  1.2835 -1.5627
 3434SOL     OW21937   1.829   1.339   4.029 -0.3624  0.2384 -0.3932
 3434SOL    HW121938   1.819   1.268   3.965 -1.1568  1.3467 -1.4869
 3434SOL    HW221939   1.901   1.386   3.987  2.5692 -3.6843  0.2993
 3435SOL     OW21940   1.653   1.461   9.221  0.0588 -0.4437  0.0871
 3435SOL    HW121941   1.587   1.392   9.218  0.3961 -0.7684  0.1577
 3435SOL    HW221942   1.723   1.401   9.197 -0.1427 -0.6666  0.0622
 3436SOL     OW21943   0.944   0.425  12.961 -0.2144 -0.4170 -0.6067
 3436SOL    HW121944   1.040   0.427  12.955 -0.1040 -0.0366  1.2170
 3436SOL    HW221945   0.935   0.350  12.904  0.7157 -1.0684  0.1071
 3437SOL     OW21946   2.830   1.493   6.696  0.3745  0.3115 -0.2999
 3437SOL    HW121947   2.740   1.505   6.666 -0.6207 -0.8123  2.2459
 3437SOL    HW221948   2.871   1.465   6.615 -0.4502  2.6004 -1.5183
 3438SOL     OW21949   4.401   1.917  17.726  0.0111  0.1989 -0.3479
 3438SOL    HW121950   4.441   1.830  17.721 -0.0025  0.2053 -0.5815
 3438SOL    HW221951   4.374   1.917  17.634  0.2349  2.1339 -0.4270
 3439SOL     OW21952   1.228   2.384  12.234  0.0427 -0.6434 -0.3665
 3439SOL    HW121953   1.233   2.385  12.330  1.2756 -0.3430 -0.4385
 3439SOL    HW221954   1.176   2.461  12.211  0.6227  0.1343  0.9204
 3440SOL     OW21955   2.779   1.489  17.422  0.2882  0.0422  0.1084
 3440SOL    HW121956   2.722   1.414  17.431 -0.3066  0.5239  0.3353
 3440SOL    HW221957   2.723   1.555  17.464  0.8222 -0.0290  0.9366
 3441SOL     OW21958   0.810   1.373   2.052 -1.0067  0.0657 -0.0349
 3441SOL    HW121959   0.902   1.354   2.066 -0.3202  0.9998 -3.2731
 3441SOL    HW221960   0.770   1.318   2.120 -1.4804  0.2916 -0.1341
 3442SOL     OW21961   1.806   3.002  14.652  0.7804  0.2566  0.5052
 3442SOL    HW121962   1.796   2.938  14.581 -0.0725 -1.1186  1.8576
 3442SOL    HW221963   1.862   2.968  14.721 -1.1768 -0.8794  1.5320
 3443SOL     OW21964   2.403   1.104  13.197 -0.1503 -0.0887 -0.1022
 3443SOL    HW121965   2.389   1.031  13.257 -1.2337  0.0344 -0.1988
 3443SOL    HW221966   2.494   1.127  13.182 -0.2017 -0.0783 -0.4001
 3444SOL     OW21967   2.753   1.878  17.370 -0.1138 -0.2056 -0.1500
 3444SOL    HW121968   2.738   1.918  17.456  0.4369  1.1509 -0.6797
 3444SOL    HW221969   2.686   1.915  17.313  1.0175 -1.9092 -2.5770
 3445SOL     OW21970   1.224   3.974  13.700  0.6571  0.0524  0.1277
 3445SOL    HW121971   1.184   3.902  13.652  0.6337 -0.5266  1.0215
 3445SOL    HW221972   1.245   4.039  13.632 -0.0282  1.2978  1.1118
 3446SOL     OW21973   0.098   2.813   2.272 -0.0894 -0.2406 -0.3031
 3446SOL    HW121974   0.087   2.819   2.177  1.4226 -0.1642 -0.4744
 3446SOL    HW221975   0.074   2.724   2.296  1.2739 -0.1955  1.1811
 3447SOL     OW21976   0.043   2.441   1.268  0.6872  0.4805 -0.2927
 3447SOL    HW121977   0.117   2.467   1.323  0.2776 -1.1546  1.0251
 3447SOL    HW221978   4.733   2.523   1.265 -0.2548 -0.0297  1.4512
 3448SOL     OW21979   2.249   4.558   2.271 -0.2806  0.4347 -0.2101
 3448SOL    HW121980   2.282   4.623   2.333  2.0136 -0.8797 -0.0623
 3448SOL    HW221981   2.171   4.526   2.317 -0.7492  1.6106 -0.2085
 3449SOL     OW21982   3.123   1.333   8.950 -0.5971  0.5356 -0.1707
 3449SOL    HW121983   3.035   1.294   8.946 -0.4324  0.1881 -0.5079
 3449SOL    HW221984   3.159   1.290   9.027 -0.1293  1.1442 -0.0601
 3450SOL     OW21985   2.671   2.411   2.274  0.0695  0.3224  0.2390
 3450SOL    HW121986   2.638   2.488   2.319 -1.3957 -1.4316  2.1899
 3450SOL    HW221987   2.590   2.380   2.235 -0.1573  0.2814  0.7414
 3451SOL     OW21988   0.864   4.659   9.303 -0.0327 -0.1543  0.2791
 3451SOL    HW121989   0.861   4.576   9.350 -2.1628 -0.5612 -0.5722
 3451SOL    HW221990   0.902   4.711   9.374 -0.2829  0.9070 -0.3647
 3452SOL     OW21991   3.933   3.083   7.253  0.0534 -0.3463  0.3309
 3452SOL    HW121992   3.931   3.059   7.161  2.9049 -2.9044  0.9308
 3452SOL    HW221993   3.954   2.996   7.288 -2.3363 -0.0801  2.4450
 3453SOL     OW21994   1.940   1.439  11.310 -0.6225  0.3389 -0.3036
 3453SOL    HW121995   2.000   1.461  11.381  0.6146 -0.4506 -1.0910
 3453SOL    HW221996   1.904   1.524  11.284  0.2958  1.2812  1.5403
 3454SOL     OW21997   1.189   1.118   3.102 -0.1469  0.5371  0.0444
 3454SOL    HW121998   1.142   1.202   3.094 -1.5450 -0.0706  1.8966
 3454SOL    HW221999   1.270   1.134   3.150  0.2245  0.9771 -0.7187
 3455SOL     OW22000   0.077   0.350  14.410  0.0746  0.0227  0.2141
 3455SOL    HW122001   0.154   0.361  14.467  0.8365 -3.8586 -0.0367
 3455SOL    HW222002   0.073   0.438  14.372  1.0602 -0.4042 -0.8806
 3456SOL     OW22003   2.631   3.325   2.837 -0.3754 -0.0972 -0.3268
 3456SOL    HW122004   2.634   3.239   2.878 -1.1884  0.4408  0.8653
 3456SOL    HW222005   2.552   3.320   2.783 -1.2545  2.1659  0.7643
 3457SOL     OW22006   1.352   0.886   7.088  0.2746  0.4659  0.0152
 3457SOL    HW122007   1.320   0.971   7.059  0.6025  0.9906  1.2054
 3457SOL    HW222008   1.438   0.908   7.125  1.0853  0.6636 -1.9944
 3458SOL     OW22009   0.922   2.519   2.947  0.0936  0.7262 -0.2358
 3458SOL    HW122010   0.879   2.458   2.887  1.0611 -1.1043  0.9259
 3458SOL    HW222011   0.971   2.573   2.885 -1.7673  1.5650 -0.9816
 3459SOL     OW22012   2.535   1.000   5.235  0.3140  0.0619 -0.0349
 3459SOL    HW122013   2.442   0.981   5.223  0.5024 -1.7736  1.4363
 3459SOL    HW222014   2.577   0.927   5.189  0.4857  1.2908 -1.8125
 3460SOL     OW22015   4.374   1.097   9.415 -0.4770 -0.0550 -0.2537
 3460SOL    HW122016   4.305   1.069   9.355 -0.0507  1.7855 -1.6241
 3460SOL    HW222017   4.333   1.086   9.501  0.8130 -0.8980  0.2493
 3461SOL     OW22018   2.541   0.634   1.612 -0.3366  0.3024  0.2637
 3461SOL    HW122019   2.462   0.686   1.622  0.6474  1.6269  1.1791
 3461SOL    HW222020   2.592   0.697   1.561 -3.1189  0.8551 -1.7817
 3462SOL     OW22021   0.187   3.354   9.855 -0.4344  0.1716  0.0806
 3462SOL    HW122022   0.237   3.409   9.794 -0.6767 -0.8208 -1.0033
 3462SOL    HW222023   0.259   3.340   9.917 -2.0070 -0.8425  1.6608
 3463SOL     OW22024   3.834   2.531   4.350  0.6249  0.6626  0.3816
 3463SOL    HW122025   3.843   2.519   4.444  0.5462  0.2290  0.3390
 3463SOL    HW222026   3.761   2.472   4.331 -0.0272  2.2385 -2.0150
 3464SOL     OW22027   1.155   3.218   9.816  0.5085  0.0027 -0.0099
 3464SOL    HW122028   1.228   3.216   9.879  0.3878  0.9554  0.1657
 3464SOL    HW222029   1.089   3.268   9.864  0.6539  0.7565 -0.5984
 3465SOL     OW22030   0.167   4.503  10.716  0.3613  0.1548 -0.4491
 3465SOL    HW122031   0.231   4.483  10.648  1.4183 -1.2091  0.9526
 3465SOL    HW222032   0.209   4.473  10.796  0.0516  0.5538 -0.1339
 3466SOL     OW22033   0.460   4.120  13.108  0.1239 -0.2072 -0.3753
 3466SOL    HW122034   0.390   4.168  13.065  1.2003  0.7872 -0.9894
 3466SOL    HW222035   0.414   4.060  13.167  4.4614  0.0453  3.2852
 3467SOL     OW22036   0.564   4.003  16.484  0.5295 -0.2450 -0.0687
 3467SOL    HW122037   0.594   3.921  16.446 -1.4450 -1.2154  0.4696
 3467SOL    HW222038   0.530   4.061  16.415  1.3882  2.2964  1.6282
 3468SOL     OW22039   2.010   0.928   2.001 -0.5797 -0.2453  0.2934
 3468SOL    HW122040   1.987   0.914   1.909  1.3848  0.4496 -0.2914
 3468SOL    HW222041   2.026   0.838   2.029  1.4894  0.2314  0.6425
 3469SOL     OW22042   4.698   2.634   5.549 -0.1533  0.1735 -0.0651
 3469SOL    HW122043   4.710   2.701   5.483  0.3753 -0.0841 -0.2336
 3469SOL    HW222044   4.682   2.553   5.499 -2.2877  0.4706  0.1322
 3470SOL     OW22045   3.276   3.089   7.725 -0.0338  0.1983  0.4308
 3470SOL    HW122046   3.349   3.079   7.786  1.3744 -0.3868 -1.3362
 3470SOL    HW222047   3.202   3.115   7.780  0.2526 -0.5124  1.1442
 3471SOL     OW22048   2.167   2.956  12.889 -0.1635 -0.6329 -0.0880
 3471SOL    HW122049   2.092   2.925  12.838  0.1573 -0.0307 -0.9282
 3471SOL    HW222050   2.199   3.025  12.830 -1.8498 -0.8910 -1.3137
 3472SOL     OW22051   2.379   0.111   2.667 -0.2416  0.1360 -0.1519
 3472SOL    HW122052   2.346   0.120   2.756 -0.5898 -2.3047 -0.0476
 3472SOL    HW222053   2.420   0.197   2.653  2.1654 -0.9559  0.2346
 3473SOL     OW22054   0.123   1.659   0.913 -0.3515 -0.2013 -0.2336
 3473SOL    HW122055   0.131   1.637   0.821  1.1361  0.0078 -0.1608
 3473SOL    HW222056   0.028   1.669   0.917 -0.4484 -1.6388  1.3416
 3474SOL     OW22057   0.728   4.724   5.300  0.5606 -0.0534 -0.2445
 3474SOL    HW122058   0.728   4.686   5.212  4.0645 -0.6139  0.0364
 3474SOL    HW222059   0.762   4.644   5.340  1.0137  0.3321  0.1318
 3475SOL     OW22060   3.824   2.132   5.015  0.3244 -0.1769 -0.2889
 3475SOL    HW122061   3.759   2.178   5.069  0.5521 -2.0603  1.5847
 3475SOL    HW222062   3.805   2.178   4.934 -0.0394  1.8856  0.9613
 3476SOL     OW22063   4.532   1.369   2.828 -0.4151  0.1842  0.0483
 3476SOL    HW122064   4.624   1.357   2.806 -0.6720  1.7504 -1.9213
 3476SOL    HW222065   4.520   1.306   2.899  1.4659  0.0378  0.2227
 3477SOL     OW22066   3.845   3.034  17.203  0.1591 -0.7656 -0.1736
 3477SOL    HW122067   3.903   2.973  17.249  0.0151  0.8768  2.1616
 3477SOL    HW222068   3.792   3.072  17.273  0.7584 -0.2515 -0.0051
 3478SOL     OW22069   2.302   0.549   3.974 -0.2285 -0.0695  0.1040
 3478SOL    HW122070   2.359   0.526   4.048 -2.5006  1.2382  2.2863
 3478SOL    HW222071   2.290   0.459   3.944  0.8380  0.1804 -1.0753
 3479SOL     OW22072   4.303   1.003   6.890  0.0847  0.3045 -0.1621
 3479SOL    HW122073   4.345   1.007   6.976 -0.6808  3.1717  0.0696
 3479SOL    HW222074   4.248   0.926   6.902 -2.0814  1.8820 -0.0216
 3480SOL     OW22075   2.412   3.069   5.198  0.4305 -0.2698 -0.2792
 3480SOL    HW122076   2.321   3.041   5.202  0.9475 -1.5608  2.5975
 3480SOL    HW222077   2.452   2.988   5.164 -0.0443 -0.7461  0.2963
 3481SOL     OW22078   1.347   1.521   8.276  0.0002  0.1495 -0.3109
 3481SOL    HW122079   1.398   1.557   8.204  0.6695  0.7142  0.4390
 3481SOL    HW222080   1.370   1.589   8.339 -2.8205  0.0133  0.8617
 3482SOL     OW22081   3.739   3.989   9.437 -0.4887  0.1504 -0.4034
 3482SOL    HW122082   3.707   4.066   9.389  0.5478  0.4292 -0.6581
 3482SOL    HW222083   3.687   3.996   9.517  1.4174 -0.7164  0.8974
 3483SOL     OW22084   3.479   1.595   4.987 -0.3461 -0.6153 -0.2989
 3483SOL    HW122085   3.479   1.627   4.897 -0.0436  1.1775  0.3411
 3483SOL    HW222086   3.510   1.505   4.974 -4.1638 -1.6391 -2.3063
 3484SOL     OW22087   0.248   2.368   7.116  0.3085  0.3019  0.5593
 3484SOL    HW122088   0.308   2.306   7.074 -1.4121 -1.4271  0.6914
 3484SOL    HW222089   0.180   2.379   7.050  2.1746  0.3581 -1.3671
 3485SOL     OW22090   3.650   1.793  14.033  0.2480 -0.0619  0.1457
 3485SOL    HW122091   3.646   1.767  13.941 -0.6568 -0.7556  0.3804
 3485SOL    HW222092   3.699   1.874  14.023  2.3165 -1.2294  0.8731
 3486SOL     OW22093   2.938   1.679  17.309 -0.4246  0.1728  0.3202
 3486SOL    HW122094   2.879   1.753  17.295  0.0579  0.1533 -1.8916
 3486SOL    HW222095   2.883   1.618  17.357  1.5203 -0.9722  1.0890
 3487SOL     OW22096   3.928   0.011   2.069  0.0855 -0.2698 -0.4742
 3487SOL    HW122097   4.014   4.707   2.060  0.8212  1.0584  0.4049
 3487SOL    HW222098   3.874   4.722   1.995 -1.3083 -2.2483  1.2888
 3488SOL     OW22099   0.467   1.590   5.537 -0.2932 -0.0227 -0.1479
 3488SOL    HW122100   0.392   1.626   5.584  0.3081  0.4415  0.4548
 3488SOL    HW222101   0.466   1.639   5.455 -0.6199  0.4849  0.1649
 3489SOL     OW22102   2.849   2.375   1.361  0.3274  0.5839 -0.1231
 3489SOL    HW122103   2.902   2.383   1.282 -0.2323  2.5342 -0.2898
 3489SOL    HW222104   2.816   2.285   1.355 -0.8762  0.8898  1.7574
 3490SOL     OW22105   1.208   3.309  12.439 -0.5415  0.8078  0.1310
 3490SOL    HW122106   1.284   3.348  12.395  0.8500 -0.2772  1.6113
 3490SOL    HW222107   1.252   3.257  12.506 -0.8924  0.0660 -0.2111
 3491SOL     OW22108   0.136   3.573  16.763  0.1189 -0.2664  0.0271
 3491SOL    HW122109   0.075   3.500  16.761  1.2554 -1.2002 -0.4454
 3491SOL    HW222110   0.159   3.574  16.670  2.3026 -1.7947  0.5650
 3492SOL     OW22111   0.623   1.233   1.164 -0.1999  0.1413 -0.3244
 3492SOL    HW122112   0.594   1.152   1.206 -0.6227 -1.1954 -3.1987
 3492SOL    HW222113   0.675   1.275   1.233 -0.8539  0.6108 -0.1245
 3493SOL     OW22114   0.902   3.795   6.237 -0.1789 -0.1347 -0.2365
 3493SOL    HW122115   0.908   3.782   6.332 -0.5876 -0.9239 -0.3196
 3493SOL    HW222116   0.994   3.782   6.213  0.3669  0.7350  1.3926
 3494SOL     OW22117   4.683   1.404   6.569 -0.4349  0.8151 -0.2980
 3494SOL    HW122118   4.629   1.400   6.647  0.5896 -1.7853  0.2860
 3494SOL    HW222119   4.668   1.498   6.569  0.5525  0.9656  1.0962
 3495SOL     OW22120   2.584   2.908   4.017  0.0923 -0.0879  0.0699
 3495SOL    HW122121   2.548   2.907   4.106 -0.6382  1.3937 -0.1989
 3495SOL    HW222122   2.646   2.980   4.028  3.6047 -3.3576  1.4762
 3496SOL     OW22123   3.359   4.261   9.904 -0.1538  0.3060  0.4509
 3496SOL    HW122124   3.264   4.250   9.895  0.1722 -1.7866 -0.3748
 3496SOL    HW222125   3.376   4.352   9.929  0.1111  0.1459  0.8594
 3497SOL     OW22126   0.892   0.141   8.938 -0.0286  0.0303 -0.0204
 3497SOL    HW122127   0.834   0.208   8.974 -0.2480  0.8838 -2.0185
 3497SOL    HW222128   0.921   0.192   8.862 -0.0117  1.3853  0.8824
 3498SOL     OW22129   3.346   2.758  10.950 -0.3377  0.2614  0.0165
 3498SOL    HW122130   3.372   2.849  10.954 -1.0092  0.4295  0.5926
 3498SOL    HW222131   3.263   2.755  10.997 -0.9879  1.7536 -1.0537
 3499SOL     OW22132   0.763   3.250  16.139 -0.2605  0.4546 -0.1085
 3499SOL    HW122133   0.676   3.246  16.100 -0.4461  1.1071  0.2435
 3499SOL    HW222134   0.741   3.200  16.218  0.8853  3.2806  2.0044
 3500SOL     OW22135   3.243   4.298   7.887  0.1726  0.0429  0.0320
 3500SOL    HW122136   3.154   4.268   7.871  0.4578 -0.9739  0.3310
 3500SOL    HW222137   3.248   4.274   7.980 -1.8315 -1.0290 -0.1496
 3501SOL     OW22138   3.448   0.722   2.139  0.1694  0.6533  0.4743
 3501SOL    HW122139   3.481   0.714   2.049 -1.1732  0.2653  0.0152
 3501SOL    HW222140   3.488   0.802   2.174  3.1556 -1.2744  1.4402
 3502SOL     OW22141   2.560   0.625  14.206 -0.1168 -0.7564 -0.2521
 3502SOL    HW122142   2.466   0.631  14.220  0.0408 -0.1165  0.5571
 3502SOL    HW222143   2.598   0.637  14.293  1.1119  0.4987 -0.9561
 3503SOL     OW22144   2.886   3.596  14.057 -0.0834 -0.3872 -0.1728
 3503SOL    HW122145   2.834   3.592  14.138  0.7042  1.0798  0.4145
 3503SOL    HW222146   2.824   3.624  13.989 -0.1031 -0.5951 -0.2391
 3504SOL     OW22147   0.020   0.599   2.469 -0.2638 -0.1468  0.0490
 3504SOL    HW122148   0.036   0.641   2.385 -1.5353  0.9103  0.3333
 3504SOL    HW222149   0.010   0.505   2.454  0.3027  0.1659 -2.2652
 3505SOL     OW22150   2.671   1.622   4.490 -0.6983 -0.3475 -0.4997
 3505SOL    HW122151   2.610   1.633   4.563  0.2784 -1.0151  0.4110
 3505SOL    HW222152   2.736   1.684   4.520 -0.8903 -1.4288  2.1369
 3506SOL     OW22153   0.087   3.798   7.937 -0.5023  0.0790 -0.1951
 3506SOL    HW122154   0.049   3.849   7.864  0.0805 -0.9203 -1.1948
 3506SOL    HW222155   0.014   3.739   7.956 -0.6304  0.3536  0.1827
 3507SOL     OW22156   2.761   1.648   1.841 -0.0490  0.4044 -0.8612
 3507SOL    HW122157   2.745   1.597   1.920  1.8718 -0.2719 -0.9086
 3507SOL    HW222158   2.776   1.574   1.783 -1.9467  0.2378 -1.1450
 3508SOL     OW22159   3.373   0.536   9.513 -0.7692  0.5414 -0.2280
 3508SOL    HW122160   3.279   0.534   9.531 -0.4576  0.8679  1.4923
 3508SOL    HW222161   3.418   0.522   9.597  0.8579 -2.3715 -1.5773
 3509SOL     OW22162   1.143   1.440   8.850  0.2629  0.7628  0.2345
 3509SOL    HW122163   1.219   1.400   8.807 -1.1353 -0.6711 -0.9315
 3509SOL    HW222164   1.087   1.448   8.773 -0.7842 -2.3893  0.6634
 3510SOL     OW22165   2.655   2.448   2.926  0.4442 -0.4584  0.4479
 3510SOL    HW122166   2.676   2.377   2.866 -1.4241 -0.4746 -0.1818
 3510SOL    HW222167   2.631   2.398   3.003  1.0358  0.2356  1.0903
 3511SOL     OW22168   1.062   3.796   7.543  0.5236  0.4113 -0.4048
 3511SOL    HW122169   1.105   3.847   7.474  0.8290  0.3806 -0.2410
 3511SOL    HW222170   1.115   3.828   7.616 -1.3135  0.5539  0.8478
 3512SOL     OW22171   2.990   2.122  14.720 -0.0754  0.1688 -0.0149
 3512SOL    HW122172   3.014   2.149  14.632  0.0812  0.3329  0.0777
 3512SOL    HW222173   3.067   2.070  14.743 -0.5862 -0.3801  0.4751
 3513SOL     OW22174   4.733   2.349   8.546  0.6668 -0.1112  0.3885
 3513SOL    HW122175   4.738   2.361   8.451 -1.2897  2.9824  0.6951
 3513SOL    HW222176   0.047   2.423   8.576  0.8005 -0.1413  0.2275
 3514SOL     OW22177   0.227   1.783  16.470 -0.2250  0.0515 -0.1439
 3514SOL    HW122178   0.196   1.798  16.559  3.1713  0.2471  1.0071
 3514SOL    HW222179   0.321   1.798  16.479 -0.6325  2.5514 -0.0314
 3515SOL     OW22180   2.109   3.250  15.063  0.0625 -0.1751 -0.2864
 3515SOL    HW122181   2.109   3.209  14.976 -1.2655 -0.7621  0.0052
 3515SOL    HW222182   2.112   3.341  15.031  0.0897  0.1916  0.7748
 3516SOL     OW22183   3.535   0.756   4.204  0.3114  0.4430 -0.3606
 3516SOL    HW122184   3.575   0.831   4.161 -1.4699  1.5353 -0.1346
 3516SOL    HW222185   3.566   0.675   4.164  0.6677 -0.3713  1.5506
 3517SOL     OW22186   2.468   2.184   0.025 -0.0300  0.1674 -0.0041
 3517SOL    HW122187   2.433   2.096   0.013  1.3328 -0.6567  2.0492
 3517SOL    HW222188   2.466   2.204  17.684 -2.8186  1.6401  0.3776
 3518SOL     OW22189   2.696   3.929   3.052 -0.4462  0.1194 -0.1286
 3518SOL    HW122190   2.666   3.995   2.989 -0.3352  1.2824  1.0399
 3518SOL    HW222191   2.744   3.989   3.108 -0.9782  1.2813 -0.9178
 3519SOL     OW22192   4.387   2.667   2.550 -0.5758  0.0614  0.0692
 3519SOL    HW122193   4.308   2.708   2.587 -1.0370  0.4800 -1.3979
 3519SOL    HW222194   4.456   2.711   2.601  0.8915 -0.8664 -1.1217
 3520SOL     OW22195   0.721   0.767   4.223 -0.5133  0.3259  0.6102
 3520SOL    HW122196   0.794   0.713   4.192 -0.8556  0.6246 -0.6734
 3520SOL    HW222197   0.767   0.844   4.256  0.3843  0.3838 -0.7703
 3521SOL     OW22198   0.583   4.023   9.223  0.1812  0.2860 -0.2256
 3521SOL    HW122199   0.619   3.984   9.303 -0.4841 -1.4851 -0.7835
 3521SOL    HW222200   0.504   4.066   9.255 -0.5852 -0.7814 -0.6631
 3522SOL     OW22201   1.197   0.679   5.515  0.2104  0.8907  0.2633
 3522SOL    HW122202   1.160   0.739   5.450 -0.1818 -0.1741 -0.4896
 3522SOL    HW222203   1.117   0.643   5.553  0.3857 -0.0964 -0.3138
 3523SOL     OW22204   1.920   1.495   8.092  0.6762  0.3822  0.1971
 3523SOL    HW122205   1.896   1.404   8.077 -0.5909  0.5130  1.4496
 3523SOL    HW222206   1.832   1.532   8.100  0.9316  0.7798  1.2208
 3524SOL     OW22207   3.643   1.732   9.449  0.1813 -0.1948 -0.4993
 3524SOL    HW122208   3.617   1.686   9.370  0.6732 -0.8255 -0.2952
 3524SOL    HW222209   3.562   1.724   9.499  0.8561  1.1298  0.8216
 3525SOL     OW22210   2.656   0.501   4.436  0.4219  0.6988 -0.0552
 3525SOL    HW122211   2.668   0.408   4.415  0.8727  0.7194  0.1233
 3525SOL    HW222212   2.570   0.506   4.478  1.5873  0.7343  2.3225
 3526SOL     OW22213   2.947   2.706  15.676 -0.1832  0.0130  0.2461
 3526SOL    HW122214   2.925   2.784  15.625 -3.0790 -1.4683 -0.7626
 3526SOL    HW222215   3.042   2.699  15.679 -0.4251 -2.7042  1.8946
 3527SOL     OW22216   1.298   3.547  11.776 -0.1680  0.4333  0.0204
 3527SOL    HW122217   1.234   3.539  11.847  0.2723  0.8468  0.4691
 3527SOL    HW222218   1.341   3.463  11.792 -2.3645 -1.1765 -2.5184
 3528SOL     OW22219   0.070   4.506   4.258  0.2276 -0.2169  0.0465
 3528SOL    HW122220   0.003   4.570   4.234 -1.5917 -2.7374 -1.6851
 3528SOL    HW222221   0.017   4.450   4.314 -2.7872  0.9911 -1.6450
 3529SOL     OW22222   4.014   1.070   2.856  0.2469  0.4606  0.3278
 3529SOL    HW122223   4.024   1.083   2.762  1.0092 -1.0028  0.1913
 3529SOL    HW222224   4.104   1.051   2.883  0.6392  1.6537 -0.1459
 3530SOL     OW22225   2.858   2.877  14.365 -0.6719 -0.1024  0.3556
 3530SOL    HW122226   2.811   2.877  14.448  0.0915  1.0568  0.7900
 3530SOL    HW222227   2.795   2.898  14.296 -0.6423 -1.6167 -0.1499
 3531SOL     OW22228   2.115   4.525   0.679  0.1698  0.3025 -0.4459
 3531SOL    HW122229   2.123   4.556   0.770 -3.1817  3.2845 -1.1697
 3531SOL    HW222230   2.202   4.548   0.647 -0.3435  0.0774 -1.9733
 3532SOL     OW22231   2.248   2.657   4.741  0.1694 -0.0952  0.1044
 3532SOL    HW122232   2.301   2.735   4.754 -2.5077  1.1548  3.6284
 3532SOL    HW222233   2.216   2.661   4.651 -0.6840  2.4172  0.5378
 3533SOL     OW22234   3.354   3.981   3.212 -0.0802 -0.5041 -1.0542
 3533SOL    HW122235   3.447   3.990   3.234 -0.2089 -2.1498  0.1705
 3533SOL    HW222236   3.320   4.020   3.292  1.8225 -0.3391 -0.3131
 3534SOL     OW22237   3.410   1.021   2.978  0.1861 -0.4131 -0.3487
 3534SOL    HW122238   3.335   1.080   2.967  0.9754  0.4212 -1.3562
 3534SOL    HW222239   3.370   0.936   2.959  0.2354 -0.5914  0.3515
 3535SOL     OW22240   0.173   3.554   1.762  0.0414 -0.3649 -0.6057
 3535SOL    HW122241   0.129   3.583   1.842 -1.8714  1.1310 -2.1614
 3535SOL    HW222242   0.228   3.630   1.741  0.6022 -0.3161  1.0823
 3536SOL     OW22243   2.171   2.252   8.200 -0.1356 -0.0558  0.1625
 3536SOL    HW122244   2.209   2.173   8.236  1.3290  0.6893  0.2345
 3536SOL    HW222245   2.217   2.327   8.238 -0.9758 -0.2771  1.6063
 3537SOL     OW22246   2.030   1.053   3.217  1.2263  0.1903  0.2530
 3537SOL    HW122247   1.961   1.033   3.279  0.6891  0.5351 -0.2310
 3537SOL    HW222248   2.017   0.981   3.155 -0.3869  0.1369  0.6524
 3538SOL     OW22249   4.225   4.527   8.885 -0.3631 -0.5190  0.1978
 3538SOL    HW122250   4.199   4.468   8.955 -3.1684 -1.0456 -1.2714
 3538SOL    HW222251   4.148   4.574   8.855 -1.2021 -0.0390  3.1453
 3539SOL     OW22252   0.741   3.826   2.245 -0.0294  0.0939 -0.5239
 3539SOL    HW122253   0.664   3.775   2.268 -0.7849  0.3334 -2.5553
 3539SOL    HW222254   0.812   3.762   2.251 -1.8856 -1.9023  0.0808
 3540SOL     OW22255   1.837   3.294   8.008  0.3357  0.3514  0.0848
 3540SOL    HW122256   1.905   3.228   7.993 -0.0994 -0.3637  1.3449
 3540SOL    HW222257   1.857   3.309   8.100  0.1796 -1.7158  0.4641
 3541SOL     OW22258   0.613   4.021   5.099  0.0011 -0.3180 -0.4149
 3541SOL    HW122259   0.573   3.942   5.135  1.1691 -1.0875 -0.8083
 3541SOL    HW222260   0.685   4.030   5.161 -0.4026  0.1178 -0.0045
 3542SOL     OW22261   3.961   3.720   6.639  0.3833 -0.0982  0.2875
 3542SOL    HW122262   3.912   3.664   6.699  0.2096 -0.7489 -0.4701
 3542SOL    HW222263   4.014   3.664   6.581 -0.1270  0.6547 -0.8979
 3543SOL     OW22264   3.425   0.317  15.652 -0.3591  0.1659 -0.0363
 3543SOL    HW122265   3.468   0.374  15.716 -3.1999  1.3014  0.8743
 3543SOL    HW222266   3.460   0.233  15.680 -0.7749  0.5431  1.6500
 3544SOL     OW22267   1.602   4.154  12.275  0.1608 -0.2650 -0.0333
 3544SOL    HW122268   1.664   4.087  12.248 -0.4326 -1.0116  0.4404
 3544SOL    HW222269   1.657   4.219  12.319 -0.3284  0.3047 -0.2583
 3545SOL     OW22270   1.633   2.629   7.313  0.5891 -0.6741  0.3724
 3545SOL    HW122271   1.661   2.542   7.341 -0.0410 -0.3845  1.9119
 3545SOL    HW222272   1.617   2.672   7.398  2.8602  0.3572  0.2708
 3546SOL     OW22273   1.508   0.994  15.505  0.1396 -0.2855 -0.5265
 3546SOL    HW122274   1.417   0.968  15.517 -0.4351  0.9553 -2.0256
 3546SOL    HW222275   1.501   1.022  15.413  0.0498 -2.2290 -1.1106
 3547SOL     OW22276   1.150   3.683   6.116  0.0078 -0.2384  0.0419
 3547SOL    HW122277   1.141   3.753   6.051  2.3577 -1.7533 -1.8941
 3547SOL    HW222278   1.207   3.627   6.064  1.2538  0.8677  0.2356
 3548SOL     OW22279   1.240   2.210   5.506  0.3735  0.3602  0.0988
 3548SOL    HW122280   1.166   2.263   5.478  0.1195  0.9629  1.8847
 3548SOL    HW222281   1.256   2.151   5.433  0.9211 -0.1619  0.6382
 3549SOL     OW22282   0.512   2.822   5.696 -0.1637  0.3140 -0.1206
 3549SOL    HW122283   0.608   2.819   5.697 -0.1863 -0.0061  0.7476
 3549SOL    HW222284   0.493   2.911   5.726 -1.9877 -0.6699  1.6230
 3550SOL     OW22285   1.501   2.424   4.396 -0.2353 -0.1937 -0.0031
 3550SOL    HW122286   1.454   2.472   4.464 -0.3821  0.4462 -0.5573
 3550SOL    HW222287   1.445   2.347   4.397  0.3840 -0.6574 -0.4963
 3551SOL     OW22288   1.000   3.005  11.382  0.1183  0.6131 -0.1726
 3551SOL    HW122289   0.939   2.983  11.452  3.1432  3.0789  3.2309
 3551SOL    HW222290   1.018   2.918  11.347 -1.0886  1.0722 -1.9265
 3552SOL     OW22291   1.845   1.357  10.922  0.2621 -0.4986 -0.7904
 3552SOL    HW122292   1.923   1.322  10.881 -1.0372 -1.2684 -2.5981
 3552SOL    HW222293   1.776   1.295  10.899  1.0643 -1.1272 -1.4690
 3553SOL     OW22294   1.873   0.134   6.564  0.0367 -0.2964  0.3495
 3553SOL    HW122295   1.792   0.184   6.562  0.2911  0.0883 -0.5680
 3553SOL    HW222296   1.896   0.164   6.652  1.5681 -0.9365  0.1670
 3554SOL     OW22297   4.194   1.474   5.498  0.0657 -0.1344  0.9936
 3554SOL    HW122298   4.204   1.387   5.458  0.6465  1.1625 -1.7228
 3554SOL    HW222299   4.178   1.443   5.587  0.3198 -1.5579  0.5542
 3555SOL     OW22300   0.933   1.099  16.510 -0.1047  0.8500  0.4321
 3555SOL    HW122301   0.917   1.102  16.416  1.0993  3.2855  0.3144
 3555SOL    HW222302   0.851   1.051  16.526  1.1704 -1.5793 -0.4403
 3556SOL     OW22303   1.365   1.304   2.483 -0.4001 -0.4646 -0.0440
 3556SOL    HW122304   1.297   1.271   2.425  0.0393  0.7505 -1.2697
 3556SOL    HW222305   1.408   1.368   2.426  1.4563 -0.9894  0.7521
 3557SOL     OW22306   3.182   4.257   8.935  0.3309 -0.0103  0.1770
 3557SOL    HW122307   3.211   4.212   9.014 -0.1704  0.5214  0.6684
 3557SOL    HW222308   3.139   4.333   8.975 -0.1057 -0.1919  0.0461
 3558SOL     OW22309   0.014   4.630   6.464 -0.2118  0.2725 -0.0402
 3558SOL    HW122310   0.080   4.563   6.477 -2.1213 -1.4681  0.5387
 3558SOL    HW222311   0.057   4.714   6.483  1.0947 -0.3740 -0.1622
 3559SOL     OW22312   3.193   1.163  12.688  0.1479 -0.5028 -0.1155
 3559SOL    HW122313   3.242   1.201  12.761  1.3660  0.0713 -1.2495
 3559SOL    HW222314   3.181   1.073  12.719  0.7104  0.0762  1.8168
 3560SOL     OW22315   2.112   1.589   7.940 -0.2191  0.4118 -0.3893
 3560SOL    HW122316   2.073   1.627   7.861  0.2178 -1.0593 -1.3242
 3560SOL    HW222317   2.033   1.562   7.987 -0.7031  1.4347 -0.6197
 3561SOL     OW22318   2.944   0.906   8.482  0.1126 -0.0261 -0.2871
 3561SOL    HW122319   2.885   0.981   8.473 -0.1663  0.1265  2.7662
 3561SOL    HW222320   2.900   0.841   8.428  2.3717 -1.3339 -0.5732
 3562SOL     OW22321   0.865   1.683  12.673  0.2414 -0.0460  0.1944
 3562SOL    HW122322   0.821   1.764  12.701 -0.7908 -0.7089  0.5080
 3562SOL    HW222323   0.937   1.678  12.735 -0.4811 -2.1143  0.8802
 3563SOL     OW22324   2.792   2.652   3.767 -0.2541 -0.1736  0.1222
 3563SOL    HW122325   2.767   2.641   3.859 -1.3632  2.0423  0.0716
 3563SOL    HW222326   2.793   2.563   3.731 -0.1969 -0.1137 -0.0244
 3564SOL     OW22327   3.486   3.372  16.351 -0.7615 -0.4188 -0.3134
 3564SOL    HW122328   3.528   3.404  16.432  1.3735  0.2462 -1.6913
 3564SOL    HW222329   3.484   3.447  16.291 -0.1715 -0.4710 -0.3933
 3565SOL     OW22330   2.691   0.071   5.702  0.0479  0.2474  0.5810
 3565SOL    HW122331   2.647   0.095   5.621  1.1573 -0.0305 -0.1049
 3565SOL    HW222332   2.751   0.002   5.676 -1.3331 -0.8362  0.2908
 3566SOL     OW22333   3.823   0.881  15.565 -0.4134 -0.0642 -0.3605
 3566SOL    HW122334   3.748   0.908  15.617  0.5124  0.0545  0.9212
 3566SOL    HW222335   3.817   0.948  15.498  1.2120  1.1512  0.6908
 3567SOL     OW22336   1.582   2.939   2.874 -0.3732 -0.3066  0.7782
 3567SOL    HW122337   1.538   3.009   2.922  0.4503 -0.3256  1.5660
 3567SOL    HW222338   1.535   2.866   2.914 -1.8237  0.0855 -0.2387
 3568SOL     OW22339   2.544   3.401   3.341  0.2121 -0.0279 -0.0367
 3568SOL    HW122340   2.508   3.466   3.402  0.3438  0.5369 -0.5543
 3568SOL    HW222341   2.629   3.442   3.321  1.0607 -0.7310  2.1709
 3569SOL     OW22342   0.403   1.941   8.540  0.4647 -0.0526 -0.2059
 3569SOL    HW122343   0.341   1.988   8.595  2.8189  2.7870  0.0217
 3569SOL    HW222344   0.344   1.897   8.479 -0.4383  0.0321  0.6126
 3570SOL     OW22345   4.011   1.507   2.669 -0.0130  0.5508  0.0012
 3570SOL    HW122346   4.065   1.485   2.745 -1.2064 -1.4027  0.2805
 3570SOL    HW222347   3.935   1.510   2.729 -1.1600 -0.8196 -1.4072
 3571SOL     OW22348   3.611   4.459  14.703 -0.3690 -0.5500 -0.1392
 3571SOL    HW122349   3.597   4.376  14.749 -2.7121 -0.7583 -1.1849
 3571SOL    HW222350   3.667   4.433  14.631  2.0498 -0.9877  1.9158
 3572SOL     OW22351   4.327   3.455  15.414  0.3173  0.1674 -0.2362
 3572SOL    HW122352   4.347   3.481  15.504  1.5625  0.1125 -0.4929
 3572SOL    HW222353   4.385   3.503  15.355 -0.9146 -0.2118 -1.7394
 3573SOL     OW22354   2.011   3.848   4.080 -0.1139  0.6408 -0.3178
 3573SOL    HW122355   2.037   3.777   4.021  1.0324 -0.6340  1.7628
 3573SOL    HW222356   1.973   3.800   4.153  2.4258 -0.1119  0.5319
 3574SOL     OW22357   1.517   1.602   5.892  0.0630 -0.3909 -0.1730
 3574SOL    HW122358   1.491   1.546   5.818 -1.2399 -0.3179  0.2344
 3574SOL    HW222359   1.589   1.552   5.931 -1.7414 -2.5388  0.4277
 3575SOL     OW22360   2.115   2.528   0.361 -0.1625  0.5880 -0.1260
 3575SOL    HW122361   2.172   2.561   0.292 -1.3936 -1.1194 -2.0037
 3575SOL    HW222362   2.176   2.482   0.418 -1.5811 -0.5339  0.5169
 3576SOL     OW22363   3.232   0.615  10.147 -0.1060 -0.6771 -0.6721
 3576SOL    HW122364   3.149   0.637  10.189 -0.5180 -1.3051 -1.1551
 3576SOL    HW222365   3.208   0.569  10.066  1.6515 -0.0805 -1.5191
 3577SOL     OW22366   2.657   3.670  15.984 -0.1246 -0.0808 -0.0569
 3577SOL    HW122367   2.695   3.650  16.070  2.0916  0.3793 -0.9278
 3577SOL    HW222368   2.669   3.765  15.977  0.6742 -0.3982 -2.7684
 3578SOL     OW22369   3.128   0.164   3.177  0.4076  0.7859 -0.2034
 3578SOL    HW122370   3.175   0.083   3.198  0.1716  0.9956  1.1339
 3578SOL    HW222371   3.201   0.219   3.149  0.7062 -0.5114 -1.9727
 3579SOL     OW22372   1.328   1.855   3.011  0.4164 -0.2010  0.2855
 3579SOL    HW122373   1.379   1.926   2.972 -0.4205  1.0970  1.5784
 3579SOL    HW222374   1.379   1.780   2.978  0.6338  0.1053 -0.0752
 3580SOL     OW22375   3.247   2.978  10.282  0.2131 -0.2885 -0.4808
 3580SOL    HW122376   3.188   2.903  10.276 -1.4616  1.0212 -0.6545
 3580SOL    HW222377   3.190   3.049  10.312  1.1139  1.1694 -2.1838
 3581SOL     OW22378   1.321   1.855  15.459 -0.1369  0.2559  0.2442
 3581SOL    HW122379   1.295   1.779  15.406 -0.5734 -0.3724  1.3500
 3581SOL    HW222380   1.416   1.860  15.449 -0.1912  0.6392 -0.0675
 3582SOL     OW22381   3.487   3.645   5.053  0.1377 -0.2958  0.4947
 3582SOL    HW122382   3.538   3.592   5.114 -0.2707 -1.1689  0.0770
 3582SOL    HW222383   3.438   3.703   5.112 -0.2735 -2.7353  2.5351
 3583SOL     OW22384   4.048   2.440   4.195  0.4045 -0.0774 -0.0013
 3583SOL    HW122385   3.984   2.476   4.257 -0.6939 -0.7674 -0.7304
 3583SOL    HW222386   3.997   2.461   4.116  2.6757  0.7853 -1.2352
 3584SOL     OW22387   3.948   4.230   8.786 -0.0571 -0.3551 -0.1892
 3584SOL    HW122388   3.989   4.173   8.721  1.1025 -0.7642  0.9038
 3584SOL    HW222389   3.982   4.317   8.763 -1.6512  0.9000  2.1811
 3585SOL     OW22390   1.543   4.336  11.887 -0.1343  0.3420  0.2122
 3585SOL    HW122391   1.613   4.319  11.825 -1.3080 -0.2488 -0.9489
 3585SOL    HW222392   1.475   4.352  11.822  0.7326 -2.2909 -1.3677
 3586SOL     OW22393   2.815   3.200   5.271  0.3544  0.1622 -0.3636
 3586SOL    HW122394   2.862   3.262   5.327  0.9347  0.4796 -1.1913
 3586SOL    HW222395   2.734   3.179   5.317  0.1964  0.6100 -0.4289
 3587SOL     OW22396   0.638   1.441   3.559  0.0008 -0.5176  0.8142
 3587SOL    HW122397   0.556   1.436   3.606  0.8230 -0.0399  2.2911
 3587SOL    HW222398   0.652   1.358   3.514 -2.5248 -0.3799 -0.2063
 3588SOL     OW22399   3.885   1.466   9.329  0.7002 -0.4558 -0.3223
 3588SOL    HW122400   3.866   1.554   9.298 -2.6166 -0.2680  2.2199
 3588SOL    HW222401   3.819   1.411   9.287 -0.0953  0.0678  0.2437
 3589SOL     OW22402   2.315   1.475   3.517  0.3405  0.4159 -0.6517
 3589SOL    HW122403   2.259   1.428   3.579 -0.6569 -0.9037 -2.5483
 3589SOL    HW222404   2.316   1.566   3.546  0.6916  0.8569 -2.0721
 3590SOL     OW22405   1.671   0.307   3.072 -0.0006  0.1975 -0.1728
 3590SOL    HW122406   1.752   0.257   3.072 -1.3703 -2.0370 -2.1402
 3590SOL    HW222407   1.614   0.244   3.028  1.1567  0.6859 -2.4007
 3591SOL     OW22408   0.731   3.593   3.592  0.1303  0.3982  0.2314
 3591SOL    HW122409   0.710   3.624   3.504  2.5465 -1.3384 -0.9579
 3591SOL    HW222410   0.694   3.506   3.579 -1.3603  1.1079 -0.3260
 3592SOL     OW22411   2.656   2.849  14.168 -0.3695 -0.1760  0.7146
 3592SOL    HW122412   2.664   2.787  14.095  1.9055 -0.4162  1.1591
 3592SOL    HW222413   2.597   2.801  14.226  0.1304 -2.5341 -0.7234
 3593SOL     OW22414   0.771   0.694   9.548 -0.2819 -0.3118 -0.2140
 3593SOL    HW122415   0.684   0.722   9.573  1.2177  2.8753  1.4357
 3593SOL    HW222416   0.784   0.743   9.467  1.5621  1.4407  1.1493
 3594SOL     OW22417   3.242   2.232  14.267 -0.1639 -0.2894  0.1521
 3594SOL    HW122418   3.322   2.230  14.215  0.3128  0.0856  0.8748
 3594SOL    HW222419   3.179   2.210  14.199  2.9309  1.5952 -3.2950
 3595SOL     OW22420   3.862   1.678  13.196 -0.4025  0.2330 -0.1231
 3595SOL    HW122421   3.916   1.652  13.270  3.0951  0.6995 -2.5201
 3595SOL    HW222422   3.778   1.686  13.241 -0.4550 -1.5342  0.0901
 3596SOL     OW22423   2.414   3.374   4.702 -0.0579  0.1742 -0.9135
 3596SOL    HW122424   2.501   3.333   4.704 -0.6637 -0.9471  2.6181
 3596SOL    HW222425   2.386   3.367   4.794  0.7811  1.0786 -0.5825
 3597SOL     OW22426   2.625   4.291   3.214  0.2662  0.6888  0.6468
 3597SOL    HW122427   2.633   4.331   3.127  0.6921 -0.0168  0.3549
 3597SOL    HW222428   2.695   4.226   3.217  0.1497  0.5233 -0.1838
 3598SOL     OW22429   0.192   0.521   4.852  0.2540  0.1909  0.1393
 3598SOL    HW122430   0.178   0.616   4.846  0.5383  0.4101  2.9260
 3598SOL    HW222431   0.151   0.501   4.936 -2.0933  1.6356 -0.6705
 3599SOL     OW22432   0.755   1.858   6.389 -0.3583  0.3453 -0.0857
 3599SOL    HW122433   0.802   1.877   6.308 -1.0297 -0.8824 -0.7608
 3599SOL    HW222434   0.677   1.810   6.361 -0.2990  0.9079 -1.2333
 3600SOL     OW22435   0.831   4.555   8.615 -0.2993 -0.5183 -0.6682
 3600SOL    HW122436   0.874   4.550   8.530 -0.4945  3.2027 -0.9869
 3600SOL    HW222437   0.893   4.532   8.684  0.1482  2.4055 -0.0903
 3601SOL     OW22438   1.168   1.840   4.312  0.0592  0.4507  0.2397
 3601SOL    HW122439   1.260   1.864   4.320 -0.6537  2.6815  1.9038
 3601SOL    HW222440   1.145   1.853   4.220  1.8677  1.1741 -0.0957
 3602SOL     OW22441   3.742   3.652   7.549  0.2181 -0.1390 -0.0174
 3602SOL    HW122442   3.704   3.613   7.470 -0.5810  0.9891 -0.1811
 3602SOL    HW222443   3.662   3.692   7.583  0.0982 -0.6878  0.3485
 3603SOL     OW22444   1.495   3.907   1.018 -0.0943  0.3528 -0.5691
 3603SOL    HW122445   1.511   3.850   0.943  0.2997 -0.3562  0.0542
 3603SOL    HW222446   1.577   3.954   1.032 -0.8152  1.8687 -1.3470
 3604SOL     OW22447   2.955   1.660   8.470 -0.4276 -0.1027 -0.1309
 3604SOL    HW122448   2.938   1.658   8.564 -0.2571 -0.7855 -0.1143
 3604SOL    HW222449   3.043   1.622   8.469 -0.3909 -0.0092 -0.3239
 3605SOL     OW22450   0.014   3.777   3.777  0.1762 -0.3690 -0.3539
 3605SOL    HW122451   0.075   3.850   3.763  0.9248 -1.0891 -0.8094
 3605SOL    HW222452   4.718   3.805   3.862  0.8600 -1.2458  0.2283
 3606SOL     OW22453   4.407   2.133   6.815 -0.7898 -0.3414 -0.0664
 3606SOL    HW122454   4.409   2.219   6.856  1.5938 -1.5281  2.2746
 3606SOL    HW222455   4.492   2.093   6.833  0.8020  1.5235 -3.4025
 3607SOL     OW22456   1.321   1.491   7.061  0.5290  0.0474 -0.7971
 3607SOL    HW122457   1.344   1.445   7.142 -1.5249  1.9731  0.8806
 3607SOL    HW222458   1.412   1.501   7.032  1.1181  0.9733  1.3701
 3608SOL     OW22459   2.169   1.840   1.865 -0.5640 -0.1694  0.5053
 3608SOL    HW122460   2.156   1.907   1.798 -1.3493  0.6736  1.5071
 3608SOL    HW222461   2.103   1.774   1.841  1.1836 -2.0466  0.8331
 3609SOL     OW22462   3.177   4.144   8.203 -0.0493  0.0031  0.0444
 3609SOL    HW122463   3.104   4.091   8.171  0.6552 -1.0648  0.2104
 3609SOL    HW222464   3.154   4.235   8.185  0.8367  0.3945  0.8800
 3610SOL     OW22465   1.156   2.668   6.143 -1.1671 -0.0887 -0.1395
 3610SOL    HW122466   1.066   2.690   6.166 -1.2355  0.7402 -1.2110
 3610SOL    HW222467   1.151   2.574   6.162  0.4091  0.0175  0.7719
 3611SOL     OW22468   0.906   3.137   2.718 -0.4468  0.1260 -0.6208
 3611SOL    HW122469   0.890   3.046   2.693 -2.2622  0.1085  0.5745
 3611SOL    HW222470   0.980   3.168   2.666  2.0818 -0.1602  2.8233
 3612SOL     OW22471   4.726   2.420  12.912  0.0530 -0.0873  0.0529
 3612SOL    HW122472   0.031   2.421  12.827  1.4592 -1.0833  0.7547
 3612SOL    HW222473   4.658   2.358  12.886 -0.9384  0.0171  2.3927
 3613SOL     OW22474   1.334   3.125  11.940 -0.6974 -0.1169 -0.2724
 3613SOL    HW122475   1.240   3.143  11.933 -0.4656  1.0312 -0.4182
 3613SOL    HW222476   1.352   3.069  11.865  0.6987  0.9643 -0.7513
 3614SOL     OW22477   4.420   0.572   6.545  0.0020  0.0897  0.2615
 3614SOL    HW122478   4.406   0.499   6.606 -1.3834 -0.4036 -0.6470
 3614SOL    HW222479   4.353   0.638   6.560 -0.3634 -0.7288  2.2814
 3615SOL     OW22480   1.126   0.403   8.138  1.1155  0.4595 -0.3892
 3615SOL    HW122481   1.139   0.494   8.111  0.0082  0.2579 -1.5938
 3615SOL    HW222482   1.031   0.404   8.130  1.0487 -0.5844  0.3205
 3616SOL     OW22483   3.459   1.993   8.042 -0.1675 -0.7251 -0.0339
 3616SOL    HW122484   3.439   2.056   8.112  0.5499  0.3652 -0.8137
 3616SOL    HW222485   3.418   2.031   7.965 -0.4896 -0.9745  0.0156
 3617SOL     OW22486   1.948   2.615  10.799 -0.7225  0.3984  0.2153
 3617SOL    HW122487   2.032   2.585  10.834 -1.0195  0.0032  0.5970
 3617SOL    HW222488   1.929   2.539  10.743  0.9503  0.2363 -0.1187
 3618SOL     OW22489   0.730   0.731  12.593 -0.3048 -0.1929 -0.2986
 3618SOL    HW122490   0.727   0.710  12.687 -0.2990 -3.6391 -1.0648
 3618SOL    HW222491   0.679   0.812  12.591 -1.7727 -1.0920  0.0825
 3619SOL     OW22492   4.389   3.114   8.251 -0.3827 -0.8735  0.1380
 3619SOL    HW122493   4.325   3.183   8.234 -0.0015 -1.1367 -2.4317
 3619SOL    HW222494   4.356   3.081   8.334  1.5826 -1.4397  0.6998
 3620SOL     OW22495   2.042   3.065   2.800  0.5663  0.5216  0.1971
 3620SOL    HW122496   1.995   3.000   2.852  0.0745  0.8321  0.1447
 3620SOL    HW222497   2.042   3.036   2.708 -0.5420  1.3845 -0.0778
 3621SOL     OW22498   3.567   3.389   9.426 -0.0340  0.0532  0.5539
 3621SOL    HW122499   3.497   3.324   9.432  1.2457 -1.3289  0.5188
 3621SOL    HW222500   3.518   3.468   9.403  0.4262 -0.3380 -1.7461
 3622SOL     OW22501   4.162   2.184   8.555  0.1258  0.2217 -0.0968
 3622SOL    HW122502   4.164   2.124   8.481  1.2156  0.0806  0.0546
 3622SOL    HW222503   4.073   2.169   8.587 -0.0148  0.8216 -0.2115
 3623SOL     OW22504   2.252   2.006  14.177 -0.7322  0.5151 -0.1698
 3623SOL    HW122505   2.270   1.911  14.173 -3.1867  0.2436 -4.6339
 3623SOL    HW222506   2.331   2.043  14.137 -1.4162  0.3375 -1.7172
 3624SOL     OW22507   3.399   1.753   2.824  0.2601 -0.4097 -0.6323
 3624SOL    HW122508   3.451   1.817   2.775  0.7339  2.4032  3.5137
 3624SOL    HW222509   3.338   1.731   2.754 -1.5814  2.1467  0.1806
 3625SOL     OW22510   4.248   2.946  10.706  0.3799 -0.7437  0.1660
 3625SOL    HW122511   4.175   2.930  10.765  0.0716 -0.1040 -0.0433
 3625SOL    HW222512   4.252   2.867  10.652 -0.8185 -0.2899 -0.5989
 3626SOL     OW22513   2.062   1.995   5.850  0.2014  0.4250  0.1682
 3626SOL    HW122514   2.151   2.029   5.842 -0.0820  0.9650 -0.6613
 3626SOL    HW222515   2.065   1.910   5.806  2.5542  1.2134 -1.2112
 3627SOL     OW22516   3.964   4.336  13.618 -0.7807 -0.0913 -0.0325
 3627SOL    HW122517   4.049   4.354  13.656  0.3525 -1.8161 -1.7582
 3627SOL    HW222518   3.951   4.243  13.637  0.3605 -0.4566 -1.0801
 3628SOL     OW22519   0.015   3.919   6.736  0.3147 -0.5053 -0.0282
 3628SOL    HW122520   4.701   3.939   6.659  0.1030 -0.4409  0.1322
 3628SOL    HW222521   4.688   3.920   6.806  0.1159  0.3786 -0.2246
 3629SOL     OW22522   0.295   1.656   9.297  1.1243 -0.2019 -0.3316
 3629SOL    HW122523   0.352   1.715   9.248 -1.0306  1.9408 -0.2677
 3629SOL    HW222524   0.322   1.655   9.389  1.8119  0.2893 -0.5197
 3630SOL     OW22525   1.880   1.616   3.457  0.5007 -0.5341 -0.1891
 3630SOL    HW122526   1.921   1.702   3.446 -0.1093 -0.3831 -1.2745
 3630SOL    HW222527   1.905   1.600   3.548  0.9423  1.4286  0.0332
 3631SOL     OW22528   3.718   0.014   8.647 -0.6665 -0.1204  0.4836
 3631SOL    HW122529   3.686   4.662   8.654  0.6618 -0.6184  0.1078
 3631SOL    HW222530   3.675   0.050   8.570  0.1811  2.4088  1.2057
 3632SOL     OW22531   3.481   1.621   5.272 -0.2866  0.5539 -0.5292
 3632SOL    HW122532   3.430   1.696   5.300  1.1752  1.2478  0.2951
 3632SOL    HW222533   3.467   1.627   5.177  0.3025  2.2103 -0.5187
 3633SOL     OW22534   3.613   2.928   0.226 -0.2636  0.6524  0.4129
 3633SOL    HW122535   3.639   3.020   0.228  1.9177  0.0661 -1.5877
 3633SOL    HW222536   3.614   2.914   0.321 -0.1917 -0.3332  0.2644
 3634SOL     OW22537   2.122   3.820   3.208  0.0989  0.1624 -0.4659
 3634SOL    HW122538   2.174   3.740   3.199 -1.4275 -1.0608  1.7960
 3634SOL    HW222539   2.133   3.850   3.117 -2.5241 -0.4762 -0.9976
 3635SOL     OW22540   0.477   4.455   9.648  0.5216  0.3460 -0.4533
 3635SOL    HW122541   0.387   4.460   9.618 -0.6533  0.2171  2.9864
 3635SOL    HW222542   0.525   4.495   9.576  1.0470 -0.1876 -0.3977
 3636SOL     OW22543   4.176   2.323   5.465  0.6952  0.3002  0.6905
 3636SOL    HW122544   4.251   2.309   5.523  1.5829 -1.5254 -0.8920
 3636SOL    HW222545   4.121   2.247   5.480 -0.1609  0.7945  0.0441
 3637SOL     OW22546   0.300   3.069   7.042 -0.0732  0.6995  0.7812
 3637SOL    HW122547   0.211   3.097   7.062 -1.4073 -0.8799 -2.9223
 3637SOL    HW222548   0.322   3.129   6.970  1.1013  0.2262  0.7380
 3638SOL     OW22549   1.458   3.297  11.754 -0.0234 -0.4176 -0.2432
 3638SOL    HW122550   1.420   3.265  11.836 -0.9087 -0.2335 -0.5880
 3638SOL    HW222551   1.415   3.236  11.694 -0.5945  0.3962 -0.6645
 3639SOL     OW22552   4.121   2.450   6.488  0.3966  0.4345 -0.1046
 3639SOL    HW122553   4.034   2.426   6.455 -0.4357  0.1939  2.3208
 3639SOL    HW222554   4.182   2.381   6.462  0.6383  0.2817  0.9085
 3640SOL     OW22555   0.751   1.725   3.095  0.0871  0.3867  0.4999
 3640SOL    HW122556   0.804   1.757   3.168  0.2653  0.5806  0.2883
 3640SOL    HW222557   0.711   1.811   3.082  3.1458  1.3564 -2.6100
 3641SOL     OW22558   2.679   2.911  13.802  0.3160  0.0592  0.3800
 3641SOL    HW122559   2.726   2.873  13.727  3.1328  1.8858  1.2195
 3641SOL    HW222560   2.657   2.835  13.855  1.1841 -0.4852 -0.0336
 3642SOL     OW22561   0.221   2.359   3.332  0.0086 -0.0577  0.4485
 3642SOL    HW122562   0.145   2.322   3.378  0.4936  1.1184  2.1888
 3642SOL    HW222563   0.177   2.433   3.290 -1.5226 -1.5170 -0.5810
 3643SOL     OW22564   1.734   0.994   5.335  0.2810  0.1236  0.4273
 3643SOL    HW122565   1.754   0.932   5.265 -2.7077 -1.1465  0.7096
 3643SOL    HW222566   1.638   0.993   5.342  0.2859 -0.6808  0.4731
 3644SOL     OW22567   1.972   3.207  15.950 -0.2708  0.9709 -0.2197
 3644SOL    HW122568   2.003   3.277  15.892 -1.6852  1.2189 -0.6928
 3644SOL    HW222569   2.052   3.163  15.979 -0.8842  0.6088  0.9247
 3645SOL     OW22570   3.815   1.704   3.656  0.1933 -0.1087  0.2056
 3645SOL    HW122571   3.841   1.632   3.713 -0.2735 -1.3979 -1.2056
 3645SOL    HW222572   3.905   1.727   3.633  0.5850 -0.4801  1.3731
 3646SOL     OW22573   2.181   2.332  16.086 -0.3371 -0.4819 -0.1311
 3646SOL    HW122574   2.244   2.405  16.083  0.9314 -1.6340 -1.3507
 3646SOL    HW222575   2.124   2.353  16.159  0.0477 -2.9683  0.8768
 3647SOL     OW22576   0.079   2.511   4.026 -0.1497 -0.3761 -0.1797
 3647SOL    HW122577   0.091   2.439   3.964 -0.0945  0.0189 -0.6336
 3647SOL    HW222578   4.723   2.520   4.032 -0.1078 -0.1684  0.1663
 3648SOL     OW22579   0.730   2.241  15.285 -0.5407 -0.6253 -0.3025
 3648SOL    HW122580   0.756   2.149  15.288  0.7781 -0.2295  0.5639
 3648SOL    HW222581   0.756   2.273  15.371  3.3457 -1.1512 -1.2436
 3649SOL     OW22582   0.751   3.366   4.021 -0.4175 -0.6894  0.0304
 3649SOL    HW122583   0.750   3.455   3.986  1.2942 -0.3694  0.7958
 3649SOL    HW222584   0.733   3.310   3.945 -0.6914  0.3506 -0.6749
 3650SOL     OW22585   3.103   4.443  15.629  0.8240 -0.4542  0.3701
 3650SOL    HW122586   3.167   4.489  15.576  0.9825 -0.8488  0.2250
 3650SOL    HW222587   3.019   4.477  15.597  1.0889 -1.5768 -1.4972
 3651SOL     OW22588   2.292   0.052  16.569 -0.1595  0.3172  0.5392
 3651SOL    HW122589   2.332   0.027  16.486 -2.8026 -2.3875  0.0956
 3651SOL    HW222590   2.201   0.050  16.539 -0.4913  1.7309  1.4464
 3652SOL     OW22591   1.634   1.719   3.720  0.3560  0.1614  0.4204
 3652SOL    HW122592   1.617   1.813   3.729  1.1198  0.1481  1.8772
 3652SOL    HW222593   1.712   1.715   3.775 -0.0762 -0.3288  0.9991
 3653SOL     OW22594   4.417   1.017  12.838 -0.2691 -0.0133 -0.0562
 3653SOL    HW122595   4.458   1.059  12.762  1.0749 -1.3897 -0.0879
 3653SOL    HW222596   4.492   0.964  12.866  0.5717  0.7790 -0.8012
 3654SOL     OW22597   3.144   1.004   1.959 -0.3132  0.1845  0.5460
 3654SOL    HW122598   3.218   1.054   1.993 -0.6417  2.7119 -2.4673
 3654SOL    HW222599   3.188   0.934   1.909  1.2114  0.6292  1.2841
 3655SOL     OW22600   0.285   0.741   6.476 -0.5046 -0.1816  0.1581
 3655SOL    HW122601   0.354   0.702   6.531 -0.0604  2.1444  1.2396
 3655SOL    HW222602   0.205   0.696   6.503 -0.4733 -0.5658 -0.3928
 3656SOL     OW22603   2.437   0.336   5.985  0.2405 -0.6311  0.1046
 3656SOL    HW122604   2.406   0.358   6.073 -1.5038 -0.7324 -0.4928
 3656SOL    HW222605   2.411   0.244   5.982 -0.7709 -0.3645  1.0728
 3657SOL     OW22606   4.397   3.331  10.464  0.6559  0.3919  0.1752
 3657SOL    HW122607   4.346   3.394  10.414 -2.4834 -1.6046  0.8960
 3657SOL    HW222608   4.342   3.317  10.541 -0.4379  1.5929 -0.3913
 3658SOL     OW22609   4.045   0.020   1.388  0.6987 -0.1303  0.2746
 3658SOL    HW122610   3.957   4.736   1.358  0.7053  1.7243 -1.1681
 3658SOL    HW222611   4.029   4.737   1.480  0.7406  2.7357  0.9605
 3659SOL     OW22612   3.049   2.473   5.954 -0.5486  0.6552 -0.6951
 3659SOL    HW122613   2.974   2.512   5.910 -0.3468  1.6911 -0.1237
 3659SOL    HW222614   3.050   2.516   6.039 -0.2360  0.3831 -0.5585
 3660SOL     OW22615   4.242   1.963   8.001  0.2422  0.2018  0.1999
 3660SOL    HW122616   4.270   1.894   8.062 -2.3743  0.8031  2.1063
 3660SOL    HW222617   4.255   2.043   8.053 -3.1025  2.5805 -2.6737
 3661SOL     OW22618   2.131   1.645   2.514  0.1623  0.4536  0.0520
 3661SOL    HW122619   2.107   1.610   2.600  1.8133 -1.7540 -0.3862
 3661SOL    HW222620   2.221   1.618   2.495 -0.4176 -0.2498 -1.6730
 3662SOL     OW22621   0.688   3.952   6.178 -0.2217 -0.2730 -0.3795
 3662SOL    HW122622   0.728   4.038   6.193 -2.9636  1.0912 -0.8433
 3662SOL    HW222623   0.764   3.894   6.177  0.9694  1.2693 -0.1619
 3663SOL     OW22624   2.067   3.578   6.981 -0.1486  0.3169  0.1184
 3663SOL    HW122625   2.019   3.626   7.049  1.1427 -0.5957  1.6839
 3663SOL    HW222626   2.076   3.497   7.031  1.0230  1.6608  2.1065
 3664SOL     OW22627   3.657   3.518   5.262 -0.4122  0.2922  0.1812
 3664SOL    HW122628   3.598   3.568   5.318 -1.2410 -0.6879  0.1854
 3664SOL    HW222629   3.676   3.442   5.317  0.1319  0.1814 -0.1489
 3665SOL     OW22630   4.599   1.832   1.869  0.1599 -0.1018 -0.2731
 3665SOL    HW122631   4.578   1.926   1.861 -0.4876 -0.2075  0.2197
 3665SOL    HW222632   4.665   1.823   1.800  0.9989  1.3110  0.3352
 3666SOL     OW22633   1.523   4.551   8.847 -0.0727  0.2719  0.4593
 3666SOL    HW122634   1.585   4.520   8.913  1.0901  1.8070  0.0756
 3666SOL    HW222635   1.586   4.588   8.786 -0.7258  1.3028  0.4009
 3667SOL     OW22636   2.298   0.153   2.935  0.0873 -0.7452  0.3734
 3667SOL    HW122637   2.253   0.073   2.959  0.7065 -0.8546  1.1824
 3667SOL    HW222638   2.358   0.156   3.009  4.0205 -3.6865 -2.6772
 3668SOL     OW22639   4.470   3.347   5.828 -0.5937 -0.1605 -0.0134
 3668SOL    HW122640   4.445   3.326   5.738  0.3833 -0.9291 -0.1092
 3668SOL    HW222641   4.530   3.278   5.856  0.4699  0.3546 -1.0247
 3669SOL     OW22642   1.626   4.205  15.717 -0.2473  0.6737 -0.1418
 3669SOL    HW122643   1.563   4.247  15.776 -2.6032  0.4991 -2.5009
 3669SOL    HW222644   1.604   4.112  15.716  0.1322  0.5758  0.7373
 3670SOL     OW22645   3.136   0.010   3.946 -0.0389 -0.0812 -0.8394
 3670SOL    HW122646   3.089   4.724   3.867  1.1113  0.6011 -1.7257
 3670SOL    HW222647   3.108   0.101   3.953 -1.1760 -0.4903  0.0422
 3671SOL     OW22648   3.966   2.804  17.307 -0.1145  0.1183 -0.2271
 3671SOL    HW122649   3.923   2.722  17.334 -0.1507  0.0362 -0.5300
 3671SOL    HW222650   4.038   2.763  17.259  2.2345 -0.9269  4.1269
 3672SOL     OW22651   0.281   2.000   5.451  0.3553  0.2753 -0.8414
 3672SOL    HW122652   0.186   2.015   5.450  0.6448  2.1089 -3.5260
 3672SOL    HW222653   0.290   1.933   5.384 -1.2898 -0.2441 -0.5355
 3673SOL     OW22654   3.109   2.294  14.510 -0.0573 -0.0752 -0.6968
 3673SOL    HW122655   3.025   2.337  14.493 -1.2763 -2.9904 -2.1512
 3673SOL    HW222656   3.152   2.286  14.425  1.8533 -0.3794  0.3053
 3674SOL     OW22657   3.080   2.095   2.024 -0.2658 -0.1053 -0.5289
 3674SOL    HW122658   3.023   2.164   2.057  3.0449  1.3978  2.1273
 3674SOL    HW222659   3.038   2.082   1.940 -3.1024 -1.1355  1.0567
 3675SOL     OW22660   1.254   2.490   1.954 -0.1790 -0.1223  0.1083
 3675SOL    HW122661   1.209   2.575   1.950  0.3288  0.1553  0.2752
 3675SOL    HW222662   1.334   2.511   2.002 -0.0076 -1.2407  0.3152
 3676SOL     OW22663   3.000   2.512   6.850 -0.1849  0.0877  0.1263
 3676SOL    HW122664   3.029   2.603   6.836 -2.1416  0.9384  1.5660
 3676SOL    HW222665   3.071   2.464   6.807  1.4165  2.5924 -0.0413
 3677SOL     OW22666   1.770   2.751  16.354  0.5045  0.7316 -0.4300
 3677SOL    HW122667   1.857   2.791  16.361  0.4714  0.4641  1.5997
 3677SOL    HW222668   1.716   2.816  16.309 -0.0439  1.0384  0.6816
 3678SOL     OW22669   0.621   1.483   6.400  0.0228 -0.6242 -0.8756
 3678SOL    HW122670   0.637   1.416   6.334  0.7454 -0.0402 -1.2908
 3678SOL    HW222671   0.560   1.438   6.459  0.0034 -0.3246 -0.6667
 3679SOL     OW22672   4.534   0.851   5.323  0.4419  0.2320  0.1973
 3679SOL    HW122673   4.577   0.766   5.308 -0.0078  0.3874 -2.0125
 3679SOL    HW222674   4.443   0.834   5.300  0.7796  0.4530 -1.3409
 3680SOL     OW22675   0.877   3.564   6.082 -0.1068  0.4440 -0.2398
 3680SOL    HW122676   0.885   3.646   6.130  0.8625  1.1193 -1.5866
 3680SOL    HW222677   0.880   3.500   6.154 -1.7464  0.0515 -0.5156
 3681SOL     OW22678   3.459   2.366   1.040 -0.2462  0.5438  0.3662
 3681SOL    HW122679   3.495   2.369   1.129 -1.7096 -0.4057  0.9874
 3681SOL    HW222680   3.448   2.461   1.037  0.3775  0.6265  0.5741
 3682SOL     OW22681   4.129   2.493   5.024  0.0674  0.1093  0.3290
 3682SOL    HW122682   4.038   2.500   4.993 -0.0735  2.3649  1.2605
 3682SOL    HW222683   4.179   2.557   4.975 -0.1248  0.3521  0.4496
 3683SOL     OW22684   1.082   3.108   2.466  0.7971  0.7934 -0.4517
 3683SOL    HW122685   1.023   3.097   2.391 -1.5779 -0.7869  1.6710
 3683SOL    HW222686   1.105   3.200   2.453  0.8261  0.8158 -0.2464
 3684SOL     OW22687   1.801   2.640   5.772  0.1446  0.8225 -0.2641
 3684SOL    HW122688   1.864   2.599   5.830 -2.6700 -1.8423  0.8841
 3684SOL    HW222689   1.794   2.584   5.695  0.5317 -0.6337  0.7726
 3685SOL     OW22690   4.180   0.851  12.073  0.4357  0.2247  0.1024
 3685SOL    HW122691   4.274   0.868  12.077  0.5535 -0.8163  1.6700
 3685SOL    HW222692   4.174   0.832  11.979 -0.0900 -1.7192  0.5304
 3686SOL     OW22693   4.116   3.001   5.392 -0.2352  0.4549  0.2841
 3686SOL    HW122694   4.064   2.952   5.456  2.3832 -1.2693  1.0748
 3686SOL    HW222695   4.041   3.055   5.368 -0.7695  0.9219  2.9220
 3687SOL     OW22696   2.138   2.522   2.910  0.2095 -0.6755  0.0594
 3687SOL    HW122697   2.086   2.559   2.982  1.7117  1.1279  0.2232
 3687SOL    HW222698   2.123   2.586   2.840 -0.1758 -0.3147  0.4680
 3688SOL     OW22699   2.953   1.302   4.497  0.3442 -0.4546 -0.4284
 3688SOL    HW122700   2.977   1.367   4.563  1.6393 -0.7867 -0.5858
 3688SOL    HW222701   2.887   1.348   4.444  2.1621  3.0087  0.3607
 3689SOL     OW22702   3.725   1.087   2.510  0.0428  0.7403 -0.6001
 3689SOL    HW122703   3.698   1.045   2.591  0.3810 -1.9962 -1.8812
 3689SOL    HW222704   3.691   1.176   2.520  0.6522  1.1047 -1.7011
 3690SOL     OW22705   4.683   2.198  10.323  0.3858  0.0289  0.2874
 3690SOL    HW122706   0.001   2.271  10.346  1.3818 -0.3366 -1.0319
 3690SOL    HW222707   4.600   2.226  10.363  0.3344  1.2905 -0.6829
 3691SOL     OW22708   1.577   3.325  16.540  0.1953 -0.4049  0.2525
 3691SOL    HW122709   1.666   3.336  16.508  0.1477  2.1532  0.9857
 3691SOL    HW222710   1.529   3.343  16.459  1.1414  0.9200 -0.0109
 3692SOL     OW22711   4.217   4.217   6.493 -0.4052 -0.1874  0.2884
 3692SOL    HW122712   4.202   4.137   6.442 -0.8280 -0.3938  0.7408
 3692SOL    HW222713   4.241   4.282   6.427 -1.7253  2.5362  2.5281
 3693SOL     OW22714   2.276   3.586   4.573  0.2482 -0.4977 -0.8378
 3693SOL    HW122715   2.255   3.595   4.666 -2.9996  1.5356 -1.7738
 3693SOL    HW222716   2.331   3.508   4.582  0.7237  0.2216  2.4257
 3694SOL     OW22717   4.686   4.360   1.978  0.3925 -0.4844 -0.0856
 3694SOL    HW122718   4.646   4.304   2.045  0.0577  0.8209  0.7874
 3694SOL    HW222719   0.028   4.385   2.022  0.9534  0.1877 -1.4970
 3695SOL     OW22720   3.686   0.776   9.117 -0.3116  0.1810 -0.3272
 3695SOL    HW122721   3.652   0.691   9.143  0.6490  0.3511  1.5137
 3695SOL    HW222722   3.622   0.837   9.155  1.4477  0.7182  1.7917
 3696SOL     OW22723   1.394   1.308  17.587 -0.0202  0.1841  0.0726
 3696SOL    HW122724   1.378   1.217  17.564 -1.1569  0.7249 -1.3074
 3696SOL    HW222725   1.465   1.334  17.528 -1.9089  4.1202 -0.4927
 3697SOL     OW22726   4.641   0.502   7.610  0.0731 -0.1962 -0.6318
 3697SOL    HW122727   4.728   0.468   7.632  0.7645  1.0263 -1.5107
 3697SOL    HW222728   4.592   0.433   7.565 -0.9048  0.5225 -0.6537
 3698SOL     OW22729   1.143   0.439   1.780  0.2195 -0.2570 -0.4734
 3698SOL    HW122730   1.211   0.501   1.805  0.6927 -0.2361 -1.8241
 3698SOL    HW222731   1.192   0.370   1.736  0.0767 -0.8438  0.2875
 3699SOL     OW22732   0.658   1.662   3.387  0.0775  0.2645  0.6089
 3699SOL    HW122733   0.654   1.586   3.444 -2.2595  0.7574  1.1079
 3699SOL    HW222734   0.567   1.680   3.363  0.4062  2.3741  0.8982
 3700SOL     OW22735   1.130   4.076  15.830 -0.8260 -0.2096  0.3255
 3700SOL    HW122736   1.191   4.044  15.897  0.7542  0.6762 -0.6637
 3700SOL    HW222737   1.169   4.164  15.827 -0.4525 -0.3924 -0.2181
 3701SOL     OW22738   1.643   4.636  15.167  0.4158 -0.2237 -0.6646
 3701SOL    HW122739   1.661   4.718  15.213  0.2386 -1.2104  1.1634
 3701SOL    HW222740   1.598   4.686  15.099 -1.9949 -0.6137  0.6616
 3702SOL     OW22741   3.620   2.168   1.439 -0.2053  0.3881 -0.4786
 3702SOL    HW122742   3.538   2.155   1.390  0.0252 -1.1022 -0.4589
 3702SOL    HW222743   3.597   2.236   1.502  3.9705 -0.1798  1.6248
 3703SOL     OW22744   1.078   2.762   5.289 -0.3082 -0.0771 -0.0236
 3703SOL    HW122745   1.161   2.719   5.269 -0.5528 -0.8083  0.5075
 3703SOL    HW222746   1.114   2.848   5.309 -3.3467  0.9072  1.3229
 3704SOL     OW22747   2.566   0.158  15.968  0.0430 -0.3936  0.0418
 3704SOL    HW122748   2.517   0.232  16.003  0.8258 -0.6295  1.6244
 3704SOL    HW222749   2.497   0.093  15.952  1.2769 -2.0817  1.6116
 3705SOL     OW22750   3.920   0.578   2.320  0.1993  0.0812  0.1606
 3705SOL    HW122751   3.955   0.661   2.286  0.4037 -0.8319 -1.8271
 3705SOL    HW222752   3.879   0.542   2.241  0.3365 -0.8034  0.4959
 3706SOL     OW22753   2.289   2.503   8.705 -0.0910  0.1001 -0.2993
 3706SOL    HW122754   2.286   2.414   8.738 -0.6758 -0.1615 -1.0702
 3706SOL    HW222755   2.370   2.510   8.656 -0.2218 -0.2362 -0.5618
 3707SOL     OW22756   1.838   2.352   6.829  0.4292  0.0414  0.5589
 3707SOL    HW122757   1.745   2.362   6.810  0.0006  2.1414  3.7611
 3707SOL    HW222758   1.855   2.267   6.789 -0.3445  0.5980 -0.9610
 3708SOL     OW22759   2.519   4.539   7.334 -0.1382  0.2159  0.2287
 3708SOL    HW122760   2.596   4.595   7.326  0.3023 -0.6167 -1.2629
 3708SOL    HW222761   2.546   4.482   7.262 -0.3756  0.1433  0.2001
 3709SOL     OW22762   2.136   3.670   4.327  0.6837 -0.2539  0.2053
 3709SOL    HW122763   2.171   3.663   4.416 -1.0018  0.3700  0.9002
 3709SOL    HW222764   2.044   3.693   4.333  0.7032 -0.4535  1.2537
 3710SOL     OW22765   3.752   2.252   2.457 -0.0624  0.4339  0.0956
 3710SOL    HW122766   3.797   2.248   2.541 -0.9979  0.0115  0.5703
 3710SOL    HW222767   3.818   2.223   2.394 -2.6643 -0.5624 -2.1457
 3711SOL     OW22768   1.078   0.023   3.886  0.2936 -0.2069  0.0337
 3711SOL    HW122769   1.059   4.672   3.859  2.0179 -0.7373  0.5976
 3711SOL    HW222770   0.990   0.061   3.890  0.0977 -0.6025 -0.5460
 3712SOL     OW22771   0.279   2.723  12.540 -0.2657  0.0581  0.4565
 3712SOL    HW122772   0.264   2.698  12.631  0.4609 -2.5934 -0.1675
 3712SOL    HW222773   0.323   2.641  12.517  0.0506 -0.0168  1.3523
 3713SOL     OW22774   0.971   4.000   7.792 -0.0244  0.2239  0.0167
 3713SOL    HW122775   0.966   4.054   7.713  4.0651 -1.8346 -1.6293
 3713SOL    HW222776   0.911   3.926   7.782  0.5911 -0.4190  1.0905
 3714SOL     OW22777   3.736   3.723   8.016  0.0133 -0.0103 -0.1312
 3714SOL    HW122778   3.800   3.671   7.967 -0.4545  1.5910 -2.3953
 3714SOL    HW222779   3.698   3.780   7.950  1.3188  0.0121 -0.8647
 3715SOL     OW22780   0.719   3.514  13.815 -0.2817  0.2719 -0.0241
 3715SOL    HW122781   0.657   3.442  13.804 -1.7042  1.6483 -1.0914
 3715SOL    HW222782   0.682   3.561  13.889 -1.4523 -1.9786  0.8281
 3716SOL     OW22783   2.374   1.329   4.955  0.1555 -0.4132  0.2276
 3716SOL    HW122784   2.435   1.273   5.004  1.9515  0.6799 -0.7920
 3716SOL    HW222785   2.428   1.406   4.939 -0.9226  0.7480  2.0675
 3717SOL     OW22786   1.556   3.662   6.440 -0.5287  0.6588 -0.3927
 3717SOL    HW122787   1.464   3.674   6.419 -0.5813 -1.3120 -1.2685
 3717SOL    HW222788   1.600   3.731   6.390 -0.0276 -0.2587 -1.2196
 3718SOL     OW22789   1.495   4.721   5.398  0.1072  0.3147 -0.3049
 3718SOL    HW122790   1.531   0.025   5.321 -0.5057 -1.8751 -1.8219
 3718SOL    HW222791   1.406   4.697   5.370 -0.0602  2.2529 -1.3887
 3719SOL     OW22792   4.464   0.641  10.362 -0.1766  0.1683  0.2450
 3719SOL    HW122793   4.384   0.692  10.375  0.4072  0.6528  2.0168
 3719SOL    HW222794   4.532   0.695  10.402  0.1626  1.8613 -2.6055
 3720SOL     OW22795   0.165   0.809   1.499  0.2286  0.6220  0.4956
 3720SOL    HW122796   0.124   0.741   1.446  0.7849  2.9321 -2.9400
 3720SOL    HW222797   0.255   0.814   1.466 -0.4349  0.7056 -1.3312
 3721SOL     OW22798   1.479   0.071   5.864  0.8848 -0.0132  0.0997
 3721SOL    HW122799   1.529   0.120   5.929  2.0787  1.4399 -1.8803
 3721SOL    HW222800   1.409   0.133   5.844  1.4627  1.1058  1.5288
 3722SOL     OW22801   4.369   1.852   4.413  0.2144 -0.3733 -0.3483
 3722SOL    HW122802   4.421   1.887   4.485 -0.0426 -0.5081 -0.0984
 3722SOL    HW222803   4.435   1.843   4.344 -0.5233 -0.5280 -1.0278
 3723SOL     OW22804   2.741   3.200  12.880  0.3000 -0.2085 -0.2540
 3723SOL    HW122805   2.660   3.229  12.921  0.9580 -1.3861  1.8968
 3723SOL    HW222806   2.720   3.110  12.852  0.7961 -0.7338  1.0815
 3724SOL     OW22807   0.610   4.206   4.752  0.1362 -0.1975 -0.4258
 3724SOL    HW122808   0.546   4.138   4.773  0.5836 -0.4574  0.0921
 3724SOL    HW222809   0.551   4.282   4.753 -0.8629 -0.9800 -0.1064
 3725SOL     OW22810   1.983   2.815   6.192  0.6992  0.5442  0.5916
 3725SOL    HW122811   1.927   2.737   6.200 -0.4776  1.1414 -1.7447
 3725SOL    HW222812   1.985   2.851   6.280 -0.7127 -0.8759  1.2173
 3726SOL     OW22813   4.427   0.007   7.305  0.7497 -0.3844 -0.1068
 3726SOL    HW122814   4.519   0.034   7.301  1.5018 -2.7005  1.5747
 3726SOL    HW222815   4.404   4.725   7.395 -2.8483  1.6804 -0.5294
 3727SOL     OW22816   3.012   2.734   7.786  0.0652  0.7517  0.4618
 3727SOL    HW122817   3.008   2.647   7.825 -1.5247  0.7379  0.2344
 3727SOL    HW222818   3.025   2.709   7.694 -2.3231  0.9509  0.0834
 3728SOL     OW22819   2.513   3.340  13.012  0.2928 -0.5447 -0.0878
 3728SOL    HW122820   2.584   3.395  13.046  0.2596 -0.4792 -0.1257
 3728SOL    HW222821   2.467   3.305  13.089  1.7679  0.4877  1.2787
 3729SOL     OW22822   1.720   2.070   5.414 -0.0780  0.6007  0.5043
 3729SOL    HW122823   1.737   2.059   5.508 -1.6392 -2.7710  0.3728
 3729SOL    HW222824   1.632   2.035   5.403 -0.4807  2.0718 -0.9439
 3730SOL     OW22825   0.343   2.037   7.244  0.0472  0.4299  0.0689
 3730SOL    HW122826   0.319   1.983   7.319 -0.0928  1.1728  0.5598
 3730SOL    HW222827   0.297   2.118   7.268 -0.3618 -0.1792  1.3720
 3731SOL     OW22828   0.783   0.766   4.665  0.0904 -0.6885  0.7603
 3731SOL    HW122829   0.868   0.782   4.706  0.8642 -2.2979 -0.2414
 3731SOL    HW222830   0.786   0.691   4.606 -0.8044 -0.1566  0.0572
 3732SOL     OW22831   1.719   2.040   7.317 -0.0764 -0.3985  0.4636
 3732SOL    HW122832   1.639   2.060   7.365 -0.5771  0.3365 -0.6720
 3732SOL    HW222833   1.682   2.015   7.233  1.6373 -0.3083 -0.3199
 3733SOL     OW22834   2.552   1.750   8.299  0.0655  0.1821  0.7505
 3733SOL    HW122835   2.486   1.705   8.351  0.9553  0.7956  2.4159
 3733SOL    HW222836   2.549   1.836   8.340 -1.6668  1.0160 -1.1176
 3734SOL     OW22837   4.470   1.025   0.628  0.0497 -0.6395 -0.0507
 3734SOL    HW122838   4.460   0.936   0.661 -0.1983 -0.4595  0.3575
 3734SOL    HW222839   4.414   1.076   0.686 -0.5817 -0.6134 -0.6828
 3735SOL     OW22840   1.959   0.052   2.352 -0.0450 -0.2275 -0.2899
 3735SOL    HW122841   1.981   0.052   2.445  0.6355  0.0422 -0.4491
 3735SOL    HW222842   2.010   0.128   2.322 -1.5036  0.6798 -0.4835
 3736SOL     OW22843   2.852   3.934   5.665  0.7431  0.2871  0.2410
 3736SOL    HW122844   2.850   3.840   5.648 -0.1906  0.3744 -0.1037
 3736SOL    HW222845   2.765   3.959   5.635  1.1168 -1.2966 -2.1382
 3737SOL     OW22846   3.108   3.816   5.179 -0.0100 -0.1987 -0.3203
 3737SOL    HW122847   3.076   3.836   5.267 -0.9718 -1.0281 -0.4894
 3737SOL    HW222848   3.124   3.722   5.190  3.0119  0.2031 -1.2926
 3738SOL     OW22849   4.656   4.581   8.603  0.6028  0.0279 -0.7279
 3738SOL    HW122850   4.600   4.548   8.674  1.3875  1.3040  0.4623
 3738SOL    HW222851   4.691   4.496   8.576 -0.3164 -0.5576 -0.0761
 3739SOL     OW22852   1.149   0.233   8.354  0.4827  0.0583 -0.1415
 3739SOL    HW122853   1.159   0.301   8.287 -1.6372 -0.2575 -0.7500
 3739SOL    HW222854   1.243   0.214   8.360  0.3775 -0.6989 -0.8917
 3740SOL     OW22855   0.182   1.497   9.681 -0.3400  0.1752  0.3319
 3740SOL    HW122856   0.184   1.463   9.591 -0.3128 -1.1346  0.8278
 3740SOL    HW222857   0.212   1.418   9.725 -1.7612 -0.1525  0.7205
 3741SOL     OW22858   3.643   1.271   2.097 -0.1466  0.5607 -0.2410
 3741SOL    HW122859   3.640   1.364   2.122  0.5051  0.2942  0.8509
 3741SOL    HW222860   3.708   1.235   2.156  0.0044 -3.1386 -2.7029
 3742SOL     OW22861   3.654   0.450   5.182  0.6484 -0.4413 -0.2773
 3742SOL    HW122862   3.605   0.388   5.128 -0.4007 -0.0080  0.1726
 3742SOL    HW222863   3.609   0.531   5.157  1.0586 -0.2953 -0.5276
 3743SOL     OW22864   1.133   4.086   2.779 -0.1179  0.0788 -0.4953
 3743SOL    HW122865   1.170   4.174   2.773 -1.8187  0.8364  0.1985
 3743SOL    HW222866   1.089   4.094   2.863 -0.9784 -1.1108 -0.8307
 3744SOL     OW22867   2.885   1.637   0.818  0.5096 -0.2291  0.5305
 3744SOL    HW122868   2.880   1.645   0.913 -0.9177  1.9198  0.2715
 3744SOL    HW222869   2.796   1.601   0.811  0.2662  0.5163 -0.1959
 3745SOL     OW22870   2.951   4.570  12.984  0.1847 -0.2036 -0.0383
 3745SOL    HW122871   2.931   4.479  13.007 -2.7586  1.1642  2.7319
 3745SOL    HW222872   3.045   4.582  12.992  0.5253 -1.1858 -2.3948
 3746SOL     OW22873   4.048   3.842  10.869  0.2381 -0.1264  0.3237
 3746SOL    HW122874   4.074   3.752  10.886 -1.0528 -0.8334 -1.4990
 3746SOL    HW222875   3.977   3.829  10.806  0.3720 -1.6793  0.5091
 3747SOL     OW22876   1.180   0.236   9.760 -0.1319 -0.2927 -0.2153
 3747SOL    HW122877   1.243   0.212   9.693  0.3753 -1.2923  0.6210
 3747SOL    HW222878   1.239   0.259   9.832 -3.0686  0.6071  1.9195
 3748SOL     OW22879   3.460   2.349  17.718  0.4295  0.1923 -0.2517
 3748SOL    HW122880   3.377   2.397  17.721  0.2644 -0.1509  0.7931
 3748SOL    HW222881   3.491   2.337   0.055  3.2622  0.9570 -1.1220
 3749SOL     OW22882   3.356   3.374   7.863 -0.0620 -0.6088  0.3019
 3749SOL    HW122883   3.416   3.357   7.935  0.2449 -1.4986 -0.1679
 3749SOL    HW222884   3.284   3.386   7.925 -1.6285  0.6492 -1.7426
 3750SOL     OW22885   0.834   0.897   5.212 -0.3037  1.0022  0.3828
 3750SOL    HW122886   0.791   0.857   5.288  4.3714 -0.0617  2.4893
 3750SOL    HW222887   0.858   0.819   5.162 -1.1075  0.3334  1.0595
 3751SOL     OW22888   2.181   2.451   9.319 -0.1165 -0.1342  0.2256
 3751SOL    HW122889   2.194   2.359   9.343  1.7391 -0.1648 -0.9457
 3751SOL    HW222890   2.100   2.475   9.364 -0.0729 -0.4241  0.4608
 3752SOL     OW22891   0.077   3.340   1.294 -0.0664  0.2187  0.5154
 3752SOL    HW122892   4.736   3.392   1.307  0.4932  1.0499  0.6687
 3752SOL    HW222893   0.122   3.352   1.378 -0.9583  2.2759  0.7211
 3753SOL     OW22894   1.558   2.804   9.464 -1.0486 -0.3287  0.1483
 3753SOL    HW122895   1.594   2.733   9.411 -0.5276  1.1066 -1.4193
 3753SOL    HW222896   1.633   2.814   9.523 -1.5140  1.5016  0.4209
 3754SOL     OW22897   3.148   3.715  16.732  0.3179 -0.9220 -0.0788
 3754SOL    HW122898   3.186   3.748  16.651  3.2559 -2.0925  0.8104
 3754SOL    HW222899   3.059   3.692  16.705 -0.8046  1.8142  1.3090
 3755SOL     OW22900   1.634   2.388   2.030 -0.3415 -0.1886  0.3990
 3755SOL    HW122901   1.592   2.473   2.019 -0.0069 -0.0623  0.0987
 3755SOL    HW222902   1.701   2.408   2.096 -0.8202  0.8620  0.5649
 3756SOL     OW22903   2.920   0.079  10.162 -0.3836 -0.3797  0.4636
 3756SOL    HW122904   2.927   4.730  10.198  0.8120 -0.9760 -1.2598
 3756SOL    HW222905   2.946   0.126  10.242 -0.4752  0.3405  0.0754
 3757SOL     OW22906   3.136   4.016   3.409 -0.4518 -0.0752 -0.6594
 3757SOL    HW122907   3.096   3.931   3.428 -0.6568  0.9502  3.4406
 3757SOL    HW222908   3.113   4.031   3.317 -2.5456  0.9038  0.0127
 3758SOL     OW22909   2.956   1.961   2.258 -0.3234  0.1692 -0.1710
 3758SOL    HW122910   2.939   1.904   2.183  0.1328 -0.7489  0.4076
 3758SOL    HW222911   2.987   2.040   2.214  1.4812  0.7982  2.2140
 3759SOL     OW22912   0.871   3.182   5.393  0.0230 -0.3996 -0.1312
 3759SOL    HW122913   0.944   3.122   5.376  1.0026  0.4953  0.9452
 3759SOL    HW222914   0.918   3.263   5.374  3.1217 -2.7241 -2.4385
 3760SOL     OW22915   0.266   1.299   4.564  0.0634  0.4736  0.4670
 3760SOL    HW122916   0.353   1.328   4.593  0.0619 -0.6700  1.5734
 3760SOL    HW222917   0.228   1.377   4.523 -2.5006 -1.6022 -1.0927
 3761SOL     OW22918   3.098   2.494  16.448 -0.1116  0.2765  0.3861
 3761SOL    HW122919   3.069   2.405  16.428 -1.3618  0.4083  1.6677
 3761SOL    HW222920   3.148   2.475  16.527 -1.4918 -2.6515  0.5662
 3762SOL     OW22921   2.108   4.629   0.939  0.0115  0.1226 -0.5006
 3762SOL    HW122922   2.017   4.608   0.957  0.5245  0.2027  2.2861
 3762SOL    HW222923   2.100   4.723   0.924 -0.9793 -0.0065 -0.7287
 3763SOL     OW22924   4.056   1.125   0.479  0.1498  0.0557 -0.2830
 3763SOL    HW122925   4.048   1.126   0.574  0.2613  2.3862 -0.3105
 3763SOL    HW222926   3.969   1.131   0.441  1.1558  0.6256 -2.4833
 3764SOL     OW22927   0.420   4.525  10.551 -0.0899 -0.3599 -0.2889
 3764SOL    HW122928   0.493   4.544  10.492  2.0419 -3.4660  1.3569
 3764SOL    HW222929   0.448   4.581  10.623  0.8565 -1.3310  0.1059
 3765SOL     OW22930   3.025   2.308   3.719  0.1587 -0.1108  0.0769
 3765SOL    HW122931   2.941   2.349   3.699 -0.3080 -0.6324  0.9436
 3765SOL    HW222932   3.086   2.374   3.685  0.8181 -0.1191  1.2406
 3766SOL     OW22933   0.744   2.479  11.374 -0.4285  0.1453  0.1659
 3766SOL    HW122934   0.681   2.550  11.390  1.3771  1.6306  0.7138
 3766SOL    HW222935   0.789   2.492  11.457 -1.4164 -0.3410  0.7724
 3767SOL     OW22936   3.276   4.023   2.423  0.3586  0.4772 -0.2656
 3767SOL    HW122937   3.241   4.059   2.505 -2.2305  1.5686 -1.8553
 3767SOL    HW222938   3.190   4.017   2.382 -0.1002  0.4199  0.6952
 3768SOL     OW22939   4.228   2.616   7.772  0.1352 -0.0131 -0.0888
 3768SOL    HW122940   4.293   2.561   7.730 -0.5722 -0.0666 -1.1007
 3768SOL    HW222941   4.187   2.555   7.834 -0.6367  0.0187 -0.5680
 3769SOL     OW22942   0.906   0.471  15.888 -0.2386 -0.5108 -0.3624
 3769SOL    HW122943   0.984   0.494  15.938  0.9378 -1.7001 -1.6451
 3769SOL    HW222944   0.844   0.518  15.944  0.6923 -0.9362  1.0526
 3770SOL     OW22945   4.068   4.412   3.689  0.1059 -0.5229  0.2928
 3770SOL    HW122946   4.014   4.396   3.766  1.8399 -0.0283  1.5987
 3770SOL    HW222947   4.042   4.342   3.630 -1.2475 -0.6057  0.9810
 3771SOL     OW22948   3.370   1.977   0.634 -0.3152  0.1095  0.4290
 3771SOL    HW122949   3.445   2.024   0.668 -0.5142  0.0078  1.0130
 3771SOL    HW222950   3.352   1.913   0.703  1.1609  0.5401  1.1980
 3772SOL     OW22951   1.690   2.272  10.793 -0.4008 -0.1411 -0.5291
 3772SOL    HW122952   1.656   2.323  10.867  0.5225 -1.1715  0.6191
 3772SOL    HW222953   1.615   2.212  10.791 -1.1085  0.7359 -0.3034
 3773SOL     OW22954   0.362   4.628  10.235  0.1085  0.6132  0.0023
 3773SOL    HW122955   0.298   4.684  10.280  0.3493  1.3381 -0.5647
 3773SOL    HW222956   0.394   4.681  10.162  0.5694  0.6171  0.2052
 3774SOL     OW22957   4.052   1.734   8.208 -0.8731 -0.5996  0.0505
 3774SOL    HW122958   4.120   1.681   8.250 -1.1897  0.5336  1.9577
 3774SOL    HW222959   4.037   1.685   8.127  0.6247 -0.9844 -0.0100
 3775SOL     OW22960   3.140   4.012  11.716  0.5625  0.0181  0.2830
 3775SOL    HW122961   3.175   4.095  11.682  1.8646 -0.3585  0.7236
 3775SOL    HW222962   3.060   4.040  11.762  0.1034 -0.3852 -0.2711
 3776SOL     OW22963   1.857   4.539   4.728 -0.1060 -0.2732 -0.4509
 3776SOL    HW122964   1.911   4.485   4.670  3.6857  1.1971  1.6469
 3776SOL    HW222965   1.922   4.610   4.724 -0.2749 -0.0734  0.4528
 3777SOL     OW22966   1.258   0.693  15.388 -0.2893  0.2231 -0.0198
 3777SOL    HW122967   1.166   0.676  15.407 -0.8277  1.1919 -1.7380
 3777SOL    HW222968   1.275   0.774  15.437  0.0746  1.9346 -3.0063
 3778SOL     OW22969   1.236   2.127   2.498 -0.2452 -0.6912 -0.0366
 3778SOL    HW122970   1.283   2.089   2.424 -0.3153  1.0611 -0.9843
 3778SOL    HW222971   1.148   2.138   2.460 -1.0315  1.3888  2.3314
 3779SOL     OW22972   0.074   2.036   4.258  0.3507 -0.0328  0.5457
 3779SOL    HW122973   0.157   1.989   4.250  0.0132 -0.0706 -2.7977
 3779SOL    HW222974   0.102   2.125   4.279  0.1399  0.1041  0.2393
 3780SOL     OW22975   1.245   0.284   9.299  0.1505  0.3723  0.6847
 3780SOL    HW122976   1.277   0.311   9.385 -1.6906  0.4017  1.3505
 3780SOL    HW222977   1.154   0.312   9.310 -0.0121 -0.2358  0.9188
 3781SOL     OW22978   4.060   2.180   3.992  0.0548  0.0086  0.0175
 3781SOL    HW122979   3.981   2.220   4.029 -2.1618 -2.1847 -2.3818
 3781SOL    HW222980   4.060   2.093   4.031  2.2623 -0.4855 -1.0793
 3782SOL     OW22981   0.711   4.296   9.210  0.0639 -0.2842  0.4525
 3782SOL    HW122982   0.787   4.254   9.170 -1.5229 -0.7218 -2.0903
 3782SOL    HW222983   0.707   4.254   9.296 -1.7026  0.5478  0.7768
 3783SOL     OW22984   2.487   0.784   3.173  0.2993  0.0186 -0.4562
 3783SOL    HW122985   2.424   0.833   3.226 -0.2683 -0.2442 -0.8961
 3783SOL    HW222986   2.465   0.692   3.188 -0.3323 -0.1766 -2.5875
 3784SOL     OW22987   2.611   2.352   0.569  0.0224 -0.5021 -0.6367
 3784SOL    HW122988   2.662   2.272   0.585  1.8380  0.5426 -1.1457
 3784SOL    HW222989   2.669   2.420   0.535 -0.3374 -1.5972 -3.4145
 3785SOL     OW22990   2.090   3.613   5.118 -0.1072 -0.4989  0.3258
 3785SOL    HW122991   2.134   3.628   5.201 -1.4329  2.0067  0.5527
 3785SOL    HW222992   2.121   3.691   5.072  1.3439 -0.9319  0.5647
 3786SOL     OW22993   4.621   2.363   1.502  0.1005  0.1112  0.4712
 3786SOL    HW122994   4.640   2.269   1.503  1.4192  0.3712 -1.3930
 3786SOL    HW222995   4.632   2.379   1.409 -2.9895 -1.2255 -0.1264
 3787SOL     OW22996   4.115   1.037  11.214  0.1355 -0.1361  0.1200
 3787SOL    HW122997   4.043   1.089  11.250  1.7233 -0.1615  3.2836
 3787SOL    HW222998   4.074   1.012  11.131  1.4800 -0.9188 -0.3146
 3788SOL     OW22999   3.224   0.590   6.979 -0.0927  0.0228 -0.3045
 3788SOL    HW123000   3.154   0.654   6.992 -0.8338 -0.7437 -0.5170
 3788SOL    HW223001   3.284   0.643   6.926 -0.2046  1.1993  0.7622
 3789SOL     OW23002   4.653   2.096  13.220  0.2376 -0.2523  0.3529
 3789SOL    HW123003   4.724   2.034  13.233  1.2790  0.6100 -1.2602
 3789SOL    HW223004   4.693   2.172  13.262 -2.4834  0.2487  2.0691
 3790SOL     OW23005   4.001   3.673  10.603  0.6362 -0.4337  0.0681
 3790SOL    HW123006   4.051   3.603  10.645  0.2499 -0.4795  0.4539
 3790SOL    HW223007   3.929   3.631  10.556 -0.3501  0.4634  0.7801
 3791SOL     OW23008   2.479   2.233  10.166 -0.3123  0.6464  0.2938
 3791SOL    HW123009   2.571   2.219  10.187 -0.1335  0.6857 -0.4812
 3791SOL    HW223010   2.440   2.155  10.204  2.7539 -0.7785  0.5178
 3792SOL     OW23011   0.945   0.133   4.540  0.5468  0.7611  0.0706
 3792SOL    HW123012   0.908   0.098   4.621 -1.2039 -2.5029 -2.1240
 3792SOL    HW223013   0.965   0.057   4.486  1.9735  0.0161  1.6455
 3793SOL     OW23014   2.107   2.988   1.755 -0.5142  0.2536  0.3560
 3793SOL    HW123015   2.053   3.030   1.822 -1.2189  0.3329 -0.2638
 3793SOL    HW223016   2.146   3.060   1.705  0.9916 -0.5691  0.3460
 3794SOL     OW23017   4.321   0.763   9.179  0.0780  0.2549  0.4879
 3794SOL    HW123018   4.268   0.829   9.133  1.7160  0.8606 -0.5702
 3794SOL    HW223019   4.274   0.761   9.262  1.2500  1.5880  1.1882
 3795SOL     OW23020   3.356   3.213   4.733 -0.3316  0.0087 -0.6935
 3795SOL    HW123021   3.313   3.145   4.785  1.1779  1.2966  2.2675
 3795SOL    HW223022   3.418   3.246   4.799  1.0857 -0.8889 -1.5715
 3796SOL     OW23023   0.738   3.372   2.298 -0.4422  0.7292 -0.8419
 3796SOL    HW123024   0.667   3.375   2.234 -0.3306 -2.9164 -1.1305
 3796SOL    HW223025   0.697   3.302   2.347 -1.8962  0.8602 -1.8835
 3797SOL     OW23026   0.251   3.443   3.444  0.1519  0.0519  0.1313
 3797SOL    HW123027   0.283   3.515   3.389  0.6606  0.7133  1.2669
 3797SOL    HW223028   0.236   3.490   3.527  1.2904  0.9556 -0.1686
 3798SOL     OW23029   0.450   3.682   7.673 -0.0790  0.0240  0.0781
 3798SOL    HW123030   0.523   3.637   7.716  0.7622  0.1915 -1.1864
 3798SOL    HW223031   0.385   3.612   7.665 -1.8673  1.7058  0.0968
 3799SOL     OW23032   1.618   4.313   9.771  0.5403 -0.1892  0.0346
 3799SOL    HW123033   1.647   4.222   9.777  0.2511 -0.3220 -0.5607
 3799SOL    HW223034   1.701   4.361   9.769  0.0782  0.6367  0.4825
 3800SOL     OW23035   1.340   3.895   9.628  0.3658 -0.3470  0.0958
 3800SOL    HW123036   1.346   3.858   9.716 -2.7194 -1.0814 -0.0344
 3800SOL    HW223037   1.261   3.851   9.600 -0.5820  1.6641 -0.3957
 3801SOL     OW23038   3.184   4.241  15.775 -0.2958 -0.4461  0.4017
 3801SOL    HW123039   3.150   4.320  15.732  0.1446  0.8814  2.5185
 3801SOL    HW223040   3.267   4.231  15.728 -0.7156  1.4615 -0.7563
 3802SOL     OW23041   2.564   2.674  12.454  0.6681 -0.2315 -0.6657
 3802SOL    HW123042   2.564   2.758  12.500 -0.8646 -0.5020 -0.1896
 3802SOL    HW223043   2.619   2.691  12.377  2.8156  1.1935  1.1742
 3803SOL     OW23044   0.339   1.072   6.555  0.5822  0.3526 -1.1346
 3803SOL    HW123045   0.246   1.059   6.573  0.8145  2.9572  1.9450
 3803SOL    HW223046   0.376   1.054   6.642 -2.3644 -0.6778 -0.1063
 3804SOL     OW23047   1.683   3.883  11.395 -0.0932 -0.2272  0.2694
 3804SOL    HW123048   1.614   3.887  11.329  2.0874 -0.7865 -2.0300
 3804SOL    HW223049   1.762   3.857  11.348 -0.4167  0.6878 -0.7694
 3805SOL     OW23050   3.910   0.961   6.122 -0.2334 -0.1619 -0.0674
 3805SOL    HW123051   3.888   0.994   6.035  2.1114  1.6688  0.0406
 3805SOL    HW223052   3.874   0.873   6.105 -0.0028 -0.7279  2.4868
 3806SOL     OW23053   0.559   0.087   9.226 -0.5271  0.0192  0.3185
 3806SOL    HW123054   0.564   4.733   9.203  1.0779  0.0945  0.3910
 3806SOL    HW223055   0.630   0.099   9.289 -1.1690 -2.4813  1.5197
 3807SOL     OW23056   2.092   4.210  16.730  0.2288 -0.2531  0.1050
 3807SOL    HW123057   2.107   4.260  16.649 -0.1540  0.1833  0.3020
 3807SOL    HW223058   2.006   4.237  16.760  0.2648 -1.1446  1.0053
 3808SOL     OW23059   1.395   4.031  11.889  0.0599 -0.3864 -0.2182
 3808SOL    HW123060   1.399   3.943  11.927  1.3089  0.1446  0.8810
 3808SOL    HW223061   1.455   4.022  11.816 -0.0748 -0.6149 -0.3005
 3809SOL     OW23062   2.730   1.896   9.166 -0.3495 -0.6409  0.0442
 3809SOL    HW123063   2.816   1.935   9.150 -1.5767  2.7584  1.6500
 3809SOL    HW223064   2.666   1.964   9.187 -1.0411 -0.5148 -2.4305
 3810SOL     OW23065   3.901   2.989  16.473  0.3790 -0.2090  0.4796
 3810SOL    HW123066   3.860   3.004  16.387  1.2752 -1.4136 -0.1559
 3810SOL    HW223067   3.838   3.042  16.521  0.9125 -0.0749  1.0284
 3811SOL     OW23068   4.717   3.703  16.311  0.2261 -0.5347  0.5939
 3811SOL    HW123069   4.690   3.638  16.246  2.2205  0.6486 -1.3884
 3811SOL    HW223070   4.713   3.778  16.251 -1.0597 -0.9440  0.1607
 3812SOL     OW23071   2.447   2.378   4.458 -0.1248  0.3179 -0.2224
 3812SOL    HW123072   2.366   2.358   4.504  0.7579 -3.2763 -0.1628
 3812SOL    HW223073   2.426   2.465   4.424 -0.4039  1.2499  2.3865
 3813SOL     OW23074   4.672   0.164   5.336  0.1524 -0.1191 -0.2778
 3813SOL    HW123075   4.724   0.085   5.319  0.5059  0.3014 -1.1832
 3813SOL    HW223076   4.625   0.135   5.413 -0.8905  1.9757 -0.1602
 3814SOL     OW23077   2.707   0.921  11.571  0.2270  0.0199  0.2061
 3814SOL    HW123078   2.615   0.945  11.566  0.1920 -0.3151 -0.7180
 3814SOL    HW223079   2.722   0.898  11.479  0.5832  1.8440 -0.1917
 3815SOL     OW23080   4.192   1.147   4.653  0.8592  0.0277 -0.3323
 3815SOL    HW123081   4.156   1.125   4.568  2.6425 -1.1408 -0.7828
 3815SOL    HW223082   4.277   1.104   4.647 -0.5288 -2.8165  0.7921
 3816SOL     OW23083   0.073   1.738   7.160 -0.2375  0.0886 -0.0389
 3816SOL    HW123084   0.042   1.729   7.250  0.4913  1.2500  0.3135
 3816SOL    HW223085   0.001   1.706   7.105  0.1531 -1.6431  0.4450
 3817SOL     OW23086   2.090   3.293   5.322 -0.1207  0.7827 -0.4485
 3817SOL    HW123087   2.119   3.208   5.355 -0.9961  0.4843 -0.4327
 3817SOL    HW223088   2.149   3.349   5.373  0.8402 -1.3543  0.7887
 3818SOL     OW23089   2.158   0.337   4.293  0.5023  0.6639  0.7929
 3818SOL    HW123090   2.225   0.297   4.349  1.5441 -0.8662 -1.5418
 3818SOL    HW223091   2.167   0.283   4.215 -1.0789  0.8694  0.4785
 3819SOL     OW23092   3.695   3.698  13.129  0.4952  0.5131 -0.1395
 3819SOL    HW123093   3.734   3.780  13.158 -0.2412  0.2468  1.5980
 3819SOL    HW223094   3.615   3.693  13.182  0.0565 -0.5527 -0.8949
 3820SOL     OW23095   3.311   2.683   5.019  0.3063 -0.0450 -0.8961
 3820SOL    HW123096   3.303   2.752   4.953  0.2914  1.8590  1.1109
 3820SOL    HW223097   3.381   2.629   4.983  0.2083 -0.2369 -0.8008
 3821SOL     OW23098   1.785   4.482   2.450  0.1662 -0.5696  0.3626
 3821SOL    HW123099   1.752   4.442   2.531 -0.4056  0.6489  0.7331
 3821SOL    HW223100   1.705   4.495   2.400  0.9535 -0.6666 -0.9083
 3822SOL     OW23101   3.482   3.097   6.475 -0.9365 -0.1725 -0.1965
 3822SOL    HW123102   3.549   3.060   6.532 -0.5507  1.6936  0.5581
 3822SOL    HW223103   3.483   3.192   6.490 -1.2302 -0.0578 -0.8816
 3823SOL     OW23104   1.176   0.635  13.518  0.6128 -0.5273  0.6616
 3823SOL    HW123105   1.247   0.570  13.512 -0.7248 -1.8964 -0.4433
 3823SOL    HW223106   1.223   0.717  13.506 -0.2242 -0.1873 -0.3039
 3824SOL     OW23107   2.455   2.923  12.608 -0.1964 -0.0240  0.2629
 3824SOL    HW123108   2.401   2.968  12.543  1.3282  3.1887  1.2573
 3824SOL    HW223109   2.390   2.887  12.668  0.1535  0.2512  0.8029
 3825SOL     OW23110   0.996   4.291   8.290  0.1314 -0.3017  0.8833
 3825SOL    HW123111   0.938   4.364   8.272 -1.6969 -1.9542  0.0885
 3825SOL    HW223112   1.001   4.253   8.202  0.3822  0.8576  0.3985
 3826SOL     OW23113   2.323   1.064   2.918 -0.6602 -0.0433  0.3177
 3826SOL    HW123114   2.413   1.089   2.896 -0.1167  0.8856  3.5402
 3826SOL    HW223115   2.281   1.053   2.833  1.3380  0.6883 -0.7488
 3827SOL     OW23116   0.434   4.265   0.642 -0.1939 -0.2098  0.1311
 3827SOL    HW123117   0.415   4.306   0.557 -0.6753  0.4954  0.5688
 3827SOL    HW223118   0.529   4.265   0.641 -0.1999  3.2155 -1.0384
 3828SOL     OW23119   3.242   4.642   5.020  0.1144 -0.4427 -0.3014
 3828SOL    HW123120   3.209   4.639   5.110  0.6621 -5.0266 -0.2502
 3828SOL    HW223121   3.274   4.552   5.015  0.4860 -0.1712 -2.7962
 3829SOL     OW23122   1.771   4.609   5.611 -0.3678 -0.3409  0.1671
 3829SOL    HW123123   1.779   4.682   5.673 -0.6996  0.0687 -0.2718
 3829SOL    HW223124   1.678   4.618   5.591 -0.3466  0.3785  0.3705
 3830SOL     OW23125   1.135   3.241  15.926 -0.3458 -0.0679  0.0645
 3830SOL    HW123126   1.164   3.224  15.836  0.0354 -1.6155  0.4800
 3830SOL    HW223127   1.098   3.329  15.915 -2.4272 -0.9717 -0.2725
 3831SOL     OW23128   0.819   3.556  15.073 -0.7224  0.3607  0.1790
 3831SOL    HW123129   0.800   3.602  15.155 -1.2705  1.6765 -0.6934
 3831SOL    HW223130   0.904   3.511  15.080  0.3832  2.3029 -0.8700
 3832SOL     OW23131   3.789   0.802   1.039  0.6428 -0.2085 -0.6542
 3832SOL    HW123132   3.781   0.849   1.123  0.0280 -2.3081  0.4584
 3832SOL    HW223133   3.862   0.844   0.993 -0.3484  1.0776 -1.0653
 3833SOL     OW23134   0.017   2.902  10.431 -0.0873 -0.4440 -0.3420
 3833SOL    HW123135   4.720   2.980  10.388 -0.4915  0.7967  2.2493
 3833SOL    HW223136   4.693   2.830  10.420  2.2775 -2.5274 -0.1219
 3834SOL     OW23137   4.053   1.789   2.986 -0.0460  0.1968  0.2258
 3834SOL    HW123138   4.054   1.698   2.958  0.9856 -0.1783  1.4612
 3834SOL    HW223139   3.967   1.816   2.954  0.3148 -1.2590 -1.9578
 3835SOL     OW23140   4.459   2.411  14.180 -0.0621  0.3005  0.6208
 3835SOL    HW123141   4.471   2.317  14.195  2.0376  0.2119 -1.4922
 3835SOL    HW223142   4.370   2.403  14.145  0.7247 -1.0623 -1.0891
 3836SOL     OW23143   0.434   1.324   6.505  0.0430 -0.2708 -0.5582
 3836SOL    HW123144   0.481   1.312   6.587  1.6906 -1.0368 -1.6325
 3836SOL    HW223145   0.389   1.241   6.491 -1.9967  0.5610  1.0278
 3837SOL     OW23146   1.689   2.360  17.025  0.2857 -0.2326 -0.6859
 3837SOL    HW123147   1.700   2.429  16.961 -1.1400  1.8601  1.3336
 3837SOL    HW223148   1.612   2.311  16.995 -0.5525  0.5597  0.1671
 3838SOL     OW23149   1.000   2.855   6.734  0.0823  0.2662  0.0187
 3838SOL    HW123150   0.957   2.939   6.723 -0.8866 -0.2089  0.1955
 3838SOL    HW223151   1.044   2.840   6.651 -1.0649 -1.7889 -0.2306
 3839SOL     OW23152   1.797   2.073   0.563 -0.0899 -0.0148  0.6175
 3839SOL    HW123153   1.864   2.111   0.506 -1.0058  0.6731 -0.0050
 3839SOL    HW223154   1.730   2.142   0.564  0.3702  0.4836 -1.4964
 3840SOL     OW23155   4.137   2.227  10.408  0.0349 -0.0609  0.3943
 3840SOL    HW123156   4.100   2.292  10.468 -1.0063 -0.1893 -0.1111
 3840SOL    HW223157   4.118   2.274  10.327 -1.4698  1.0654  1.3951
 3841SOL     OW23158   2.313   2.705   5.779 -0.0162  0.6923  0.1501
 3841SOL    HW123159   2.280   2.693   5.868 -1.2217  1.5467 -0.1821
 3841SOL    HW223160   2.237   2.749   5.740 -3.0066 -1.9253  3.0846
 3842SOL     OW23161   3.343   1.035   4.417  0.0469 -0.1941 -0.0622
 3842SOL    HW123162   3.299   1.117   4.442 -1.5801 -1.2354  0.5006
 3842SOL    HW223163   3.431   1.047   4.453  0.6844 -2.2463 -0.9678
 3843SOL     OW23164   2.040   1.962   0.611  0.3255  0.0132 -0.3141
 3843SOL    HW123165   2.088   2.027   0.561 -0.2858  0.1055 -0.7756
 3843SOL    HW223166   1.957   2.006   0.629  0.8893  1.4899 -1.3479
 3844SOL     OW23167   1.829   4.371   7.032 -0.1940 -0.0751  0.0180
 3844SOL    HW123168   1.743   4.408   7.052  0.8118  0.8060  2.7248
 3844SOL    HW223169   1.878   4.432   7.087 -2.0624  1.3365  0.1437
 3845SOL     OW23170   2.011   4.175   7.854 -0.7175 -0.0064 -0.4274
 3845SOL    HW123171   2.102   4.191   7.827  1.0135 -3.4501  3.3343
 3845SOL    HW223172   1.963   4.157   7.773 -0.9760  4.1423 -1.2410
 3846SOL     OW23173   2.430   0.871   9.006  0.4044 -0.3621 -0.0053
 3846SOL    HW123174   2.354   0.817   8.983 -0.0971  0.3596 -0.0584
 3846SOL    HW223175   2.470   0.885   8.920  1.0887  0.2869  0.4158
 3847SOL     OW23176   1.400   3.413   4.105  0.1113 -0.1498 -0.1110
 3847SOL    HW123177   1.475   3.472   4.104  0.3896 -0.5389 -2.2444
 3847SOL    HW223178   1.333   3.470   4.067 -0.8985 -0.5851  1.0280
 3848SOL     OW23179   4.190   0.660   7.407  0.2857 -1.3311  0.1420
 3848SOL    HW123180   4.131   0.635   7.336  1.8621 -0.1581 -1.5807
 3848SOL    HW223181   4.133   0.626   7.476  0.9137 -2.7661 -0.0514
 3849SOL     OW23182   3.883   2.986   9.148  0.3875 -0.0861  0.6231
 3849SOL    HW123183   3.977   2.972   9.153  0.6405  1.4893  0.2539
 3849SOL    HW223184   3.867   3.078   9.126  1.3899 -0.2879 -0.8738
 3850SOL     OW23185   1.574   0.852  15.745 -0.3835 -0.1000 -0.3387
 3850SOL    HW123186   1.519   0.916  15.790 -1.2084 -0.9630 -0.1106
 3850SOL    HW223187   1.587   0.895  15.660 -1.4943  1.4926  0.2901
 3851SOL     OW23188   4.060   3.567   7.567  0.3352  0.3776 -0.0422
 3851SOL    HW123189   4.153   3.589   7.559  0.7273 -1.4944 -0.8292
 3851SOL    HW223190   4.025   3.619   7.494  0.9476  0.1779 -0.4822
 3852SOL     OW23191   3.818   3.524  11.491  0.3193  0.6990  0.0565
 3852SOL    HW123192   3.886   3.463  11.519  1.7160  1.9841 -0.4914
 3852SOL    HW223193   3.733   3.482  11.502  0.7292 -0.7548 -2.4416
 3853SOL     OW23194   2.748   0.091  12.701 -0.0387  0.4781 -0.4476
 3853SOL    HW123195   2.713   0.059  12.618  0.2666 -0.3509 -0.2555
 3853SOL    HW223196   2.699   0.169  12.727  1.8426  1.5120  0.0299
 3854SOL     OW23197   0.329   2.147   7.814  0.1578  0.4488  0.7181
 3854SOL    HW123198   0.282   2.129   7.895 -1.0721  0.9196  0.1148
 3854SOL    HW223199   0.394   2.077   7.818  0.8849  1.0998  0.3599
 3855SOL     OW23200   0.975   2.444   7.260  0.0766 -0.1614 -0.0925
 3855SOL    HW123201   0.957   2.489   7.177 -0.5463 -0.8752 -0.3470
 3855SOL    HW223202   1.020   2.509   7.313 -0.3549  1.1574 -1.3449
 3856SOL     OW23203   4.331   0.455   3.152  0.3175  0.7621 -0.0937
 3856SOL    HW123204   4.406   0.396   3.157  0.3564  0.6742 -1.6683
 3856SOL    HW223205   4.355   0.529   3.208  1.1831 -0.1570  0.7383
 3857SOL     OW23206   1.141   4.574  13.730 -0.3252 -0.2158 -0.0785
 3857SOL    HW123207   1.071   4.557  13.794  0.4727  2.2807  1.4486
 3857SOL    HW223208   1.201   4.618  13.790 -0.5004 -0.3177  0.1757
 3858SOL     OW23209   3.326   4.738  10.680 -0.1548 -0.3936  0.7817
 3858SOL    HW123210   3.344   4.704  10.768  1.2796 -1.7105 -0.0124
 3858SOL    HW223211   3.242   0.035  10.706  0.5788  2.6394 -1.0181
 3859SOL     OW23212   4.136   3.631   4.003 -0.5098  0.5762 -0.3191
 3859SOL    HW123213   4.156   3.538   3.999  1.0037  0.8872 -0.1658
 3859SOL    HW223214   4.200   3.661   4.068 -2.2216  1.0367  1.1584
 3860SOL     OW23215   3.572   3.806  16.743  0.1491  0.9069  0.1311
 3860SOL    HW123216   3.537   3.773  16.660 -2.0518 -1.0310  1.8363
 3860SOL    HW223217   3.608   3.727  16.783 -1.0155  0.0561 -0.4746
 3861SOL     OW23218   2.096   4.442   6.490  0.4964  0.4984  0.4191
 3861SOL    HW123219   2.013   4.491   6.491 -1.7992 -3.4181  0.1061
 3861SOL    HW223220   2.076   4.363   6.441  0.4950  0.7811 -0.0361
 3862SOL     OW23221   0.172   2.083   6.129 -0.4548 -0.6186  0.4523
 3862SOL    HW123222   0.216   2.003   6.099 -0.4576 -0.2255 -0.6007
 3862SOL    HW223223   0.230   2.118   6.195 -1.0780  2.4247 -0.6296
 3863SOL     OW23224   2.765   0.118   4.225  0.5109  0.2630 -0.3707
 3863SOL    HW123225   2.832   0.183   4.248  1.4881 -1.5611  1.8566
 3863SOL    HW223226   2.740   0.162   4.143  0.4991 -0.7046 -0.8817
 3864SOL     OW23227   3.110   1.368   0.678 -0.0447  0.2348  0.3451
 3864SOL    HW123228   3.087   1.279   0.653  1.9151  0.5195 -2.4330
 3864SOL    HW223229   3.075   1.416   0.603  2.8809 -0.1646 -1.2729
 3865SOL     OW23230   3.242   2.926   6.016  0.3366  0.1548 -0.2425
 3865SOL    HW123231   3.307   2.931   5.947  1.9497  1.0374  1.3460
 3865SOL    HW223232   3.172   2.887   5.963  0.6112 -0.3256 -0.2547
 3866SOL     OW23233   0.511   0.024   4.988 -0.5159 -0.4233  0.3759
 3866SOL    HW123234   0.421   4.736   4.967 -1.1979  1.5727  0.7977
 3866SOL    HW223235   0.530   0.099   4.931  0.8631 -1.6699 -0.8065
 3867SOL     OW23236   2.200   0.359   5.660  0.3357  0.7400 -0.2552
 3867SOL    HW123237   2.129   0.421   5.675 -0.6793 -0.5216  0.0903
 3867SOL    HW223238   2.272   0.418   5.683  0.7556 -1.2466  3.3334
 3868SOL     OW23239   1.225   1.721  14.130  0.1158  0.1568 -0.0661
 3868SOL    HW123240   1.187   1.694  14.047 -0.2829  0.6186 -0.0263
 3868SOL    HW223241   1.249   1.637  14.169 -0.3899 -0.5842 -1.3567
 3869SOL     OW23242   3.096   3.730   3.993  0.4882 -0.1685  0.2228
 3869SOL    HW123243   3.066   3.751   4.082  1.6994  2.0998  0.0844
 3869SOL    HW223244   3.020   3.678   3.967  0.0033 -0.1200  1.5538
 3870SOL     OW23245   3.898   3.351   9.357 -0.3721 -0.9468  0.0535
 3870SOL    HW123246   3.974   3.299   9.381  0.2871 -0.7457 -1.5799
 3870SOL    HW223247   3.848   3.333   9.437 -1.4809  0.4064 -0.3296
 3871SOL     OW23248   2.907   4.080   5.114 -0.2743 -0.2659 -0.1819
 3871SOL    HW123249   2.976   4.104   5.052  0.6068 -4.0895 -0.7291
 3871SOL    HW223250   2.952   4.014   5.168 -0.2435 -0.2491 -0.1870
 3872SOL     OW23251   3.877   0.653   6.088 -0.5320 -0.6368  0.4060
 3872SOL    HW123252   3.863   0.611   6.173 -0.4542 -3.2832 -0.8893
 3872SOL    HW223253   3.827   0.593   6.033  1.8921 -0.4788 -2.0115
 3873SOL     OW23254   3.401   1.181   5.495  0.4139  0.2497 -0.1565
 3873SOL    HW123255   3.383   1.113   5.430 -0.9936  3.1927 -2.8548
 3873SOL    HW223256   3.427   1.246   5.430  2.2513  1.2484  1.5489
 3874SOL     OW23257   1.980   2.675   2.693  0.1671  0.3064 -0.2704
 3874SOL    HW123258   1.959   2.714   2.777 -0.1154  0.2482 -0.3152
 3874SOL    HW223259   1.958   2.743   2.629 -0.7709 -0.6123 -0.9219
 3875SOL     OW23260   1.183   2.999   4.401  0.3237 -0.4539  0.0264
 3875SOL    HW123261   1.248   2.949   4.450 -0.5361 -1.2329  0.3397
 3875SOL    HW223262   1.101   2.996   4.449  0.4698  2.7430  0.5009
 3876SOL     OW23263   3.570   0.701   3.838 -0.2847 -0.5926  0.1765
 3876SOL    HW123264   3.522   0.770   3.792  0.7194  0.6021  0.9003
 3876SOL    HW223265   3.567   0.625   3.779 -2.4272  0.0352 -0.5146
 3877SOL     OW23266   1.548   1.945   8.338 -0.0759 -0.5066  0.2406
 3877SOL    HW123267   1.624   1.964   8.393 -0.5706  0.9977  0.4033
 3877SOL    HW223268   1.574   1.980   8.252  1.0777 -1.7596  0.0803
 3878SOL     OW23269   2.568   3.864   3.650 -0.6691  0.2638 -0.7099
 3878SOL    HW123270   2.567   3.837   3.742 -1.8159  1.8150 -0.2677
 3878SOL    HW223271   2.578   3.781   3.604 -0.7628 -0.5225  0.6588
 3879SOL     OW23272   4.165   3.808   3.804 -0.1984  0.0019  0.0821
 3879SOL    HW123273   4.142   3.744   3.737  1.0149  0.4437 -0.7598
 3879SOL    HW223274   4.142   3.760   3.884  1.9350 -0.3803  0.4849
 3880SOL     OW23275   3.990   3.897   5.360  0.1590  0.1930  0.1434
 3880SOL    HW123276   3.981   3.897   5.456 -1.2279 -1.6660  0.0037
 3880SOL    HW223277   4.084   3.908   5.347  0.1588 -0.0571 -0.0545
 3881SOL     OW23278   1.335   3.096   8.165 -0.5337  0.0682  0.6240
 3881SOL    HW123279   1.280   3.035   8.215  1.5060 -2.3432 -0.0965
 3881SOL    HW223280   1.307   3.176   8.209  1.1404  0.2210  1.4028
 3882SOL     OW23281   1.067   2.201   4.372 -0.2463  0.0351  0.1076
 3882SOL    HW123282   1.110   2.226   4.290  0.4477  0.1996  0.5203
 3882SOL    HW223283   0.980   2.173   4.344  0.3308 -1.7602  0.0959
 3883SOL     OW23284   4.470   0.653   7.772  0.0407 -0.3734 -0.3226
 3883SOL    HW123285   4.408   0.592   7.733  0.0023 -0.3560 -0.2880
 3883SOL    HW223286   4.554   0.627   7.734  0.6405 -1.1049  1.5216
 3884SOL     OW23287   3.154   3.589   9.011  0.2210  0.1088  0.4364
 3884SOL    HW123288   3.063   3.594   8.984  0.2577  1.7863  0.6510
 3884SOL    HW223289   3.200   3.570   8.929  0.3289  1.5967  0.1574
 3885SOL     OW23290   1.797   0.764   3.972 -0.1130  0.5527 -0.8027
 3885SOL    HW123291   1.775   0.786   3.881  0.6266 -1.0262 -1.3722
 3885SOL    HW223292   1.893   0.761   3.966 -0.2458 -0.7075 -2.2523
 3886SOL     OW23293   3.845   0.839  10.705 -0.5223 -0.2530 -0.2975
 3886SOL    HW123294   3.886   0.892  10.637 -2.0031  1.0077 -0.2208
 3886SOL    HW223295   3.867   0.756  10.664  1.1662  0.9676 -1.8860
 3887SOL     OW23296   2.063   4.572  14.741 -0.3975  0.1150 -0.1084
 3887SOL    HW123297   2.066   4.642  14.806 -1.1289 -0.0176  0.0682
 3887SOL    HW223298   2.154   4.548  14.728 -0.8357 -0.5092 -2.1019
 3888SOL     OW23299   1.356   3.987   9.129  0.3250 -0.2046 -0.5089
 3888SOL    HW123300   1.376   4.050   9.199 -0.4617 -0.0456 -0.4350
 3888SOL    HW223301   1.362   4.048   9.054 -2.3312  0.5684 -0.0854
 3889SOL     OW23302   3.097   1.680   5.848 -0.1204  0.1491  0.7277
 3889SOL    HW123303   3.112   1.727   5.766 -1.0602  1.6850  1.4465
 3889SOL    HW223304   3.066   1.750   5.904 -1.0243  0.7052 -0.4568
 3890SOL     OW23305   0.371   2.877   4.983 -0.6153 -0.6369 -0.2171
 3890SOL    HW123306   0.302   2.941   4.963 -0.8334 -0.8067 -0.0118
 3890SOL    HW223307   0.424   2.851   4.909 -0.1941 -3.8404  1.2150
 3891SOL     OW23308   0.082   4.216  10.418 -0.5051  0.1705  0.4034
 3891SOL    HW123309   0.166   4.253  10.390 -0.3040 -0.7536 -0.2201
 3891SOL    HW223310   0.055   4.283  10.480 -0.1682  3.4064 -2.9511
 3892SOL     OW23311   3.045   2.313   1.155  0.0316 -0.3932 -0.0756
 3892SOL    HW123312   3.068   2.220   1.162  0.9918  0.0233  2.1533
 3892SOL    HW223313   3.119   2.345   1.206  0.1416  0.0341 -0.5026
 3893SOL     OW23314   2.462   3.058   2.889 -0.3676 -0.3080 -0.4285
 3893SOL    HW123315   2.551   3.024   2.886  0.2456  1.1400  1.2464
 3893SOL    HW223316   2.464   3.093   2.978 -1.3642  0.9207 -0.8804
 3894SOL     OW23317   1.422   2.910   8.664  0.1674  0.5304  0.1915
 3894SOL    HW123318   1.416   2.978   8.732 -2.8817 -2.5746  3.0164
 3894SOL    HW223319   1.350   2.854   8.694  0.8660  0.8829  2.5722
 3895SOL     OW23320   2.238   3.755   1.372  0.2940 -0.0467  0.7658
 3895SOL    HW123321   2.197   3.841   1.362  2.8841  1.1762  0.6771
 3895SOL    HW223322   2.206   3.724   1.456 -0.5391 -0.3472  0.3423
 3896SOL     OW23323   3.004   1.910   5.362 -0.3826  0.1420 -0.3944
 3896SOL    HW123324   2.923   1.950   5.394 -1.9430  1.0555 -5.4367
 3896SOL    HW223325   3.006   1.833   5.419 -0.9099  0.8313  0.5579
 3897SOL     OW23326   0.564   2.744   8.961  0.4565 -0.2361 -0.0496
 3897SOL    HW123327   0.612   2.802   9.020 -1.3352 -0.4166  1.5682
 3897SOL    HW223328   0.551   2.659   9.003  1.3240 -0.1394  0.4066
 3898SOL     OW23329   4.723   1.502  12.791  0.6367 -0.5471 -0.3730
 3898SOL    HW123330   0.075   1.532  12.798  0.6057 -0.3570 -0.7935
 3898SOL    HW223331   4.684   1.553  12.862  2.4660 -0.1259  0.3365
 3899SOL     OW23332   3.964   0.591  10.665 -0.0266 -0.3368 -0.2982
 3899SOL    HW123333   3.912   0.523  10.621 -0.9401 -0.5594  1.1307
 3899SOL    HW223334   4.035   0.588  10.601  1.6403  1.4138  1.4694
 3900SOL     OW23335   4.428   2.273   9.490 -0.2880  0.6875  0.8143
 3900SOL    HW123336   4.516   2.259   9.525 -1.0615  2.2807  3.4385
 3900SOL    HW223337   4.412   2.365   9.471  1.1075  0.3634 -1.8372
 3901SOL     OW23338   2.309   3.836   0.710 -0.2638  0.4159  0.0662
 3901SOL    HW123339   2.368   3.882   0.769 -0.1604 -1.1376  1.1699
 3901SOL    HW223340   2.270   3.910   0.664 -1.1661  0.3019  0.6378
 3902SOL     OW23341   1.153   2.327  11.120  0.6076  0.2130 -0.1044
 3902SOL    HW123342   1.117   2.286  11.041 -0.4151 -2.0874  1.5729
 3902SOL    HW223343   1.217   2.259  11.141  0.5422 -0.5252 -2.2568
 3903SOL     OW23344   0.828   2.219  16.750 -0.2678 -0.5125 -0.1891
 3903SOL    HW123345   0.783   2.179  16.824  0.6785 -1.1457  0.0534
 3903SOL    HW223346   0.834   2.309  16.783  1.0481  0.3954 -2.9096
 3904SOL     OW23347   1.541   0.564   4.648  0.0889 -0.1961  1.0903
 3904SOL    HW123348   1.521   0.503   4.577  2.0603  0.2371  0.1566
 3904SOL    HW223349   1.515   0.504   4.719 -0.4230 -1.8753 -0.5324
 3905SOL     OW23350   4.377   1.318   0.479 -0.3122  0.1259 -0.0750
 3905SOL    HW123351   4.297   1.267   0.471 -1.0798  1.1032  1.3246
 3905SOL    HW223352   4.339   1.397   0.439 -1.6408  0.1453  1.2290
 3906SOL     OW23353   0.299   4.348   0.358  0.5109  0.2532 -0.5134
 3906SOL    HW123354   0.249   4.291   0.299 -0.6040 -0.0848  0.7488
 3906SOL    HW223355   0.292   4.433   0.316 -0.2750  0.9411  1.0063
 3907SOL     OW23356   0.975   0.410   9.938  0.2567 -0.2337  0.8184
 3907SOL    HW123357   1.039   0.461   9.888 -1.0765  1.7006  1.0757
 3907SOL    HW223358   1.030   0.383  10.011  2.1581  0.8262 -0.2290
 3908SOL     OW23359   4.550   0.844   3.481  0.0756 -0.2753  0.0191
 3908SOL    HW123360   4.557   0.750   3.498  0.2442 -0.3138 -0.2614
 3908SOL    HW223361   4.480   0.854   3.546 -0.7468  1.6272 -1.1837
 3909SOL     OW23362   3.702   3.696   3.595 -0.0941 -0.1155  0.0783
 3909SOL    HW123363   3.749   3.698   3.679 -2.3357  0.4765  1.3226
 3909SOL    HW223364   3.767   3.659   3.535  1.0653  1.4105  0.4012
 3910SOL     OW23365   3.973   2.912   2.657 -0.2492  0.7496 -0.1844
 3910SOL    HW123366   4.013   2.919   2.744 -0.9374  0.0453  0.1960
 3910SOL    HW223367   3.881   2.904   2.684 -0.3793 -1.1870 -1.1723
 3911SOL     OW23368   4.710   0.757   5.001  0.1787  0.1911  0.2643
 3911SOL    HW123369   0.016   0.803   4.930 -1.3701 -0.3663 -1.0432
 3911SOL    HW223370   0.041   0.768   5.067  3.0687  0.8786 -2.8854
 3912SOL     OW23371   2.860   0.529  10.698 -0.1346  0.2129 -0.2752
 3912SOL    HW123372   2.872   0.621  10.673 -0.3759  0.4133  0.3636
 3912SOL    HW223373   2.897   0.530  10.786  1.1971  1.9037 -0.8567
 3913SOL     OW23374   3.371   3.336   3.562 -0.5205  0.2956  0.0720
 3913SOL    HW123375   3.287   3.381   3.561 -1.8665 -2.2107  0.6564
 3913SOL    HW223376   3.427   3.405   3.527 -0.4459  0.9237  1.4143
 3914SOL     OW23377   3.188   1.305   3.766  0.6717  0.0296  0.5417
 3914SOL    HW123378   3.149   1.282   3.682 -0.2682  1.9874  0.4553
 3914SOL    HW223379   3.277   1.270   3.765  0.8401  0.4720 -0.0659
 3915SOL     OW23380   2.768   4.020   3.391 -0.3919 -0.5738 -0.2769
 3915SOL    HW123381   2.702   3.974   3.339 -0.3452 -1.8659  0.8087
 3915SOL    HW223382   2.813   3.949   3.436  0.3922  0.1654  0.0961
 3916SOL     OW23383   2.289   0.347  11.911 -0.8725 -0.2751 -0.2168
 3916SOL    HW123384   2.361   0.291  11.883  0.4013  0.9804  0.5498
 3916SOL    HW223385   2.254   0.299  11.987  0.0466  2.2125  1.7735
 3917SOL     OW23386   0.775   2.010   4.782 -0.6815  0.0307  0.7004
 3917SOL    HW123387   0.746   1.920   4.766  2.1145 -0.9343  1.0812
 3917SOL    HW223388   0.859   1.996   4.825 -0.0864  1.7085  0.0732
 3918SOL     OW23389   0.483   1.425   5.254  0.4409 -0.2709  0.2242
 3918SOL    HW123390   0.441   1.346   5.288  0.9367 -0.6739 -0.1073
 3918SOL    HW223391   0.565   1.390   5.220 -0.6809 -2.6609 -0.0290
 3919SOL     OW23392   1.172   0.661   2.652  0.1317 -0.0848 -0.4344
 3919SOL    HW123393   1.187   0.623   2.738 -2.7985  2.2204  1.0775
 3919SOL    HW223394   1.104   0.609   2.609 -0.1650  0.9463 -1.2087
 3920SOL     OW23395   4.344   2.538   1.753 -0.1673 -0.0330  0.4558
 3920SOL    HW123396   4.270   2.545   1.693 -0.0412  1.0605  0.4235
 3920SOL    HW223397   4.384   2.454   1.730  1.2105  0.8045 -0.2369
 3921SOL     OW23398   2.951   2.445   5.612  0.1592 -0.3318 -0.0540
 3921SOL    HW123399   2.913   2.406   5.692  0.2149 -1.5629 -0.6272
 3921SOL    HW223400   2.877   2.470   5.557 -0.7580 -0.6051  1.0419
 3922SOL     OW23401   1.044   3.807   3.848 -0.6255 -0.5207  0.3024
 3922SOL    HW123402   1.064   3.721   3.811  1.9386  1.7623 -3.5279
 3922SOL    HW223403   1.033   3.855   3.766  1.9390 -0.3808  0.0419
 3923SOL     OW23404   4.441   3.828   8.010  0.8649 -0.3408 -0.5417
 3923SOL    HW123405   4.481   3.775   8.078 -2.6687 -2.7947 -0.3834
 3923SOL    HW223406   4.399   3.764   7.952 -0.5837  0.4443 -0.3669
 3924SOL     OW23407   2.242   1.378   5.873 -0.0235 -0.2354  0.4566
 3924SOL    HW123408   2.240   1.391   5.778 -0.2600 -1.1536  0.3336
 3924SOL    HW223409   2.149   1.393   5.887 -0.3857 -1.0741 -0.9703
 3925SOL     OW23410   2.777   1.231   1.530  0.4338  0.3712  0.5312
 3925SOL    HW123411   2.816   1.161   1.478  0.3935  0.1670  0.7757
 3925SOL    HW223412   2.760   1.294   1.459  2.5420 -0.1090 -0.3884
 3926SOL     OW23413   3.603   2.084   9.223  0.3233 -0.6134 -0.1772
 3926SOL    HW123414   3.609   1.992   9.247  0.6161 -0.2305  1.2364
 3926SOL    HW223415   3.593   2.115   9.314 -1.5115 -2.0562  0.1185
 3927SOL     OW23416   4.091   2.678   7.553 -0.2139  0.0568 -0.1389
 3927SOL    HW123417   4.090   2.773   7.558  0.0625  0.0283  0.4236
 3927SOL    HW223418   4.139   2.664   7.634  0.8051  0.8915 -0.6034
 3928SOL     OW23419   3.591   1.131   4.558  0.1487  0.1568  0.0969
 3928SOL    HW123420   3.577   1.225   4.552  2.5749  0.5987  1.4815
 3928SOL    HW223421   3.682   1.126   4.527  0.5752  2.3438  1.0165
 3929SOL     OW23422   0.477   1.830   9.167 -0.1663  0.5028 -0.1563
 3929SOL    HW123423   0.411   1.852   9.101 -1.5008 -3.1908 -0.0856
 3929SOL    HW223424   0.486   1.918   9.204  1.4382  0.5693 -0.6853
 3930SOL     OW23425   2.703   1.229   3.135 -0.0376 -0.2002 -0.0673
 3930SOL    HW123426   2.692   1.134   3.122  0.7397 -0.0748 -1.6589
 3930SOL    HW223427   2.630   1.243   3.195 -0.2009 -0.1990 -0.2676
 3931SOL     OW23428   0.370   2.510   5.368 -0.4057  0.6412 -0.0598
 3931SOL    HW123429   0.297   2.459   5.335 -1.7875  1.6160  1.5305
 3931SOL    HW223430   0.392   2.561   5.290  1.1036  1.3983  0.8513
 3932SOL     OW23431   2.569   3.186   5.006 -0.3847  0.3427 -0.1564
 3932SOL    HW123432   2.574   3.278   5.033  0.4489  0.1500  0.3404
 3932SOL    HW223433   2.507   3.156   5.073 -2.6680 -0.3224 -2.5857
 3933SOL     OW23434   2.209   0.151  12.106  0.6551 -0.1147 -0.1041
 3933SOL    HW123435   2.227   0.083  12.041  0.3771 -0.9565  0.6931
 3933SOL    HW223436   2.222   0.099  12.185 -0.0861  1.1185  0.8315
 3934SOL     OW23437   0.879   4.701   6.903  0.4405  0.2424 -0.0665
 3934SOL    HW123438   0.932   4.729   6.978 -0.4806 -1.5084  1.2258
 3934SOL    HW223439   0.944   4.651   6.855 -0.1724  0.3536 -1.0307
 3935SOL     OW23440   1.182   2.739   6.953 -0.2729 -0.3990 -0.2913
 3935SOL    HW123441   1.122   2.744   7.028 -0.6033 -2.0904 -0.4410
 3935SOL    HW223442   1.130   2.786   6.888  1.8751  2.7741  0.2974
 3936SOL     OW23443   3.354   3.117   3.811 -0.3948  0.2018  0.4301
 3936SOL    HW123444   3.404   3.191   3.777 -0.0165 -0.0135  0.5153
 3936SOL    HW223445   3.396   3.100   3.896 -2.0301 -0.4864  1.1028
 3937SOL     OW23446   4.420   1.367   4.831  0.4294  0.4911  0.5046
 3937SOL    HW123447   4.451   1.293   4.883 -1.6362  0.2929  1.4520
 3937SOL    HW223448   4.382   1.310   4.764  2.5221  1.3989 -1.4955
 3938SOL     OW23449   2.065   3.658   5.842  0.0853 -0.2130  0.3715
 3938SOL    HW123450   2.144   3.651   5.788 -0.4602 -0.7432 -0.3694
 3938SOL    HW223451   2.047   3.567   5.866  1.8805 -0.4277  0.8901
 3939SOL     OW23452   2.502   0.071   6.981  0.2573  0.0282  0.1320
 3939SOL    HW123453   2.428   0.079   6.921  1.0123  1.5107 -0.5998
 3939SOL    HW223454   2.504   4.719   7.012 -4.3675  0.1696  0.9245
 3940SOL     OW23455   3.792   0.957   3.018  0.1013 -0.4960  0.4075
 3940SOL    HW123456   3.866   0.973   2.959 -0.7383 -1.1290 -0.8138
 3940SOL    HW223457   3.781   0.862   3.010  3.7756 -0.9019  0.1526
 3941SOL     OW23458   2.552   2.401   5.958 -0.1872  0.3105 -0.2480
 3941SOL    HW123459   2.501   2.395   5.877 -0.9543  0.1799  0.2459
 3941SOL    HW223460   2.503   2.343   6.016  0.6093 -0.8732 -0.7653
 3942SOL     OW23461   4.314   3.092  15.023 -0.1422  0.8073 -0.5508
 3942SOL    HW123462   4.377   3.150  14.980  0.0714 -0.1054 -1.4619
 3942SOL    HW223463   4.292   3.145  15.100  1.4300  1.8657 -0.8349
 3943SOL     OW23464   0.276   3.957   3.928  0.2866  0.3259  0.3570
 3943SOL    HW123465   0.309   3.889   3.869  0.5875 -0.2015  1.1341
 3943SOL    HW223466   0.221   4.001   3.864  2.0481  0.2613 -1.1898
 3944SOL     OW23467   4.099   1.984   5.021 -0.5301  0.0087  0.0260
 3944SOL    HW123468   4.143   2.005   5.103  1.5774 -1.9086 -0.5909
 3944SOL    HW223469   4.026   2.044   5.037  0.9970  1.8394  0.1213
 3945SOL     OW23470   4.084   2.024  13.147  0.1686  0.1769  0.0724
 3945SOL    HW123471   4.118   2.106  13.182 -0.4057  0.6231 -0.4172
 3945SOL    HW223472   4.160   1.966  13.142  0.7481  1.0193 -0.6939
 3946SOL     OW23473   3.302   3.193  11.122 -0.0003  0.5016  0.1081
 3946SOL    HW123474   3.225   3.192  11.179 -0.0606 -0.0842  0.0197
 3946SOL    HW223475   3.369   3.160  11.182  1.1151  1.6337 -0.5295
 3947SOL     OW23476   0.436   4.695   4.326  0.1302  0.3889 -0.2251
 3947SOL    HW123477   0.367   4.655   4.273 -0.6770  0.9017  0.4325
 3947SOL    HW223478   0.429   0.044   4.289  0.5621 -0.6431 -2.8132
 3948SOL     OW23479   0.872   3.951   8.867  0.2402 -0.0518 -0.1392
 3948SOL    HW123480   0.854   3.879   8.806  0.6812  0.5944 -1.0451
 3948SOL    HW223481   0.913   3.909   8.943  0.4618  1.0210  0.3322
 3949SOL     OW23482   4.540   1.136  11.675 -0.1409  0.6516 -0.0652
 3949SOL    HW123483   4.483   1.075  11.721  1.6003 -0.8023  0.1547
 3949SOL    HW223484   4.515   1.221  11.711 -0.6484  0.7329 -0.5893
 3950SOL     OW23485   0.943   3.448  16.163 -0.2146  0.0982  0.0755
 3950SOL    HW123486   0.908   3.359  16.173 -0.1031  0.0379 -0.0703
 3950SOL    HW223487   0.945   3.449  16.068  0.3103  2.1196  0.1034
 3951SOL     OW23488   1.882   1.793   9.383 -0.4461 -0.7926  0.0991
 3951SOL    HW123489   1.789   1.773   9.392 -0.4168 -1.7462 -1.6700
 3951SOL    HW223490   1.912   1.738   9.310  0.3031  0.3759 -0.4853
 3952SOL     OW23491   3.898   1.923  12.393  0.3923  0.2154 -0.0869
 3952SOL    HW123492   3.895   2.006  12.345 -1.9983 -1.9664 -3.6645
 3952SOL    HW223493   3.932   1.864  12.326  0.4096 -0.2988  0.3747
 3953SOL     OW23494   0.727   0.966   2.226  0.0393 -0.7294  0.8115
 3953SOL    HW123495   0.751   0.942   2.137  0.5699  2.3180  0.1377
 3953SOL    HW223496   0.736   1.061   2.227  3.0633 -1.0132  1.4467
 3954SOL     OW23497   0.436   2.417   6.557  0.0729 -0.2470  0.9980
 3954SOL    HW123498   0.507   2.455   6.505  0.1796 -1.6247  0.1343
 3954SOL    HW223499   0.362   2.437   6.499  2.4772  1.6121 -1.4586
 3955SOL     OW23500   0.629   2.630   1.201 -0.4366  0.5815 -0.2454
 3955SOL    HW123501   0.586   2.624   1.286  0.6336  2.4317  0.4123
 3955SOL    HW223502   0.659   2.721   1.197  1.3753 -0.0361 -0.4459
 3956SOL     OW23503   3.315   4.291   7.248 -0.4151 -0.7310 -0.1755
 3956SOL    HW123504   3.383   4.261   7.307 -0.1664  0.7865  0.3234
 3956SOL    HW223505   3.246   4.228   7.267 -0.4851 -0.5808  0.0701
 3957SOL     OW23506   3.731   1.372   2.594 -0.4342  0.2777 -0.5020
 3957SOL    HW123507   3.776   1.336   2.670 -1.0659  0.9452  0.1990
 3957SOL    HW223508   3.651   1.409   2.633  0.1801  1.0086  0.0688
 3958SOL     OW23509   4.728   0.303   3.870  1.1484 -0.4515 -0.4229
 3958SOL    HW123510   4.634   0.285   3.870  0.6105  2.3141  0.9009
 3958SOL    HW223511   0.003   0.277   3.961  0.6115 -0.0653 -0.2292
 3959SOL     OW23512   4.049   0.217   0.978  0.0770 -0.4422  0.2585
 3959SOL    HW123513   3.956   0.212   1.000  0.4831 -0.1056  2.1187
 3959SOL    HW223514   4.065   0.123   0.974 -1.9209 -0.7700 -0.1119
 3960SOL     OW23515   4.482   4.628   7.002  0.1553  0.4876  0.0161
 3960SOL    HW123516   4.445   4.568   6.938  1.0192  0.5008 -0.4920
 3960SOL    HW223517   4.469   4.582   7.085 -0.4180 -2.0384 -1.4752
 3961SOL     OW23518   3.354   1.176   2.057  0.1756 -0.6240  0.3592
 3961SOL    HW123519   3.390   1.129   2.132  2.4502  1.7341  0.7413
 3961SOL    HW223520   3.419   1.244   2.040 -0.7721  0.1723 -0.0593
 3962SOL     OW23521   2.897   3.775   3.517 -0.0227  0.0819 -0.2661
 3962SOL    HW123522   2.976   3.750   3.467 -0.1908 -0.2549 -0.3666
 3962SOL    HW223523   2.861   3.686   3.526  0.4368 -0.0374  0.4333
 3963SOL     OW23524   2.976   3.562   6.119 -0.6039 -0.0659 -0.0669
 3963SOL    HW123525   2.983   3.486   6.061  1.3243 -0.3241  0.4878
 3963SOL    HW223526   3.060   3.555   6.166 -1.6114 -1.5294  1.5113
 3964SOL     OW23527   0.686   0.353   8.760  0.3006 -0.0534  0.1330
 3964SOL    HW123528   0.777   0.367   8.785 -0.0901  0.5233  1.2384
 3964SOL    HW223529   0.642   0.317   8.837 -2.0719  2.4172 -0.0806
 3965SOL     OW23530   3.164   3.104   7.308  0.4811  0.5308 -0.0016
 3965SOL    HW123531   3.234   3.038   7.302 -0.1802 -0.2921  1.2232
 3965SOL    HW223532   3.205   3.178   7.264  1.9719 -0.5764 -0.5121
 3966SOL     OW23533   4.434   0.022   7.828  0.3044  0.2449 -0.4318
 3966SOL    HW123534   4.400   0.102   7.787 -1.1096  0.4069  1.0456
 3966SOL    HW223535   4.528   0.025   7.809  0.3316  2.1518  0.0116
 3967SOL     OW23536   0.847   1.598   8.825  0.1560 -0.1674  0.3443
 3967SOL    HW123537   0.922   1.625   8.772 -1.3749 -0.6465 -2.0583
 3967SOL    HW223538   0.782   1.663   8.799  0.0840 -0.1171  0.6603
 3968SOL     OW23539   2.127   3.614   2.311 -0.1103  0.1144  0.0546
 3968SOL    HW123540   2.111   3.670   2.235  1.3295  1.8853  1.0738
 3968SOL    HW223541   2.070   3.647   2.381 -0.2293 -2.3002  1.1331
 3969SOL     OW23542   0.788   1.159  11.930  0.4162 -0.1084  0.2333
 3969SOL    HW123543   0.793   1.254  11.927 -2.8938  0.0645 -0.5642
 3969SOL    HW223544   0.825   1.138  12.016  1.6005 -1.0217 -0.4900
 3970SOL     OW23545   3.851   0.714   0.515 -0.3767 -0.2790 -0.0662
 3970SOL    HW123546   3.919   0.780   0.527  0.0787 -1.0647  1.7120
 3970SOL    HW223547   3.780   0.777   0.524  0.4199  0.8763 -1.9782
 3971SOL     OW23548   3.281   3.576   5.864  0.2371  0.5016 -0.2113
 3971SOL    HW123549   3.301   3.595   5.956  0.9671 -2.1314  0.1548
 3971SOL    HW223550   3.245   3.662   5.842 -2.8890 -0.8718 -0.5420
 3972SOL     OW23551   0.594   1.922   7.155 -0.1980  0.9196  0.1474
 3972SOL    HW123552   0.626   2.009   7.178  0.9000  0.4048  0.5265
 3972SOL    HW223553   0.505   1.933   7.188 -0.3975 -0.6227  0.1214
 3973SOL     OW23554   2.724   1.361   4.381  0.3251  0.1765  0.2873
 3973SOL    HW123555   2.657   1.311   4.333  0.0866 -0.6074  1.4514
 3973SOL    HW223556   2.702   1.454   4.378  3.4872  0.9363 -0.5411
 3974SOL     OW23557   3.511   0.942  10.912 -0.3663 -0.1664  0.1957
 3974SOL    HW123558   3.525   0.869  10.851  1.3443  2.1437 -2.1958
 3974SOL    HW223559   3.460   0.903  10.983 -0.0331  2.0696  1.6717
 3975SOL     OW23560   2.675   0.701  14.823 -0.0453  0.3313  0.1186
 3975SOL    HW123561   2.588   0.661  14.823 -0.5470  1.4071  1.1581
 3975SOL    HW223562   2.637   0.783  14.793  1.2550  1.1084  0.5811
 3976SOL     OW23563   2.438   0.454   4.191 -1.2157  0.0395 -0.4229
 3976SOL    HW123564   2.383   0.398   4.245  0.9400  0.6983  2.4383
 3976SOL    HW223565   2.463   0.385   4.129 -1.1139 -0.6019  0.3397
 3977SOL     OW23566   1.277   1.801  12.288  0.7739 -0.0409  0.5343
 3977SOL    HW123567   1.296   1.736  12.356 -1.8679  0.9229  2.1807
 3977SOL    HW223568   1.370   1.825  12.283  0.9911 -1.2153 -1.3298
 3978SOL     OW23569   2.615   2.713   6.743 -0.1660  0.0573 -0.1972
 3978SOL    HW123570   2.525   2.680   6.738  0.6452 -1.9333 -1.5016
 3978SOL    HW223571   2.668   2.638   6.714  1.2715  0.1569  2.1633
 3979SOL     OW23572   4.088   1.168  15.434 -0.4937  0.3569 -0.1755
 3979SOL    HW123573   4.083   1.244  15.492 -2.0509  0.3680 -0.3244
 3979SOL    HW223574   4.116   1.100  15.495 -2.5686 -0.3926 -0.0458
 3980SOL     OW23575   3.146   2.507   7.287 -0.3186  0.5282  0.4299
 3980SOL    HW123576   3.195   2.583   7.257  1.3018  0.0307  1.8896
 3980SOL    HW223577   3.072   2.507   7.226  1.1890 -0.1202 -1.3993
 3981SOL     OW23578   2.547   3.558   5.987 -0.0085  0.1577 -0.1748
 3981SOL    HW123579   2.527   3.651   5.970  0.8596  0.3185 -0.3241
 3981SOL    HW223580   2.549   3.552   6.082  1.4124  1.2330 -0.1292
 3982SOL     OW23581   2.553   2.297   1.612 -0.7455 -0.7817 -0.2125
 3982SOL    HW123582   2.593   2.368   1.662  1.6939 -0.9315 -1.9149
 3982SOL    HW223583   2.570   2.345   1.531 -3.1452  0.4455 -0.0070
 3983SOL     OW23584   1.262   4.677   7.658  0.6843  0.5226  0.1410
 3983SOL    HW123585   1.222   4.647   7.739  1.3833 -1.4587 -0.2441
 3983SOL    HW223586   1.347   4.699   7.694  1.3203  0.4919 -1.3373
 3984SOL     OW23587   4.067   0.860   0.559  0.5427 -0.5364 -0.5176
 3984SOL    HW123588   4.093   0.941   0.515  0.6504  0.9152  2.2649
 3984SOL    HW223589   4.114   0.790   0.513  1.7291  0.8436 -1.4098
 3985SOL     OW23590   1.706   0.520   7.175  0.1505  0.3355 -0.1666
 3985SOL    HW123591   1.801   0.518   7.185 -0.0479 -0.1879  1.5264
 3985SOL    HW223592   1.696   0.603   7.128 -0.5773  0.6844  0.6040
 3986SOL     OW23593   3.983   3.211   2.815 -0.2668 -0.0615 -0.2030
 3986SOL    HW123594   4.033   3.257   2.883 -1.1490 -1.1814  1.1935
 3986SOL    HW223595   4.029   3.250   2.740  0.2840 -0.1490  0.0886
 3987SOL     OW23596   2.519   4.187   8.890  0.3124 -0.9360  0.2082
 3987SOL    HW123597   2.557   4.170   8.977  0.2198  0.2746  0.4792
 3987SOL    HW223598   2.483   4.273   8.909 -1.3733 -1.4561 -0.6760
 3988SOL     OW23599   2.554   3.135   4.520  0.4072  0.4089 -0.7461
 3988SOL    HW123600   2.481   3.187   4.487  1.2332  2.7685  1.2294
 3988SOL    HW223601   2.585   3.196   4.586  2.6009 -0.5156 -0.9406
 3989SOL     OW23602   0.276   1.021  12.876 -0.0816  0.0394  0.1198
 3989SOL    HW123603   0.319   0.955  12.822 -0.5806  1.9879 -2.6654
 3989SOL    HW223604   0.186   1.018  12.843  0.8761  1.5838 -2.5856
 3990SOL     OW23605   4.289   0.549   8.014  0.7095  0.2822 -0.7913
 3990SOL    HW123606   4.357   0.585   7.957  0.7247 -2.6877 -2.6395
 3990SOL    HW223607   4.210   0.581   7.972  0.5235 -0.3424 -0.9154
 3991SOL     OW23608   3.253   2.926  15.634 -0.2340  0.0458  0.1926
 3991SOL    HW123609   3.291   2.903  15.719  2.8559  2.9748 -0.3970
 3991SOL    HW223610   3.231   2.842  15.594  1.8844 -1.7639  2.7569
 3992SOL     OW23611   1.303   1.075   7.684  0.2324 -0.2666 -0.2296
 3992SOL    HW123612   1.397   1.065   7.702  0.6093  1.1220 -1.4256
 3992SOL    HW223613   1.294   1.021   7.605  2.8177 -0.8843 -0.1277
 3993SOL     OW23614   2.130   1.734   1.491  0.3922  0.1787  0.2798
 3993SOL    HW123615   2.126   1.819   1.447 -1.4702  0.6024  1.2621
 3993SOL    HW223616   2.041   1.724   1.526  0.4779  2.5481  1.1817
 3994SOL     OW23617   4.557   0.782   4.732 -0.4815  0.3664  0.3751
 3994SOL    HW123618   4.587   0.710   4.787 -3.1112 -0.4560  0.7113
 3994SOL    HW223619   4.462   0.776   4.724 -0.4582 -0.6949  0.9606
 3995SOL     OW23620   4.144   1.359  14.906 -0.0005 -0.8949  0.3500
 3995SOL    HW123621   4.049   1.366  14.898  0.2233  0.1478 -1.6237
 3995SOL    HW223622   4.151   1.307  14.985 -0.9201 -2.2080 -0.4372
 3996SOL     OW23623   4.176   3.715   6.001 -0.3937 -0.0209 -0.2529
 3996SOL    HW123624   4.210   3.774   5.934 -0.3179  0.5046  0.2482
 3996SOL    HW223625   4.119   3.779   6.044  0.3080  1.3633 -1.3597
 3997SOL     OW23626   1.861   3.078   0.946  0.2898  0.5004  0.2981
 3997SOL    HW123627   1.892   2.992   0.973 -1.7427 -0.4460 -0.4235
 3997SOL    HW223628   1.942   3.122   0.920  2.8776 -4.5470 -0.2699
 3998SOL     OW23629   0.542   0.327  13.819 -0.1181  0.1111  0.0116
 3998SOL    HW123630   0.584   0.352  13.902 -1.1004 -1.7642  1.0766
 3998SOL    HW223631   0.598   0.386  13.768 -0.4451  0.4374  0.0277
 3999SOL     OW23632   3.728   3.062  14.301  0.3377 -0.3915  0.2500
 3999SOL    HW123633   3.677   3.047  14.221 -0.8730 -0.1909  0.9937
 3999SOL    HW223634   3.745   3.156  14.298 -0.0471 -0.3392 -0.3561
 4000SOL     OW23635   2.555   0.170   9.445 -0.2681 -0.4301 -0.4616
 4000SOL    HW123636   2.572   0.095   9.502 -1.2050  0.3640  0.8580
 4000SOL    HW223637   2.612   0.154   9.369  0.7041  2.5266 -0.3549
 4001SOL     OW23638   3.674   0.185   2.615 -0.2891  0.7075  0.1551
 4001SOL    HW123639   3.595   0.224   2.652  0.5716  2.6246 -0.0276
 4001SOL    HW223640   3.650   0.171   2.523 -0.8705 -0.4004  0.4803
 4002SOL     OW23641   3.649   0.490   9.184 -0.5226 -0.2068 -0.6443
 4002SOL    HW123642   3.738   0.512   9.211 -0.5020 -0.7400 -0.2778
 4002SOL    HW223643   3.621   0.435   9.257  1.1327 -0.1138  0.0579
 4003SOL     OW23644   1.285   0.281   1.598 -0.2773  0.2963 -0.5885
 4003SOL    HW123645   1.378   0.276   1.618 -0.5977  1.7630  1.2343
 4003SOL    HW223646   1.265   0.199   1.552  1.2929 -0.9558  0.9821
 4004SOL     OW23647   1.502   1.770  13.759 -0.4528 -0.0474 -0.1039
 4004SOL    HW123648   1.539   1.704  13.818 -2.5278  1.1793  2.5368
 4004SOL    HW223649   1.499   1.853  13.807 -0.9937  0.9133 -1.8043
 4005SOL     OW23650   2.846   2.756   8.825  0.2595 -1.1366  0.1492
 4005SOL    HW123651   2.926   2.703   8.822 -0.0190 -1.5711  0.4236
 4005SOL    HW223652   2.774   2.695   8.813 -0.2488 -0.8859  1.8568
 4006SOL     OW23653   0.943   3.164  15.261 -0.5923  0.7056  0.3617
 4006SOL    HW123654   0.985   3.136  15.179  0.4487  2.9281  0.1454
 4006SOL    HW223655   0.861   3.198  15.227 -0.6840 -0.1062 -0.2374
 4007SOL     OW23656   4.545   0.110   9.208 -0.0365 -0.1512  0.4340
 4007SOL    HW123657   4.476   0.064   9.161 -0.8560 -0.2317  1.7103
 4007SOL    HW223658   4.612   0.064   9.158  1.3576 -0.3085  2.4334
 4008SOL     OW23659   3.840   1.439   9.045 -0.0569  0.0119 -0.2806
 4008SOL    HW123660   3.826   1.357   8.998  1.7394  0.0564 -0.8965
 4008SOL    HW223661   3.929   1.461   9.017  0.1790 -1.1071 -0.4055
 4009SOL     OW23662   3.750   0.996  13.569  0.2038 -0.2924 -0.0199
 4009SOL    HW123663   3.677   1.029  13.516 -1.0213  0.1945  1.9384
 4009SOL    HW223664   3.756   0.907  13.535 -1.1194 -0.0311 -0.9671
 4010SOL     OW23665   3.460   0.085   8.487  0.1513  0.1780  0.1612
 4010SOL    HW123666   3.425   0.113   8.402 -0.0980 -3.4717 -0.9401
 4010SOL    HW223667   3.417   0.000   8.500  0.8310 -0.3681 -1.0897
 4011SOL     OW23668   2.963   1.297  14.303 -0.6319  0.4380  0.0483
 4011SOL    HW123669   3.052   1.305  14.337 -0.6372 -1.1293  0.4055
 4011SOL    HW223670   2.913   1.307  14.384  0.1574  2.5699  0.2719
 4012SOL     OW23671   0.056   0.494   9.433  0.8041  0.2100 -0.2199
 4012SOL    HW123672   0.060   0.548   9.512 -2.3047  0.8347 -0.4885
 4012SOL    HW223673   4.702   0.506   9.413  1.6678  2.3226 -2.8052
 4013SOL     OW23674   4.611   3.151   5.640 -0.2653 -0.6674  0.0471
 4013SOL    HW123675   4.605   3.097   5.562  2.5284  1.1509 -1.4452
 4013SOL    HW223676   4.686   3.117   5.690  0.3305 -0.4316 -0.6835
 4014SOL     OW23677   0.989   3.067   2.044  0.2822  0.2833  0.0679
 4014SOL    HW123678   0.923   3.001   2.065  1.0422  0.3861  2.6976
 4014SOL    HW223679   1.001   3.110   2.129 -2.4713  1.3299 -0.0818
 4015SOL     OW23680   2.504   1.223   6.628  0.3539 -0.1466 -0.3887
 4015SOL    HW123681   2.419   1.185   6.610  0.7731 -1.9185  1.4029
 4015SOL    HW223682   2.562   1.148   6.635 -0.5088 -0.6647  1.0979
 4016SOL     OW23683   4.341   1.472   9.051  0.3171  0.5273 -0.6461
 4016SOL    HW123684   4.417   1.530   9.050  0.0978  0.8407  0.8639
 4016SOL    HW223685   4.358   1.422   9.131 -0.9544 -1.8080 -1.8231
 4017SOL     OW23686   3.492   3.591   3.826  0.2384  0.3908  0.4100
 4017SOL    HW123687   3.513   3.504   3.792 -0.2800 -0.2283  1.6537
 4017SOL    HW223688   3.579   3.632   3.836  0.3822 -0.4301  2.5353
 4018SOL     OW23689   2.797   2.134   5.071  0.2794 -0.2872  0.2328
 4018SOL    HW123690   2.876   2.093   5.037 -1.6423 -1.4465 -2.8285
 4018SOL    HW223691   2.726   2.115   5.010 -0.5208  0.3427  0.9623
 4019SOL     OW23692   1.850   2.807   6.767  0.3667 -0.3256 -0.1313
 4019SOL    HW123693   1.884   2.718   6.759  0.9291 -0.1511  0.3559
 4019SOL    HW223694   1.924   2.865   6.782 -0.7381  0.5996  1.7300
 4020SOL     OW23695   4.506   1.264   8.226  0.1515 -0.1464 -0.4568
 4020SOL    HW123696   4.563   1.310   8.164  1.5067 -0.9923  0.1430
 4020SOL    HW223697   4.489   1.334   8.290  2.5759 -0.5034  0.5910
 4021SOL     OW23698   4.211   0.355   1.175 -0.2941 -0.1297  0.3461
 4021SOL    HW123699   4.295   0.362   1.130 -1.7097 -0.7526 -2.3476
 4021SOL    HW223700   4.159   0.309   1.109 -0.5632  3.7504 -2.1692
 4022SOL     OW23701   1.363   0.342   6.340  0.4196 -0.8280  0.1472
 4022SOL    HW123702   1.395   0.429   6.363  0.2382 -0.8973  0.6499
 4022SOL    HW223703   1.295   0.331   6.406 -1.2478  1.3827 -1.1905
 4023SOL     OW23704   0.882   3.568   8.894  0.9276  0.4444  0.0825
 4023SOL    HW123705   0.895   3.475   8.877 -0.2539 -0.3260  3.2933
 4023SOL    HW223706   0.906   3.602   8.808 -0.5114  2.3908  0.4653
 4024SOL     OW23707   3.238   3.467   7.366  0.2728  0.4429 -0.2780
 4024SOL    HW123708   3.272   3.410   7.435  1.0504  1.9051  0.5665
 4024SOL    HW223709   3.264   3.548   7.410  1.4258 -0.7048  1.1466
 4025SOL     OW23710   0.089   1.125   7.860  0.4828 -0.2700 -0.0379
 4025SOL    HW123711   0.058   1.090   7.777 -0.8920  0.3471  0.2094
 4025SOL    HW223712   0.119   1.047   7.906 -0.8027 -1.2763 -0.9053
 4026SOL     OW23713   4.506   4.291   3.829 -0.1498 -0.6537 -0.4452
 4026SOL    HW123714   4.458   4.217   3.865 -0.7943  0.0761  0.1924
 4026SOL    HW223715   4.559   4.245   3.763 -0.9249 -0.4279 -1.2239
 4027SOL     OW23716   2.961   1.446  12.056  0.7134 -0.1947 -0.1888
 4027SOL    HW123717   2.939   1.356  12.079  3.1937 -0.8063 -0.2824
 4027SOL    HW223718   2.940   1.440  11.963  2.9466 -1.1327 -0.6336
 4028SOL     OW23719   2.791   4.504  11.459 -0.7963  0.0660 -0.4568
 4028SOL    HW123720   2.881   4.517  11.489 -0.9777  1.4882 -0.5501
 4028SOL    HW223721   2.801   4.459  11.375 -0.7665 -0.5159 -0.1369
 4029SOL     OW23722   1.780   4.637   5.983  0.2246 -0.2238 -0.3201
 4029SOL    HW123723   1.792   4.709   5.921 -0.3557 -1.5467 -1.9825
 4029SOL    HW223724   1.867   4.596   5.986 -0.6513 -2.0243  0.2601
 4030SOL     OW23725   2.639   1.063  17.150  0.7835 -0.1141 -0.3676
 4030SOL    HW123726   2.635   1.040  17.057 -2.0977 -0.9740 -0.0078
 4030SOL    HW223727   2.678   1.150  17.151  0.9955 -0.2238  1.0058
 4031SOL     OW23728   4.668   1.646   0.653  0.4856 -0.4173  0.6845
 4031SOL    HW123729   4.658   1.739   0.636 -0.0609 -0.5008  0.5460
 4031SOL    HW223730   0.013   1.628   0.610  0.3793  1.8669 -0.4442
 4032SOL     OW23731   0.294   4.684   2.646 -0.0613  0.0677  0.5271
 4032SOL    HW123732   0.387   4.658   2.643 -0.6791 -2.1180  0.4545
 4032SOL    HW223733   0.288   4.734   2.728 -2.3395 -0.1768  0.4865
 4033SOL     OW23734   3.112   4.552   4.147 -0.3882  0.3615 -0.1087
 4033SOL    HW123735   3.091   4.487   4.080  1.3966 -1.5614  1.2122
 4033SOL    HW223736   3.109   4.629   4.091 -2.2639  0.5475  0.2546
 4034SOL     OW23737   2.291   2.922  13.127 -0.5088  0.3056 -0.8247
 4034SOL    HW123738   2.279   2.832  13.160 -0.2652  0.9793  1.1244
 4034SOL    HW223739   2.238   2.931  13.048  0.4238  0.5904 -1.4134
 4035SOL     OW23740   0.702   1.843  14.189  0.3415 -0.0097 -0.0394
 4035SOL    HW123741   0.725   1.812  14.277 -0.2325 -0.9529 -0.2259
 4035SOL    HW223742   0.646   1.919  14.204  2.0717  1.3264 -0.2647
 4036SOL     OW23743   3.096   0.383  16.057 -0.3440 -0.1774  0.1447
 4036SOL    HW123744   3.105   0.443  15.983  1.2324  1.7244  1.8949
 4036SOL    HW223745   3.009   0.345  16.046 -1.1459  2.2931 -2.0324
 4037SOL     OW23746   4.726   2.098   1.493 -0.1549  0.1699  0.1486
 4037SOL    HW123747   4.738   2.082   1.399  0.7735 -1.1874  0.5086
 4037SOL    HW223748   0.009   2.012   1.528 -1.4931 -0.2410 -0.0684
 4038SOL     OW23749   1.713   4.206   9.238  0.2692 -0.3867 -0.1519
 4038SOL    HW123750   1.807   4.212   9.259  0.7850 -0.7835 -2.3434
 4038SOL    HW223751   1.680   4.216   9.327  1.1243 -2.7129  0.4277
 4039SOL     OW23752   3.599   0.828   6.429  0.1238 -0.4802  0.1348
 4039SOL    HW123753   3.608   0.754   6.489  1.3811 -0.3709  0.0720
 4039SOL    HW223754   3.643   0.790   6.352  1.5651 -2.6294  2.0197
 4040SOL     OW23755   1.200   0.420  10.101  0.6118  0.0346 -0.7767
 4040SOL    HW123756   1.273   0.399  10.043  1.2859  1.6271 -0.5034
 4040SOL    HW223757   1.182   0.513  10.082  1.8962  0.4253 -0.0530
 4041SOL     OW23758   2.633   2.911   2.605  0.0442 -0.3563  0.4093
 4041SOL    HW123759   2.644   2.911   2.510  0.3560  1.2266  0.4363
 4041SOL    HW223760   2.582   2.991   2.619  2.1090  0.7551  1.6341
 4042SOL     OW23761   2.640   0.915   5.776 -0.0684 -0.1725  0.6004
 4042SOL    HW123762   2.679   0.875   5.699 -1.3067  0.3645 -0.3022
 4042SOL    HW223763   2.612   0.997   5.735  1.6559  0.6986  1.1745
 4043SOL     OW23764   2.039   0.946   9.127 -0.4107 -0.0044  0.9706
 4043SOL    HW123765   2.017   0.921   9.037 -2.2045 -0.0959  1.4390
 4043SOL    HW223766   2.078   1.033   9.117 -0.8894 -0.2472 -2.9476
 4044SOL     OW23767   2.168   1.613   6.292  0.1741 -0.0126 -0.5317
 4044SOL    HW123768   2.120   1.664   6.357 -0.1530 -2.2389  0.9727
 4044SOL    HW223769   2.109   1.540   6.272  0.0776 -0.0528 -0.0909
 4045SOL     OW23770   3.850   4.236   9.743 -0.2469  0.5719  0.3275
 4045SOL    HW123771   3.769   4.198   9.708 -0.0543  0.3335  0.1483
 4045SOL    HW223772   3.820   4.250   9.833 -1.3138  1.0477 -0.1013
 4046SOL     OW23773   0.376   1.014   4.835 -0.0312 -0.1810  0.2140
 4046SOL    HW123774   0.456   1.007   4.782  1.2865  1.0273  2.0628
 4046SOL    HW223775   0.402   1.000   4.926 -0.8662 -3.4173 -0.0555
 4047SOL     OW23776   2.636   4.044  17.063 -0.3400 -0.7575 -0.0386
 4047SOL    HW123777   2.561   4.022  17.118 -0.6188 -1.2544 -0.6129
 4047SOL    HW223778   2.618   3.980  16.994 -1.3528 -0.1178 -0.3611
 4048SOL     OW23779   3.861   1.418  14.141 -0.4012  0.5707  0.4120
 4048SOL    HW123780   3.880   1.403  14.048 -0.7039  0.9292  0.2942
 4048SOL    HW223781   3.766   1.408  14.141 -0.5273  1.7243  0.7829
 4049SOL     OW23782   3.303   0.236   7.906  0.6325 -0.2771 -0.1209
 4049SOL    HW123783   3.374   0.220   7.968 -1.5191 -1.5162  2.0184
 4049SOL    HW223784   3.251   0.302   7.952  0.8917 -0.0655 -0.1363
 4050SOL     OW23785   4.195   4.392   7.028  0.2350 -0.3236  0.9073
 4050SOL    HW123786   4.289   4.380   7.016  0.1332 -0.8627  0.6882
 4050SOL    HW223787   4.186   4.451   7.103  0.4920 -3.6013  3.5117
 4051SOL     OW23788   2.147   1.371   4.435  0.2869 -0.0887  0.1237
 4051SOL    HW123789   2.108   1.447   4.391 -0.9203 -0.4161  0.6227
 4051SOL    HW223790   2.085   1.298   4.424 -1.8629  1.8563 -0.5395
 4052SOL     OW23791   0.159   3.615  10.968  0.6121  0.9016  0.7165
 4052SOL    HW123792   0.132   3.612  11.060  0.9806 -1.2124  0.7540
 4052SOL    HW223793   0.196   3.527  10.967  0.3977  0.8287 -0.5816
 4053SOL     OW23794   3.572   0.194   6.868 -0.6266  0.4864 -0.0128
 4053SOL    HW123795   3.602   0.278   6.833  1.1877 -0.2791 -0.3131
 4053SOL    HW223796   3.647   0.182   6.925  0.2179  1.3914 -0.9341
 4054SOL     OW23797   0.277   1.042   5.729  0.5667 -0.3493 -0.2772
 4054SOL    HW123798   0.288   1.054   5.824 -0.7301  0.4957 -0.2302
 4054SOL    HW223799   0.258   1.130   5.699 -2.2740 -0.8757 -0.0255
 4055SOL     OW23800   2.877   4.692   9.736  0.1244 -0.0868 -0.3089
 4055SOL    HW123801   2.947   4.673   9.798  2.2083  1.5420 -2.1317
 4055SOL    HW223802   2.899   0.046   9.723  0.4315 -0.2170 -0.7186
 4056SOL     OW23803   4.249   0.603   4.013  0.4284 -0.5262  0.6553
 4056SOL    HW123804   4.275   0.574   3.926 -0.5667  0.2959  0.0926
 4056SOL    HW223805   4.328   0.656   4.028 -0.7028  0.9500  1.4485
 4057SOL     OW23806   3.424   0.560   9.783  0.0550  0.5277  0.0247
 4057SOL    HW123807   3.446   0.648   9.814 -0.2211  0.8044 -0.5734
 4057SOL    HW223808   3.358   0.530   9.846  2.4176  0.5549  2.5174
 4058SOL     OW23809   3.884   3.976   6.511 -0.1723 -0.7902 -0.0413
 4058SOL    HW123810   3.931   3.899   6.541  0.2472  0.1878  1.8340
 4058SOL    HW223811   3.877   4.035   6.586  1.1055 -0.7136  0.0177
 4059SOL     OW23812   3.324   3.948   2.073  0.4467 -0.1076 -1.2841
 4059SOL    HW123813   3.252   3.993   2.029  0.1587  2.5326  1.8336
 4059SOL    HW223814   3.381   3.946   1.995  1.1339  0.9186 -0.8164
 4060SOL     OW23815   4.667   0.322  10.068 -0.4880 -0.5913  0.0218
 4060SOL    HW123816   4.728   0.294  10.136 -0.7737  4.0968  2.1962
 4060SOL    HW223817   4.637   0.239  10.032  0.8638 -0.5483 -1.1877
 4061SOL     OW23818   0.503   3.079   0.243 -0.1698 -0.3327 -0.1555
 4061SOL    HW123819   0.422   3.101   0.197  0.2558  1.8210  0.1108
 4061SOL    HW223820   0.473   3.060   0.332  1.9792 -0.0610  0.6384
 4062SOL     OW23821   3.485   3.164  17.742  0.3321 -0.5802  0.2421
 4062SOL    HW123822   3.531   3.174  17.659 -1.2384 -1.3612 -0.7137
 4062SOL    HW223823   3.396   3.192  17.719  0.6020 -1.4881 -1.8817
 4063SOL     OW23824   4.341   0.345   5.420  0.2821 -0.4470  0.4951
 4063SOL    HW123825   4.388   0.419   5.457  1.0140 -0.6190 -0.0745
 4063SOL    HW223826   4.292   0.380   5.346  1.5642  1.6651  0.6532
 4064SOL     OW23827   3.072   3.944   6.810 -0.2564 -0.2629  0.1741
 4064SOL    HW123828   3.121   3.885   6.867 -0.6752 -0.0487  0.7546
 4064SOL    HW223829   2.987   3.942   6.853 -0.7626 -0.5784 -0.8342
 4065SOL     OW23830   0.351   2.328   0.777 -0.4703 -0.0849 -0.4749
 4065SOL    HW123831   0.267   2.303   0.737 -0.6297 -0.7312  0.2636
 4065SOL    HW223832   0.326   2.335   0.869 -1.4545 -1.3786 -0.6341
 4066SOL     OW23833   4.616   3.988   2.368  0.3404 -0.0702 -0.6923
 4066SOL    HW123834   4.522   3.992   2.384  0.0080 -0.9532 -2.4873
 4066SOL    HW223835   4.626   3.910   2.314  2.1155 -0.1665 -0.2331
 4067SOL     OW23836   3.208   1.947   6.061 -0.2063 -0.1268  0.2175
 4067SOL    HW123837   3.117   1.925   6.079 -0.7826  1.3508 -0.9068
 4067SOL    HW223838   3.257   1.877   6.105 -1.1136 -1.0946 -0.3173
 4068SOL     OW23839   0.668   1.955  12.307  0.4801  0.0691 -0.1230
 4068SOL    HW123840   0.700   1.882  12.359 -2.6971 -0.8328  0.5490
 4068SOL    HW223841   0.725   1.945  12.230 -0.5874 -1.5940 -0.6810
 4069SOL     OW23842   2.502   0.732   4.233  0.2709 -0.1602 -0.0622
 4069SOL    HW123843   2.595   0.747   4.247 -0.0643  3.4543 -1.7751
 4069SOL    HW223844   2.508   0.645   4.192  0.8636 -0.8133  1.4305
 4070SOL     OW23845   0.655   2.098   6.097 -0.0086  0.0022  0.2804
 4070SOL    HW123846   0.698   2.013   6.090  0.3177  0.1558  0.3836
 4070SOL    HW223847   0.613   2.119   6.014 -0.8111 -1.7498  0.2548
 4071SOL     OW23848   4.714   1.673   9.121  0.1627  0.4955 -0.0137
 4071SOL    HW123849   4.736   1.590   9.164  0.2995  1.4498  1.7828
 4071SOL    HW223850   4.640   1.696   9.177  0.0491  1.9152 -0.7386
 4072SOL     OW23851   4.414   3.702   4.987 -0.2581 -0.1374 -0.2588
 4072SOL    HW123852   4.468   3.639   4.938 -0.6619 -0.8766  0.2452
 4072SOL    HW223853   4.333   3.701   4.936 -0.5364 -0.4883  0.1960
 4073SOL     OW23854   2.846   1.560   5.688  0.3034  0.0225  0.1103
 4073SOL    HW123855   2.814   1.541   5.600  1.2330 -1.1489  0.0165
 4073SOL    HW223856   2.808   1.488   5.738 -1.8785  1.2434  0.1830
 4074SOL     OW23857   4.368   1.275   0.768  0.0008 -0.4996  0.2067
 4074SOL    HW123858   4.358   1.311   0.680  0.2880  2.5654  1.4292
 4074SOL    HW223859   4.319   1.337   0.821  0.3835  0.8712 -1.0374
 4075SOL     OW23860   2.127   2.398   1.675 -0.2285 -0.2220 -0.7277
 4075SOL    HW123861   2.148   2.351   1.594  0.3522  0.3865 -0.9337
 4075SOL    HW223862   2.180   2.476   1.655 -1.3742  0.2907 -1.7612
 4076SOL     OW23863   3.413   1.962   9.018 -1.3356  0.3129  0.2101
 4076SOL    HW123864   3.415   2.035   9.079  0.2138  0.5768 -0.1482
 4076SOL    HW223865   3.393   1.887   9.074 -1.4637  0.0518 -0.1891
 4077SOL     OW23866   2.214   1.755   6.024  0.5103  0.6158 -0.1451
 4077SOL    HW123867   2.230   1.705   6.104  3.0013  0.9219 -0.4348
 4077SOL    HW223868   2.147   1.817   6.052  4.2254  3.6341  2.1624
 4078SOL     OW23869   1.531   3.479   9.294  0.6038 -0.0624 -0.0029
 4078SOL    HW123870   1.484   3.398   9.276 -1.5217  0.6876  2.1909
 4078SOL    HW223871   1.611   3.444   9.334  0.6318  0.7037  0.6243
 4079SOL     OW23872   2.974   2.068   0.173 -0.1752 -0.1287  0.3224
 4079SOL    HW123873   2.912   2.111   0.114 -1.0682  0.1680  1.4763
 4079SOL    HW223874   3.047   2.099   0.119 -0.6467 -1.3498 -1.0283
 4080SOL     OW23875   0.658   2.186   3.129 -0.1748  0.1240 -0.0863
 4080SOL    HW123876   0.599   2.245   3.175  0.0161  1.3559 -1.4687
 4080SOL    HW223877   0.654   2.232   3.046  0.5663 -0.0226 -0.2043
 4081SOL     OW23878   0.996   3.367   1.875 -0.1625  0.0310 -0.5995
 4081SOL    HW123879   0.916   3.331   1.913 -0.9101  1.3479 -0.9145
 4081SOL    HW223880   0.997   3.318   1.792 -2.2638  1.0345 -1.2218
 4082SOL     OW23881   2.288   1.644   3.867 -0.3702 -0.2101 -0.0409
 4082SOL    HW123882   2.273   1.672   3.776 -0.2423 -0.0068 -0.0001
 4082SOL    HW223883   2.383   1.633   3.864 -0.1701  1.6857 -1.1499
 4083SOL     OW23884   2.704   3.873   8.367 -0.8744 -0.0529  0.1930
 4083SOL    HW123885   2.771   3.813   8.336 -1.7366 -1.1871  0.5020
 4083SOL    HW223886   2.654   3.819   8.429 -1.4493  0.1953 -0.0552
 4084SOL     OW23887   3.976   2.787  10.601  0.0431  0.3048 -0.4997
 4084SOL    HW123888   3.904   2.823  10.653  0.3179  1.6249 -1.0362
 4084SOL    HW223889   3.992   2.864  10.546  0.0133  1.1699  0.7037
 4085SOL     OW23890   0.677   2.442  12.158  0.1118  0.3879 -0.7482
 4085SOL    HW123891   0.731   2.418  12.233  0.0347 -0.0621 -0.8329
 4085SOL    HW223892   0.615   2.371  12.175 -0.8515  1.4507  0.1871
 4086SOL     OW23893   0.438   2.974   9.062 -0.4249 -0.0421  0.3654
 4086SOL    HW123894   0.412   2.898   9.010 -0.3003  0.5286 -0.5336
 4086SOL    HW223895   0.516   2.943   9.107  0.6229 -1.8786 -2.6999
 4087SOL     OW23896   4.359   2.509  10.423 -0.0758 -0.2392  0.2085
 4087SOL    HW123897   4.378   2.538  10.333  1.1845 -2.0895 -0.1126
 4087SOL    HW223898   4.382   2.416  10.419  0.2343 -0.1222 -0.6984
 4088SOL     OW23899   4.324   2.143  16.652 -0.8170  0.5647  0.3285
 4088SOL    HW123900   4.301   2.195  16.574 -0.5764  2.7093  1.6935
 4088SOL    HW223901   4.373   2.074  16.607 -2.9046 -1.7394  1.5817
 4089SOL     OW23902   0.372   0.857   7.865  0.4287 -0.5117  0.5729
 4089SOL    HW123903   0.447   0.874   7.807 -0.0941 -3.0266 -0.8496
 4089SOL    HW223904   0.381   0.762   7.874 -0.7624 -0.6199  0.5730
 4090SOL     OW23905   1.277   3.834   9.932  0.2263 -0.3690 -0.3041
 4090SOL    HW123906   1.188   3.870   9.932 -0.4346 -1.9851 -0.0292
 4090SOL    HW223907   1.323   3.918   9.935  1.3475 -1.0973  2.9889
 4091SOL     OW23908   0.060   0.900   3.926  0.0856  0.5274  0.3028
 4091SOL    HW123909   0.114   0.896   3.847  1.9862  0.5757  1.5889
 4091SOL    HW223910   0.103   0.966   3.979  0.3681  0.6551 -0.0836
 4092SOL     OW23911   0.711   3.675   2.764 -0.3563  0.0251 -0.0670
 4092SOL    HW123912   0.730   3.581   2.753 -2.2430 -0.2920 -0.6619
 4092SOL    HW223913   0.778   3.718   2.712 -0.0007  0.2579  0.5934
 4093SOL     OW23914   1.841   1.890   6.369  0.1901 -0.5106 -0.0406
 4093SOL    HW123915   1.835   1.983   6.392  1.7077 -0.4219 -0.0075
 4093SOL    HW223916   1.764   1.857   6.417  0.8045  0.1694  1.4237
 4094SOL     OW23917   0.736   3.215   0.237 -0.7023 -0.6884 -0.0464
 4094SOL    HW123918   0.654   3.167   0.232 -0.5861 -0.9604  0.6646
 4094SOL    HW223919   0.721   3.243   0.327  1.7064  2.4012 -0.6069
 4095SOL     OW23920   0.773   3.071   5.805  0.1604  0.1115 -0.4012
 4095SOL    HW123921   0.812   2.998   5.853  0.9309  0.9480  0.2626
 4095SOL    HW223922   0.855   3.102   5.767  0.1778  0.1583 -0.3256
 4096SOL     OW23923   4.493   3.545   4.782 -0.0273 -0.3041  0.4074
 4096SOL    HW123924   4.424   3.536   4.715  0.5820 -0.3705 -0.2086
 4096SOL    HW223925   4.571   3.510   4.740 -0.2120  0.7532 -0.8043
 4097SOL     OW23926   2.356   1.155  16.518 -0.5987  0.1503  0.7811
 4097SOL    HW123927   2.323   1.112  16.439 -2.3521  0.9656  1.0708
 4097SOL    HW223928   2.299   1.232  16.519  0.4991  0.9529  2.5463
 4098SOL     OW23929   2.143   3.992   4.322  0.2524  0.3488 -0.1137
 4098SOL    HW123930   2.053   4.020   4.337 -0.3965 -1.7962 -0.0077
 4098SOL    HW223931   2.130   3.923   4.257 -1.3444  0.9446 -0.4416
 4099SOL     OW23932   1.688   4.520  16.602 -0.3628  0.1467 -0.5843
 4099SOL    HW123933   1.708   4.428  16.589  0.9064  0.1800  1.2096
 4099SOL    HW223934   1.619   4.534  16.536 -1.1251  0.8144  0.3534
 4100SOL     OW23935   2.464   3.079   6.450 -0.4317 -0.0318  0.1323
 4100SOL    HW123936   2.552   3.065   6.483 -0.4898  2.0412  1.1642
 4100SOL    HW223937   2.459   3.058   6.357  1.2435  0.2573 -0.0250
 4101SOL     OW23938   4.108   2.895   2.885  0.3222 -0.6373 -0.6404
 4101SOL    HW123939   4.076   2.899   2.975 -1.2018 -2.9128 -1.0814
 4101SOL    HW223940   4.180   2.832   2.894  0.7989 -0.0027 -0.0726
 4102SOL     OW23941   2.210   2.810   2.189 -0.1654  0.3464 -0.5643
 4102SOL    HW123942   2.216   2.872   2.116 -0.4474 -0.1535 -1.0129
 4102SOL    HW223943   2.249   2.865   2.257 -1.2034 -0.0928  0.3918
 4103SOL     OW23944   1.457   2.716  15.470  0.1380  0.1195  0.2443
 4103SOL    HW123945   1.455   2.659  15.393  1.7639 -0.2874  0.5147
 4103SOL    HW223946   1.372   2.760  15.460  0.4616  0.2014 -2.1265
 4104SOL     OW23947   4.140   0.135   9.012  0.4481  0.0091 -0.2260
 4104SOL    HW123948   4.109   0.073   8.946 -1.0020 -1.8636  2.2537
 4104SOL    HW223949   4.154   0.206   8.950  0.0671  1.8619  1.8135
 4105SOL     OW23950   1.640   3.952  16.839  0.3459  0.1827  0.1580
 4105SOL    HW123951   1.556   3.913  16.863  0.7915  0.6561  2.4594
 4105SOL    HW223952   1.615   4.043  16.822  4.2238  1.4276  1.2041
 4106SOL     OW23953   3.007   3.815  11.119 -0.6090 -0.1719 -0.5077
 4106SOL    HW123954   3.094   3.806  11.079 -1.5012 -1.2050 -2.2321
 4106SOL    HW223955   2.981   3.723  11.111  2.1021 -1.0650  0.9767
 4107SOL     OW23956   0.961   1.874   9.045 -0.1218  0.3277 -0.0922
 4107SOL    HW123957   1.031   1.810   9.059  0.5333  1.4134  1.6312
 4107SOL    HW223958   0.952   1.918   9.130  0.3829  2.5862 -1.2059
 4108SOL     OW23959   3.917   0.512  17.225  0.0328 -0.2888  0.2440
 4108SOL    HW123960   3.913   0.600  17.187 -1.0737 -0.0106  0.9978
 4108SOL    HW223961   3.839   0.510  17.282  0.6257 -2.5160  0.9746
 4109SOL     OW23962   1.615   2.646   4.166  0.0046 -0.4409 -0.3045
 4109SOL    HW123963   1.618   2.554   4.142  1.2734 -0.1531 -1.3109
 4109SOL    HW223964   1.668   2.644   4.246 -0.5445  2.4125  0.1455
 4110SOL     OW23965   3.515   4.683   3.572  0.4214 -0.1129 -0.0279
 4110SOL    HW123966   3.547   4.594   3.560 -1.3947 -0.8983  0.9805
 4110SOL    HW223967   3.466   4.705   3.493  1.8504  1.0642 -0.5706
 4111SOL     OW23968   2.341   3.994   5.717 -0.3283  0.0356 -0.1636
 4111SOL    HW123969   2.272   4.060   5.721 -0.2823  0.0670  0.0829
 4111SOL    HW223970   2.384   4.005   5.802  1.6008  0.2707 -1.1613
 4112SOL     OW23971   0.428   0.081   3.471  0.1286  0.6243 -0.1602
 4112SOL    HW123972   0.367   0.056   3.401  0.8096 -0.7547 -0.2547
 4112SOL    HW223973   0.399   0.170   3.493 -0.3079  0.4486 -0.0263
 4113SOL     OW23974   2.244   1.969   8.172 -0.4428 -0.4640  0.0136
 4113SOL    HW123975   2.227   1.875   8.183  2.5517 -0.7349  2.4580
 4113SOL    HW223976   2.217   1.985   8.081 -1.4276 -0.0304  0.3786
 4114SOL     OW23977   0.212   1.414   6.663  0.3640 -0.0837 -0.1131
 4114SOL    HW123978   0.283   1.405   6.600 -0.0728 -0.8893 -0.4909
 4114SOL    HW223979   0.134   1.379   6.620 -0.3399 -1.3359  2.1547
 4115SOL     OW23980   1.711   4.478  13.918 -0.4678 -0.5844 -0.3332
 4115SOL    HW123981   1.648   4.441  13.980 -0.6814 -0.6480 -0.5862
 4115SOL    HW223982   1.668   4.465  13.834  0.7942  2.4347 -1.4223
 4116SOL     OW23983   0.903   2.174   2.875 -0.2754 -0.3463 -0.0544
 4116SOL    HW123984   0.974   2.113   2.854 -0.4982  0.0865 -2.0644
 4116SOL    HW223985   0.822   2.146   2.832  0.0953 -0.7451 -0.4956
 4117SOL     OW23986   2.794   2.547   2.642  0.2055  0.0852 -0.2669
 4117SOL    HW123987   2.804   2.621   2.701  1.0559 -0.5813  0.4020
 4117SOL    HW223988   2.703   2.529   2.667 -0.0853  0.7356 -0.8313
 4118SOL     OW23989   3.847   2.241  14.648 -0.2854 -0.3828 -0.6506
 4118SOL    HW123990   3.839   2.244  14.552  1.5870 -1.5843 -0.8463
 4118SOL    HW223991   3.814   2.152  14.656  1.4273 -0.7732  2.0563
 4119SOL     OW23992   2.097   2.343   0.573 -0.1851  0.3809 -0.0718
 4119SOL    HW123993   2.054   2.298   0.500  2.5914  0.5315 -1.7712
 4119SOL    HW223994   2.188   2.317   0.561 -0.5380 -0.0700 -1.6863
 4120SOL     OW23995   3.012   2.526   3.265 -0.7180  0.3471 -0.7475
 4120SOL    HW123996   2.983   2.517   3.174  1.0804  0.8468 -1.3737
 4120SOL    HW223997   2.943   2.464   3.288 -1.0066  0.6209 -0.8674
 4121SOL     OW23998   0.907   4.113   9.146 -0.0788 -0.2951 -0.1133
 4121SOL    HW123999   0.833   4.059   9.116 -0.0750 -0.7532  0.6906
 4121SOL    HW224000   0.965   4.055   9.197 -0.6946 -1.3129 -0.5638
 4122SOL     OW24001   1.080   1.741   6.243  1.0357 -0.0948  0.3348
 4122SOL    HW124002   1.011   1.680   6.217 -1.1321  1.1992  3.0289
 4122SOL    HW224003   1.148   1.712   6.183 -0.1290 -1.4498 -0.3497
 4123SOL     OW24004   4.113   1.891  14.251 -0.4665  0.4936 -0.7429
 4123SOL    HW124005   4.100   1.796  14.242 -2.4782  0.7493 -0.4569
 4123SOL    HW224006   4.173   1.884  14.325 -0.2716 -0.4436 -0.9806
 4124SOL     OW24007   0.938   2.996   5.148 -0.0670  0.5439  0.2586
 4124SOL    HW124008   0.989   2.916   5.138  1.1062  1.5653 -2.0179
 4124SOL    HW224009   1.016   3.050   5.136 -0.5825  1.3547  0.5731
 4125SOL     OW24010   2.933   1.004  15.918  0.2885  0.0441  0.0971
 4125SOL    HW124011   2.910   1.097  15.924  0.5068  0.1912 -1.4246
 4125SOL    HW224012   2.844   0.970  15.931 -0.4789  0.9037 -2.9335
 4126SOL     OW24013   0.526   0.310   9.852  0.3061  0.1314 -0.1333
 4126SOL    HW124014   0.621   0.320   9.843  0.5066 -0.2954  1.4165
 4126SOL    HW224015   0.489   0.397   9.838  1.6850  0.8738  0.7741
 4127SOL     OW24016   0.991   4.114   3.016 -0.2444  0.0186 -0.2523
 4127SOL    HW124017   0.899   4.101   3.036 -0.1071  0.6868  0.8307
 4127SOL    HW224018   1.034   4.044   3.066  3.2428  2.7332  0.6135
 4128SOL     OW24019   4.450   4.236   9.801  0.2291 -0.6330 -0.7487
 4128SOL    HW124020   4.406   4.156   9.772  0.0855 -1.2015  1.0659
 4128SOL    HW224021   4.538   4.217   9.769  0.9166 -0.0574  0.7859
 4129SOL     OW24022   3.558   1.696   7.416  0.4710 -0.5785 -0.5846
 4129SOL    HW124023   3.549   1.761   7.485  1.6398 -2.0273  0.9223
 4129SOL    HW224024   3.536   1.615   7.462  0.6509 -1.9913 -2.9438
 4130SOL     OW24025   4.390   4.454  15.804 -0.6187 -0.4808  0.3257
 4130SOL    HW124026   4.448   4.408  15.743  0.1222 -1.4834  1.7900
 4130SOL    HW224027   4.450   4.483  15.873 -1.4910  2.0949  0.0114
 4131SOL     OW24028   3.557   0.415  10.067 -0.3822  0.4371  0.3866
 4131SOL    HW124029   3.518   0.449  10.148  1.1149  0.1284  1.2365
 4131SOL    HW224030   3.547   0.495  10.016 -1.1769  0.0430 -0.0747
 4132SOL     OW24031   1.062   0.580  16.686 -0.9678  0.1944 -0.2156
 4132SOL    HW124032   0.973   0.558  16.714 -0.2794 -1.7774  0.4002
 4132SOL    HW224033   1.115   0.508  16.720 -0.6841  0.9073  0.8216
 4133SOL     OW24034   4.710   0.037   8.406  0.5499 -0.4954  0.1588
 4133SOL    HW124035   4.638   0.004   8.353  0.9127 -0.2493 -0.4877
 4133SOL    HW224036   4.701   4.734   8.492  3.3665 -4.8801 -1.6969
 4134SOL     OW24037   2.704   0.983   4.465 -0.4787 -1.0451 -0.1687
 4134SOL    HW124038   2.742   1.016   4.547  0.4085 -0.7681 -0.6903
 4134SOL    HW224039   2.621   1.029   4.456  0.6985  1.3545  1.2136
 4135SOL     OW24040   2.423   0.518   5.078  0.4626 -0.2789  0.2805
 4135SOL    HW124041   2.329   0.538   5.081  1.0093  2.8092 -3.4549
 4135SOL    HW224042   2.437   0.487   5.168 -1.9284 -0.2295  0.6796
 4136SOL     OW24043   3.376   4.203  12.436 -0.3806  0.1573  0.0062
 4136SOL    HW124044   3.372   4.231  12.345  0.7798 -0.2852 -0.1901
 4136SOL    HW224045   3.362   4.109  12.425 -2.8498  0.6381 -0.8395
 4137SOL     OW24046   4.635   2.733   7.810  0.3827  0.0012 -0.0735
 4137SOL    HW124047   4.631   2.767   7.720 -1.8491 -2.3044 -0.8282
 4137SOL    HW224048   4.730   2.727   7.818  0.4366  4.1707  2.5108
 4138SOL     OW24049   0.046   2.283  13.392  0.0085 -0.0426 -0.4284
 4138SOL    HW124050   0.137   2.292  13.364  0.5064 -2.5947  0.3763
 4138SOL    HW224051   0.000   2.344  13.334 -1.7008  2.4504  3.4641
 4139SOL     OW24052   3.876   0.326   2.707 -0.2146  0.6766 -0.0929
 4139SOL    HW124053   3.909   0.341   2.619  0.6784  1.0596  0.3051
 4139SOL    HW224054   3.803   0.267   2.688  0.7689 -0.5978  0.0230
 4140SOL     OW24055   4.148   3.615  10.976 -0.5837 -0.1476  0.3700
 4140SOL    HW124056   4.168   3.522  10.980 -1.0059 -0.1997  1.4472
 4140SOL    HW224057   4.171   3.645  11.064 -0.3998  1.9975 -0.4021
 4141SOL     OW24058   1.409   1.596   5.428  0.2457  0.2795  0.8582
 4141SOL    HW124059   1.343   1.614   5.361 -1.7417 -0.5276  2.5854
 4141SOL    HW224060   1.496   1.585   5.392  0.2481  1.8308  0.3790
 4142SOL     OW24061   3.386   2.095   1.053  0.0089  0.1243  0.2045
 4142SOL    HW124062   3.403   2.188   1.039 -0.5916  0.2115  0.0672
 4142SOL    HW224063   3.374   2.094   1.148  2.5581 -2.4297  0.5208
 4143SOL     OW24064   1.978   0.051   5.236 -0.5352 -0.1713  0.4343
 4143SOL    HW124065   2.024   0.123   5.278 -0.6162 -0.3479  0.8257
 4143SOL    HW224066   1.988   0.064   5.142 -1.8037 -0.2118  0.2938
 4144SOL     OW24067   1.486   2.628   2.056  0.4628  0.5802 -0.3759
 4144SOL    HW124068   1.559   2.657   2.001  1.0620 -0.4276 -0.1156
 4144SOL    HW224069   1.461   2.709   2.100  0.3445 -0.1454  0.9072
 4145SOL     OW24070   0.532   3.928   1.363 -0.0104 -0.6247 -0.6619
 4145SOL    HW124071   0.573   3.994   1.420  1.6002 -1.2632 -1.0632
 4145SOL    HW224072   0.558   3.847   1.407 -1.4092 -0.3914  0.5924
 4146SOL     OW24073   1.673   4.030   9.768 -0.3695 -0.1759 -0.2262
 4146SOL    HW124074   1.767   4.016   9.777  0.0343  2.1465 -0.8937
 4146SOL    HW224075   1.645   3.939   9.764  3.0625 -1.2607  0.2934
 4147SOL     OW24076   3.693   4.539   4.752 -0.3658 -0.3198  0.3975
 4147SOL    HW124077   3.615   4.546   4.807 -1.4985 -1.0941 -1.1190
 4147SOL    HW224078   3.657   4.548   4.663  0.7055 -0.2131 -0.0259
 4148SOL     OW24079   1.708   1.696   5.145 -0.0187 -0.0938  0.3225
 4148SOL    HW124080   1.624   1.728   5.111 -0.3587 -1.3943 -0.0603
 4148SOL    HW224081   1.701   1.600   5.149  0.7407 -0.0866  1.7980
 4149SOL     OW24082   3.725   2.184  12.038  0.0860  0.2641 -0.8519
 4149SOL    HW124083   3.674   2.109  12.070  0.7384 -0.3754 -1.3295
 4149SOL    HW224084   3.768   2.146  11.962  0.3621 -2.3165  0.5987
 4150SOL     OW24085   0.211   0.771   9.547  0.0520 -0.1373 -0.4427
 4150SOL    HW124086   0.153   0.817   9.486 -0.0460  1.3085  0.7573
 4150SOL    HW224087   0.153   0.724   9.608  0.1855 -0.5967 -0.6650
 4151SOL     OW24088   4.723   1.281  15.349  0.0822 -0.3064 -0.3431
 4151SOL    HW124089   0.047   1.345  15.314 -0.0523  0.0018 -0.0094
 4151SOL    HW224090   4.685   1.332  15.420  0.4930 -0.4997  0.0192
 4152SOL     OW24091   1.676   0.809   4.840  0.6009  0.2043  0.1795
 4152SOL    HW124092   1.699   0.725   4.878 -2.6418 -1.4948 -1.6297
 4152SOL    HW224093   1.605   0.838   4.898  1.1084 -0.3045  1.0622
 4153SOL     OW24094   2.027   3.905   6.138 -0.3596  0.5427  0.2307
 4153SOL    HW124095   1.939   3.941   6.123 -0.6489 -0.3901 -0.3308
 4153SOL    HW224096   2.076   3.959   6.076  0.5523 -0.1898  0.3171
 4154SOL     OW24097   1.380   2.306   5.800 -0.0096  0.5090 -0.6901
 4154SOL    HW124098   1.436   2.329   5.873 -0.2507  0.5348 -0.5128
 4154SOL    HW224099   1.290   2.322   5.830  0.3715  0.9949  0.1954
 4155SOL     OW24100   0.919   2.866   7.382 -0.3245 -0.2883  0.0763
 4155SOL    HW124101   0.877   2.813   7.449 -0.2910 -2.5765 -1.7300
 4155SOL    HW224102   0.900   2.953   7.417 -0.2915 -0.7035  1.1428
 4156SOL     OW24103   2.289   4.135   8.422 -0.2056 -0.0872  0.4351
 4156SOL    HW124104   2.334   4.115   8.504  1.5064 -2.8150 -1.1589
 4156SOL    HW224105   2.208   4.166   8.462 -0.8749 -0.9668 -0.2560
 4157SOL     OW24106   3.150   0.184   6.255 -0.4017  0.0279  0.3038
 4157SOL    HW124107   3.058   0.178   6.227  0.2091 -1.4439 -1.3549
 4157SOL    HW224108   3.202   0.128   6.197 -1.6402 -0.1573 -0.6383
 4158SOL     OW24109   2.056   0.866   6.542  0.7843 -0.6057 -0.0464
 4158SOL    HW124110   2.005   0.786   6.555 -0.9359  0.5080  0.0396
 4158SOL    HW224111   2.035   0.868   6.448 -1.4832  3.4762  0.5873
 4159SOL     OW24112   2.162   0.605   7.615  0.1641  0.4664 -0.7869
 4159SOL    HW124113   2.190   0.593   7.706  0.4424  1.1393 -0.7866
 4159SOL    HW224114   2.238   0.559   7.579 -0.1584 -1.0486  0.4612
 4160SOL     OW24115   3.388   0.657  17.718  0.1486  0.3166  0.1267
 4160SOL    HW124116   3.363   0.565  17.729  0.3146  0.3176  0.4980
 4160SOL    HW224117   3.381   0.692   0.054  1.9912 -0.5937  0.6297
 4161SOL     OW24118   4.497   3.508   1.999 -0.6086 -0.1632 -0.2884
 4161SOL    HW124119   4.561   3.451   2.042  1.3946  1.8509 -0.6086
 4161SOL    HW224120   4.429   3.443   1.981 -0.0337 -0.4923 -1.3147
 4162SOL     OW24121   2.962   3.795   8.706 -0.1259  0.2827 -0.0376
 4162SOL    HW124122   2.972   3.856   8.633 -0.9866 -0.3634 -0.7031
 4162SOL    HW224123   3.030   3.729   8.698 -0.7145 -0.5765  2.0732
 4163SOL     OW24124   3.940   2.276   9.123  0.3808  0.1329  0.6506
 4163SOL    HW124125   3.920   2.369   9.129  1.3427  0.4510 -1.1438
 4163SOL    HW224126   3.957   2.252   9.215  0.3632  0.2032  0.6724
 4164SOL     OW24127   4.294   4.649   0.138 -0.1643  0.0464 -0.5468
 4164SOL    HW124128   4.303   4.588   0.211  1.6836 -0.5922 -1.3213
 4164SOL    HW224129   4.199   4.663   0.139  0.0328  1.4773 -1.1564
 4165SOL     OW24130   1.446   2.353  17.599 -0.1050  0.6469 -0.0051
 4165SOL    HW124131   1.445   2.257  17.609  0.1200  0.7316  0.8676
 4165SOL    HW224132   1.456   2.351  17.504  0.9372 -2.5365  0.1718
 4166SOL     OW24133   1.721   2.907   8.272  0.5227 -0.4674 -0.3648
 4166SOL    HW124134   1.675   2.889   8.190 -0.1930 -0.2447 -0.0141
 4166SOL    HW224135   1.645   2.949   8.312  1.0412 -2.2913  2.5624
 4167SOL     OW24136   1.842   0.427  16.951 -0.3627  0.5668 -1.2002
 4167SOL    HW124137   1.887   0.445  17.034 -0.8947 -0.5965 -0.6616
 4167SOL    HW224138   1.775   0.364  16.977  1.6512 -0.3943  1.8006
 4168SOL     OW24139   3.265   1.035   9.409  0.0839  0.6052 -0.2873
 4168SOL    HW124140   3.335   1.081   9.456 -0.2334  2.3969 -1.5626
 4168SOL    HW224141   3.293   0.947   9.432 -3.2342 -0.3042  0.3303
 4169SOL     OW24142   1.534   1.671   8.462  0.0458 -0.4282  0.1588
 4169SOL    HW124143   1.607   1.657   8.523 -0.6761  0.9048  1.3393
 4169SOL    HW224144   1.548   1.754   8.416  0.1623 -0.0288  0.9155
 4170SOL     OW24145   4.734   0.515  16.321  0.3354  0.1728  0.0387
 4170SOL    HW124146   4.690   0.433  16.343  0.5761  0.0144 -0.0659
 4170SOL    HW224147   0.085   0.481  16.327  1.1968  2.2586 -0.8649
 4171SOL     OW24148   0.819   3.320   7.853 -0.1287 -0.2473  0.2685
 4171SOL    HW124149   0.775   3.277   7.926 -1.3625 -0.5804 -0.6753
 4171SOL    HW224150   0.881   3.375   7.900  0.0449 -0.2508  0.0464
 4172SOL     OW24151   4.671   2.165  15.829 -0.1174  0.6027 -0.2990
 4172SOL    HW124152   4.611   2.146  15.757 -0.0669 -0.0013 -0.1832
 4172SOL    HW224153   4.613   2.154  15.904 -0.6817  0.9982 -0.6841
 4173SOL     OW24154   3.421   1.197   4.824  0.0368 -0.1951  0.2929
 4173SOL    HW124155   3.328   1.198   4.848 -0.2405 -2.0729 -0.6479
 4173SOL    HW224156   3.433   1.105   4.801 -0.8443 -0.8490  2.3787
 4174SOL     OW24157   0.187   0.028   5.334  0.1288  0.8736 -0.0107
 4174SOL    HW124158   0.213   4.708   5.405 -0.0079 -0.4561 -1.0782
 4174SOL    HW224159   0.222   4.726   5.255  2.8070 -1.6129  2.4754
 4175SOL     OW24160   3.245   1.377   8.288  0.3651 -0.5777 -0.6321
 4175SOL    HW124161   3.299   1.337   8.219  1.6081 -0.1736  0.0964
 4175SOL    HW224162   3.192   1.305   8.321 -0.2876 -0.8382 -2.2351
 4176SOL     OW24163   2.747   1.066   1.878 -0.5647 -0.4545  0.2556
 4176SOL    HW124164   2.708   1.046   1.963  1.4931 -2.5456  0.7153
 4176SOL    HW224165   2.704   1.151   1.866  0.2208  0.1637  1.6678
 4177SOL     OW24166   2.084   3.898  11.706 -0.2230  0.2994  0.7953
 4177SOL    HW124167   2.042   3.933  11.785  0.5875  0.7095  1.0447
 4177SOL    HW224168   2.174   3.929  11.719  0.4626 -0.5515 -1.9636
 4178SOL     OW24169   2.954   2.334  16.934  0.3076  0.0117 -0.8789
 4178SOL    HW124170   2.943   2.378  16.850 -1.6072 -2.4428 -1.8968
 4178SOL    HW224171   3.043   2.336  16.970 -0.2203 -0.3392  0.4605
 4179SOL     OW24172   3.983   3.018  10.775 -0.0050  0.1342 -0.3749
 4179SOL    HW124173   3.917   3.087  10.777 -1.2113 -1.0871  1.5948
 4179SOL    HW224174   4.035   3.049  10.850  0.4939 -2.2291  0.2729
 4180SOL     OW24175   1.072   2.083   1.116  0.2554 -0.5170 -0.2901
 4180SOL    HW124176   1.041   2.158   1.168 -0.9161  0.4500 -2.3680
 4180SOL    HW224177   0.986   2.041   1.113  0.9185 -2.0520  1.8554
 4181SOL     OW24178   1.535   3.667   5.073  0.1263  0.0571 -0.2380
 4181SOL    HW124179   1.469   3.608   5.037  0.4501  0.1331 -0.9498
 4181SOL    HW224180   1.518   3.748   5.026 -0.3854  0.9109  1.4339
 4182SOL     OW24181   0.675   0.807   5.929 -0.4614  0.0373 -0.3389
 4182SOL    HW124182   0.633   0.765   5.854 -0.3110  2.1357 -1.6083
 4182SOL    HW224183   0.596   0.828   5.978 -0.5397 -0.0971 -0.4073
 4183SOL     OW24184   3.270   0.812   4.257 -0.3423  0.1851 -0.4144
 4183SOL    HW124185   3.295   0.898   4.288 -0.4448 -0.6024  1.8370
 4183SOL    HW224186   3.355   0.785   4.222 -0.3669 -0.8198  0.2958
 4184SOL     OW24187   4.207   3.835   9.643 -0.1673 -0.1090  0.1012
 4184SOL    HW124188   4.215   3.755   9.592  1.3851  1.2260 -1.7395
 4184SOL    HW224189   4.120   3.866   9.617  0.0859  1.7298  1.4451
 4185SOL     OW24190   4.260   3.750  11.224 -0.0815  0.1664  0.0563
 4185SOL    HW124191   4.336   3.773  11.170  1.5998 -1.9977  1.4735
 4185SOL    HW224192   4.302   3.728  11.308 -1.2728  0.6385  0.7735
 4186SOL     OW24193   2.515   2.677   6.092 -0.1923 -0.6655 -0.0623
 4186SOL    HW124194   2.428   2.651   6.124 -0.6780  0.7597 -0.2223
 4186SOL    HW224195   2.549   2.595   6.057 -0.4451 -1.4965  1.6127
 4187SOL     OW24196   1.423   2.275  11.663  0.2984  0.2321  0.0495
 4187SOL    HW124197   1.435   2.368  11.677 -2.2817  0.9131 -2.3409
 4187SOL    HW224198   1.421   2.271  11.567  0.5342 -0.3990  0.0646
 4188SOL     OW24199   1.802   0.247  10.816 -0.5711 -0.0741 -0.4690
 4188SOL    HW124200   1.759   0.161  10.816 -0.7922  0.0431  0.6907
 4188SOL    HW224201   1.787   0.277  10.726 -0.8821  0.7444 -0.1488
 4189SOL     OW24202   2.906   1.479   2.811 -0.0624 -0.4947  0.5233
 4189SOL    HW124203   2.820   1.451   2.844  0.4211 -1.4999  0.9430
 4189SOL    HW224204   2.967   1.440   2.873  0.9923 -0.1922 -0.3324
 4190SOL     OW24205   1.455   4.004   7.931 -0.6716 -0.2496  0.1166
 4190SOL    HW124206   1.421   3.941   7.995  0.8037 -0.0171  1.1133
 4190SOL    HW224207   1.444   4.085   7.979  0.2067 -0.1352  0.1100
 4191SOL     OW24208   1.546   3.359  12.479  0.1484  0.6745 -0.0543
 4191SOL    HW124209   1.508   3.375  12.393  1.2214 -1.3339 -0.9097
 4191SOL    HW224210   1.499   3.415  12.540 -0.3145  0.6829 -0.4216
 4192SOL     OW24211   1.632   4.393   3.809  0.0236  0.4288  0.1225
 4192SOL    HW124212   1.606   4.300   3.805 -1.4074  0.8533 -0.5041
 4192SOL    HW224213   1.720   4.388   3.846  0.1895 -2.2200 -0.5938
 4193SOL     OW24214   3.089   1.427   0.251  0.4029 -0.2291 -0.0094
 4193SOL    HW124215   3.040   1.347   0.270  2.0906 -0.8933  1.5653
 4193SOL    HW224216   3.098   1.473   0.335  1.5840 -2.4758  1.1022
 4194SOL     OW24217   2.222   0.677   8.924 -0.4129  0.3125  0.1889
 4194SOL    HW124218   2.139   0.658   8.880 -1.1549  0.2056  1.6266
 4194SOL    HW224219   2.282   0.628   8.867 -0.7093  0.8301 -0.5506
 4195SOL     OW24220   3.343   2.052  16.771  0.6877  0.2394  0.0866
 4195SOL    HW124221   3.333   1.963  16.738 -0.4928  0.4132 -0.0079
 4195SOL    HW224222   3.270   2.053  16.832 -0.0813 -1.1535 -0.8116
 4196SOL     OW24223   1.748   2.487  13.480 -0.0839 -0.1465 -0.5199
 4196SOL    HW124224   1.707   2.497  13.567 -1.1947 -0.4623 -1.0085
 4196SOL    HW224225   1.777   2.396  13.483  0.2421  0.0325  2.0382
 4197SOL     OW24226   1.017   4.214   3.733  0.1090  0.7246 -0.7208
 4197SOL    HW124227   1.008   4.125   3.699  2.0366  1.1587 -2.4113
 4197SOL    HW224228   1.101   4.206   3.778  0.4923  1.5135 -1.2900
 4198SOL     OW24229   1.485   1.371   2.220 -0.4966 -0.2334  0.1174
 4198SOL    HW124230   1.570   1.412   2.238 -1.4831  1.5216  0.8492
 4198SOL    HW224231   1.501   1.294   2.166  1.7865 -0.1012  0.6421
 4199SOL     OW24232   0.149   0.608  14.279 -0.1763 -0.0862  0.0297
 4199SOL    HW124233   0.174   0.679  14.338  0.7990  0.9560 -1.6533
 4199SOL    HW224234   0.138   0.656  14.197 -2.4515 -0.7718 -0.0718
 4200SOL     OW24235   0.949   3.949   8.449 -0.7497  0.2131  0.4060
 4200SOL    HW124236   0.891   3.967   8.523 -0.2299 -0.0813  0.8851
 4200SOL    HW224237   0.880   3.972   8.386 -1.3404  1.0704  1.3610
 4201SOL     OW24238   3.035   1.739   1.309  0.1540 -0.4854 -0.1849
 4201SOL    HW124239   2.953   1.781   1.334 -0.1981 -1.4036  0.2089
 4201SOL    HW224240   3.024   1.653   1.350 -0.9852 -1.1171 -1.7657
 4202SOL     OW24241   2.012   0.094   2.612  0.6222 -0.3102 -0.1574
 4202SOL    HW124242   2.075   0.028   2.640 -0.8349 -2.1123 -1.1382
 4202SOL    HW224243   1.992   0.136   2.696  0.1073  0.5847 -0.7277
 4203SOL     OW24244   4.320   4.181   8.604  0.6502  0.1230 -0.5382
 4203SOL    HW124245   4.240   4.163   8.653  0.6892 -0.3081 -0.6316
 4203SOL    HW224246   4.319   4.100   8.554 -1.0945 -0.3996  0.3480
 4204SOL     OW24247   0.947   1.666   6.797  0.4389 -0.5410 -0.3516
 4204SOL    HW124248   0.914   1.701   6.880 -1.3779  1.6133 -1.9818
 4204SOL    HW224249   0.870   1.636   6.750 -0.5773  1.2724  0.1495
 4205SOL     OW24250   3.217   4.160   6.711  0.7067  0.6358 -0.7176
 4205SOL    HW124251   3.275   4.085   6.696 -1.1791 -0.7041 -1.2839
 4205SOL    HW224252   3.143   4.114   6.752  0.1236  1.5895 -0.6941
 4206SOL     OW24253   2.880   3.972   8.940 -0.2288 -0.4100  0.4999
 4206SOL    HW124254   2.876   4.060   8.903  1.2383  0.0251  1.3916
 4206SOL    HW224255   2.872   3.924   8.858 -0.6197  0.1198  0.2330
 4207SOL     OW24256   0.176   3.097   4.964  0.2625  0.6982 -0.1561
 4207SOL    HW124257   0.238   3.146   5.017  0.3007  1.2152 -0.6774
 4207SOL    HW224258   0.109   3.163   4.946 -1.9265 -1.8199 -1.3646
 4208SOL     OW24259   0.514   2.030  12.711 -0.2080  0.0008  0.4327
 4208SOL    HW124260   0.483   1.950  12.668 -0.3013  0.5596 -0.5433
 4208SOL    HW224261   0.593   1.985  12.744  0.4767  0.7178 -0.2311
 4209SOL     OW24262   0.931   3.371   7.222  0.2021 -0.2101  0.4215
 4209SOL    HW124263   0.992   3.444   7.221  0.1172 -0.1589 -0.5037
 4209SOL    HW224264   0.895   3.389   7.309  0.3288  0.6448  0.2981
 4210SOL     OW24265   3.385   1.679   3.595  0.0793  0.5965 -0.1040
 4210SOL    HW124266   3.318   1.635   3.648 -1.3519  1.3342 -1.2759
 4210SOL    HW224267   3.349   1.661   3.508  0.1720  0.4026 -0.1009
 4211SOL     OW24268   3.961   1.285   6.575 -0.0688  0.5286 -0.2696
 4211SOL    HW124269   3.914   1.202   6.574  1.1650 -0.1829  0.6525
 4211SOL    HW224270   3.911   1.327   6.645  2.3668  3.2301 -0.1404
 4212SOL     OW24271   2.712   2.623  14.000  0.0075 -0.8237 -0.6548
 4212SOL    HW124272   2.778   2.557  13.982  0.1429 -1.0335  0.6185
 4212SOL    HW224273   2.675   2.619  13.912 -2.2482  0.0554  0.2389
 4213SOL     OW24274   3.303   0.518   6.282  0.0602  0.2545 -0.4531
 4213SOL    HW124275   3.272   0.459   6.350  1.8226  0.7241  0.7621
 4213SOL    HW224276   3.249   0.592   6.310 -1.6363 -0.9961 -0.4420
 4214SOL     OW24277   3.815   2.405   3.146  0.3940  0.3448 -0.3214
 4214SOL    HW124278   3.845   2.341   3.081  0.6881  2.6255 -2.4721
 4214SOL    HW224279   3.734   2.409   3.094  1.3783  0.1707 -1.8899
 4215SOL     OW24280   0.653   3.096  10.292 -0.0144  0.5177  0.0856
 4215SOL    HW124281   0.735   3.092  10.242  0.9657  0.5001  1.7114
 4215SOL    HW224282   0.654   3.004  10.318 -2.8313  0.2347 -0.8442
 4216SOL     OW24283   1.228   3.336   8.406  0.4013  0.0494  0.6780
 4216SOL    HW124284   1.320   3.336   8.432  0.7886  0.5820 -0.6803
 4216SOL    HW224285   1.219   3.428   8.383 -0.8613 -1.0192 -3.2984
 4217SOL     OW24286   1.577   1.357   9.988  0.5732 -0.0706  0.5465
 4217SOL    HW124287   1.644   1.363   9.920  0.3034 -2.2568  0.1048
 4217SOL    HW224288   1.505   1.410   9.954 -0.5128 -0.7416  1.8009
 4218SOL     OW24289   3.057   0.284   7.532  0.1732  0.0573 -0.3742
 4218SOL    HW124290   3.053   0.228   7.455  0.2104 -1.1333  0.4838
 4218SOL    HW224291   3.151   0.277   7.545  0.1707 -0.1956 -0.4970
 4219SOL     OW24292   4.578   3.546   6.567 -0.2945 -0.1084 -0.5314
 4219SOL    HW124293   4.657   3.600   6.562  0.2189 -0.7362  0.6151
 4219SOL    HW224294   4.599   3.473   6.509  0.5620 -0.3240  0.0498
 4220SOL     OW24295   4.154   2.347  13.284  0.5432  0.4627 -0.2783
 4220SOL    HW124296   4.138   2.441  13.286  0.5499  0.4363  1.5419
 4220SOL    HW224297   4.229   2.337  13.227  0.6171  0.6701 -0.2171
 4221SOL     OW24298   1.374   2.976   1.786 -0.4650 -0.6849  0.1009
 4221SOL    HW124299   1.351   3.021   1.866  0.9670 -2.7877  1.7013
 4221SOL    HW224300   1.438   3.036   1.747 -2.0056  0.4653 -0.6653
 4222SOL     OW24301   0.910   3.713   9.854  0.3106 -0.0039 -0.0318
 4222SOL    HW124302   0.963   3.790   9.876  0.7775 -0.6958  1.2969
 4222SOL    HW224303   0.827   3.726   9.901  1.5713 -1.3477  2.5981
 4223SOL     OW24304   0.321   0.469   2.631  0.4597 -0.6367 -0.1970
 4223SOL    HW124305   0.390   0.409   2.604  1.1467  0.3656 -0.6761
 4223SOL    HW224306   0.338   0.539   2.568  0.0906 -1.8022 -1.5802
 4224SOL     OW24307   3.071   0.332  10.725 -0.1557 -0.1922 -0.1061
 4224SOL    HW124308   3.151   0.361  10.681  1.1444  1.4402  3.3273
 4224SOL    HW224309   3.001   0.383  10.684  0.7806  0.0376 -1.4261
 4225SOL     OW24310   4.532   1.102   6.755  0.1363  0.3417  0.3449
 4225SOL    HW124311   4.449   1.074   6.795 -0.6395  2.1673  0.0263
 4225SOL    HW224312   4.585   1.074   6.830  4.8127  3.0174 -1.9969
 4226SOL     OW24313   1.189   4.038   3.484  0.3328  0.1861 -0.1325
 4226SOL    HW124314   1.272   3.999   3.455  0.9423  0.9388  0.5901
 4226SOL    HW224315   1.200   4.132   3.476  0.5236  0.1778  0.0221
 4227SOL     OW24316   1.491   0.902  13.765  0.8632 -0.5708  0.5370
 4227SOL    HW124317   1.529   0.819  13.794 -0.3681 -2.1718 -2.4252
 4227SOL    HW224318   1.560   0.966  13.786  0.5262 -0.1218  0.2799
 4228SOL     OW24319   4.050   2.168  12.580 -0.2487 -0.1133 -0.2289
 4228SOL    HW124320   4.017   2.257  12.577  1.2733  0.4299 -0.6590
 4228SOL    HW224321   3.972   2.115  12.560 -0.3944 -1.3574  3.5638
 4229SOL     OW24322   1.814   3.433   3.272  0.1733  0.4269 -0.2332
 4229SOL    HW124323   1.909   3.434   3.261 -0.0463  1.8945 -2.0090
 4229SOL    HW224324   1.799   3.519   3.310  1.3658 -0.3784  2.0193
 4230SOL     OW24325   2.141   0.365   2.918  0.4787 -0.0815  0.1920
 4230SOL    HW124326   2.154   0.430   2.988 -2.0257 -0.1178  0.6650
 4230SOL    HW224327   2.224   0.317   2.923  0.0948 -0.6875  0.7474
 4231SOL     OW24328   2.398   4.575   2.612 -0.0956 -0.4172 -0.7108
 4231SOL    HW124329   2.340   4.500   2.619  0.5022 -0.8982 -0.8972
 4231SOL    HW224330   2.365   4.642   2.672 -0.7456 -1.0512 -0.3632
 4232SOL     OW24331   1.848   0.240   9.571 -0.2169 -0.7854 -0.5855
 4232SOL    HW124332   1.898   0.299   9.628 -0.9887 -0.7360  0.0477
 4232SOL    HW224333   1.914   0.193   9.521  0.2940 -0.3609 -0.3077
 4233SOL     OW24334   3.580   2.255   0.403  0.0106  0.6411  0.2638
 4233SOL    HW124335   3.671   2.283   0.401  0.0883  0.3090 -1.2456
 4233SOL    HW224336   3.598   2.168   0.437  0.6972  0.9425  0.6610
 4234SOL     OW24337   1.785   2.174   4.798 -0.0957  0.7377  0.5514
 4234SOL    HW124338   1.811   2.227   4.874  1.2898  0.0073  0.5769
 4234SOL    HW224339   1.694   2.153   4.817  0.4407 -0.1149  2.2341
 4235SOL     OW24340   0.157   2.197   1.969  0.2106  0.1219 -0.0315
 4235SOL    HW124341   0.094   2.153   2.025 -2.2499  3.5355 -0.1574
 4235SOL    HW224342   0.105   2.223   1.894 -0.5741 -0.5378  0.2805
 4236SOL     OW24343   2.879   1.812   2.011 -0.2994 -0.1574  0.1061
 4236SOL    HW124344   2.826   1.890   1.996  2.4152  1.4924 -0.8211
 4236SOL    HW224345   2.828   1.750   1.958  0.0361 -0.9244  0.6712
 4237SOL     OW24346   3.423   2.063   4.982 -0.5240 -0.1079  0.0970
 4237SOL    HW124347   3.418   2.079   5.076  0.9295  0.0926  0.1402
 4237SOL    HW224348   3.400   2.143   4.933  1.1442 -0.4293 -1.2147
 4238SOL     OW24349   1.853   3.343   8.273 -0.7137  0.2126 -0.5271
 4238SOL    HW124350   1.928   3.285   8.269 -0.0823  1.0037 -0.1933
 4238SOL    HW224351   1.863   3.391   8.355 -0.3625 -2.0067  0.6997
 4239SOL     OW24352   0.591   0.111  11.706 -0.0904 -0.0041 -0.3013
 4239SOL    HW124353   0.631   0.043  11.761 -0.9758 -0.2122  0.0881
 4239SOL    HW224354   0.601   0.185  11.766 -1.3026 -1.4014  1.6481
 4240SOL     OW24355   1.980   0.337   7.543 -0.7739  0.1312  0.9101
 4240SOL    HW124356   2.051   0.278   7.569 -0.7709 -1.0231 -1.6937
 4240SOL    HW224357   1.911   0.321   7.607 -1.0242 -1.4720  0.2246
 4241SOL     OW24358   0.984   3.206   1.624  0.5137  0.1245  0.0846
 4241SOL    HW124359   0.984   3.282   1.566 -0.3646 -2.0837 -2.8243
 4241SOL    HW224360   1.057   3.155   1.589 -0.3695 -1.4843  0.5740
 4242SOL     OW24361   3.757   3.177  10.728 -0.3596  0.2166  0.0581
 4242SOL    HW124362   3.744   3.267  10.760  0.9925  0.3572  0.1890
 4242SOL    HW224363   3.667   3.143  10.729 -0.6124  0.8905  0.6613
 4243SOL     OW24364   4.582   2.966   8.546 -0.2707  0.2654 -0.1941
 4243SOL    HW124365   4.648   2.931   8.486 -0.3257  1.0237 -0.7015
 4243SOL    HW224366   4.637   3.037   8.581 -3.2744  1.3760  2.2178
 4244SOL     OW24367   4.015   1.316   7.357 -0.0537 -0.0535 -0.0769
 4244SOL    HW124368   3.994   1.328   7.450 -0.1952  0.7626 -0.2145
 4244SOL    HW224369   3.942   1.259   7.331 -2.9173  2.4640  2.3476
 4245SOL     OW24370   1.921   1.235   4.849 -0.8366 -0.0569 -0.6795
 4245SOL    HW124371   1.955   1.171   4.787  3.3008  1.3675  0.1493
 4245SOL    HW224372   1.926   1.188   4.932  1.0513  1.0792 -0.1706
 4246SOL     OW24373   1.523   1.676   2.958  0.0098  0.0738  0.2002
 4246SOL    HW124374   1.495   1.586   2.976 -1.8357  1.1876  2.7528
 4246SOL    HW224375   1.497   1.679   2.866 -0.2491 -1.3768  0.2264
 4247SOL     OW24376   0.581   0.816   0.300 -0.3005  0.0406  0.0762
 4247SOL    HW124377   0.614   0.740   0.348 -0.0196  0.7068  0.9400
 4247SOL    HW224378   0.658   0.872   0.297  0.2103 -0.6355  0.5532
 4248SOL     OW24379   2.940   0.950  11.948 -0.2709  0.0656 -0.4784
 4248SOL    HW124380   2.924   0.890  12.021 -0.6507  1.4902  0.6102
 4248SOL    HW224381   2.984   1.024  11.990 -1.0027  0.7294 -0.8846
 4249SOL     OW24382   0.244   4.575   5.877  0.1165 -0.5538 -0.3504
 4249SOL    HW124383   0.284   4.641   5.821  2.0047 -0.1665  1.4291
 4249SOL    HW224384   0.151   4.600   5.878  0.3755  0.4036 -0.2846
 4250SOL     OW24385   0.978   2.439   9.650  0.0740 -0.3657 -0.9831
 4250SOL    HW124386   0.932   2.508   9.698  0.9628 -0.4808  0.0422
 4250SOL    HW224387   1.060   2.488   9.642  0.6801 -1.7492 -2.9717
 4251SOL     OW24388   3.480   4.654  11.510 -0.1136 -0.0136 -0.3556
 4251SOL    HW124389   3.466   4.560  11.508 -0.8076  0.1309 -1.8043
 4251SOL    HW224390   3.548   4.672  11.445 -2.0187 -0.1430 -2.3506
 4252SOL     OW24391   1.324   3.047  11.662 -0.1672  0.1501 -0.4865
 4252SOL    HW124392   1.244   3.093  11.637 -0.1354 -0.6454 -2.0436
 4252SOL    HW224393   1.310   2.956  11.636 -0.4383 -0.4805  1.8523
 4253SOL     OW24394   0.951   3.131  10.900  0.8489  0.0833  0.0661
 4253SOL    HW124395   0.982   3.109  10.987  0.4872  0.2195  0.2296
 4253SOL    HW224396   0.860   3.159  10.914  1.7222  2.5419  0.7576
 4254SOL     OW24397   1.983   4.043  11.912 -0.7445 -0.1757  0.5091
 4254SOL    HW124398   1.891   4.056  11.935 -0.7559  2.0153 -0.7602
 4254SOL    HW224399   2.010   4.135  11.910 -1.5694  0.0579  0.1098
 4255SOL     OW24400   4.320   3.139  13.983  0.3126  0.0732 -0.3570
 4255SOL    HW124401   4.268   3.217  13.966 -1.5167 -1.2452 -0.8074
 4255SOL    HW224402   4.257   3.069  13.967  1.0740 -0.5223 -0.7428
 4256SOL     OW24403   1.400   3.029   5.473 -0.1912 -0.1258 -0.2160
 4256SOL    HW124404   1.467   3.003   5.537 -0.2161 -0.3225 -0.2715
 4256SOL    HW224405   1.350   3.096   5.520 -0.9539 -0.0417 -1.1561
 4257SOL     OW24406   0.820   2.772   9.400 -0.3494  0.6722  0.2447
 4257SOL    HW124407   0.799   2.865   9.397 -1.0635  0.4456 -1.8888
 4257SOL    HW224408   0.879   2.779   9.475 -0.0968  0.2723  0.0870
 4258SOL     OW24409   1.500   2.322   5.552  0.0210 -0.0820  0.6131
 4258SOL    HW124410   1.453   2.242   5.526 -0.3276 -0.3171  1.9811
 4258SOL    HW224411   1.449   2.342   5.630 -0.7018  0.7553 -0.0662
 4259SOL     OW24412   0.241   4.357   4.914  0.1444 -0.0285  0.0130
 4259SOL    HW124413   0.261   4.269   4.946  0.3119  0.9805  2.6766
 4259SOL    HW224414   0.320   4.387   4.869 -0.8216  0.9154 -1.0547
 4260SOL     OW24415   4.099   0.790   4.204 -0.2358 -0.5690 -0.0055
 4260SOL    HW124416   4.128   0.738   4.129 -0.5563 -1.2989  0.3847
 4260SOL    HW224417   4.160   0.776   4.277  0.3894 -0.3058 -0.4736
 4261SOL     OW24418   4.174   3.970  13.822  1.0133  0.3689  0.2199
 4261SOL    HW124419   4.232   3.966  13.898 -0.4010  2.1886  1.3743
 4261SOL    HW224420   4.241   3.993  13.758  0.6651  1.4799  0.2564
 4262SOL     OW24421   4.177   0.456   9.545  0.0099 -0.1749 -0.0425
 4262SOL    HW124422   4.093   0.493   9.519  0.3367 -0.2461 -1.1713
 4262SOL    HW224423   4.208   0.443   9.456  1.5139 -0.4450  0.5169
 4263SOL     OW24424   1.002   1.819   6.469  0.1431 -0.3915 -0.3789
 4263SOL    HW124425   0.919   1.847   6.430 -0.9398  0.5485  2.6094
 4263SOL    HW224426   1.054   1.798   6.391  0.9501  1.1519 -0.2589
 4264SOL     OW24427   2.742   2.183   5.731 -0.6314  0.4497 -0.5593
 4264SOL    HW124428   2.710   2.160   5.818  2.6860  0.6593  0.6898
 4264SOL    HW224429   2.835   2.198   5.747 -0.8622  0.7668  0.4416
 4265SOL     OW24430   3.785   1.062   6.884 -0.3003  0.7085 -0.1982
 4265SOL    HW124431   3.771   1.153   6.911  0.9406  1.4755 -2.2130
 4265SOL    HW224432   3.727   1.003   6.933  0.7131 -1.3532 -1.5152
 4266SOL     OW24433   2.690   0.350   2.524  0.2328  0.9315  0.0164
 4266SOL    HW124434   2.758   0.408   2.558  0.0885  0.6632  0.7406
 4266SOL    HW224435   2.639   0.323   2.600 -0.5954  4.7444  0.7989
 4267SOL     OW24436   2.710   2.708  10.954  0.2613  0.9870 -0.0604
 4267SOL    HW124437   2.721   2.718  10.859  0.1705 -0.1108 -0.1800
 4267SOL    HW224438   2.686   2.796  10.985 -0.7616  0.8837 -0.5890
 4268SOL     OW24439   0.499   0.366   4.022  0.2336  0.5831 -0.5332
 4268SOL    HW124440   0.412   0.375   3.983 -0.0511  2.1114  0.4705
 4268SOL    HW224441   0.516   0.457   3.998 -2.6322  0.8809 -1.4680
 4269SOL     OW24442   0.830   2.561   6.122  0.0819  0.2653 -0.4531
 4269SOL    HW124443   0.791   2.554   6.035  2.8935  0.2216 -1.6872
 4269SOL    HW224444   0.900   2.496   6.131 -2.3089 -2.2778 -0.2758
 4270SOL     OW24445   4.666   3.841   8.430  0.1501 -0.1152  0.0027
 4270SOL    HW124446   4.695   3.905   8.365  1.3130  0.2088  0.8271
 4270SOL    HW224447   4.729   3.852   8.502  2.0186 -1.6835 -1.3801
 4271SOL     OW24448   1.662   1.509   0.763  0.6319 -0.3289  0.2598
 4271SOL    HW124449   1.625   1.508   0.852  0.0215 -1.1934 -0.0098
 4271SOL    HW224450   1.656   1.603   0.745  1.5450 -0.8906 -2.9201
 4272SOL     OW24451   4.044   0.836  11.406 -0.3583 -0.0169 -0.2905
 4272SOL    HW124452   3.986   0.838  11.329 -1.2005 -0.6978  0.3258
 4272SOL    HW224453   4.116   0.897  11.391 -0.8345  0.9152  1.2965
 4273SOL     OW24454   1.181   2.165   3.408  0.4483  0.6018  0.3018
 4273SOL    HW124455   1.112   2.154   3.342  1.4853 -1.6491 -0.3877
 4273SOL    HW224456   1.253   2.125   3.360  0.7329  2.8231 -1.1284
 4274SOL     OW24457   0.086   3.236  17.476  0.4570 -0.3583 -0.0457
 4274SOL    HW124458   0.101   3.294  17.401  2.9129  0.2900  0.9717
 4274SOL    HW224459   0.176   3.212  17.498 -0.3364 -1.9040  1.4360
 4275SOL     OW24460   1.143   3.688   4.144  0.0268 -0.3378  0.1949
 4275SOL    HW124461   1.051   3.715   4.157  0.4188  0.9113  0.3981
 4275SOL    HW224462   1.137   3.640   4.061  0.0380 -1.3248  0.7684
 4276SOL     OW24463   2.327   3.886  12.917  0.1128 -0.1405  0.2747
 4276SOL    HW124464   2.358   3.923  13.000 -3.4741  0.6355  1.2401
 4276SOL    HW224465   2.280   3.807  12.945 -1.8952  0.6980 -0.7717
 4277SOL     OW24466   3.158   1.170   4.882  0.0680  0.6460  0.4517
 4277SOL    HW124467   3.146   1.094   4.825  0.7700 -0.4415  1.7539
 4277SOL    HW224468   3.073   1.212   4.896  0.7685  1.9637  0.6942
 4278SOL     OW24469   1.572   3.167   3.435  0.1332  0.4949 -0.1838
 4278SOL    HW124470   1.578   3.147   3.529 -0.2820  2.7146  0.3072
 4278SOL    HW224471   1.661   3.145   3.409 -0.2959 -1.3439 -0.1321
 4279SOL     OW24472   1.987   2.581  12.530 -0.4308  0.1633 -0.2994
 4279SOL    HW124473   2.059   2.517  12.526 -0.5487  0.0086  0.0494
 4279SOL    HW224474   1.986   2.601  12.437 -1.9808  0.6294 -0.1885
 4280SOL     OW24475   0.620   0.557  17.099  0.0538  0.2863 -0.3775
 4280SOL    HW124476   0.545   0.617  17.107 -0.6671 -0.9943  2.3861
 4280SOL    HW224477   0.690   0.602  17.145  0.8874  0.3502 -1.7114
 4281SOL     OW24478   3.056   0.049   8.081  0.8051  0.1869 -0.2523
 4281SOL    HW124479   2.998   0.006   8.019 -0.8383 -0.5405  1.8268
 4281SOL    HW224480   2.993   0.100   8.131  1.2392  0.4414  0.0360
 4282SOL     OW24481   2.845   4.620   7.087 -0.2304 -0.1641 -0.5489
 4282SOL    HW124482   2.820   4.564   7.160 -0.4538 -1.8945 -1.9461
 4282SOL    HW224483   2.887   4.561   7.024  0.8900 -0.9193  0.9150
 4283SOL     OW24484   3.631   0.090   9.874  0.1484  0.1347  0.2273
 4283SOL    HW124485   3.568   0.141   9.823 -0.0203 -0.4850 -0.1884
 4283SOL    HW224486   3.702   0.089   9.810  1.1090 -1.4196  1.2999
 4284SOL     OW24487   0.793   1.761   4.367 -0.1931  0.1335  0.1990
 4284SOL    HW124488   0.826   1.802   4.287 -2.5007  3.3124  0.8633
 4284SOL    HW224489   0.700   1.782   4.360 -0.3317 -0.3838  0.4321
 4285SOL     OW24490   3.469   3.892   9.831  0.2411  0.6791  0.3986
 4285SOL    HW124491   3.519   3.846   9.764  0.4582  1.5026 -0.0099
 4285SOL    HW224492   3.380   3.862   9.811  1.1946 -0.1960 -2.5121
 4286SOL     OW24493   2.061   1.740   5.704 -0.5229  0.2454 -0.0449
 4286SOL    HW124494   1.969   1.742   5.728 -0.2757 -2.9452  1.0439
 4286SOL    HW224495   2.090   1.659   5.745  1.0791  0.3744 -0.8895
 4287SOL     OW24496   1.157   0.733   4.027 -0.2521 -0.1167  0.2464
 4287SOL    HW124497   1.110   0.741   4.111  0.7885  3.2493  0.5423
 4287SOL    HW224498   1.108   0.790   3.968  0.9875  0.5927 -0.1022
 4288SOL     OW24499   2.219   4.315  16.481 -0.0180  0.4712  0.4457
 4288SOL    HW124500   2.139   4.360  16.453 -0.0335  1.4804  2.1464
 4288SOL    HW224501   2.255   4.393  16.524  0.3898  0.5013  0.0524
 4289SOL     OW24502   4.182   1.120   2.355 -0.1473  0.1643  0.2843
 4289SOL    HW124503   4.196   1.027   2.373 -4.2811 -0.3446  0.7004
 4289SOL    HW224504   4.246   1.122   2.284 -2.1972  0.1520 -1.5199
 4290SOL     OW24505   0.070   3.593   8.661  0.2608 -0.2213  0.6042
 4290SOL    HW124506   0.047   3.524   8.723  1.3444 -1.6683 -0.5823
 4290SOL    HW224507   4.721   3.623   8.638 -0.4280 -1.0077  2.2552
 4291SOL     OW24508   1.904   3.184  16.838 -0.7367 -0.3169  0.4512
 4291SOL    HW124509   1.921   3.177  16.932  1.4532 -0.0189  0.0561
 4291SOL    HW224510   1.987   3.218  16.806  0.5484 -1.7744  2.2799
 4292SOL     OW24511   4.261   3.294   5.984  0.6603 -0.5899 -0.4318
 4292SOL    HW124512   4.338   3.322   5.934  1.2407 -0.0039  0.7888
 4292SOL    HW224513   4.298   3.209   6.006 -0.4881 -0.6602  1.2174
 4293SOL     OW24514   2.183   0.328   3.791 -0.1946 -0.4423 -0.0931
 4293SOL    HW124515   2.157   0.237   3.777  0.3062 -0.2008 -2.6486
 4293SOL    HW224516   2.119   0.378   3.740  0.2130 -0.9730 -1.1251
 4294SOL     OW24517   1.438   2.190   2.662 -0.0583  0.5856  0.1319
 4294SOL    HW124518   1.498   2.132   2.614 -1.2666  1.8306 -2.8358
 4294SOL    HW224519   1.354   2.165   2.622 -0.0308  0.9338 -0.1416
 4295SOL     OW24520   4.009   2.573  15.088  0.5782  0.1186  0.1457
 4295SOL    HW124521   3.940   2.638  15.073 -0.6144 -1.4205 -1.1614
 4295SOL    HW224522   4.005   2.512  15.014 -1.2142 -3.0204  2.8171
 4296SOL     OW24523   2.377   1.753   7.811 -0.1015  0.0796 -0.2108
 4296SOL    HW124524   2.294   1.706   7.815  0.8708 -1.7974 -2.0233
 4296SOL    HW224525   2.390   1.788   7.899 -3.3521 -1.3946  0.8456
 4297SOL     OW24526   1.435   0.702   5.676  0.6053  0.1303  0.0686
 4297SOL    HW124527   1.405   0.791   5.695 -1.1381 -0.2514 -0.9037
 4297SOL    HW224528   1.358   0.672   5.627 -0.2930  0.6160  1.1801
 4298SOL     OW24529   0.053   3.960  17.159  0.0667 -0.4088  0.6646
 4298SOL    HW124530   0.048   3.882  17.103  1.8429 -0.8731  1.1450
 4298SOL    HW224531   0.144   3.974  17.184 -0.3978 -0.8533  2.6701
 4299SOL     OW24532   1.349   2.975   7.444  0.8703  0.3797  0.1584
 4299SOL    HW124533   1.291   2.968   7.368 -1.3527  2.5235  1.6368
 4299SOL    HW224534   1.310   3.052   7.486  0.3430  0.0365  0.3016
 4300SOL     OW24535   4.608   1.607   8.325  0.0840 -0.5590  0.1002
 4300SOL    HW124536   4.693   1.562   8.321  0.3563 -0.0455  0.1232
 4300SOL    HW224537   4.633   1.699   8.321  1.8757 -0.9914  0.9735
 4301SOL     OW24538   1.716   0.588   5.000  0.4160 -0.3418 -0.4588
 4301SOL    HW124539   1.766   0.506   4.995  2.5120  0.7281  3.1633
 4301SOL    HW224540   1.631   0.547   5.016  1.2118 -0.4915  3.3085
 4302SOL     OW24541   3.982   2.909  14.456 -0.2576 -0.6518  0.8458
 4302SOL    HW124542   4.056   2.850  14.454  1.2000  1.2735 -2.8926
 4302SOL    HW224543   3.997   2.957  14.537 -1.5529  0.9999  0.1189
 4303SOL     OW24544   3.706   3.870   2.585  0.1579  0.2698  0.0548
 4303SOL    HW124545   3.720   3.928   2.511  2.5504  0.3788  0.5844
 4303SOL    HW224546   3.749   3.915   2.658  1.5302  0.1886 -0.7114
 4304SOL     OW24547   2.215   3.697   2.613  0.5650 -0.5741  0.4397
 4304SOL    HW124548   2.285   3.656   2.561 -0.8449 -2.9791  0.4340
 4304SOL    HW224549   2.132   3.667   2.577  1.3972 -1.9713 -0.3255
 4305SOL     OW24550   0.104   3.547  12.906  0.1488 -0.1484 -0.3736
 4305SOL    HW124551   0.062   3.462  12.894 -0.6548  0.6027 -2.9322
 4305SOL    HW224552   0.110   3.548  13.001 -0.8631 -0.2264 -0.3057
 4306SOL     OW24553   4.403   1.654  12.727  0.6161  0.0551  0.0754
 4306SOL    HW124554   4.308   1.649  12.728  0.6064  0.1162 -0.6595
 4306SOL    HW224555   4.421   1.586  12.792  0.9058 -0.0313 -0.0958
 4307SOL     OW24556   1.838   2.314   7.096 -0.7062  0.5017 -0.7679
 4307SOL    HW124557   1.836   2.323   7.001 -1.8017 -0.5076 -0.8324
 4307SOL    HW224558   1.757   2.362   7.112 -0.2804  1.1883 -0.6406
 4308SOL     OW24559   3.376   2.827   9.163  0.1781  0.2684  0.0114
 4308SOL    HW124560   3.459   2.863   9.194 -0.3763  0.5728  1.1193
 4308SOL    HW224561   3.349   2.898   9.104 -2.4126  0.0591  0.9285
 4309SOL     OW24562   3.858   2.767   7.844  0.0957 -0.8458  0.4756
 4309SOL    HW124563   3.851   2.702   7.774  0.8567  0.4192 -0.7693
 4309SOL    HW224564   3.788   2.830   7.830  1.3469  0.5844  0.6437
 4310SOL     OW24565   2.408   1.234   2.266  0.0604 -0.5986  0.4491
 4310SOL    HW124566   2.473   1.231   2.336  0.2828 -0.4581  0.2496
 4310SOL    HW224567   2.472   1.241   2.196 -1.6493 -2.4918 -1.2891
 4311SOL     OW24568   2.901   3.813   6.030 -0.7114  0.3120  0.2129
 4311SOL    HW124569   2.961   3.808   5.956 -1.2450 -0.8207 -0.1561
 4311SOL    HW224570   2.900   3.721   6.059 -2.0918 -0.8532 -3.5129
 4312SOL     OW24571   3.197   2.161  17.602  0.0581  0.4554  0.1414
 4312SOL    HW124572   3.246   2.079  17.603 -0.1883  0.3320  1.9812
 4312SOL    HW224573   3.208   2.197  17.690 -0.5718  0.1603  0.3450
 4313SOL     OW24574   4.144   1.196   5.027  0.0343  0.2056  0.0314
 4313SOL    HW124575   4.176   1.256   5.094 -1.9298 -0.0042  1.1460
 4313SOL    HW224576   4.136   1.254   4.951  0.3072 -1.1128 -1.0112
 4314SOL     OW24577   2.401   0.503   7.522  0.0905 -0.4796 -0.4294
 4314SOL    HW124578   2.408   0.407   7.519 -3.0931 -0.7167 -0.1152
 4314SOL    HW224579   2.466   0.529   7.587 -0.1033 -2.1807  0.4444
 4315SOL     OW24580   1.218   1.778   2.647  0.1123  0.2298 -0.3590
 4315SOL    HW124581   1.138   1.747   2.603 -0.4590  0.1123  0.7490
 4315SOL    HW224582   1.260   1.697   2.676 -0.0025  0.6307  0.9535
 4316SOL     OW24583   4.000   3.375   6.803  0.0160 -0.1970 -0.2252
 4316SOL    HW124584   4.077   3.431   6.816 -0.4497  0.7636 -1.5985
 4316SOL    HW224585   4.041   3.289   6.815 -6.1605 -2.9521  1.1915
 4317SOL     OW24586   0.823   3.585  14.246 -0.5473  0.1705  0.0088
 4317SOL    HW124587   0.884   3.548  14.182 -0.0428 -0.9651  1.1421
 4317SOL    HW224588   0.882   3.633  14.304 -1.0534  1.2458 -0.3611
 4318SOL     OW24589   3.302   4.102   9.119  0.1281 -0.6290  0.1237
 4318SOL    HW124590   3.374   4.046   9.088 -0.1783 -0.6150 -0.6155
 4318SOL    HW224591   3.240   4.031   9.133 -1.2065  0.2146 -1.4372
 4319SOL     OW24592   0.959   1.683  11.714 -0.0958 -0.2543  0.0496
 4319SOL    HW124593   1.049   1.701  11.741 -0.9662  0.2523  2.6377
 4319SOL    HW224594   0.919   1.765  11.742 -1.7562 -1.4751  1.2676
 4320SOL     OW24595   3.587   0.567   6.244  0.3814  0.9733 -0.3100
 4320SOL    HW124596   3.497   0.548   6.269  0.0383  0.6505 -1.8342
 4320SOL    HW224597   3.569   0.620   6.167  0.2311  0.9111 -0.3176
 4321SOL     OW24598   4.332   3.174   7.097 -0.5578 -0.1433  0.2329
 4321SOL    HW124599   4.405   3.112   7.094 -0.0297  0.4849  0.1010
 4321SOL    HW224600   4.358   3.220   7.177  0.6688  1.1831 -0.9390
 4322SOL     OW24601   3.661   4.068   6.156 -0.2157  0.0428 -0.2734
 4322SOL    HW124602   3.664   3.983   6.199  1.1640  0.8423  1.2059
 4322SOL    HW224603   3.585   4.068   6.098 -1.1469  1.5426  0.9815
 4323SOL     OW24604   3.094   2.683  12.925 -0.0951  0.4276  0.3976
 4323SOL    HW124605   3.135   2.763  12.960  0.6515  0.1010  0.2675
 4323SOL    HW224606   3.004   2.712  12.916  0.0167  0.1157 -1.5868
 4324SOL     OW24607   2.822   1.957   2.857 -0.3081 -0.0689  0.2820
 4324SOL    HW124608   2.828   1.948   2.952 -1.1713  1.1403  0.4442
 4324SOL    HW224609   2.740   1.910   2.839  0.0090 -0.6989  0.4849
 4325SOL     OW24610   3.824   2.270   2.749  0.4099  0.4483 -0.6636
 4325SOL    HW124611   3.896   2.206   2.755  0.0281  0.0140 -0.7548
 4325SOL    HW224612   3.749   2.225   2.787 -0.1621  0.9089 -1.2609
 4326SOL     OW24613   4.699   2.125  17.127  0.5797 -0.0728  0.0125
 4326SOL    HW124614   4.725   2.213  17.099  1.2954  0.7988  3.3668
 4326SOL    HW224615   4.722   2.133  17.220  0.9637 -0.9014 -0.0083
 4327SOL     OW24616   2.421   1.746   6.262  0.8440 -0.4549 -0.4234
 4327SOL    HW124617   2.350   1.691   6.294 -0.6617  0.5921 -2.0069
 4327SOL    HW224618   2.466   1.767   6.344  1.5727 -0.1711 -0.8976
 4328SOL     OW24619   2.053   2.589   4.929 -0.4366  0.6032 -0.1864
 4328SOL    HW124620   2.125   2.629   4.881  0.1225  1.7869  1.6465
 4328SOL    HW224621   2.083   2.498   4.928 -0.5641  0.5467  1.9083
 4329SOL     OW24622   0.697   3.057   2.208  0.6106  0.2516  0.7609
 4329SOL    HW124623   0.676   3.085   2.119 -0.9867 -0.1847  1.0015
 4329SOL    HW224624   0.639   2.981   2.212  0.1074  0.5955 -0.0063
 4330SOL     OW24625   1.043   1.282  14.013 -0.3129  0.1866 -0.8185
 4330SOL    HW124626   1.066   1.228  14.089  0.6663  0.8481 -0.6422
 4330SOL    HW224627   1.023   1.369  14.049  0.6043  0.2137 -0.3538
 4331SOL     OW24628   2.921   4.413   6.941  0.3201 -0.4047  0.1853
 4331SOL    HW124629   2.982   4.422   6.867  0.7619 -0.7902  0.5048
 4331SOL    HW224630   2.865   4.352   6.892 -3.0319  1.1279  2.1014
 4332SOL     OW24631   1.821   4.266  16.495 -0.1383  0.0798 -0.2895
 4332SOL    HW124632   1.827   4.240  16.403 -1.7069 -1.2708 -0.0020
 4332SOL    HW224633   1.755   4.206  16.529 -0.0822 -0.2666 -0.7919
 4333SOL     OW24634   4.183   3.597   1.681  0.0796  0.3890 -0.2877
 4333SOL    HW124635   4.167   3.665   1.617  0.1440 -0.9857 -1.7564
 4333SOL    HW224636   4.269   3.623   1.715  1.1550 -1.0542 -1.9162
 4334SOL     OW24637   1.711   0.174   4.482 -0.3900  0.0235 -0.5808
 4334SOL    HW124638   1.639   0.169   4.419 -0.0071  0.0139 -1.0164
 4334SOL    HW224639   1.702   0.093   4.531  1.0534 -1.1219 -2.2169
 4335SOL     OW24640   2.660   2.650   5.175  0.5935  0.1932  0.0431
 4335SOL    HW124641   2.678   2.558   5.195 -1.6656  0.2434  2.2652
 4335SOL    HW224642   2.589   2.658   5.238  0.0733 -1.4235 -0.3426
 4336SOL     OW24643   1.905   3.150  10.662  0.3438  0.3772 -0.2586
 4336SOL    HW124644   1.995   3.184  10.659  0.3673  0.3302 -0.0819
 4336SOL    HW224645   1.930   3.060  10.641 -1.0522  0.2800 -1.4860
 4337SOL     OW24646   2.760   2.612   7.723 -0.2339  0.0320 -0.2505
 4337SOL    HW124647   2.670   2.643   7.716 -0.4204 -0.8880 -1.7360
 4337SOL    HW224648   2.811   2.693   7.733 -2.8066  1.7763 -1.0507
 4338SOL     OW24649   0.095   3.825   9.471  0.0627  0.9982  0.0226
 4338SOL    HW124650   0.126   3.912   9.444  0.7889  0.2515 -1.5712
 4338SOL    HW224651   0.157   3.771   9.421 -0.4014  0.5802 -0.0956
 4339SOL     OW24652   4.519   0.116  14.606  0.6812  0.3236 -0.5715
 4339SOL    HW124653   4.500   0.204  14.574  0.0146 -0.0338 -1.1498
 4339SOL    HW224654   4.611   0.098  14.586  0.7012  1.6513 -1.6666
 4340SOL     OW24655   4.407   0.117  12.574 -0.4231  0.2325 -0.1507
 4340SOL    HW124656   4.355   0.039  12.590 -1.6933  1.3277  1.0166
 4340SOL    HW224657   4.427   0.146  12.663 -2.1093  1.2063 -0.0910
 4341SOL     OW24658   2.020   3.853   3.686 -0.3243 -0.3125  0.5194
 4341SOL    HW124659   2.043   3.921   3.749 -0.2444 -0.1210  0.2833
 4341SOL    HW224660   2.077   3.875   3.612 -0.1990  0.0470  0.7234
 4342SOL     OW24661   0.424   4.199   1.959 -0.2844  0.3805 -0.1103
 4342SOL    HW124662   0.413   4.132   1.891  1.6914 -0.7350  0.6625
 4342SOL    HW224663   0.474   4.144   2.020 -0.6781  0.6757  0.4718
 4343SOL     OW24664   0.698   4.451   0.131 -0.1958  0.1667  0.0317
 4343SOL    HW124665   0.775   4.459   0.074 -0.0384  1.6563  0.4685
 4343SOL    HW224666   0.635   4.504   0.083  0.8023  1.0475 -0.3209
 4344SOL     OW24667   0.941   0.727   5.880  0.3900 -0.1927 -0.1853
 4344SOL    HW124668   0.855   0.759   5.907  0.9017 -0.6056  1.9460
 4344SOL    HW224669   0.950   0.665   5.952  3.2101  1.2550  0.7410
 4345SOL     OW24670   2.101   4.303  11.824 -0.2082  0.3034  0.0977
 4345SOL    HW124671   2.068   4.387  11.794  1.5310  0.2208 -2.0759
 4345SOL    HW224672   2.126   4.273  11.737  1.7472 -0.1569  0.7969
 4346SOL     OW24673   1.309   1.785   7.317  0.2145  0.2926  0.3209
 4346SOL    HW124674   1.221   1.813   7.294  0.7254  0.6013 -1.2474
 4346SOL    HW224675   1.367   1.842   7.267 -1.0363  0.9062 -0.4165
 4347SOL     OW24676   2.841   0.623   0.241  0.3045  0.0587 -0.2636
 4347SOL    HW124677   2.758   0.666   0.219  0.5696  0.3280 -0.7345
 4347SOL    HW224678   2.816   0.537   0.274  0.1249  0.6252  1.0715
 4348SOL     OW24679   3.579   4.515   9.729 -0.3577 -0.3607 -0.5703
 4348SOL    HW124680   3.539   4.428   9.732 -0.6971 -0.1160  2.7802
 4348SOL    HW224681   3.671   4.496   9.748 -1.3243 -1.2454  3.2755
 4349SOL     OW24682   4.258   3.219  16.790  0.4521  0.3157  0.4407
 4349SOL    HW124683   4.220   3.154  16.731  0.7149 -0.3866  1.0410
 4349SOL    HW224684   4.190   3.242  16.853  1.6346  0.0012  1.8547
 4350SOL     OW24685   4.220   3.171   2.383 -0.4876  0.5234  0.6414
 4350SOL    HW124686   4.143   3.194   2.436  0.7771  0.7770  2.3877
 4350SOL    HW224687   4.228   3.080   2.412 -2.5804 -0.0209 -0.4503
 4351SOL     OW24688   2.443   4.502   7.604 -0.0107  1.2553 -0.4052
 4351SOL    HW124689   2.458   4.408   7.600  1.9570  1.5261  0.4184
 4351SOL    HW224690   2.428   4.523   7.512 -0.8248 -1.3385 -0.8535
 4352SOL     OW24691   1.337   2.089   1.942 -0.4049  0.2626  0.2933
 4352SOL    HW124692   1.325   2.009   1.890 -0.9836  0.6360 -0.1468
 4352SOL    HW224693   1.355   2.150   1.870 -0.7476 -0.4981 -0.4403
 4353SOL     OW24694   4.419   3.849   3.911  0.0165 -0.4537 -0.4725
 4353SOL    HW124695   4.402   3.756   3.927 -3.1587 -0.0090 -1.4055
 4353SOL    HW224696   4.336   3.886   3.882 -0.2597 -0.3883  0.4189
 4354SOL     OW24697   1.724   3.411  10.458 -0.2854 -0.0852  0.1208
 4354SOL    HW124698   1.814   3.379  10.452 -0.5641 -0.9491  0.5858
 4354SOL    HW224699   1.695   3.411  10.366 -0.2309  0.7031  0.0995
 4355SOL     OW24700   0.664   0.506  13.661 -0.3458 -0.1133  0.2056
 4355SOL    HW124701   0.724   0.560  13.712  0.2767 -0.4031 -0.2229
 4355SOL    HW224702   0.621   0.572  13.608 -1.1783  0.4118  1.5236
 4356SOL     OW24703   4.695   0.625   9.159 -0.5932 -0.4313 -0.1271
 4356SOL    HW124704   4.622   0.622   9.222 -1.5912  0.6145 -1.2466
 4356SOL    HW224705   0.017   0.562   9.199 -0.4384 -0.1874  0.0190
 4357SOL     OW24706   1.281   1.530   2.129 -0.3896 -0.0980  0.6185
 4357SOL    HW124707   1.209   1.468   2.120  0.8579 -1.1631 -1.9188
 4357SOL    HW224708   1.366   1.486   2.121  0.1555  0.7601  1.5801
 4358SOL     OW24709   0.240   1.241   7.302  0.3047 -0.5135  0.1329
 4358SOL    HW124710   0.324   1.200   7.322  1.5938  1.2030 -1.7115
 4358SOL    HW224711   0.249   1.273   7.212 -0.9370  2.2812  0.9784
 4359SOL     OW24712   2.896   2.267   1.689  0.1500  0.1307  0.5955
 4359SOL    HW124713   2.989   2.247   1.678 -0.6653 -1.8782 -2.8384
 4359SOL    HW224714   2.867   2.179   1.665 -0.8318  0.8329 -0.7918
 4360SOL     OW24715   2.655   1.384   8.105 -0.4250  0.2901 -0.3360
 4360SOL    HW124716   2.679   1.412   8.193  1.4529  0.5223 -0.9387
 4360SOL    HW224717   2.653   1.465   8.054  2.8509  1.4954  1.5005
 4361SOL     OW24718   1.320   2.694   2.684 -0.2413 -0.5293  0.0409
 4361SOL    HW124719   1.407   2.654   2.682 -0.3926 -0.7524 -2.8005
 4361SOL    HW224720   1.307   2.684   2.590 -0.7664 -1.0882  0.1715
 4362SOL     OW24721   3.284   2.679   3.734 -0.1556 -0.3692  0.2476
 4362SOL    HW124722   3.215   2.741   3.709  0.2141  0.4603  1.2623
 4362SOL    HW224723   3.241   2.610   3.784  1.0293  0.8485  2.9590
 4363SOL     OW24724   3.835   0.244  10.778 -0.3464  0.1271  0.4495
 4363SOL    HW124725   3.797   0.213  10.860 -1.5781 -0.6193 -0.3922
 4363SOL    HW224726   3.813   0.168  10.725 -1.6798  1.4198 -0.8858
 4364SOL     OW24727   1.081   0.265   8.634 -0.1398 -0.0504  0.2653
 4364SOL    HW124728   1.157   0.292   8.685  0.0908 -0.4988  0.1597
 4364SOL    HW224729   1.111   0.225   8.553 -0.8148  0.7399 -0.3811
 4365SOL     OW24730   2.058   1.734  10.320 -0.0160  0.1126 -0.4802
 4365SOL    HW124731   1.971   1.770  10.301  0.5980  1.7336 -0.1773
 4365SOL    HW224732   2.048   1.689  10.404 -1.7656 -1.1085 -1.3494
 4366SOL     OW24733   0.283   3.707  10.131  0.0623  0.2916  0.0244
 4366SOL    HW124734   0.279   3.654  10.051  1.1782 -2.9348  2.0797
 4366SOL    HW224735   0.236   3.643  10.185  0.8315  0.2115  0.6057
 4367SOL     OW24736   4.477   1.363   3.894  0.3998 -0.3162 -0.1797
 4367SOL    HW124737   4.500   1.442   3.847 -0.2762  0.4126  0.7205
 4367SOL    HW224738   4.475   1.307   3.816 -0.8936 -1.0102  0.3355
 4368SOL     OW24739   1.556   3.843   9.424  0.0334  0.2993 -0.2946
 4368SOL    HW124740   1.475   3.852   9.473 -1.7657 -2.0276 -2.8755
 4368SOL    HW224741   1.589   3.762   9.463  0.8465  0.7548 -0.0195
 4369SOL     OW24742   4.683   1.988  12.184 -0.0175 -0.1876  0.2707
 4369SOL    HW124743   4.677   1.894  12.168 -1.9967 -0.2568  1.3885
 4369SOL    HW224744   0.015   1.991  12.249 -0.3122 -1.4300  0.6500
 4370SOL     OW24745   0.325   3.966  10.256 -0.2829  0.4070  0.3445
 4370SOL    HW124746   0.331   3.870  10.259  2.2246  0.5219 -1.3967
 4370SOL    HW224747   0.235   3.984  10.228 -0.6317  1.1849  1.9693
 4371SOL     OW24748   1.976   1.445   5.786  0.2471  0.0339 -0.2655
 4371SOL    HW124749   1.895   1.395   5.775 -1.3689  2.5808 -0.1447
 4371SOL    HW224750   2.004   1.437   5.694 -0.7500  0.0556 -0.5725
 4372SOL     OW24751   0.153   4.170   3.186 -0.0838 -0.3057  0.5799
 4372SOL    HW124752   0.165   4.075   3.183  2.1542  0.0553 -1.2919
 4372SOL    HW224753   0.204   4.198   3.110 -0.3573 -0.8939  0.1859
 4373SOL     OW24754   0.684   1.851   9.430  0.0039 -0.3518 -0.7899
 4373SOL    HW124755   0.689   1.939   9.392 -0.3103  0.9071  2.0608
 4373SOL    HW224756   0.630   1.800   9.370  0.0489 -0.9290 -0.3418
 4374SOL     OW24757   2.099   3.368  13.393 -0.1233 -0.2145  0.3230
 4374SOL    HW124758   2.151   3.341  13.469 -0.1088  0.8024  0.6757
 4374SOL    HW224759   2.040   3.436  13.425  0.6083  0.7076 -0.3083
 4375SOL     OW24760   1.902   0.719   9.569 -0.3409  0.9455 -0.3386
 4375SOL    HW124761   1.818   0.727   9.614  0.8773  0.6292  1.9511
 4375SOL    HW224762   1.951   0.797   9.593  0.8146 -0.0717  0.5716
 4376SOL     OW24763   4.522   2.978   3.612 -0.1447  0.4125  0.4090
 4376SOL    HW124764   4.593   2.920   3.583 -3.7329 -1.9015 -3.6868
 4376SOL    HW224765   4.564   3.062   3.632 -0.3708  1.0070 -1.6035
 4377SOL     OW24766   3.190   3.453   9.296 -0.2173  0.4442  0.5979
 4377SOL    HW124767   3.229   3.390   9.237 -1.6674  1.1287 -1.1148
 4377SOL    HW224768   3.264   3.512   9.310 -0.5332  1.2377 -1.0927
 4378SOL     OW24769   1.489   3.061   4.279 -0.0413  0.2926  0.3895
 4378SOL    HW124770   1.448   3.142   4.309  0.5198  1.3564 -1.7688
 4378SOL    HW224771   1.421   3.037   4.216 -0.4119  3.1561 -0.3119
 4379SOL     OW24772   1.370   1.366  10.455  0.2729  0.7347  0.2874
 4379SOL    HW124773   1.304   1.431  10.427 -1.0870 -0.7696  0.0294
 4379SOL    HW224774   1.411   1.328  10.377  0.0405  0.4265  0.3178
 4380SOL     OW24775   3.399   2.891  17.717  0.5714  0.7333  0.5128
 4380SOL    HW124776   3.484   2.847  17.719  0.6238  0.8304  0.4499
 4380SOL    HW224777   3.415   2.974   0.009  1.3758  0.1408  1.3221
 4381SOL     OW24778   0.154   1.921  12.347  0.1859 -1.1663 -0.0142
 4381SOL    HW124779   0.143   1.937  12.441 -0.5439  0.1477 -0.3184
 4381SOL    HW224780   0.232   1.973  12.329  0.3046 -0.6646  1.9091
 4382SOL     OW24781   0.060   3.950   5.765  0.2935 -0.9559  0.1856
 4382SOL    HW124782   0.022   3.905   5.840 -0.9844 -1.2202 -0.6238
 4382SOL    HW224783   0.151   3.921   5.756  0.6911 -0.1660  1.6007
 4383SOL     OW24784   2.667   3.719   6.384  0.4921 -0.4188  0.8877
 4383SOL    HW124785   2.731   3.779   6.345 -0.5461 -0.3949 -0.7461
 4383SOL    HW224786   2.733   3.668   6.430  1.6848  0.6515  0.3792
 4384SOL     OW24787   0.997   2.355   9.051 -0.0582 -0.3109 -0.1618
 4384SOL    HW124788   0.932   2.403   8.999  1.4723  1.4981 -0.4067
 4384SOL    HW224789   1.073   2.414   9.053  1.5105 -2.3247  0.1105
 4385SOL     OW24790   0.954   2.319   6.551  0.0271  0.1564  0.0396
 4385SOL    HW124791   1.013   2.247   6.530  0.8561  0.4660  1.3368
 4385SOL    HW224792   1.020   2.383   6.578 -0.2662  0.9460 -1.1395
 4386SOL     OW24793   1.321   0.696   8.284 -0.2234  0.1389  0.3273
 4386SOL    HW124794   1.367   0.766   8.330 -0.5838 -0.6113  1.8536
 4386SOL    HW224795   1.296   0.633   8.352  0.6549 -1.1040 -0.4891
 4387SOL     OW24796   2.797   3.052   5.005 -0.1837 -0.7259  0.2094
 4387SOL    HW124797   2.824   3.113   5.073  1.0120  0.4686 -1.3472
 4387SOL    HW224798   2.707   3.084   5.001 -0.4427 -1.4530  0.1836
 4388SOL     OW24799   2.888   0.298   7.747  0.0475 -0.2710 -0.0919
 4388SOL    HW124800   2.915   0.207   7.759  0.1027  0.0133  1.8750
 4388SOL    HW224801   2.952   0.318   7.678  2.0369  1.4357  2.2002
 4389SOL     OW24802   3.673   1.650   4.096 -0.0905  0.5088  0.3396
 4389SOL    HW124803   3.705   1.604   4.174  0.2041 -0.2678 -0.2447
 4389SOL    HW224804   3.753   1.675   4.051  0.0218  1.8186  1.2808
 4390SOL     OW24805   3.492   3.080  13.869  0.2120  1.0384  0.0505
 4390SOL    HW124806   3.489   3.159  13.923  0.4682  1.7131 -0.9257
 4390SOL    HW224807   3.445   3.020  13.928  0.5647 -0.1326 -0.8762
 4391SOL     OW24808   1.588   0.247   0.320 -0.0998  0.1218 -0.2113
 4391SOL    HW124809   1.521   0.275   0.383  0.5149 -0.0272  0.5163
 4391SOL    HW224810   1.644   0.197   0.380 -1.0192  0.2429  0.7416
 4392SOL     OW24811   1.784   3.769   1.526 -0.1535 -0.1624  0.1807
 4392SOL    HW124812   1.700   3.756   1.480 -0.6523  1.1158  0.7171
 4392SOL    HW224813   1.766   3.853   1.568  0.4260 -0.8180  1.7366
 4393SOL     OW24814   0.138   2.307  13.653  0.5050  0.2033 -0.4930
 4393SOL    HW124815   0.159   2.400  13.650 -0.1303  0.4035  1.2605
 4393SOL    HW224816   0.123   2.297  13.559  1.9962  2.0008 -0.9215
 4394SOL     OW24817   3.075   1.241   2.938 -0.8968  0.4820 -0.1226
 4394SOL    HW124818   3.119   1.159   2.917 -0.3362  1.0463 -1.1475
 4394SOL    HW224819   3.155   1.293   2.942 -0.7890  0.3386 -0.4211
 4395SOL     OW24820   3.652   0.635   6.911 -0.4480  0.2481  0.2376
 4395SOL    HW124821   3.625   0.715   6.956 -0.0448  0.9141 -0.7085
 4395SOL    HW224822   3.597   0.568   6.951 -2.5172  1.5831 -0.3799
 4396SOL     OW24823   4.493   0.714   2.554 -0.4036 -0.3551 -0.2560
 4396SOL    HW124824   4.578   0.692   2.516 -1.0521 -0.2252 -1.7634
 4396SOL    HW224825   4.447   0.631   2.562  0.9846 -1.1379 -0.3650
 4397SOL     OW24826   3.674   4.211   2.749 -0.1991  0.2470  0.6028
 4397SOL    HW124827   3.725   4.140   2.786 -0.2866 -0.8735 -1.4540
 4397SOL    HW224828   3.719   4.283   2.793  2.0873 -1.9223  1.7608
 4398SOL     OW24829   2.805   2.248   6.113  0.3364 -0.1503  0.0427
 4398SOL    HW124830   2.742   2.283   6.176 -0.3804 -0.1892 -0.6563
 4398SOL    HW224831   2.886   2.257   6.164  0.2503 -0.2125  0.1891
 4399SOL     OW24832   3.880   0.946   8.999  0.1247 -0.5657 -0.0151
 4399SOL    HW124833   3.971   0.918   9.002  1.0114  2.1381 -1.5594
 4399SOL    HW224834   3.834   0.867   9.029 -0.6188  0.0064  0.3759
 4400SOL     OW24835   2.049   4.127   9.183  0.4852 -0.4783 -0.0484
 4400SOL    HW124836   1.997   4.100   9.107 -1.0668  2.3241 -0.0121
 4400SOL    HW224837   2.136   4.111   9.146  0.7029 -0.9539  0.6818
 4401SOL     OW24838   0.507   0.991   8.769 -0.3100  0.5191 -0.5307
 4401SOL    HW124839   0.471   1.046   8.699  2.7934  3.3773  0.1300
 4401SOL    HW224840   0.602   1.000   8.759 -0.3313  0.2166 -1.0165
 4402SOL     OW24841   0.456   3.064  12.019  0.0398 -0.7909  0.1092
 4402SOL    HW124842   0.443   3.157  12.004  2.7184 -0.5574 -0.6772
 4402SOL    HW224843   0.460   3.058  12.115 -2.3374 -0.7894  0.2098
 4403SOL     OW24844   0.797   2.796   6.506  0.2030  0.3568 -0.3368
 4403SOL    HW124845   0.817   2.705   6.485  0.5958  0.4597 -0.4089
 4403SOL    HW224846   0.716   2.777   6.553 -0.4641  1.5158 -1.0330
 4404SOL     OW24847   0.422   1.565   5.920 -0.4316  0.6436 -0.1993
 4404SOL    HW124848   0.507   1.527   5.942 -0.9011  1.3051  2.7344
 4404SOL    HW224849   0.364   1.508   5.969  0.1200  1.3047  1.2232
 4405SOL     OW24850   2.779   2.096   0.634  0.0926 -0.2175  0.6341
 4405SOL    HW124851   2.771   2.059   0.546  1.1797  0.1822  0.3677
 4405SOL    HW224852   2.826   2.020   0.668 -1.6939 -0.4588  2.5904
 4406SOL     OW24853   4.326   1.483   0.937 -0.0295  0.3903  0.2529
 4406SOL    HW124854   4.413   1.456   0.965  0.3536  0.3944 -0.9022
 4406SOL    HW224855   4.294   1.513   1.022 -2.3117 -0.3326 -0.3496
 4407SOL     OW24856   2.757   2.772   2.807 -0.2370 -0.0314 -0.0342
 4407SOL    HW124857   2.722   2.827   2.737  0.6128  0.0461 -0.3898
 4407SOL    HW224858   2.825   2.833   2.836 -0.8375  0.6759 -0.1101
 4408SOL     OW24859   0.543   2.857   7.317 -0.3318  0.3464 -0.0258
 4408SOL    HW124860   0.601   2.797   7.363  0.8975 -0.2914 -2.3887
 4408SOL    HW224861   0.557   2.834   7.225 -2.0212 -0.0949 -0.1848
 4409SOL     OW24862   0.906   0.456   9.637  0.5386  0.1587 -0.6642
 4409SOL    HW124863   0.858   0.445   9.719  0.5072  2.1054 -0.4347
 4409SOL    HW224864   0.882   0.544   9.610 -1.1368 -0.0846  0.0632
 4410SOL     OW24865   0.172   0.814   4.792  0.2892  0.4283 -0.5580
 4410SOL    HW124866   0.158   0.851   4.705  1.3249  0.6710 -0.6296
 4410SOL    HW224867   0.250   0.863   4.820  1.8648 -2.6736  0.5318
 4411SOL     OW24868   0.596   1.882   2.422  1.0334  0.5287 -0.1055
 4411SOL    HW124869   0.540   1.881   2.344  1.6717  2.1834 -0.5832
 4411SOL    HW224870   0.657   1.809   2.408  2.0769  1.4390 -0.3370
 4412SOL     OW24871   3.088   1.540   8.033  0.7668  0.4620 -0.4008
 4412SOL    HW124872   3.002   1.580   8.038  1.6150  2.1010  1.0723
 4412SOL    HW224873   3.129   1.572   8.114 -1.1034  2.1035 -0.1128
 4413SOL     OW24874   1.073   3.240   8.589  0.2654  0.4306  0.0179
 4413SOL    HW124875   1.069   3.152   8.552 -0.7591 -0.4686  2.2217
 4413SOL    HW224876   1.150   3.278   8.547 -0.5267  0.9170 -0.9822
 4414SOL     OW24877   2.267   3.411   4.972 -0.2051  0.2831 -0.4798
 4414SOL    HW124878   2.188   3.432   5.022  1.5256  0.3227  2.1746
 4414SOL    HW224879   2.266   3.315   4.971 -1.0645  0.2637  1.6996
 4415SOL     OW24880   2.877   2.725   3.460 -0.0725  0.1857 -0.1732
 4415SOL    HW124881   2.830   2.801   3.426 -2.2370 -0.6215  1.0228
 4415SOL    HW224882   2.890   2.675   3.379  0.1666 -1.7777  1.0751
 4416SOL     OW24883   0.628   4.585   5.599  0.1314  0.2183  0.3086
 4416SOL    HW124884   0.674   4.561   5.518 -0.6909  0.0235 -0.1043
 4416SOL    HW224885   0.671   4.530   5.664  1.1595  1.1758  0.4296
 4417SOL     OW24886   0.353   3.665   5.470 -0.3959 -0.4122  0.4712
 4417SOL    HW124887   0.416   3.658   5.541  0.3481 -2.1733 -0.3717
 4417SOL    HW224888   0.302   3.584   5.472 -0.7483 -0.1837  0.8882
 4418SOL     OW24889   2.495   0.211   6.661  0.0635  0.4875  0.7319
 4418SOL    HW124890   2.508   0.295   6.706 -1.7145  1.2651 -0.2182
 4418SOL    HW224891   2.401   0.193   6.659  0.0338  0.6515  0.5900
 4419SOL     OW24892   4.115   4.453   2.538 -0.4906  0.0698 -0.4862
 4419SOL    HW124893   4.079   4.538   2.563 -0.3472 -0.2985  0.9829
 4419SOL    HW224894   4.043   4.404   2.500 -1.4956  1.2555 -0.1039
 4420SOL     OW24895   2.265   3.893  12.467 -0.1176  0.0242 -0.0167
 4420SOL    HW124896   2.342   3.847  12.434 -0.9937 -1.7776  0.4154
 4420SOL    HW224897   2.304   3.958  12.525  1.9799 -1.5772  0.3370
 4421SOL     OW24898   3.388   2.878   6.261  0.3105  0.0187 -0.4172
 4421SOL    HW124899   3.453   2.943   6.289 -0.7264  0.8359  0.0608
 4421SOL    HW224900   3.355   2.912   6.178 -2.9019 -0.6766  0.5908
 4422SOL     OW24901   2.791   4.261   6.743  0.1494 -0.0275 -0.3406
 4422SOL    HW124902   2.839   4.228   6.667  1.1509 -1.5005  0.9390
 4422SOL    HW224903   2.699   4.253   6.719  0.4903 -0.6789 -1.4359
 4423SOL     OW24904   4.569   1.868   3.804 -0.5325  0.1004 -0.0562
 4423SOL    HW124905   4.541   1.902   3.889  2.0229 -2.2490  1.7227
 4423SOL    HW224906   4.573   1.951   3.756  2.0776 -0.2990 -0.5166
 4424SOL     OW24907   3.772   1.015  10.937 -0.0523  0.4602  0.2678
 4424SOL    HW124908   3.803   0.962  10.864  1.0349 -0.9433  1.7466
 4424SOL    HW224909   3.677   1.008  10.927  0.4919 -2.7722 -2.8097
 4425SOL     OW24910   0.190   1.625  17.476  0.2566  0.1203  0.0447
 4425SOL    HW124911   0.189   1.706  17.527 -0.7060  0.2389 -0.1573
 4425SOL    HW224912   0.185   1.563  17.549  4.0334 -0.2282  0.0267
 4426SOL     OW24913   0.508   4.713   2.963 -0.5535  0.2693  0.6225
 4426SOL    HW124914   0.424   4.729   2.920  1.0310 -1.2006 -3.0117
 4426SOL    HW224915   0.471   4.652   3.027  0.7964 -1.1265  0.0703
 4427SOL     OW24916   3.392   0.023   7.116  0.1397  0.2810 -0.1000
 4427SOL    HW124917   3.400   4.669   7.139  1.9847  0.4812  0.0707
 4427SOL    HW224918   3.484   0.049   7.117  0.4057 -0.6369 -0.8050
 4428SOL     OW24919   2.931   2.951   4.299 -0.1506 -0.7953 -0.1448
 4428SOL    HW124920   2.915   2.990   4.385  2.5892  1.1594 -0.5534
 4428SOL    HW224921   2.979   3.023   4.259  0.7917 -1.0308  0.5669
 4429SOL     OW24922   2.930   0.287   9.261  0.4140 -0.4860  0.2736
 4429SOL    HW124923   2.902   0.202   9.226  0.0567 -0.5274  0.6675
 4429SOL    HW224924   2.864   0.343   9.220  1.5307  1.0086  0.5440
 4430SOL     OW24925   0.003   0.926   2.239 -0.0169 -0.1093 -0.5537
 4430SOL    HW124926   4.725   0.940   2.145  0.2730 -0.0721 -0.5982
 4430SOL    HW224927   0.031   0.836   2.227 -0.6741 -0.5449  1.1587
 4431SOL     OW24928   0.055   2.625   0.425 -0.2947 -0.3538  0.0739
 4431SOL    HW124929   0.011   2.539   0.424  0.5459 -0.7508 -2.3985
 4431SOL    HW224930   0.143   2.592   0.439 -0.5360 -0.4725  1.2537
 4432SOL     OW24931   0.443   4.604   7.967  0.3000  0.0503  0.2455
 4432SOL    HW124932   0.391   4.547   7.911  0.6325  2.5542 -2.6576
 4432SOL    HW224933   0.408   4.690   7.942  0.9360  0.4373  0.6744
 4433SOL     OW24934   1.571   1.835  11.072 -0.0811  0.1368  0.0044
 4433SOL    HW124935   1.618   1.890  11.010  1.2432 -1.2031 -0.1788
 4433SOL    HW224936   1.618   1.752  11.081  0.8530  0.7836  1.1319
 4434SOL     OW24937   3.547   3.679   6.217 -0.4912  0.3716  0.4869
 4434SOL    HW124938   3.546   3.614   6.147 -0.0859  0.1775  0.6599
 4434SOL    HW224939   3.636   3.658   6.244 -0.1377 -0.8811 -1.6363
 4435SOL     OW24940   4.666   3.877  15.389 -0.2707 -0.6651 -0.3179
 4435SOL    HW124941   4.720   3.855  15.313 -0.2171 -2.1393  0.1577
 4435SOL    HW224942   4.588   3.906  15.340  1.4713  2.9085 -1.0102
 4436SOL     OW24943   0.063   1.558   5.827  0.2797  0.3477 -0.0809
 4436SOL    HW124944   0.122   1.529   5.897  0.2200  0.0240 -0.1653
 4436SOL    HW224945   4.719   1.526   5.863  1.5714 -2.0167  0.7674
 4437SOL     OW24946   0.864   2.281  15.531  0.0525 -0.0134 -0.4789
 4437SOL    HW124947   0.892   2.203  15.580  0.9970  0.5053 -0.1850
 4437SOL    HW224948   0.853   2.347  15.599 -1.4753  0.0455 -0.7824
 4438SOL     OW24949   0.817   0.912  15.860 -0.5079 -0.2299 -0.5649
 4438SOL    HW124950   0.753   0.949  15.799 -0.3850  0.5380 -0.2256
 4438SOL    HW224951   0.843   0.829  15.819  1.3192 -0.3564  0.8247
 4439SOL     OW24952   3.515   3.849   4.139  0.0405 -0.1966 -0.1603
 4439SOL    HW124953   3.466   3.908   4.082  1.3878  0.9149 -0.1769
 4439SOL    HW224954   3.475   3.768   4.107  1.2495  0.9432 -4.5563
 4440SOL     OW24955   0.854   0.537   3.480  0.5103 -0.3023 -0.5557
 4440SOL    HW124956   0.780   0.577   3.435 -0.0150 -0.5509  0.0762
 4440SOL    HW224957   0.902   0.493   3.410  0.7842 -0.3992 -0.3078
 4441SOL     OW24958   0.416   3.400   1.793 -0.5511 -0.2699  0.1771
 4441SOL    HW124959   0.404   3.487   1.754  1.5952 -0.1004 -0.1151
 4441SOL    HW224960   0.494   3.364   1.751 -0.4286  0.1181  0.0704
 4442SOL     OW24961   3.510   3.127   8.733 -0.1473  0.6346  0.2013
 4442SOL    HW124962   3.569   3.053   8.747 -2.3523 -1.2759 -0.5381
 4442SOL    HW224963   3.550   3.204   8.771  1.5494 -0.6742  1.0565
 4443SOL     OW24964   2.252   1.661   8.735  0.5477  0.1391 -0.9383
 4443SOL    HW124965   2.321   1.600   8.762 -0.3653  0.2734  1.7151
 4443SOL    HW224966   2.266   1.742   8.785 -0.5890 -0.0003 -0.3974
 4444SOL     OW24967   1.866   0.304   4.669 -0.3864  0.6667 -0.3935
 4444SOL    HW124968   1.830   0.254   4.596  1.9436 -1.9844  0.2385
 4444SOL    HW224969   1.955   0.335   4.652  0.1908 -0.0648  1.2496
 4445SOL     OW24970   0.091   1.994   3.982 -0.2020  0.5353 -0.0115
 4445SOL    HW124971   0.068   1.901   3.980  1.2493  0.1544  0.9186
 4445SOL    HW224972   0.061   2.012   4.071 -1.5338 -3.1574  0.2965
 4446SOL     OW24973   3.438   2.139  12.378  0.1680 -0.3009 -0.3136
 4446SOL    HW124974   3.522   2.148  12.423  0.2797 -1.4098 -0.3061
 4446SOL    HW224975   3.438   2.054  12.336  1.0171 -0.4355 -0.0456
 4447SOL     OW24976   3.102   2.170   6.170 -0.1660 -0.3583 -0.1531
 4447SOL    HW124977   3.179   2.226   6.170 -0.3529 -0.0950  1.8571
 4447SOL    HW224978   3.137   2.089   6.134  0.1660  0.4837 -1.7168
 4448SOL     OW24979   2.696   2.922   6.566 -0.2148 -0.2346  0.1311
 4448SOL    HW124980   2.715   2.877   6.483  2.6945  1.2906 -0.0089
 4448SOL    HW224981   2.683   2.854   6.632 -0.4266 -0.2543  0.0697
 4449SOL     OW24982   0.560   3.139   8.494  0.1653  0.1722 -0.2229
 4449SOL    HW124983   0.509   3.164   8.571 -1.0613 -1.1025 -0.6240
 4449SOL    HW224984   0.563   3.226   8.454  0.7528  0.4522  0.4227
 4450SOL     OW24985   4.652   1.083   3.351 -0.8118  0.2752  0.5142
 4450SOL    HW124986   4.639   1.024   3.425 -1.4971 -0.7247 -0.3972
 4450SOL    HW224987   4.637   1.022   3.278 -2.4641  1.3239 -0.0235
 4451SOL     OW24988   3.956   4.357   3.225 -0.2263  0.0196  0.7049
 4451SOL    HW124989   3.950   4.274   3.178 -0.3426 -0.7257  2.0258
 4451SOL    HW224990   3.866   4.390   3.216 -0.3908 -0.2164  1.4035
 4452SOL     OW24991   0.235   1.304   7.037  0.1514 -0.2903  0.2606
 4452SOL    HW124992   0.187   1.372   6.989  1.6115  0.0816 -0.6653
 4452SOL    HW224993   0.254   1.234   6.974  1.6203  1.3179 -1.0753
 4453SOL     OW24994   2.703   0.318   5.875 -0.7099 -0.1429 -0.4677
 4453SOL    HW124995   2.625   0.324   5.929  0.2978  1.7546  0.7863
 4453SOL    HW224996   2.684   0.243   5.819 -0.0763 -0.2530 -0.5354
 4454SOL     OW24997   2.596   1.908   3.225  0.4544 -0.0990  0.1470
 4454SOL    HW124998   2.678   1.929   3.180  1.1076 -0.6357  1.1102
 4454SOL    HW224999   2.588   1.813   3.233 -0.6799 -0.1095 -1.0812
 4455SOL     OW25000   3.284   3.941   7.546 -0.0987 -0.3757  0.2246
 4455SOL    HW125001   3.211   3.981   7.592 -0.4290  0.4885 -1.0447
 4455SOL    HW225002   3.269   3.973   7.457 -0.2925  1.1012  0.7899
 4456SOL     OW25003   1.767   1.555   8.595  0.8142 -0.3017 -0.5683
 4456SOL    HW125004   1.856   1.528   8.620  1.0992  0.4238 -0.7670
 4456SOL    HW225005   1.746   1.476   8.545 -1.8453  1.3022 -1.9847
 4457SOL     OW25006   3.741   1.711   9.039 -0.0061  0.1307  0.1342
 4457SOL    HW125007   3.711   1.624   9.065 -0.0400 -0.2439 -1.1874
 4457SOL    HW225008   3.787   1.727   9.122  0.5962  1.0369 -0.3692
 4458SOL     OW25009   0.193   1.502   0.659 -0.3536 -0.5668  0.1557
 4458SOL    HW125010   0.174   1.428   0.718 -0.0249 -0.5189  0.3238
 4458SOL    HW225011   0.240   1.457   0.589  0.3891  0.2449  0.1392
 4459SOL     OW25012   2.524   3.343   4.311  0.3382  0.2210  0.6343
 4459SOL    HW125013   2.600   3.344   4.369  0.1861 -0.9381  0.8609
 4459SOL    HW225014   2.512   3.438   4.303 -2.5806 -0.2510 -0.5938
 4460SOL     OW25015   2.561   3.495  15.281  0.0341  0.1852  0.7878
 4460SOL    HW125016   2.651   3.467  15.300  0.0627 -1.0324 -1.1506
 4460SOL    HW225017   2.556   3.575  15.334  3.0374  1.6064 -1.0232
 4461SOL     OW25018   0.888   3.954   7.187 -0.0021 -0.5907  0.0818
 4461SOL    HW125019   0.818   4.016   7.169 -2.3843 -3.7646 -1.7077
 4461SOL    HW225020   0.962   4.011   7.207 -1.8409  1.7737  0.0201
 4462SOL     OW25021   0.428   4.281  13.697 -0.3148 -0.3220 -0.0774
 4462SOL    HW125022   0.490   4.235  13.641 -0.5233  0.0128 -0.5808
 4462SOL    HW225023   0.459   4.370  13.686 -2.2617  0.8354  3.7311
 4463SOL     OW25024   3.788   1.485  10.241  0.0172 -0.1536  0.2894
 4463SOL    HW125025   3.706   1.527  10.215  1.1041  1.5215 -0.4172
 4463SOL    HW225026   3.754   1.419  10.301 -2.7092  0.7727 -0.2271
 4464SOL     OW25027   1.065   1.779   7.733 -0.4856 -0.0881 -0.3953
 4464SOL    HW125028   1.122   1.752   7.806 -1.0275  1.4574  0.5899
 4464SOL    HW225029   1.128   1.801   7.664  1.9056 -0.7333  1.5500
 4465SOL     OW25030   0.127   0.597   6.045 -0.1147  0.3741 -0.5815
 4465SOL    HW125031   0.195   0.584   6.111 -1.4738  0.3667  0.8142
 4465SOL    HW225032   0.159   0.550   5.968  1.1933  1.9069 -0.9580
 4466SOL     OW25033   0.627   0.959   3.146 -0.0359  0.2549  0.3157
 4466SOL    HW125034   0.582   0.915   3.074 -2.0724  0.8096  1.2391
 4466SOL    HW225035   0.703   0.994   3.101 -0.5463 -1.6417 -2.0006
 4467SOL     OW25036   4.650   3.814   4.501  0.2553 -0.0843  0.5443
 4467SOL    HW125037   4.629   3.906   4.515 -1.6381 -0.5856  0.9099
 4467SOL    HW225038   4.713   3.821   4.429 -1.6766 -2.8193 -1.3978
 4468SOL     OW25039   3.321   2.997   2.452  0.1070 -0.0647 -0.0809
 4468SOL    HW125040   3.405   2.968   2.416 -0.3564  0.0658 -1.2683
 4468SOL    HW225041   3.265   2.997   2.375 -1.0943  0.1725  0.7875
 4469SOL     OW25042   4.704   4.618   1.230 -0.3506  0.2351  0.1935
 4469SOL    HW125043   4.616   4.583   1.244 -0.2052 -0.0200  0.4444
 4469SOL    HW225044   4.684   4.708   1.201  0.4760  0.5444  0.5944
 4470SOL     OW25045   3.897   2.567  10.288  0.5973  0.5181  0.3895
 4470SOL    HW125046   3.900   2.565  10.383  1.5088  0.7720  0.3685
 4470SOL    HW225047   3.833   2.637  10.275  1.5694  1.7385  2.1155
 4471SOL     OW25048   3.260   4.528   4.403 -0.2616 -0.4377  0.4880
 4471SOL    HW125049   3.223   4.547   4.317  0.1129 -1.9530 -0.0145
 4471SOL    HW225050   3.267   4.433   4.391 -1.6054 -0.3283 -1.2366
 4472SOL     OW25051   4.129   3.933   3.106 -0.5809  0.3157  0.2510
 4472SOL    HW125052   4.100   3.850   3.068  0.7274 -0.3085  0.6003
 4472SOL    HW225053   4.219   3.908   3.127 -0.5285 -0.2714 -0.6828
 4473SOL     OW25054   2.822   0.475   3.113  0.6002  0.3728  0.3714
 4473SOL    HW125055   2.890   0.518   3.165  0.0430  1.2372  0.3702
 4473SOL    HW225056   2.810   0.542   3.045 -1.7630 -2.0446 -1.5974
 4474SOL     OW25057   2.575   4.595   8.319 -0.2334 -0.2603 -0.3345
 4474SOL    HW125058   2.590   4.505   8.346  0.9192  1.1276  3.6510
 4474SOL    HW225059   2.637   4.604   8.246  1.0612 -2.2702  0.5413
 4475SOL     OW25060   3.083   2.622   8.761  0.2360 -0.0477 -0.1592
 4475SOL    HW125061   3.147   2.687   8.734 -2.1910  1.6902 -1.7491
 4475SOL    HW225062   3.122   2.578   8.837  1.6157  3.4232  1.1240
 4476SOL     OW25063   1.999   0.944   6.276 -0.0592  0.1794  0.5808
 4476SOL    HW125064   2.044   0.875   6.226  0.2136 -0.0806  1.1808
 4476SOL    HW225065   2.043   1.023   6.245 -0.2206  0.0677  0.0649
 4477SOL     OW25066   2.902   0.864   1.955  0.0573 -0.0308  0.1240
 4477SOL    HW125067   2.978   0.919   1.972 -0.3567  0.9005 -0.9970
 4477SOL    HW225068   2.848   0.930   1.911 -0.9883  0.8684  2.7709
 4478SOL     OW25069   1.612   0.743  11.181  0.7476  0.1657  0.0782
 4478SOL    HW125070   1.628   0.834  11.207  1.1791  0.1289 -0.0488
 4478SOL    HW225071   1.634   0.691  11.258  0.4820  1.2640  0.9046
 4479SOL     OW25072   4.530   2.189   3.279 -0.1244 -0.1454 -0.6948
 4479SOL    HW125073   4.490   2.255   3.336 -2.0418 -2.5892  0.8176
 4479SOL    HW225074   4.577   2.240   3.214 -1.1562  1.2737 -0.3164
 4480SOL     OW25075   4.723   0.461   4.671 -0.3888 -0.1516  0.2232
 4480SOL    HW125076   4.641   0.485   4.713 -0.5902 -0.5245  0.0406
 4480SOL    HW225077   0.050   0.490   4.735 -0.0379 -2.2270  0.7989
 4481SOL     OW25078   0.922   2.988  10.428 -0.3704 -0.3125  0.4146
 4481SOL    HW125079   0.876   3.048  10.486  0.2169  0.4635  0.0743
 4481SOL    HW225080   0.982   2.959  10.497  0.8428 -0.9098 -0.8785
 4482SOL     OW25081   3.170   1.329  14.463  0.3216 -0.3571 -0.4307
 4482SOL    HW125082   3.221   1.410  14.461  0.2954 -0.3542 -1.0514
 4482SOL    HW225083   3.104   1.352  14.529 -0.0397 -1.5289 -0.3647
 4483SOL     OW25084   0.421   2.199   6.195 -0.3087 -0.7333 -0.4324
 4483SOL    HW125085   0.408   2.289   6.168  1.9622 -0.9304 -2.2112
 4483SOL    HW225086   0.499   2.191   6.140 -1.8385  2.0256 -2.9827
 4484SOL     OW25087   0.410   3.211   7.555 -0.5962  0.1510  0.2856
 4484SOL    HW125088   0.376   3.157   7.484  0.3142  0.5824 -0.4718
 4484SOL    HW225089   0.376   3.299   7.539  1.5295  1.4268  2.7776
 4485SOL     OW25090   3.188   0.899   9.863 -0.4391 -0.2854  0.6933
 4485SOL    HW125091   3.152   0.831   9.806  0.9913  1.1659 -1.9064
 4485SOL    HW225092   3.263   0.848   9.894  0.6730  0.8731 -0.1232
 4486SOL     OW25093   2.684   4.700  16.183  0.3131  0.0196  0.2359
 4486SOL    HW125094   2.666   0.018  16.108  3.8816  0.1811 -0.5427
 4486SOL    HW225095   2.767   4.665  16.150 -0.7383 -2.7887  0.5617
 4487SOL     OW25096   0.495   4.625   6.981  0.0889  0.0933 -0.1528
 4487SOL    HW125097   0.551   4.550   7.001 -1.3161 -1.1886 -1.0738
 4487SOL    HW225098   0.448   4.594   6.904 -0.1069  0.3772 -0.1470
 4488SOL     OW25099   1.072   3.902  16.968 -0.2906  0.2352 -0.2669
 4488SOL    HW125100   0.999   3.914  17.028 -0.2433  0.2776 -0.2177
 4488SOL    HW225101   1.033   3.851  16.897 -1.1900 -1.4070  1.4257
 4489SOL     OW25102   0.526   1.713   6.258 -0.3560 -0.1590 -0.2060
 4489SOL    HW125103   0.538   1.663   6.177  0.5580  1.2396 -0.9192
 4489SOL    HW225104   0.540   1.638   6.316  1.1879 -1.7062 -2.5839
 4490SOL     OW25105   3.025   1.088   5.685 -0.6046  0.2948 -0.0821
 4490SOL    HW125106   3.007   1.027   5.756 -3.5551  2.1647  0.7557
 4490SOL    HW225107   3.117   1.111   5.702 -0.4747 -0.6608  0.4898
 4491SOL     OW25108   1.959   2.559   6.746 -0.3242 -0.0778  0.7823
 4491SOL    HW125109   1.920   2.472   6.753 -0.5296 -0.2885 -2.8408
 4491SOL    HW225110   2.025   2.539   6.812 -0.1548  0.4584  0.7700
 4492SOL     OW25111   1.457   3.460  10.489 -0.7380  0.7813 -0.1935
 4492SOL    HW125112   1.431   3.519  10.560  1.1068 -0.3662  1.4352
 4492SOL    HW225113   1.553   3.463  10.496 -0.7836  0.6246  0.4455
 4493SOL     OW25114   0.194   1.722   2.603  0.0685 -0.2565  0.2975
 4493SOL    HW125115   0.235   1.808   2.612  0.9802 -0.8973  2.2029
 4493SOL    HW225116   0.100   1.740   2.601  0.0429 -0.2662  1.4153
 4494SOL     OW25117   1.678   1.586   4.123  0.5446 -0.3076 -0.0139
 4494SOL    HW125118   1.689   1.495   4.094 -0.8667 -0.3755 -0.3638
 4494SOL    HW225119   1.752   1.593   4.183  1.7165  1.5839 -1.7232
 4495SOL     OW25120   0.875   2.562   5.288  0.4185 -0.4115  0.5594
 4495SOL    HW125121   0.854   2.597   5.201 -2.3828  0.6502  1.6664
 4495SOL    HW225122   0.932   2.638   5.302  0.2996 -0.0739 -0.7447
 4496SOL     OW25123   3.030   1.703   5.551  0.2554  0.5773 -0.0576
 4496SOL    HW125124   2.992   1.645   5.616 -0.2650 -0.2068 -1.0605
 4496SOL    HW225125   3.041   1.783   5.602 -2.1295  0.8606  0.0424
 4497SOL     OW25126   3.649   3.052   7.334 -0.4591 -0.0134  0.3072
 4497SOL    HW125127   3.713   3.057   7.263  0.5343  0.4438  1.2496
 4497SOL    HW225128   3.692   2.983   7.384  2.1018  1.7185  0.4648
 4498SOL     OW25129   3.805   1.192   0.383 -0.4017  0.0643  0.5069
 4498SOL    HW125130   3.714   1.179   0.357  0.3106  2.7119 -3.2720
 4498SOL    HW225131   3.809   1.278   0.425 -1.2496  0.1568  0.3960
 4499SOL     OW25132   2.556   0.599   8.308  0.1312 -0.0121  0.0927
 4499SOL    HW125133   2.572   0.532   8.241  1.7190  1.3161 -0.8446
 4499SOL    HW225134   2.462   0.592   8.323  0.0185  0.5917 -0.3220
 4500SOL     OW25135   1.526   3.176   7.621 -0.3972  0.0516 -0.4195
 4500SOL    HW125136   1.553   3.184   7.713 -2.4403  1.1210  0.0825
 4500SOL    HW225137   1.493   3.086   7.613 -1.4915  0.2948  1.3393
 4501SOL     OW25138   4.602   3.316   6.427 -0.7410 -0.4166 -0.0297
 4501SOL    HW125139   4.621   3.247   6.491 -2.4331 -0.4761  0.3893
 4501SOL    HW225140   4.534   3.281   6.370  0.2172 -3.5467  0.7359
 4502SOL     OW25141   2.806   2.632   0.757 -0.0387  0.1911  0.2625
 4502SOL    HW125142   2.769   2.708   0.712 -0.4960 -0.1663  0.0363
 4502SOL    HW225143   2.857   2.597   0.683 -0.3252  0.0492  0.1332
 4503SOL     OW25144   1.960   1.246   6.564 -0.6071  0.6827  0.3718
 4503SOL    HW125145   1.917   1.171   6.604  1.1110 -0.8749 -0.6480
 4503SOL    HW225146   1.888   1.309   6.570 -0.8370  0.4186  0.3650
 4504SOL     OW25147   0.142   3.175   4.208 -0.5318  0.0457 -0.3393
 4504SOL    HW125148   0.094   3.166   4.126  0.1217  1.3847 -0.8626
 4504SOL    HW225149   0.222   3.133   4.174 -0.8468 -0.4370 -0.4858
 4505SOL     OW25150   3.385   3.188  10.871  0.0060  0.3527  0.2757
 4505SOL    HW125151   3.386   3.284  10.878  0.5093  0.3633  0.0705
 4505SOL    HW225152   3.347   3.173  10.958  0.8690 -1.9310  0.2333
 4506SOL     OW25153   2.945   2.046   9.140  0.1775  0.1639 -0.3329
 4506SOL    HW125154   2.990   1.978   9.089  0.6894 -0.5630  1.1151
 4506SOL    HW225155   2.928   2.111   9.071  0.4053  0.4537 -0.1134
 4507SOL     OW25156   2.100   1.603   4.268 -0.2514 -0.5488  0.1003
 4507SOL    HW125157   2.069   1.665   4.334 -0.0822  1.4882 -1.7035
 4507SOL    HW225158   2.194   1.621   4.265 -0.1099 -1.1878  0.7939
 4508SOL     OW25159   2.118   0.136   3.513  0.2241 -0.0079 -0.0671
 4508SOL    HW125160   2.053   0.187   3.562 -1.2296 -1.0868 -0.8712
 4508SOL    HW225161   2.120   0.060   3.570 -0.1265  0.5835  0.7404
 4509SOL     OW25162   1.719   3.111   6.104 -0.1678  0.0403 -0.3378
 4509SOL    HW125163   1.624   3.115   6.111 -0.0824 -0.8006  1.1872
 4509SOL    HW225164   1.720   3.053   6.028  1.2473  2.1949 -1.9613
 4510SOL     OW25165   0.954   3.020   9.216  0.6819 -0.9033  0.3847
 4510SOL    HW125166   1.006   3.092   9.180 -0.0865 -0.7177 -0.3303
 4510SOL    HW225167   1.027   2.990   9.271  0.2026 -0.8902  1.0194
 4511SOL     OW25168   2.825   3.104  16.842  0.0212 -0.4101  0.6643
 4511SOL    HW125169   2.770   3.109  16.920 -0.9174 -1.3195  0.0723
 4511SOL    HW225170   2.872   3.024  16.865  0.6091 -0.8018 -1.8140
 4512SOL     OW25171   1.516   3.924  14.964  0.1652 -0.8616  0.3296
 4512SOL    HW125172   1.565   3.890  14.889  1.0419  1.8790 -0.3436
 4512SOL    HW225173   1.435   3.958  14.925 -0.1281 -3.1108 -1.0302
 4513SOL     OW25174   3.703   4.379  13.538  0.4994 -0.3368  0.7256
 4513SOL    HW125175   3.793   4.350  13.550  0.7324 -0.6102 -1.6021
 4513SOL    HW225176   3.692   4.451  13.601 -0.5490 -0.0005  0.1698
 4514SOL     OW25177   2.635   0.681   9.133 -0.1557 -0.7072  0.4010
 4514SOL    HW125178   2.643   0.698   9.040  0.1378  0.1672  0.5893
 4514SOL    HW225179   2.556   0.726   9.164 -0.8686 -0.7460 -1.3969
 4515SOL     OW25180   0.712   3.165  13.775  0.2823 -0.2481  0.3361
 4515SOL    HW125181   0.775   3.166  13.848 -1.1614  1.3015  1.5515
 4515SOL    HW225182   0.761   3.111  13.713 -0.8881  1.6436 -2.2077
 4516SOL     OW25183   1.501   1.443  10.934 -0.0523  0.4082 -0.6339
 4516SOL    HW125184   1.544   1.364  10.901 -1.8470 -0.3900 -1.0846
 4516SOL    HW225185   1.556   1.475  11.005 -0.4221  1.0784 -0.6484
 4517SOL     OW25186   3.598   4.114   3.231 -0.0365 -0.3248 -0.1842
 4517SOL    HW125187   3.649   4.054   3.176 -0.3774 -0.7069 -0.0853
 4517SOL    HW225188   3.661   4.136   3.300 -1.5701 -1.9661  1.7459
 4518SOL     OW25189   4.084   0.457   2.865 -0.5104 -0.1729 -0.2102
 4518SOL    HW125190   4.021   0.419   2.804  0.2968 -0.0163 -1.1435
 4518SOL    HW225191   4.100   0.380   2.920 -1.5326 -0.9350 -0.9793
 4519SOL     OW25192   3.709   1.120  14.758 -0.1022 -0.3227  0.6802
 4519SOL    HW125193   3.700   1.025  14.755 -0.3788 -0.2234 -1.2497
 4519SOL    HW225194   3.622   1.130  14.797  0.9895  0.3786  2.9819
 4520SOL     OW25195   2.853   3.407   7.995  0.1101 -0.0534 -0.1081
 4520SOL    HW125196   2.880   3.325   8.037  4.2378  1.7409  0.7195
 4520SOL    HW225197   2.781   3.434   8.051  0.1600 -0.0708 -0.0356
 4521SOL     OW25198   3.456   2.021   3.382  0.4823  0.4022 -0.2627
 4521SOL    HW125199   3.500   1.955   3.436 -2.7134  2.1936  4.4761
 4521SOL    HW225200   3.517   2.094   3.386 -1.1826  1.7078  0.8206
 4522SOL     OW25201   2.659   0.891  15.951  0.2933  0.3606 -0.2480
 4522SOL    HW125202   2.569   0.909  15.922 -0.2283 -0.7684  0.6677
 4522SOL    HW225203   2.668   0.805  15.908  0.1896  0.7816 -1.1142
 4523SOL     OW25204   3.753   2.812   6.894  0.0324  0.2261 -0.3338
 4523SOL    HW125205   3.665   2.850   6.887  1.2977  3.4761  1.8304
 4523SOL    HW225206   3.746   2.728   6.849 -1.4704  1.1051 -1.7206
 4524SOL     OW25207   1.853   3.308  16.453 -0.1926 -0.5071  0.2466
 4524SOL    HW125208   1.858   3.273  16.364 -1.0016  0.3839 -0.1499
 4524SOL    HW225209   1.869   3.227  16.501  2.2904 -0.4492 -0.4816
 4525SOL     OW25210   2.403   2.942   8.229  0.7669  0.1790 -0.7731
 4525SOL    HW125211   2.380   3.034   8.235  1.0103  0.3325 -2.2308
 4525SOL    HW225212   2.370   2.925   8.141  0.7291 -0.9591 -0.5443
 4526SOL     OW25213   3.622   4.262   1.281 -0.0927  0.6269  0.4816
 4526SOL    HW125214   3.539   4.215   1.283  0.6140 -0.5905  1.1969
 4526SOL    HW225215   3.617   4.303   1.195 -0.0917 -1.1587 -0.3593
 4527SOL     OW25216   3.015   1.826  17.051  0.2089 -0.0345  0.2205
 4527SOL    HW125217   3.025   1.738  17.016  0.1352 -0.0897  0.3385
 4527SOL    HW225218   2.926   1.848  17.022  0.2882  0.3874  0.2893
 4528SOL     OW25219   3.406   1.865   6.811  0.2527 -0.4924  0.4994
 4528SOL    HW125220   3.471   1.906   6.753 -2.0819 -1.0267 -2.5249
 4528SOL    HW225221   3.327   1.877   6.757  1.5246 -1.0907 -1.5120
 4529SOL     OW25222   1.923   1.275   2.930 -0.3336  0.1746  0.1925
 4529SOL    HW125223   1.882   1.291   3.015  0.5834 -1.8957  1.0157
 4529SOL    HW225224   2.015   1.287   2.955  0.0665 -0.9303 -0.8088
 4530SOL     OW25225   0.196   4.705   9.231 -0.1371  0.0541 -0.4902
 4530SOL    HW125226   0.143   4.697   9.310 -0.7318  0.5516 -0.8374
 4530SOL    HW225227   0.261   4.636   9.242 -0.0544  0.3431  0.7583
 4531SOL     OW25228   2.602   2.897   5.952  0.0898 -0.0091 -0.0004
 4531SOL    HW125229   2.642   2.841   5.885  1.6238  1.2552 -0.1420
 4531SOL    HW225230   2.560   2.828   6.003 -2.2907  1.7743  0.4169
 4532SOL     OW25231   4.488   0.807  12.059 -0.3571 -0.5698  0.1155
 4532SOL    HW125232   4.490   0.724  12.011  1.8699  0.3256 -1.3587
 4532SOL    HW225233   4.565   0.800  12.115 -1.0372 -2.6434  0.7729
 4533SOL     OW25234   2.967   2.683   5.388 -0.1217  0.1011  0.2090
 4533SOL    HW125235   2.930   2.602   5.424  0.2703  0.7413  2.0872
 4533SOL    HW225236   3.049   2.654   5.349 -0.1428 -0.5608  0.6358
 4534SOL     OW25237   3.494   1.295   8.494  0.3400 -0.3008  0.0878
 4534SOL    HW125238   3.526   1.338   8.415 -0.3228 -1.2312 -0.6770
 4534SOL    HW225239   3.502   1.202   8.472 -1.6704 -1.5086  4.3047
 4535SOL     OW25240   1.461   3.445  13.332  0.0002 -0.0866  0.0664
 4535SOL    HW125241   1.465   3.479  13.243  1.0159  1.2219  0.6263
 4535SOL    HW225242   1.383   3.490  13.364 -2.2377 -1.9396 -2.7094
 4536SOL     OW25243   3.495   0.898   3.580  0.1927 -0.2042 -0.0540
 4536SOL    HW125244   3.449   0.966   3.629 -2.9979 -1.6881 -1.0403
 4536SOL    HW225245   3.582   0.936   3.562  1.1172 -1.9224  0.7782
 4537SOL     OW25246   3.545   2.132  17.572 -0.7214  0.1922  0.6839
 4537SOL    HW125247   3.531   2.059  17.632  0.3234  0.1138  0.8322
 4537SOL    HW225248   3.491   2.195  17.619 -0.2032  0.5595  0.7892
 4538SOL     OW25249   0.669   4.147   8.360 -0.2739  0.0318  0.7376
 4538SOL    HW125250   0.696   4.148   8.452  2.2054 -2.7922  0.0085
 4538SOL    HW225251   0.679   4.241   8.341  3.2622 -0.5716 -0.2068
 4539SOL     OW25252   1.472   4.174   3.248 -0.0328  0.2606 -0.2000
 4539SOL    HW125253   1.496   4.179   3.340 -0.5472  1.8629 -0.1624
 4539SOL    HW225254   1.490   4.083   3.225  2.1378  0.8572 -0.7969
 4540SOL     OW25255   1.460   4.398   7.037 -0.6506 -0.3256  0.0613
 4540SOL    HW125256   1.392   4.464   7.049  0.1909  0.2056  1.7663
 4540SOL    HW225257   1.474   4.390   6.942  0.9154 -0.6113  0.3149
 4541SOL     OW25258   3.090   4.440   3.670 -0.0071  0.0869 -0.0348
 4541SOL    HW125259   3.169   4.395   3.641  0.4473  0.1092  1.2085
 4541SOL    HW225260   3.036   4.387   3.610 -0.0585  2.0080 -1.6673
 4542SOL     OW25261   1.614   0.648   0.500 -0.1706  0.2793  0.3793
 4542SOL    HW125262   1.591   0.740   0.487 -0.4947  0.3510  1.5090
 4542SOL    HW225263   1.533   0.618   0.541 -1.0261 -0.2151 -1.6653
 4543SOL     OW25264   3.799   4.414   4.097  0.5408 -0.0317  0.3282
 4543SOL    HW125265   3.707   4.401   4.075  1.0032 -1.3572 -0.7720
 4543SOL    HW225266   3.840   4.366   4.025 -2.0788 -0.6083 -0.7445
 4544SOL     OW25267   2.217   4.547   7.766 -0.0673  0.0828  0.2349
 4544SOL    HW125268   2.261   4.598   7.698  0.5010 -1.1464 -0.3305
 4544SOL    HW225269   2.233   4.606   7.840  0.8720 -0.1851  0.2428
 4545SOL     OW25270   3.455   1.680   4.389  0.7671  0.1028  0.0520
 4545SOL    HW125271   3.544   1.694   4.423  0.5743  0.8118  0.2688
 4545SOL    HW225272   3.452   1.584   4.391  0.4885  0.0680 -1.8450
 4546SOL     OW25273   3.588   0.923  12.408 -0.2314 -0.1304 -0.0445
 4546SOL    HW125274   3.678   0.950  12.390 -1.2671  2.0429 -1.8264
 4546SOL    HW225275   3.569   0.962  12.493 -1.2029 -0.7149  0.0109
 4547SOL     OW25276   4.260   3.525   4.644  0.2862 -0.1131  0.4138
 4547SOL    HW125277   4.204   3.506   4.719 -2.1828  0.1821 -1.3445
 4547SOL    HW225278   4.241   3.445   4.595 -0.1626 -0.3661  1.0049
 4548SOL     OW25279   3.964   0.210  11.147 -0.2592  0.2466 -0.5842
 4548SOL    HW125280   3.967   0.147  11.219 -1.8235 -0.7226 -1.3600
 4548SOL    HW225281   3.953   0.293  11.193 -0.7913 -0.0376 -0.1941
 4549SOL     OW25282   1.484   3.294   8.400 -0.6175  0.0018 -0.1585
 4549SOL    HW125283   1.569   3.304   8.443 -0.4058  1.8615 -0.9721
 4549SOL    HW225284   1.471   3.200   8.410  1.0298 -0.5972 -3.5829
 4550SOL     OW25285   0.301   1.942   8.228  0.0464 -0.1552 -0.0458
 4550SOL    HW125286   0.253   2.021   8.253  2.0889  0.9323  0.4538
 4550SOL    HW225287   0.262   1.871   8.279 -0.0297  0.3707  0.6346
 4551SOL     OW25288   0.969   4.276  16.744  0.0899  0.5091  0.2672
 4551SOL    HW125289   0.922   4.272  16.828  0.6778  2.3824  0.6878
 4551SOL    HW225290   1.032   4.205  16.755  1.2537  1.1297 -2.4481
 4552SOL     OW25291   4.505   0.816   6.195 -1.3308 -0.5519 -0.3467
 4552SOL    HW125292   4.468   0.893   6.239 -1.5833 -0.3394 -0.9313
 4552SOL    HW225293   4.541   0.765   6.268 -1.1297 -0.5629 -0.4537
 4553SOL     OW25294   4.122   2.325   5.890  0.2110  0.3454 -0.0460
 4553SOL    HW125295   4.124   2.399   5.829  1.6646 -0.7135 -1.2812
 4553SOL    HW225296   4.080   2.251   5.845  3.3106 -2.3044  1.4013
 4554SOL     OW25297   3.660   1.028  15.757  0.0372 -0.6231  0.2423
 4554SOL    HW125298   3.618   1.112  15.741 -0.1165 -0.8073 -0.3291
 4554SOL    HW225299   3.728   1.055  15.819  0.4256 -0.1207 -0.4067
 4555SOL     OW25300   0.304   4.551   6.175  0.9067 -0.0233  0.4239
 4555SOL    HW125301   0.372   4.548   6.107  0.0958 -1.7678 -0.3172
 4555SOL    HW225302   0.239   4.493   6.135  0.2338  0.1212  1.3203
 4556SOL     OW25303   2.697   2.925   3.355  0.0913  0.4960  0.4664
 4556SOL    HW125304   2.639   3.001   3.360  0.8269  1.1747 -1.3057
 4556SOL    HW225305   2.773   2.965   3.314  0.3184  0.4786  0.8743
 4557SOL     OW25306   2.273   2.040   6.687  0.1502  0.3001 -0.0560
 4557SOL    HW125307   2.361   2.077   6.697  0.2328 -0.1610  0.8336
 4557SOL    HW225308   2.252   2.018   6.778  1.0760 -0.3282 -0.0010
 4558SOL     OW25309   0.304   1.648   3.910  0.2584  0.4441 -0.4728
 4558SOL    HW125310   0.323   1.568   3.959 -2.2574 -0.1064 -0.4236
 4558SOL    HW225311   0.215   1.673   3.933  0.5816  3.0006 -1.9443
 4559SOL     OW25312   3.251   3.584   6.238 -0.1396 -0.1051  0.0631
 4559SOL    HW125313   3.243   3.673   6.273  0.2610  0.5763 -1.5714
 4559SOL    HW225314   3.346   3.581   6.245 -0.3007 -0.0100  2.4439
 4560SOL     OW25315   3.883   3.192   6.410 -0.0220  0.4263  0.2503
 4560SOL    HW125316   3.835   3.242   6.476  1.9230  0.4334  1.6766
 4560SOL    HW225317   3.881   3.110   6.460  0.9687  1.1761  1.5108
 4561SOL     OW25318   1.758   3.906   3.423  0.2692  0.5959  0.3303
 4561SOL    HW125319   1.687   3.842   3.420  1.0916 -0.4018  2.3123
 4561SOL    HW225320   1.832   3.852   3.395 -0.5890 -0.6500  0.4562
 4562SOL     OW25321   2.847   1.283   5.158  0.5166 -0.1647  0.2033
 4562SOL    HW125322   2.902   1.234   5.220  0.8345  0.0431  0.0888
 4562SOL    HW225323   2.819   1.357   5.212 -1.2969  0.2987 -1.3999
 4563SOL     OW25324   1.917   4.591  15.212 -0.2929 -0.4198  0.0806
 4563SOL    HW125325   1.907   4.523  15.279  1.2829 -1.0251 -0.2932
 4563SOL    HW225326   1.825   4.609  15.193 -0.7003 -1.3685  1.1618
 4564SOL     OW25327   2.373   3.265   3.901 -0.3247 -0.4530 -0.2354
 4564SOL    HW125328   2.421   3.346   3.887 -0.2957 -0.5910 -0.9574
 4564SOL    HW225329   2.301   3.289   3.842 -0.9641  0.0896  0.7822
 4565SOL     OW25330   3.930   3.235  13.251  0.7633 -0.4891  0.1490
 4565SOL    HW125331   3.947   3.153  13.205 -0.4133  0.0309 -1.2081
 4565SOL    HW225332   3.870   3.281  13.192 -0.8351 -0.0575  2.1140
 4566SOL     OW25333   2.814   0.726   2.880 -0.5613  0.0631 -0.4721
 4566SOL    HW125334   2.742   0.788   2.870  0.5029  1.2711 -0.6201
 4566SOL    HW225335   2.882   0.783   2.915  2.3182 -1.7213 -3.0983
 4567SOL     OW25336   2.989   3.481   5.433  0.0155 -0.0728  0.7132
 4567SOL    HW125337   3.018   3.402   5.478 -2.4131 -1.5722 -0.4129
 4567SOL    HW225338   3.066   3.505   5.381 -2.0741  1.4887 -1.6224
 4568SOL     OW25339   3.230   1.214   9.753  0.2657  0.4131 -1.0234
 4568SOL    HW125340   3.253   1.153   9.823 -0.2896  0.0438 -1.1583
 4568SOL    HW225341   3.150   1.170   9.722  1.7822 -1.3545 -2.4967
 4569SOL     OW25342   0.339   1.085  11.326 -0.3855  0.3308  0.2319
 4569SOL    HW125343   0.272   1.153  11.318 -1.0883 -0.1986  1.5743
 4569SOL    HW225344   0.411   1.119  11.273  0.6870 -2.3577 -0.0133
 4570SOL     OW25345   0.791   2.584  17.743  0.0333 -0.0581 -0.1655
 4570SOL    HW125346   0.864   2.533  17.708  0.5925  1.4275 -1.1737
 4570SOL    HW225347   0.727   2.516   0.007 -1.7952  1.0799 -2.3990
 4571SOL     OW25348   0.533   2.503   7.449  0.0231 -0.3198  0.2040
 4571SOL    HW125349   0.586   2.429   7.479  0.1652 -0.0340  0.6444
 4571SOL    HW225350   0.581   2.572   7.494  1.4932 -0.3900 -1.2772
 4572SOL     OW25351   3.517   3.530   7.707 -0.2048  0.4151  0.1134
 4572SOL    HW125352   3.586   3.463   7.703 -0.5176  0.3037 -3.6290
 4572SOL    HW225353   3.468   3.507   7.785 -2.4664  2.3672 -0.7623
 4573SOL     OW25354   2.985   4.656   2.518 -0.0393 -1.1124 -0.1230
 4573SOL    HW125355   3.043   4.621   2.451  0.0692 -1.4391  0.1400
 4573SOL    HW225356   2.993   0.012   2.509 -0.7843 -1.0783 -0.4276
 4574SOL     OW25357   1.996   4.597   6.876 -0.4133  0.2900 -0.1833
 4574SOL    HW125358   1.969   4.627   6.789  0.5363  0.3936 -0.4422
 4574SOL    HW225359   1.937   4.522   6.884  0.3747 -0.4169 -1.1080
 4575SOL     OW25360   4.249   1.803   1.605  0.2423 -0.2961  0.0809
 4575SOL    HW125361   4.247   1.776   1.697  0.9409 -0.5773  0.0163
 4575SOL    HW225362   4.317   1.870   1.610  0.5103 -0.6208  0.7985
 4576SOL     OW25363   4.410   3.204   6.277 -0.2778  0.1985  0.1255
 4576SOL    HW125364   4.388   3.181   6.187 -0.5257  0.1777  0.1893
 4576SOL    HW225365   4.320   3.227   6.303  0.4383  2.7178  0.4374
 4577SOL     OW25366   3.458   2.942  16.885 -0.3139  0.1865  0.3311
 4577SOL    HW125367   3.504   2.879  16.829 -1.2749  0.4029 -0.7020
 4577SOL    HW225368   3.532   2.982  16.930  0.1808 -0.6823  0.2889
 4578SOL     OW25369   4.261   1.424   6.893 -0.1595  0.5273  0.5306
 4578SOL    HW125370   4.249   1.460   6.981 -1.4686 -0.6526  0.8259
 4578SOL    HW225371   4.260   1.330   6.907 -0.1011  0.5609  0.7668
 4579SOL     OW25372   2.192   3.747   5.348 -0.3019 -0.0032 -0.1694
 4579SOL    HW125373   2.259   3.801   5.390  1.9087 -3.0323  0.2323
 4579SOL    HW225374   2.111   3.781   5.385 -0.4375  1.3505 -1.7242
 4580SOL     OW25375   3.583   3.530   8.138  0.1997  0.0041 -0.6308
 4580SOL    HW125376   3.639   3.584   8.083 -0.5372  1.6378  0.2436
 4580SOL    HW225377   3.646   3.488   8.197 -2.0681 -1.7548  0.5363
 4581SOL     OW25378   1.692   3.529   2.468  0.7858  0.5044 -0.3799
 4581SOL    HW125379   1.633   3.600   2.493 -0.8509 -0.7315 -0.6962
 4581SOL    HW225380   1.687   3.535   2.372  1.0345 -0.0114 -0.4266
 4582SOL     OW25381   4.187   3.303   6.398 -0.3392  0.3762 -0.1377
 4582SOL    HW125382   4.115   3.283   6.458  0.3584  2.7420  1.4819
 4582SOL    HW225383   4.240   3.349   6.462 -1.3626  1.2771  0.0764
 4583SOL     OW25384   1.769   0.847   3.114  0.1259 -0.0300 -0.2071
 4583SOL    HW125385   1.797   0.764   3.154  1.0369  0.3101 -0.1301
 4583SOL    HW225386   1.807   0.844   3.026 -0.5369 -0.5831 -0.4718
 4584SOL     OW25387   3.308   2.040   5.555 -0.0301 -0.1676  0.4936
 4584SOL    HW125388   3.272   2.010   5.639 -0.7098 -0.5121  0.0848
 4584SOL    HW225389   3.268   2.126   5.546  2.1160  0.6865 -0.7947
 4585SOL     OW25390   0.286   1.522   0.240 -0.6314  0.3584 -0.2360
 4585SOL    HW125391   0.223   1.485   0.302  0.5146 -0.5996  0.3393
 4585SOL    HW225392   0.289   1.457   0.170 -0.4346  0.9562 -0.7890
 4586SOL     OW25393   1.095   3.208  14.136  0.2261 -0.8377  0.3941
 4586SOL    HW125394   1.089   3.125  14.184  0.5352  0.2127  2.2619
 4586SOL    HW225395   1.180   3.207  14.093  0.0494 -1.5118  0.0643
 4587SOL     OW25396   2.787   3.490   3.273 -0.2207  0.4478 -0.7127
 4587SOL    HW125397   2.856   3.431   3.245 -1.3397 -0.8303 -0.8015
 4587SOL    HW225398   2.769   3.546   3.197  0.1164  1.5707  0.0472
 4588SOL     OW25399   0.986   1.626   3.013  0.4026 -0.2086  0.4131
 4588SOL    HW125400   0.901   1.622   3.058  0.0067  2.8682 -0.0486
 4588SOL    HW225401   0.993   1.721   3.008  1.2834 -0.2185  1.4757
 4589SOL     OW25402   1.048   2.527  12.938  0.0022  0.0441  0.5242
 4589SOL    HW125403   1.004   2.542  13.022 -1.7324 -0.8889 -0.2318
 4589SOL    HW225404   1.108   2.602  12.933 -0.3200  0.2872  0.3453
 4590SOL     OW25405   2.459   1.929   8.644 -0.6913  0.6711  0.0529
 4590SOL    HW125406   2.444   1.945   8.551 -0.5501 -0.1624 -0.1191
 4590SOL    HW225407   2.436   2.010   8.689 -0.1576 -0.2064  1.9086
 4591SOL     OW25408   2.529   4.518   1.951  0.2489 -0.4769 -0.2999
 4591SOL    HW125409   2.505   4.587   1.889 -0.2162  1.7231  2.3035
 4591SOL    HW225410   2.442   4.490   1.980 -0.0038  2.8771  2.2384
 4592SOL     OW25411   3.260   3.616   3.675 -0.0195 -0.1215 -0.1264
 4592SOL    HW125412   3.330   3.631   3.739  0.1185  0.7433 -0.4874
 4592SOL    HW225413   3.214   3.553   3.731 -0.1144  0.0773  0.0182
 4593SOL     OW25414   4.483   0.518  15.090  0.3131 -0.3001 -0.4081
 4593SOL    HW125415   4.488   0.516  15.185 -0.5464  2.5050 -0.3020
 4593SOL    HW225416   4.411   0.460  15.067  0.9835 -1.1847 -0.2418
 4594SOL     OW25417   3.002   1.029  12.466 -0.3408 -0.2382  0.5214
 4594SOL    HW125418   3.064   0.967  12.505  0.1898 -0.0368 -0.0055
 4594SOL    HW225419   3.019   1.118  12.498 -1.7887  0.6016 -1.0261
 4595SOL     OW25420   2.717   3.854  11.843  0.8320  0.2703  0.4132
 4595SOL    HW125421   2.663   3.775  11.855  0.6892  0.4236  0.7690
 4595SOL    HW225422   2.752   3.854  11.932 -1.0248 -0.1492  1.1569
 4596SOL     OW25423   2.949   3.597   2.440 -0.0803  0.9798  0.5207
 4596SOL    HW125424   3.033   3.573   2.401  0.0862  0.6914  1.0441
 4596SOL    HW225425   2.964   3.686   2.472  3.3948  1.4255 -2.3900
 4597SOL     OW25426   2.438   1.582   8.492 -0.1456 -0.2040  0.2026
 4597SOL    HW125427   2.516   1.526   8.494 -0.4257 -0.6061 -0.0109
 4597SOL    HW225428   2.461   1.644   8.561  0.2907  0.7704 -0.8139
 4598SOL     OW25429   4.072   0.373  12.330  0.0037 -1.0550 -0.1052
 4598SOL    HW125430   3.988   0.410  12.304 -0.0791 -1.1217  0.0632
 4598SOL    HW225431   4.121   0.455  12.321  0.2754 -1.5284 -2.9150
 4599SOL     OW25432   3.442   1.213   3.756 -0.3072 -0.3485 -0.5416
 4599SOL    HW125433   3.493   1.275   3.808  0.1950 -1.8155  0.7597
 4599SOL    HW225434   3.464   1.237   3.666  1.0107 -3.0969 -0.9764
 4600SOL     OW25435   2.134   2.519   3.798  0.1087  0.7728  0.3390
 4600SOL    HW125436   2.156   2.610   3.816  3.3566 -0.4506  2.6525
 4600SOL    HW225437   2.068   2.494   3.863 -0.3202  1.5785  0.2082
 4601SOL     OW25438   3.746   4.308   8.396 -0.1989 -0.6034  0.3026
 4601SOL    HW125439   3.828   4.274   8.358 -0.8348 -0.7307 -0.9464
 4601SOL    HW225440   3.763   4.402   8.392 -0.2310 -0.6131 -0.0348
 4602SOL     OW25441   0.708   2.088  16.994  0.5651 -0.0720 -0.4925
 4602SOL    HW125442   0.684   2.077  17.086 -1.0416  0.8749 -0.7800
 4602SOL    HW225443   0.705   1.996  16.969  1.2144 -0.0296 -0.7124
 4603SOL     OW25444   4.355   0.500   5.922  0.4294 -0.4223 -0.1783
 4603SOL    HW125445   4.285   0.498   5.987 -0.0553  1.6356 -0.6077
 4603SOL    HW225446   4.431   0.520   5.977 -0.8451 -0.4466  1.5871
 4604SOL     OW25447   0.477   1.170   5.108 -0.5684  0.2504  0.8897
 4604SOL    HW125448   0.484   1.075   5.095 -1.7071  0.0234  1.9014
 4604SOL    HW225449   0.549   1.180   5.170  0.0191 -1.0037  0.4046
 4605SOL     OW25450   1.220   2.142   2.209  0.2705 -0.2923 -0.0649
 4605SOL    HW125451   1.143   2.090   2.185  1.3136 -2.3923  1.0646
 4605SOL    HW225452   1.276   2.123   2.134 -0.7600 -1.8145 -0.4517
 4606SOL     OW25453   4.487   1.965   5.873 -0.3320  0.1999  0.0077
 4606SOL    HW125454   4.548   1.958   5.799  0.3595  0.4431  0.5559
 4606SOL    HW225455   4.546   1.951   5.947  2.5251  0.5247 -2.2322
 4607SOL     OW25456   4.032   0.814   2.211  0.3149 -0.0447 -0.0648
 4607SOL    HW125457   4.054   0.770   2.129  0.3148 -1.8171  0.8748
 4607SOL    HW225458   4.116   0.852   2.238  0.6143 -0.3132 -0.6240
 4608SOL     OW25459   1.034   2.848  10.627  0.3024  0.4252  0.3596
 4608SOL    HW125460   1.128   2.841  10.648  0.2906 -2.4012 -0.5075
 4608SOL    HW225461   1.000   2.828  10.714  2.3996 -2.1116  0.5978
 4609SOL     OW25462   1.373   0.996   2.925 -0.0006 -0.0456  0.0326
 4609SOL    HW125463   1.298   1.052   2.947  0.2459  0.0398  0.6690
 4609SOL    HW225464   1.373   0.953   3.010  0.5681 -1.9892 -0.9656
 4610SOL     OW25465   0.564   4.239   5.626  0.3335 -0.2694 -0.3074
 4610SOL    HW125466   0.597   4.293   5.554  0.1934  1.7655  1.1855
 4610SOL    HW225467   0.501   4.187   5.575  2.2040 -0.3965 -2.5216
 4611SOL     OW25468   4.568   3.037   5.397  0.0921 -0.2492 -0.1020
 4611SOL    HW125469   4.500   2.970   5.390  1.1235 -1.0741 -2.2853
 4611SOL    HW225470   4.650   2.989   5.386 -0.3035 -1.3163  1.6537
 4612SOL     OW25471   2.243   2.617   8.272 -0.3225  0.3655  0.4719
 4612SOL    HW125472   2.291   2.696   8.296  1.1214 -0.6633  0.9411
 4612SOL    HW225473   2.311   2.554   8.292 -0.4343  0.5436  1.4263
 4613SOL     OW25474   2.959   2.558   7.108  0.6614  0.2995 -0.2199
 4613SOL    HW125475   2.997   2.552   7.020  0.5721 -1.5810 -0.1277
 4613SOL    HW225476   2.923   2.646   7.097 -1.8237 -0.8694 -1.3800
 4614SOL     OW25477   0.062   3.536   8.184  0.0585  0.2893  0.0013
 4614SOL    HW125478   0.063   3.597   8.258 -1.1981 -0.3385  0.5399
 4614SOL    HW225479   4.735   3.582   8.133 -0.6671  0.7343  1.3347
 4615SOL     OW25480   4.031   0.966  10.487 -0.0323 -0.5775 -0.3168
 4615SOL    HW125481   4.018   0.891  10.428  0.0228 -1.2772  0.5609
 4615SOL    HW225482   4.118   0.988  10.456  0.1317  3.1260  2.8320
 4616SOL     OW25483   0.606   3.846   3.920  0.6179  0.1341  0.3153
 4616SOL    HW125484   0.619   3.925   3.868 -1.4414  0.5292  0.4153
 4616SOL    HW225485   0.561   3.879   3.998  1.3595  2.4825 -0.2436
 4617SOL     OW25486   1.476   0.767  12.477 -0.0594 -0.5376 -0.3428
 4617SOL    HW125487   1.544   0.767  12.544  2.9184  0.8459 -3.3581
 4617SOL    HW225488   1.479   0.672  12.467  1.7966 -0.5259 -0.0160
 4618SOL     OW25489   3.170   3.614   8.692 -0.0780 -0.7055  0.1249
 4618SOL    HW125490   3.154   3.521   8.709  0.7275 -0.7812  0.4639
 4618SOL    HW225491   3.175   3.617   8.596  1.2706 -1.2258  0.1809
 4619SOL     OW25492   2.290   4.369   2.011 -0.1452 -0.0605 -0.1989
 4619SOL    HW125493   2.202   4.396   2.038  0.1047  1.1068 -0.5927
 4619SOL    HW225494   2.336   4.340   2.089  0.6519 -0.3666 -0.7811
 4620SOL     OW25495   4.386   2.068   6.165 -0.0470 -0.5029 -0.3370
 4620SOL    HW125496   4.354   2.109   6.085  0.6842 -0.0246 -0.3888
 4620SOL    HW225497   4.460   2.123   6.190 -0.2827 -0.2547 -0.1982
 4621SOL     OW25498   1.123   1.815   8.225  0.3659  1.0787  0.3892
 4621SOL    HW125499   1.112   1.865   8.144 -2.0214 -0.8338 -0.4734
 4621SOL    HW225500   1.169   1.876   8.282 -0.1009  0.1042  1.8040
 4622SOL     OW25501   1.980   2.894   4.357 -0.2660  0.6283  0.3276
 4622SOL    HW125502   1.989   2.912   4.263  0.3807 -0.2574  0.2281
 4622SOL    HW225503   1.901   2.946   4.374 -0.2583  0.8671 -0.3775
 4623SOL     OW25504   0.253   3.858   7.377 -0.5174 -0.1031 -0.0838
 4623SOL    HW125505   0.187   3.796   7.348 -0.1472 -0.1084 -0.9087
 4623SOL    HW225506   0.326   3.798   7.390  0.0648  0.6964  0.4127
 4624SOL     OW25507   0.840   3.768   1.863  0.0808  0.0003  0.3208
 4624SOL    HW125508   0.931   3.788   1.843 -0.0041  0.3458  0.2877
 4624SOL    HW225509   0.824   3.698   1.799 -1.9858  1.5589 -0.8765
 4625SOL     OW25510   3.953   1.646  16.384 -0.2343  0.4864 -0.0251
 4625SOL    HW125511   4.031   1.593  16.400 -1.1716 -0.6664  0.7326
 4625SOL    HW225512   3.980   1.738  16.386 -1.7164  0.9247  0.0040
 4626SOL     OW25513   2.171   4.150   6.274 -0.6035 -0.0555  0.7362
 4626SOL    HW125514   2.108   4.221   6.289  1.7162  1.6323  2.5720
 4626SOL    HW225515   2.112   4.080   6.301  0.7294 -2.2339 -1.9443
 4627SOL     OW25516   0.304   2.987   2.259  0.6371  0.2028  0.6687
 4627SOL    HW125517   0.239   2.918   2.273 -0.6475  1.0557 -1.0954
 4627SOL    HW225518   0.275   3.021   2.174 -0.8795  0.8036  1.4336
 4628SOL     OW25519   1.878   1.107   5.727  0.5099 -0.4451  0.2820
 4628SOL    HW125520   1.836   1.178   5.678  0.9480  0.1622  0.7736
 4628SOL    HW225521   1.797   1.071   5.762  1.0287  0.3020  2.2635
 4629SOL     OW25522   3.395   0.581   5.546  0.8351 -0.1617  0.0030
 4629SOL    HW125523   3.389   0.533   5.629 -1.9611  2.2439  1.1891
 4629SOL    HW225524   3.486   0.582   5.518  0.2363 -1.2916 -1.9695
 4630SOL     OW25525   0.113   1.447   3.365  0.3103 -0.4934  0.3189
 4630SOL    HW125526   0.080   1.469   3.452 -1.2781 -0.2076 -0.3566
 4630SOL    HW225527   0.208   1.457   3.366  0.3192 -0.7953  2.4984
 4631SOL     OW25528   4.063   0.179   6.401 -0.6928 -0.4519  0.4320
 4631SOL    HW125529   3.985   0.213   6.359 -0.7561 -3.0081 -1.4966
 4631SOL    HW225530   4.132   0.199   6.338 -0.5691  0.0452  0.7226
 4632SOL     OW25531   3.296   2.622   9.846 -0.2069  0.2861  0.2829
 4632SOL    HW125532   3.389   2.615   9.871 -0.4080  0.6750  1.1453
 4632SOL    HW225533   3.254   2.538   9.864 -1.0666  1.0127  1.6615
 4633SOL     OW25534   0.024   4.696   2.894  0.3314  0.0572  0.3642
 4633SOL    HW125535   0.005   4.679   2.986 -1.3254 -0.0431  0.0009
 4633SOL    HW225536   4.716   0.039   2.881 -0.5118 -0.3152  1.0730
 4634SOL     OW25537   3.593   0.155  13.026  0.3151  0.2681 -0.3743
 4634SOL    HW125538   3.517   0.101  13.046  0.3188  0.5770  0.4779
 4634SOL    HW225539   3.562   0.223  12.966 -0.2308 -0.8070 -1.2996
 4635SOL     OW25540   1.624   4.163   8.984 -0.0721  0.2328 -0.2269
 4635SOL    HW125541   1.646   4.166   9.077  0.4909  0.6054 -0.3741
 4635SOL    HW225542   1.531   4.182   8.998 -0.3544 -1.6473  0.5731
 4636SOL     OW25543   0.701   0.166   8.343  0.6131 -0.4308  0.1513
 4636SOL    HW125544   0.642   0.175   8.418 -0.6041  1.1497 -0.9940
 4636SOL    HW225545   0.781   0.123   8.373  0.0093 -0.6897  1.4104
 4637SOL     OW25546   4.578   3.517   6.964 -0.2583  0.2273  0.0431
 4637SOL    HW125547   4.501   3.477   6.924 -1.7309 -1.3274  4.4793
 4637SOL    HW225548   4.566   3.603   6.924 -0.3014  0.1676 -0.0725
 4638SOL     OW25549   0.364   2.828   3.913  0.4275 -0.1919 -0.0319
 4638SOL    HW125550   0.337   2.769   3.843  2.6694  0.6774 -1.5906
 4638SOL    HW225551   0.397   2.903   3.863 -0.2407  1.4325  1.9386
 4639SOL     OW25552   4.185   4.062   7.378  0.1543  0.0328 -0.1295
 4639SOL    HW125553   4.143   4.083   7.462 -1.8158  0.5305 -1.2329
 4639SOL    HW225554   4.215   4.150   7.357 -1.4249  0.6243  0.0674
 4640SOL     OW25555   3.831   1.961   9.425  0.0510 -0.5182  0.5531
 4640SOL    HW125556   3.760   1.899   9.443 -0.7926  0.6887  1.3649
 4640SOL    HW225557   3.898   1.923   9.482  0.6835  2.1052  1.5545
 4641SOL     OW25558   2.554   0.319   4.906  0.2964  0.1870  0.0255
 4641SOL    HW125559   2.520   0.372   4.977  2.0556  0.4052  0.7141
 4641SOL    HW225560   2.630   0.373   4.884  1.2972 -0.8889  0.8300
 4642SOL     OW25561   4.378   2.290  13.142 -0.0784  0.6325  0.0982
 4642SOL    HW125562   4.422   2.217  13.097  1.0551  1.0948  0.4620
 4642SOL    HW225563   4.372   2.255  13.231 -1.5825  1.0098  0.1357
 4643SOL     OW25564   1.666   4.007  14.187 -0.2129  0.9296  0.0720
 4643SOL    HW125565   1.720   3.929  14.200 -0.9039  0.7034  1.6054
 4643SOL    HW225566   1.669   4.021  14.093 -2.1472 -0.6505 -0.2249
 4644SOL     OW25567   4.671   0.247   2.878  0.4680 -1.1359  0.8336
 4644SOL    HW125568   4.724   0.322   2.847  0.7239 -2.0095 -0.8476
 4644SOL    HW225569   4.617   0.228   2.802  1.2930 -0.6312  0.1165
 4645SOL     OW25570   2.526   3.024  12.976 -0.4861 -0.1279  0.5551
 4645SOL    HW125571   2.459   2.993  13.037 -0.6579 -0.3729  0.2411
 4645SOL    HW225572   2.602   2.980  13.012 -0.3322  0.3443  0.8123
 4646SOL     OW25573   1.809   3.533   9.707  0.0113 -0.2339 -0.0363
 4646SOL    HW125574   1.751   3.460   9.728 -2.1430  1.7929  1.0288
 4646SOL    HW225575   1.890   3.511   9.753  0.0489  0.8560  0.4206
 4647SOL     OW25576   3.204   0.137  16.423  0.2344  0.3875 -0.0463
 4647SOL    HW125577   3.146   0.213  16.430 -2.9526 -2.0130 -0.4845
 4647SOL    HW225578   3.204   0.123  16.328  1.2742 -2.6464  0.4288
 4648SOL     OW25579   1.343   2.360   3.798 -0.0084  0.6031 -0.2318
 4648SOL    HW125580   1.330   2.451   3.769 -0.4705  1.1257  1.6316
 4648SOL    HW225581   1.285   2.372   3.873 -0.3268 -2.4565 -0.0013
 4649SOL     OW25582   3.800   2.798  15.025  0.4335  0.2816  0.1602
 4649SOL    HW125583   3.789   2.892  15.010  0.0185  0.3209  0.7404
 4649SOL    HW225584   3.745   2.760  14.956 -0.5905  0.5169  0.8578
 4650SOL     OW25585   0.018   1.367  13.567  0.1093  0.3958  0.3818
 4650SOL    HW125586   0.078   1.392  13.497  0.9888 -0.4488  0.8412
 4650SOL    HW225587   4.722   1.454  13.587 -1.3421 -0.2131  0.4839
 4651SOL     OW25588   3.890   3.596   7.790 -0.7794 -0.0948  0.2880
 4651SOL    HW125589   3.806   3.589   7.745  0.0109  1.8591 -1.4848
 4651SOL    HW225590   3.953   3.593   7.718 -0.8302  1.2664  0.1863
 4652SOL     OW25591   2.928   3.122   2.517 -0.2261 -0.2902  0.0907
 4652SOL    HW125592   2.959   3.088   2.601 -0.3149  0.2245  0.3269
 4652SOL    HW225593   2.886   3.206   2.533 -1.5886 -0.4803 -2.3994
 4653SOL     OW25594   4.150   1.912  17.490  0.0169  0.2578  0.0906
 4653SOL    HW125595   4.217   1.952  17.434  0.9855 -3.0854 -1.1912
 4653SOL    HW225596   4.115   1.977  17.551  0.6926  0.6086  0.1058
 4654SOL     OW25597   1.599   2.247   3.776 -0.0977  0.1031 -0.5722
 4654SOL    HW125598   1.512   2.278   3.800  0.2853  0.9139 -0.2536
 4654SOL    HW225599   1.656   2.319   3.800 -0.8894  0.9520 -1.2682
 4655SOL     OW25600   1.238   4.188  12.038 -0.3238 -0.0707  0.0089
 4655SOL    HW125601   1.303   4.253  12.065 -0.1211 -0.1139 -0.3697
 4655SOL    HW225602   1.302   4.151  11.978 -1.0305 -1.9896  0.4625
 4656SOL     OW25603   3.450   2.432   8.421  0.9439  0.3895 -0.2957
 4656SOL    HW125604   3.457   2.345   8.459  1.6200 -0.1798 -1.6895
 4656SOL    HW225605   3.537   2.446   8.382  1.0627  0.5766  0.0407
 4657SOL     OW25606   0.101   2.492   5.278  0.6096  0.1583 -0.2092
 4657SOL    HW125607   0.019   2.470   5.233  1.4021 -1.9228 -0.6161
 4657SOL    HW225608   0.090   2.587   5.269 -1.2780  0.2237  3.0212
 4658SOL     OW25609   0.980   0.996   3.354 -0.0272 -0.1561 -0.4449
 4658SOL    HW125610   1.075   0.991   3.366 -0.1696 -0.4282  0.6357
 4658SOL    HW225611   0.950   1.086   3.346 -1.0917 -0.6191 -1.7078
 4659SOL     OW25612   0.312   1.632   7.154  0.3987  0.2443 -0.0651
 4659SOL    HW125613   0.241   1.696   7.157 -0.0105 -0.2217  0.2015
 4659SOL    HW225614   0.262   1.569   7.103  1.1226  0.3733 -0.9259
 4660SOL     OW25615   3.578   2.856   8.287  0.6332  0.2762  0.2963
 4660SOL    HW125616   3.569   2.784   8.350  0.0617 -0.3063 -0.4571
 4660SOL    HW225617   3.495   2.848   8.241 -0.5157 -0.4638  2.4643
 4661SOL     OW25618   2.025   4.346   9.370 -0.3561  0.0375  0.5238
 4661SOL    HW125619   2.040   4.300   9.288 -1.2938  0.2830  0.2188
 4661SOL    HW225620   2.097   4.322   9.428 -0.7317 -0.9810  0.5750
 4662SOL     OW25621   2.062   1.440   0.503 -0.0295  0.2483 -0.5979
 4662SOL    HW125622   2.119   1.516   0.508 -0.7896  0.7916 -0.1700
 4662SOL    HW225623   1.976   1.480   0.518 -0.3045  0.2437 -2.1901
 4663SOL     OW25624   3.461   4.589   8.962  0.3199  0.1962 -0.4125
 4663SOL    HW125625   3.511   4.630   9.033  1.4573  0.1211 -1.1587
 4663SOL    HW225626   3.463   4.499   8.996 -1.3633  0.1501 -0.4688
 4664SOL     OW25627   4.656   4.614  10.437  0.1206  0.2992  0.6285
 4664SOL    HW125628   4.739   4.653  10.408 -0.5446  1.7260  0.6227
 4664SOL    HW225629   4.609   4.692  10.466 -0.5547 -0.5082  1.7181
 4665SOL     OW25630   1.100   2.356   2.717  0.5240  0.6428 -0.6858
 4665SOL    HW125631   1.186   2.313   2.713  0.6446  0.7510  0.7981
 4665SOL    HW225632   1.057   2.294   2.776  2.8138  0.0438  0.3760
 4666SOL     OW25633   2.376   3.192  13.187  0.9167 -0.1970  0.0216
 4666SOL    HW125634   2.429   3.147  13.253  1.5779  2.0239  1.0174
 4666SOL    HW225635   2.322   3.124  13.148  1.0528 -0.0337 -0.4548
 4667SOL     OW25636   1.568   4.323   6.772  0.6466 -0.8217 -0.2713
 4667SOL    HW125637   1.595   4.261   6.704 -1.0861  0.4227 -2.1090
 4667SOL    HW225638   1.641   4.382   6.756 -1.1276  0.9490 -1.9739
 4668SOL     OW25639   3.588   3.953  12.512 -0.2730 -0.3790 -0.0160
 4668SOL    HW125640   3.621   4.028  12.561 -1.3497 -1.2247  2.0155
 4668SOL    HW225641   3.639   3.883  12.553 -0.0972 -0.3001 -0.0982
 4669SOL     OW25642   2.447   1.720   8.062  0.1289  0.4863 -0.6766
 4669SOL    HW125643   2.499   1.749   8.136  1.9679  0.2677 -1.8935
 4669SOL    HW225644   2.366   1.699   8.108  1.6885 -1.5888  1.1093
 4670SOL     OW25645   2.384   3.594   6.831 -0.0978  0.0049  0.1250
 4670SOL    HW125646   2.419   3.677   6.863 -1.2384  0.4931  0.0988
 4670SOL    HW225647   2.330   3.568   6.905  1.2940 -0.2514  1.0640
 4671SOL     OW25648   4.201   3.516  14.216 -0.0833 -0.7100  0.3764
 4671SOL    HW125649   4.289   3.500  14.250  0.6877  1.2008 -0.7115
 4671SOL    HW225650   4.200   3.454  14.143  0.7388  2.3898 -2.2757
 4672SOL     OW25651   1.250   4.142   4.206 -0.1599  0.3822 -0.3203
 4672SOL    HW125652   1.213   4.094   4.131 -0.0070  1.5421 -1.1455
 4672SOL    HW225653   1.175   4.159   4.262 -0.6425  2.3323 -1.5291
 4673SOL     OW25654   1.693   1.446   1.493 -0.3419  0.3098 -0.5151
 4673SOL    HW125655   1.711   1.435   1.586  0.2198 -4.0836 -1.1512
 4673SOL    HW225656   1.725   1.534   1.475  1.6264 -0.2905 -0.0215
 4674SOL     OW25657   1.791   3.819   8.527 -0.0440 -0.1977 -0.1666
 4674SOL    HW125658   1.860   3.847   8.467 -1.4997  2.2930 -0.6787
 4674SOL    HW225659   1.759   3.907   8.545  0.9688 -0.2044  1.6688
 4675SOL     OW25660   3.013   1.933  17.490  0.2836 -0.7788 -0.5979
 4675SOL    HW125661   3.101   1.904  17.516  1.3018  1.2629 -1.7600
 4675SOL    HW225662   2.963   1.884  17.555  1.9682 -0.1668  1.1592
 4676SOL     OW25663   1.236   3.733   0.889  0.3676 -0.3759 -0.2003
 4676SOL    HW125664   1.204   3.664   0.831  0.9310 -0.8166  0.0281
 4676SOL    HW225665   1.226   3.810   0.833 -1.6551  0.4245  1.2385
 4677SOL     OW25666   2.030   2.291   3.181 -0.5376  0.0033 -0.7489
 4677SOL    HW125667   2.087   2.246   3.119  1.0850  0.3280  0.5171
 4677SOL    HW225668   2.029   2.380   3.145 -1.4488  0.6563  0.8958
 4678SOL     OW25669   3.428   3.060  14.541 -0.1828  0.9203  0.0413
 4678SOL    HW125670   3.512   3.042  14.583 -0.1855  1.5911  0.3328
 4678SOL    HW225671   3.434   3.041  14.448  1.3752 -1.0834  0.5338
 4679SOL     OW25672   4.307   4.141   3.971  0.2410 -0.1628 -0.0019
 4679SOL    HW125673   4.244   4.101   3.911 -0.8810  2.2331 -0.4377
 4679SOL    HW225674   4.272   4.111   4.055  1.2444 -3.2163 -0.6657
 4680SOL     OW25675   3.823   4.096   5.319  0.0427  0.0592  0.0298
 4680SOL    HW125676   3.894   4.033   5.328  0.3251  0.3728  0.0254
 4680SOL    HW225677   3.855   4.163   5.380 -1.2384  0.8027 -0.1202
 4681SOL     OW25678   2.499   1.430  14.207 -0.3898  0.0596  0.1284
 4681SOL    HW125679   2.533   1.387  14.286 -0.8778 -1.2985 -0.4033
 4681SOL    HW225680   2.548   1.382  14.140 -0.1448  1.4040 -0.6380
 4682SOL     OW25681   2.584   1.184   2.471 -0.0699  0.3207  0.6093
 4682SOL    HW125682   2.674   1.156   2.454  0.2868  1.6645  0.2786
 4682SOL    HW225683   2.597   1.272   2.506  0.5763  0.4633  0.0208
 4683SOL     OW25684   2.071   0.980  15.054 -0.7486 -0.2444  0.1308
 4683SOL    HW125685   2.027   1.052  15.011  1.3623  1.1254  0.2687
 4683SOL    HW225686   2.159   1.016  15.047 -0.1531 -1.3898  1.6832
 4684SOL     OW25687   4.538   3.997   6.031  0.5083  0.3203 -0.1363
 4684SOL    HW125688   4.594   4.068   6.060 -2.4446  2.3967  0.4866
 4684SOL    HW225689   4.463   4.033   5.983 -1.9758 -2.4432  1.6579
 4685SOL     OW25690   1.523   2.986   5.218 -0.1893 -0.1241 -0.2224
 4685SOL    HW125691   1.498   2.914   5.161  0.2373  0.6062 -1.3319
 4685SOL    HW225692   1.474   2.974   5.299 -1.0768  1.7284 -0.4888
 4686SOL     OW25693   2.891   1.631   0.139 -0.8071  0.2388  0.1694
 4686SOL    HW125694   2.923   1.549   0.103 -0.1233  0.9509 -0.8392
 4686SOL    HW225695   2.878   1.606   0.230  0.6998 -1.1116 -0.0016
 4687SOL     OW25696   3.191   2.941   5.199 -0.2555  0.0105  0.5130
 4687SOL    HW125697   3.267   2.997   5.177 -1.1437  1.2236  0.5081
 4687SOL    HW225698   3.153   2.923   5.113  1.1570  0.0886 -0.1448
 4688SOL     OW25699   3.025   1.583   6.172  0.1887 -0.2048 -0.0687
 4688SOL    HW125700   3.000   1.618   6.086 -3.6767 -2.5872  0.0750
 4688SOL    HW225701   3.117   1.567   6.155  0.8909  2.4915  1.2434
 4689SOL     OW25702   3.054   0.266   5.181  0.1657 -0.0266  1.1061
 4689SOL    HW125703   3.132   0.320   5.198 -1.1720  1.4327  2.6730
 4689SOL    HW225704   3.053   0.228   5.269 -1.0802 -0.1950  1.0183
 4690SOL     OW25705   3.622   1.562  13.050 -0.3514 -0.1761  0.2969
 4690SOL    HW125706   3.707   1.578  13.090  0.0281 -0.7811 -0.2564
 4690SOL    HW225707   3.617   1.635  12.989  2.4916  0.0147  0.3245
 4691SOL     OW25708   0.309   2.495   5.728  0.1082 -0.6378 -0.5460
 4691SOL    HW125709   0.227   2.448   5.713 -0.9458  0.1722  2.6124
 4691SOL    HW225710   0.303   2.506   5.823 -4.2707 -0.3541 -0.8882
 4692SOL     OW25711   3.018   3.274   6.790 -0.1817  0.1031 -0.2425
 4692SOL    HW125712   2.944   3.253   6.732 -0.1957  0.9245 -0.5149
 4692SOL    HW225713   3.015   3.369   6.778  1.2279  0.1625 -0.0916
 4693SOL     OW25714   0.348   4.499   4.487 -0.5105 -0.0245 -0.4152
 4693SOL    HW125715   0.317   4.432   4.426  0.9972 -0.4347 -0.7320
 4693SOL    HW225716   0.379   4.568   4.428  0.0474  0.8495  0.9015
 4694SOL     OW25717   0.358   3.452   8.720 -0.5874 -0.8837 -0.5541
 4694SOL    HW125718   0.404   3.488   8.796  2.8949 -1.5215 -2.3246
 4694SOL    HW225719   0.347   3.359   8.738 -2.0495 -0.1884  2.0732
 4695SOL     OW25720   3.510   0.970  15.475  0.2680  0.5559 -0.1079
 4695SOL    HW125721   3.442   0.958  15.542  1.3409 -0.9577  0.7117
 4695SOL    HW225722   3.582   0.917  15.510 -0.2979  0.7315  1.3414
 4696SOL     OW25723   2.349   3.982   6.686 -0.1642  0.2711 -0.5602
 4696SOL    HW125724   2.400   3.902   6.699 -1.5537 -0.4887  0.2375
 4696SOL    HW225725   2.292   3.952   6.616 -0.7237 -2.4933  1.0815
 4697SOL     OW25726   3.846   0.019   7.961 -0.1497 -0.3454 -0.6237
 4697SOL    HW125727   3.854   4.665   7.984  0.3980  0.1837  1.2617
 4697SOL    HW225728   3.856   0.010   7.866 -0.3534  2.3170 -0.8815
 4698SOL     OW25729   4.634   1.331   0.158 -0.8476  0.6600 -0.1864
 4698SOL    HW125730   4.622   1.245   0.118 -2.4812  0.1523  1.3924
 4698SOL    HW225731   4.622   1.321   0.252  0.4863 -0.9183 -0.1974
 4699SOL     OW25732   3.845   0.090   9.683 -0.1940  0.3963 -0.4467
 4699SOL    HW125733   3.793   0.075   9.604 -1.3342 -1.2659  0.6265
 4699SOL    HW225734   3.931   0.120   9.652 -0.7878  1.1855 -1.3228
 4700SOL     OW25735   2.738   3.492   6.752 -0.1252 -0.3503 -0.2046
 4700SOL    HW125736   2.737   3.436   6.830  3.2353 -1.2847 -0.8151
 4700SOL    HW225737   2.720   3.423   6.689 -1.6332  0.8098 -1.0356
 4701SOL     OW25738   3.497   0.613   4.445 -0.2905  0.1755  0.0451
 4701SOL    HW125739   3.589   0.589   4.433 -0.5313 -1.2872  1.1809
 4701SOL    HW225740   3.488   0.683   4.381  1.8308  1.0638  0.7242
 4702SOL     OW25741   4.649   0.830  10.806 -0.3420  0.1309 -0.0620
 4702SOL    HW125742   4.624   0.741  10.830  2.7204 -0.5514  0.6086
 4702SOL    HW225743   0.005   0.828  10.817 -0.2875  0.3928 -0.4750
 4703SOL     OW25744   1.670   4.730   7.082  0.3555 -0.2626  1.2055
 4703SOL    HW125745   1.592   0.028   7.123 -0.1002  2.1284 -1.7265
 4703SOL    HW225746   1.736   0.035   7.136 -0.2712  2.8570 -0.5333
 4704SOL     OW25747   3.497   2.846   3.770  0.1722 -0.0322  0.9637
 4704SOL    HW125748   3.455   2.931   3.783  0.9135  0.9107 -2.5717
 4704SOL    HW225749   3.429   2.779   3.776  1.2894 -1.2403  0.0938
 4705SOL     OW25750   4.637   4.080   4.471  0.2809 -0.3934 -0.4388
 4705SOL    HW125751   4.560   4.137   4.476  1.3326  1.1613 -1.9638
 4705SOL    HW225752   4.703   4.144   4.500 -0.4851  0.8080 -1.3436
 4706SOL     OW25753   1.597   1.220  10.820  0.2515  0.1364  0.0028
 4706SOL    HW125754   1.589   1.200  10.727 -0.5572 -0.9457  0.3094
 4706SOL    HW225755   1.562   1.138  10.855  0.9576 -0.0504  0.2712
 4707SOL     OW25756   2.877   2.384  14.452  0.1986  0.0223  0.0394
 4707SOL    HW125757   2.788   2.383  14.414  0.5471  2.8360 -0.8332
 4707SOL    HW225758   2.861   2.451  14.518  0.8432  0.3685 -0.1610
 4708SOL     OW25759   2.018   0.807   2.685  0.1810 -0.6394 -0.4772
 4708SOL    HW125760   2.039   0.777   2.597  1.5620  1.0129 -0.6998
 4708SOL    HW225761   1.994   0.722   2.722  0.2327 -0.9780 -1.2331
 4709SOL     OW25762   2.494   3.198   6.951  0.0229 -0.0288 -0.2712
 4709SOL    HW125763   2.546   3.237   7.021 -1.2133 -0.0364  0.6563
 4709SOL    HW225764   2.543   3.121   6.924 -0.3449 -0.8894  1.5337
 4710SOL     OW25765   4.168   4.566  15.675  0.2751 -0.5987 -0.2049
 4710SOL    HW125766   4.248   4.530  15.711  0.6376  0.2685 -0.1422
 4710SOL    HW225767   4.202   4.598  15.591  1.2604  1.8925  1.1582
 4711SOL     OW25768   0.425   0.816  12.748 -0.4547  0.2570 -0.5053
 4711SOL    HW125769   0.498   0.825  12.809  0.2864  0.6856 -1.4608
 4711SOL    HW225770   0.476   0.833  12.668  0.5867 -0.3953  0.0247
 4712SOL     OW25771   3.108   3.842   2.630 -0.4748  0.6810  0.2262
 4712SOL    HW125772   3.151   3.756   2.634 -0.7011  0.5811  0.5166
 4712SOL    HW225773   3.181   3.898   2.657 -2.0291  4.5702 -3.6877
 4713SOL     OW25774   3.967   2.942   8.367  0.0291 -0.2738  0.4878
 4713SOL    HW125775   4.044   2.994   8.388  0.2117  0.8071 -2.8313
 4713SOL    HW225776   3.948   2.977   8.280 -3.8758  0.9917  1.8551
 4714SOL     OW25777   0.126   1.938   3.338 -0.0708  0.4682  0.3507
 4714SOL    HW125778   0.031   1.934   3.354 -0.1171  0.6965  0.1363
 4714SOL    HW225779   0.157   1.876   3.404 -1.0487  0.1955  0.5641
 4715SOL     OW25780   3.241   2.736   7.168  0.0379 -1.0728  0.0903
 4715SOL    HW125781   3.280   2.803   7.224 -1.5433 -0.0764  0.0126
 4715SOL    HW225782   3.219   2.785   7.088  0.0668  0.6463  1.1335
 4716SOL     OW25783   4.546   3.024  10.702  0.0499  0.1706 -0.8442
 4716SOL    HW125784   4.555   3.070  10.619  2.6150 -1.1389 -1.2667
 4716SOL    HW225785   4.474   2.964  10.682 -0.6310  1.1019 -1.2005
 4717SOL     OW25786   2.268   1.263   3.739 -0.3637  0.5692  0.2218
 4717SOL    HW125787   2.357   1.295   3.755  0.8137 -2.1608 -0.7967
 4717SOL    HW225788   2.238   1.241   3.827 -1.7985  0.5008 -0.2776
 4718SOL     OW25789   0.721   1.686   2.810  0.0265  1.3446  0.2470
 4718SOL    HW125790   0.664   1.760   2.790 -0.3500  1.2108  0.8326
 4718SOL    HW225791   0.710   1.685   2.905  1.4078 -2.0879  0.3820
 4719SOL     OW25792   1.411   2.046   3.303 -0.1860 -0.0327 -0.0299
 4719SOL    HW125793   1.407   1.951   3.312  0.3995 -0.2162 -1.7294
 4719SOL    HW225794   1.445   2.048   3.213  1.0546  3.1939  0.5029
 4720SOL     OW25795   2.323   4.736   4.268 -0.0863  0.4788 -0.2042
 4720SOL    HW125796   2.398   0.021   4.322 -0.5463 -0.2293  0.7485
 4720SOL    HW225797   2.292   0.084   4.240 -2.3068  0.3126  1.7608
 4721SOL     OW25798   0.786   1.032   5.767  0.1299 -0.5556 -0.1459
 4721SOL    HW125799   0.722   0.979   5.813 -0.0957  0.4057  0.6525
 4721SOL    HW225800   0.840   0.957   5.743 -0.4239 -1.1964  0.6213
 4722SOL     OW25801   0.752   2.711   2.643  0.4023  0.4835 -0.5573
 4722SOL    HW125802   0.817   2.777   2.668 -1.2177  0.6465  3.2407
 4722SOL    HW225803   0.686   2.772   2.608 -0.4557 -0.2206 -0.1692
 4723SOL     OW25804   2.862   1.626   7.936  0.7927  0.1658 -0.4200
 4723SOL    HW125805   2.875   1.646   7.843  1.1404  0.0041 -0.4040
 4723SOL    HW225806   2.767   1.610   7.934  1.3335 -3.1098  0.6373
 4724SOL     OW25807   0.480   1.262  14.573  0.2518 -0.1154  0.0794
 4724SOL    HW125808   0.517   1.341  14.531 -3.0193  1.3811  0.0088
 4724SOL    HW225809   0.404   1.300  14.618 -0.2744 -1.9240  0.7142
 4725SOL     OW25810   0.893   3.204   6.767  0.0385 -0.1403 -0.0797
 4725SOL    HW125811   0.938   3.277   6.725 -0.1216 -0.4202 -0.7387
 4725SOL    HW225812   0.871   3.242   6.852 -0.8461 -0.7283 -0.0521
 4726SOL     OW25813   1.410   0.176   8.363 -0.3727 -0.2784  0.6279
 4726SOL    HW125814   1.462   0.152   8.440  0.8702 -0.9543 -0.4147
 4726SOL    HW225815   1.432   0.111   8.297  0.7306  0.1454  0.5751
 4727SOL     OW25816   4.096   1.346   4.813 -0.2272  0.1963 -0.0306
 4727SOL    HW125817   4.006   1.343   4.782  0.3700  0.5341 -1.7696
 4727SOL    HW225818   4.139   1.293   4.746 -1.6777  0.2726 -1.0231
 4728SOL     OW25819   3.314   3.350   5.080 -0.2919  0.1744 -0.2061
 4728SOL    HW125820   3.225   3.343   5.045 -0.8338 -0.9314  1.4148
 4728SOL    HW225821   3.356   3.394   5.005 -0.5495  0.9754  0.1208
 4729SOL     OW25822   0.498   0.369  16.660 -0.2488 -0.4418  0.3235
 4729SOL    HW125823   0.564   0.431  16.631  1.3375 -1.1980  2.3220
 4729SOL    HW225824   0.536   0.350  16.746  2.8038  0.8632 -0.7387
 4730SOL     OW25825   4.321   0.342  17.601  0.0809  0.0394  0.5329
 4730SOL    HW125826   4.398   0.386  17.637 -0.9925  0.5996  2.1241
 4730SOL    HW225827   4.321   0.400  17.524  0.1939  0.8407  1.1383
 4731SOL     OW25828   1.023   0.150   3.374 -0.1018 -0.2870 -0.8379
 4731SOL    HW125829   0.992   0.076   3.323 -2.3337 -0.5445  0.8820
 4731SOL    HW225830   0.939   0.176   3.412 -0.0757 -0.3630 -0.7260
 4732SOL     OW25831   0.666   3.803   3.001 -0.0117  0.1597  0.0245
 4732SOL    HW125832   0.691   3.756   2.921  0.9881  0.0807  0.3870
 4732SOL    HW225833   0.743   3.801   3.056 -0.5542  1.4200  0.8357
 4733SOL     OW25834   3.406   2.596   1.946  0.0425  0.0133  0.1325
 4733SOL    HW125835   3.327   2.560   1.985 -0.6369 -0.5435 -1.7341
 4733SOL    HW225836   3.391   2.690   1.938 -0.8354 -0.1886 -0.5502
 4734SOL     OW25837   2.806   2.232   4.466  0.4872  0.0882 -0.0259
 4734SOL    HW125838   2.893   2.228   4.427 -0.1714 -1.5390 -1.3267
 4734SOL    HW225839   2.824   2.285   4.543  2.1583 -1.0767  0.3906
 4735SOL     OW25840   3.102   0.466  11.240  0.0998 -0.2266 -0.1777
 4735SOL    HW125841   3.015   0.433  11.219  0.0259 -0.1283 -0.0216
 4735SOL    HW225842   3.129   0.383  11.278 -2.5692 -0.8891  0.3035
 4736SOL     OW25843   3.381   2.367   0.562 -0.2338  0.5291 -0.1071
 4736SOL    HW125844   3.454   2.352   0.502  0.0029 -0.5324  0.4394
 4736SOL    HW225845   3.311   2.315   0.524  0.4922 -0.0263 -0.6661
 4737SOL     OW25846   0.499   3.832   4.656  0.3832 -0.0404 -0.2459
 4737SOL    HW125847   0.510   3.795   4.744  0.8440 -0.3115 -0.4163
 4737SOL    HW225848   0.439   3.904   4.675  0.5529  0.1849 -0.5581
 4738SOL     OW25849   3.176   2.183   0.725  0.6079 -0.6941 -0.1049
 4738SOL    HW125850   3.204   2.129   0.651 -0.1444 -0.0343 -0.8720
 4738SOL    HW225851   3.259   2.231   0.734  0.2812 -0.0076 -0.6682
 4739SOL     OW25852   0.435   1.625  12.227  0.4290 -0.0056  0.7171
 4739SOL    HW125853   0.408   1.635  12.318  0.9393  1.3261  0.7293
 4739SOL    HW225854   0.354   1.589  12.192  1.1423 -0.6876 -0.2324
 4740SOL     OW25855   3.443   3.697  16.483  0.6581 -0.0183  0.0835
 4740SOL    HW125856   3.365   3.748  16.459  0.2575 -1.4974 -1.7331
 4740SOL    HW225857   3.471   3.662  16.399 -2.4877  0.6548 -1.2492
 4741SOL     OW25858   0.227   0.106   0.157 -0.0912  0.5335 -0.0734
 4741SOL    HW125859   0.185   0.076   0.076  1.3798  1.4061 -1.1606
 4741SOL    HW225860   0.161   0.087   0.224 -0.5571  0.5905 -0.5075
 4742SOL     OW25861   3.213   0.286   4.743  0.2301  0.2957  0.0453
 4742SOL    HW125862   3.247   0.225   4.677  0.7006 -0.7400  1.2460
 4742SOL    HW225863   3.167   0.229   4.804 -1.4782  1.9732  0.3331
 4743SOL     OW25864   3.115   0.089   9.990  0.0853  0.4549 -0.3600
 4743SOL    HW125865   3.081   0.006   9.955 -0.8855  0.9010 -0.4610
 4743SOL    HW225866   3.059   0.109  10.065 -1.5647 -0.7699 -1.2517
 4744SOL     OW25867   0.488   4.002   6.359  0.0352 -0.1192 -0.1469
 4744SOL    HW125868   0.545   3.974   6.288  1.0667  1.1647  0.1830
 4744SOL    HW225869   0.557   4.015   6.424 -0.9561 -0.9861  1.0798
 4745SOL     OW25870   2.203   2.542  11.278  0.2278  0.3837 -0.0810
 4745SOL    HW125871   2.154   2.610  11.231  2.7362  1.6525 -0.8655
 4745SOL    HW225872   2.134   2.487  11.316  1.4050  0.6889  2.4714
 4746SOL     OW25873   1.453   1.578  12.147 -0.5383  0.1250  0.1319
 4746SOL    HW125874   1.468   1.501  12.091 -1.0778 -1.6018  2.3853
 4746SOL    HW225875   1.415   1.629  12.075 -1.4963  0.4680  0.8857
 4747SOL     OW25876   4.390   3.803   6.839  0.5981  0.0462  0.5391
 4747SOL    HW125877   4.321   3.747   6.874 -1.2260  1.5690 -0.6155
 4747SOL    HW225878   4.364   3.817   6.748 -1.2133  2.0151  1.3587
 4748SOL     OW25879   1.434   1.286   9.138  0.0125  0.2374 -0.3382
 4748SOL    HW125880   1.382   1.367   9.134  0.5549  0.5582 -1.0183
 4748SOL    HW225881   1.380   1.228   9.191 -1.0535  2.1425  0.6652
 4749SOL     OW25882   1.149   2.824   2.258  0.3140 -0.4719  0.3050
 4749SOL    HW125883   1.172   2.760   2.325  1.0132 -1.0162 -0.4567
 4749SOL    HW225884   1.168   2.909   2.298  0.2160 -0.2133 -0.1998
 4750SOL     OW25885   1.398   0.670   5.297  0.3436  0.0273 -0.0865
 4750SOL    HW125886   1.327   0.685   5.360  1.5706 -1.0954  1.5721
 4750SOL    HW225887   1.442   0.755   5.302  2.1185 -0.8845 -0.4563
 4751SOL     OW25888   3.144   4.469   7.367  0.2733  0.4830 -0.1122
 4751SOL    HW125889   3.165   4.447   7.458  0.3984 -0.5252 -0.3900
 4751SOL    HW225890   3.216   4.426   7.320 -0.6795 -0.3281 -0.8270
 4752SOL     OW25891   0.755   4.590  15.205  0.0943 -0.7780  0.2194
 4752SOL    HW125892   0.746   4.542  15.122  0.2201 -1.3218  0.5203
 4752SOL    HW225893   0.763   4.678  15.170 -1.8615 -1.0402 -0.9250
 4753SOL     OW25894   4.685   4.704   8.974  0.3719  0.3626  0.2063
 4753SOL    HW125895   4.728   4.618   8.969  4.3161  2.4628 -1.4938
 4753SOL    HW225896   4.606   4.707   8.919  0.0190 -0.3454  0.6707
 4754SOL     OW25897   1.336   2.906   6.214 -0.4108  0.7146  0.3059
 4754SOL    HW125898   1.280   2.835   6.184  2.2033 -0.2918 -2.2583
 4754SOL    HW225899   1.412   2.860   6.251 -0.2681  0.2984 -0.5088
 4755SOL     OW25900   4.261   1.004   2.903 -0.4062 -1.0987  0.0576
 4755SOL    HW125901   4.341   0.952   2.913  0.3651  0.5115  2.3393
 4755SOL    HW225902   4.270   1.051   2.820  2.4815 -0.4305  0.7456
 4756SOL     OW25903   2.373   4.678  15.957  0.2437  0.0659 -0.1069
 4756SOL    HW125904   2.316   4.685  16.034 -0.3756  0.0660 -0.5701
 4756SOL    HW225905   2.450   4.634  15.993 -0.8207 -0.4815  1.5123
 4757SOL     OW25906   1.736   1.405  14.232 -0.2614 -0.0735 -0.3866
 4757SOL    HW125907   1.823   1.424  14.198  0.6076 -1.4301  1.0549
 4757SOL    HW225908   1.764   1.414  14.323  2.2262  0.3451 -1.1982
 4758SOL     OW25909   3.863   4.616  10.883  0.1004 -0.2927 -0.0936
 4758SOL    HW125910   3.949   4.644  10.915 -1.0682  0.8818  1.9677
 4758SOL    HW225911   3.863   4.663  10.800 -0.9005 -2.2239 -1.1879
 4759SOL     OW25912   1.974   0.751   7.179  0.3895 -0.2124 -0.1040
 4759SOL    HW125913   2.052   0.700   7.160  0.6577  0.3687 -0.5603
 4759SOL    HW225914   2.020   0.835   7.190  0.8658 -0.3577 -1.0227
 4760SOL     OW25915   1.659   4.274   2.733  0.8063  0.8024  0.5699
 4760SOL    HW125916   1.652   4.358   2.778  2.6840  1.8514 -1.0967
 4760SOL    HW225917   1.589   4.223   2.774 -0.1598  2.1581  0.5903
 4761SOL     OW25918   0.679   4.203  13.270  0.1983 -0.1927  0.6010
 4761SOL    HW125919   0.603   4.166  13.226  0.3109 -0.7591  0.8904
 4761SOL    HW225920   0.662   4.298  13.274 -0.3406 -0.3476  1.8168
 4762SOL     OW25921   0.327   1.833   6.651 -0.2909  0.4609 -0.1157
 4762SOL    HW125922   0.337   1.833   6.746  0.4302 -4.1725 -0.1671
 4762SOL    HW225923   0.418   1.822   6.623 -0.2694 -1.0516  0.5295
 4763SOL     OW25924   4.163   2.621  13.029 -0.1147  0.1614  0.3812
 4763SOL    HW125925   4.101   2.633  13.100 -3.6801  0.3265 -2.7313
 4763SOL    HW225926   4.197   2.709  13.012 -1.2944  0.6447  0.5338
 4764SOL     OW25927   0.055   3.221   6.243 -0.5735 -0.1820  0.1325
 4764SOL    HW125928   0.048   3.303   6.291  0.9606  1.0696 -1.8028
 4764SOL    HW225929   0.081   3.254   6.157 -3.6555 -0.2380 -0.8091
 4765SOL     OW25930   3.919   0.083   5.995  0.0015 -0.4743 -0.5130
 4765SOL    HW125931   3.931   0.002   6.044  0.7015 -0.6651 -1.0080
 4765SOL    HW225932   3.832   0.075   5.957 -0.0417 -2.4607  0.0373
 4766SOL     OW25933   1.258   3.422  13.668 -0.3335  0.5026 -0.4104
 4766SOL    HW125934   1.170   3.403  13.701 -0.0531  2.4420  1.4878
 4766SOL    HW225935   1.236   3.465  13.585  1.2303 -0.1648 -1.1670
 4767SOL     OW25936   0.128   3.995  12.145  0.0119  0.3488 -0.4904
 4767SOL    HW125937   0.181   4.043  12.208  0.7730 -0.5209 -0.4654
 4767SOL    HW225938   0.068   3.960  12.210  1.6308 -1.3701  0.0693
 4768SOL     OW25939   0.509   3.900  12.266 -0.2854 -0.6969 -0.1795
 4768SOL    HW125940   0.442   3.877  12.331 -0.0178  3.6637  1.6647
 4768SOL    HW225941   0.590   3.872  12.308 -0.8233 -0.5634  0.9610
 4769SOL     OW25942   2.712   1.135   0.262 -0.6439 -0.0706  0.4824
 4769SOL    HW125943   2.617   1.145   0.270 -0.8496 -1.0643 -0.8361
 4769SOL    HW225944   2.719   1.078   0.185  0.3227 -0.1798  0.6494
 4770SOL     OW25945   1.269   1.186   4.944  0.3195  0.6552  0.5033
 4770SOL    HW125946   1.260   1.191   4.849  0.7900  0.1257  0.4310
 4770SOL    HW225947   1.189   1.138   4.966  0.3641  0.5432  0.4178
 4771SOL     OW25948   4.522   3.161   6.733  0.2694 -0.6477 -0.5561
 4771SOL    HW125949   4.491   3.072   6.747  0.5178 -0.5614  0.5200
 4771SOL    HW225950   4.614   3.169   6.758  0.2343 -1.3594 -0.1839
 4772SOL     OW25951   2.826   0.165   7.140 -0.4642 -0.1749 -0.3052
 4772SOL    HW125952   2.780   0.081   7.139  0.0576 -0.4602 -0.5552
 4772SOL    HW225953   2.911   0.142   7.177 -1.4857  2.2992  3.5620
 4773SOL     OW25954   0.927   3.571   7.435 -0.1133 -0.0081  0.1521
 4773SOL    HW125955   1.011   3.542   7.400  0.4511  1.4322  0.3052
 4773SOL    HW225956   0.962   3.653   7.470  1.7495 -1.1554  0.9879
 4774SOL     OW25957   4.005   3.473   3.749  0.0349  0.1611  0.1411
 4774SOL    HW125958   3.968   3.432   3.827  0.8914 -1.4494 -0.2839
 4774SOL    HW225959   3.983   3.418   3.674 -1.2093 -0.6904  1.1331
 4775SOL     OW25960   1.946   3.741  14.866  0.0501 -0.2760  0.0475
 4775SOL    HW125961   1.985   3.667  14.913 -0.1793 -0.5404 -0.1824
 4775SOL    HW225962   2.024   3.797  14.865 -0.5769  0.5408 -1.9913
 4776SOL     OW25963   3.510   1.896  12.449 -0.7026 -0.0030 -0.0836
 4776SOL    HW125964   3.451   1.821  12.448  0.0818 -0.6485  2.2398
 4776SOL    HW225965   3.506   1.937  12.535  3.0638 -3.2624  1.6738
 4777SOL     OW25966   0.423   0.789   3.581  0.2731 -0.4083  0.3807
 4777SOL    HW125967   0.496   0.756   3.633  2.1282 -1.3881 -2.8608
 4777SOL    HW225968   0.468   0.839   3.512 -0.8042 -1.5592 -1.1478
 4778SOL     OW25969   4.632   0.323   5.109  0.1484 -0.0552  0.9454
 4778SOL    HW125970   4.696   0.267   5.064  0.0686  0.4433  0.2072
 4778SOL    HW225971   4.641   0.289   5.197 -1.4400 -1.5248  0.5299
 4779SOL     OW25972   1.832   2.640   6.333 -0.3671  0.2793 -0.3790
 4779SOL    HW125973   1.907   2.620   6.390  0.5255  3.3746 -0.4856
 4779SOL    HW225974   1.801   2.552   6.311 -0.9108  0.5786 -0.7907
 4780SOL     OW25975   3.127   2.536   9.418  0.4432  0.0226  0.2136
 4780SOL    HW125976   3.222   2.543   9.408  0.2411  2.1376 -0.2593
 4780SOL    HW225977   3.097   2.615   9.375  2.8004  1.9443  2.0734
 4781SOL     OW25978   4.164   2.443   9.599  0.1427  0.4439  0.4924
 4781SOL    HW125979   4.087   2.499   9.596 -0.4818 -0.4848 -0.6300
 4781SOL    HW225980   4.224   2.488   9.540  0.0499 -0.5696 -0.3787
 4782SOL     OW25981   0.827   1.291   1.317 -0.0739  0.0220 -0.0047
 4782SOL    HW125982   0.889   1.361   1.300 -0.3486  0.7375  1.9788
 4782SOL    HW225983   0.878   1.239   1.379 -0.2771 -0.2740 -0.0844
 4783SOL     OW25984   4.137   3.174   8.403 -0.2375 -0.6513 -0.4740
 4783SOL    HW125985   4.167   3.131   8.483  0.2497 -1.3248 -1.0215
 4783SOL    HW225986   4.113   3.260   8.437  0.9538  0.0853 -1.5119
 4784SOL     OW25987   2.974   2.962   3.017  0.6733 -0.8410 -0.0089
 4784SOL    HW125988   3.025   2.891   2.979  0.7011  0.7338 -2.9001
 4784SOL    HW225989   3.043   3.021   3.047  0.9807 -1.3389  0.2542
 4785SOL     OW25990   3.537   2.383   2.096 -0.3854 -0.0873  0.5221
 4785SOL    HW125991   3.550   2.447   2.026  1.1200  0.6478  1.4813
 4785SOL    HW225992   3.452   2.343   2.078  0.1286 -0.6195 -0.7202
 4786SOL     OW25993   3.868   3.604   4.145 -0.2105 -0.0373  0.2504
 4786SOL    HW125994   3.939   3.598   4.082  0.2060  0.9317  0.6246
 4786SOL    HW225995   3.926   3.642   4.211 -1.9881 -2.2384  3.0798
 4787SOL     OW25996   2.500   0.292   3.986  0.4789  0.3682 -0.2072
 4787SOL    HW125997   2.519   0.198   3.990 -1.0190  0.1175  1.1215
 4787SOL    HW225998   2.518   0.308   3.893  1.6229 -0.7088 -0.1685
 4788SOL     OW25999   2.498   2.398  11.733 -0.0309  0.2221 -0.0303
 4788SOL    HW126000   2.575   2.455  11.724  0.3315 -0.2435  0.1540
 4788SOL    HW226001   2.453   2.419  11.652  0.7172 -0.0622 -0.5184
 4789SOL     OW26002   3.131   2.002   1.409  0.5974 -0.2870  0.2612
 4789SOL    HW126003   3.176   1.923   1.380  0.7477  0.7412 -2.3410
 4789SOL    HW226004   3.082   2.014   1.328 -0.3880  1.1959  1.0711
 4790SOL     OW26005   2.029   2.152   8.704  0.3129  0.4576  0.2479
 4790SOL    HW126006   2.072   2.109   8.630  0.5774 -0.3264  0.8553
 4790SOL    HW226007   2.099   2.194   8.753  0.3780  1.1611 -0.4278
 4791SOL     OW26008   3.742   2.626  14.778 -0.4637 -0.6747  0.2951
 4791SOL    HW126009   3.826   2.581  14.788  0.6450  1.2010 -0.5592
 4791SOL    HW226010   3.750   2.641  14.684 -3.1632 -0.0415  0.1759
 4792SOL     OW26011   2.248   3.076  15.220  0.1696  0.1765 -0.1205
 4792SOL    HW126012   2.200   3.109  15.145  2.1634  2.4125 -0.4196
 4792SOL    HW226013   2.275   3.156  15.265 -0.8618  1.6803 -2.1990
 4793SOL     OW26014   0.857   1.922  14.647 -0.2857  0.0576 -0.3085
 4793SOL    HW126015   0.933   1.981  14.656 -1.3617  1.0370  2.4881
 4793SOL    HW226016   0.790   1.967  14.699  0.7983 -0.7736  1.8296
 4794SOL     OW26017   4.709   2.737   9.214  0.0703 -0.5505 -0.3517
 4794SOL    HW126018   4.714   2.800   9.286 -0.8245 -0.2683 -0.5451
 4794SOL    HW226019   4.616   2.730   9.192  0.1478 -0.9915 -0.5260
 4795SOL     OW26020   0.010   3.234  17.730 -0.3566  0.3807  0.1283
 4795SOL    HW126021   0.017   3.235  17.635  0.2452 -1.0213  0.1601
 4795SOL    HW226022   0.082   3.295  17.747  1.0219 -1.6532  1.6353
 4796SOL     OW26023   0.500   3.492   4.180  0.1561  0.0936 -0.1576
 4796SOL    HW126024   0.516   3.412   4.230 -0.2399 -0.1944 -0.4822
 4796SOL    HW226025   0.528   3.462   4.093  1.2072  2.1947 -0.5234
 4797SOL     OW26026   3.221   0.192  12.448 -0.1317 -0.2846 -0.2477
 4797SOL    HW126027   3.150   0.153  12.397  0.3288 -3.7333  1.7149
 4797SOL    HW226028   3.239   0.265  12.389 -0.0342  0.8475  1.1623
 4798SOL     OW26029   0.663   1.063   1.386 -0.1468  0.0447 -0.6312
 4798SOL    HW126030   0.727   1.128   1.357 -0.8016  1.4885  1.1889
 4798SOL    HW226031   0.614   1.106   1.455  0.6606  0.0611 -0.0644
 4799SOL     OW26032   3.035   3.635  10.883  0.0731  0.6164 -0.1703
 4799SOL    HW126033   3.055   3.728  10.888  0.1569  0.6045 -0.2632
 4799SOL    HW226034   2.950   3.625  10.925  0.0618 -0.9917 -0.5672
 4800SOL     OW26035   4.165   1.757   5.401  0.0783 -0.4542  0.2295
 4800SOL    HW126036   4.190   1.672   5.436 -0.9222 -0.3897  1.1029
 4800SOL    HW226037   4.070   1.743   5.404 -0.3544  2.8079  0.8423
 4801SOL     OW26038   4.714   3.488   7.220 -0.2204 -0.0914 -0.0172
 4801SOL    HW126039   4.685   3.490   7.129  0.2038 -0.9962 -0.1665
 4801SOL    HW226040   0.041   3.418   7.224 -1.3236 -1.2557 -2.3415
 4802SOL     OW26041   2.024   2.024   5.561  0.5715  0.2978 -0.4882
 4802SOL    HW126042   2.015   2.024   5.657  0.6747 -1.2049 -0.4835
 4802SOL    HW226043   2.021   2.118   5.540 -0.0008  0.5285  0.6061
 4803SOL     OW26044   0.999   2.580   7.602 -0.6050  0.7903 -0.3770
 4803SOL    HW126045   1.020   2.606   7.692 -0.2682  3.2643 -1.1717
 4803SOL    HW226046   1.064   2.627   7.549  0.8721  1.0115  1.6284
 4804SOL     OW26047   1.245   2.524   0.293 -0.0180  0.1153 -0.1048
 4804SOL    HW126048   1.237   2.522   0.389  3.6574  2.5982  0.2323
 4804SOL    HW226049   1.258   2.616   0.274 -0.2903 -0.2161 -1.8478
 4805SOL     OW26050   4.215   3.909  15.927  0.0557  0.3233 -0.1334
 4805SOL    HW126051   4.237   3.831  15.875  1.5045  0.4258  0.3480
 4805SOL    HW226052   4.247   3.974  15.864  2.4746 -0.3393  0.4224
 4806SOL     OW26053   0.786   3.914   4.858  0.4046  0.3247  0.1651
 4806SOL    HW126054   0.803   3.851   4.929 -1.5765  0.0930  0.4308
 4806SOL    HW226055   0.693   3.892   4.853  0.1803  1.7859 -2.0856
 4807SOL     OW26056   4.722   1.928  14.877 -0.2284  0.0946  0.7277
 4807SOL    HW126057   0.073   1.893  14.872 -0.0662  0.4462  1.2226
 4807SOL    HW226058   4.678   1.871  14.814  1.3621  0.7230 -0.9319
 4808SOL     OW26059   1.102   0.265  10.322  0.3944 -0.1844 -0.5892
 4808SOL    HW126060   1.151   0.298  10.398 -0.5656 -0.5712  0.1953
 4808SOL    HW226061   1.147   0.302  10.246  1.6844 -0.1481  0.1934
 4809SOL     OW26062   0.847   0.635   6.548  0.3348  0.1593  0.3490
 4809SOL    HW126063   0.926   0.631   6.494  0.7937 -1.8914  1.1505
 4809SOL    HW226064   0.776   0.631   6.484  1.0543  2.8779 -0.6082
 4810SOL     OW26065   3.984   0.576   1.000  0.1532  0.0949 -0.7520
 4810SOL    HW126066   4.049   0.549   1.065 -1.1817  2.3237  1.5052
 4810SOL    HW226067   3.931   0.645   1.040 -0.3216  1.1110 -3.0918
 4811SOL     OW26068   1.997   1.417  13.152 -0.0650 -0.5496 -0.4379
 4811SOL    HW126069   2.023   1.414  13.059  1.0145 -0.8372 -0.1341
 4811SOL    HW226070   1.919   1.362  13.152  0.3037 -1.0751  0.5250
 4812SOL     OW26071   4.248   2.378   7.122  0.9043 -0.5009 -0.2555
 4812SOL    HW126072   4.237   2.298   7.173  0.5460 -0.4379 -0.2338
 4812SOL    HW226073   4.205   2.444   7.176  0.0159 -0.7304 -0.6764
 4813SOL     OW26074   0.139   4.680   4.615  0.0612  0.0007  0.3514
 4813SOL    HW126075   0.146   4.612   4.548 -2.1255 -0.0526  0.1888
 4813SOL    HW226076   0.192   0.010   4.574 -1.2878 -0.0072 -1.4009
 4814SOL     OW26077   1.224   0.072  16.169 -0.1659 -0.2502  0.7004
 4814SOL    HW126078   1.149   0.024  16.205  0.4096 -1.1303  0.7334
 4814SOL    HW226079   1.191   0.161  16.173 -0.6237 -0.2298 -3.1247
 4815SOL     OW26080   4.213   0.337   4.325 -0.3493  0.0797  0.4344
 4815SOL    HW126081   4.142   0.340   4.260 -0.6776 -0.6180  0.7659
 4815SOL    HW226082   4.260   0.420   4.321 -1.2321  0.5522 -0.5112
 4816SOL     OW26083   0.294   1.871  17.603 -0.0244 -0.4657 -0.5037
 4816SOL    HW126084   0.214   1.908  17.641 -0.1260 -1.1308 -0.0680
 4816SOL    HW226085   0.336   1.824  17.675 -0.8157 -0.5828 -0.1124
 4817SOL     OW26086   3.233   1.336   5.123  0.8263 -0.4432  0.1949
 4817SOL    HW126087   3.241   1.282   5.045  3.0212  2.5561 -1.6590
 4817SOL    HW226088   3.170   1.287   5.175  1.3145 -2.2178 -0.9231
 4818SOL     OW26089   0.792   0.191  16.663 -1.2619 -0.1052 -0.4451
 4818SOL    HW126090   0.836   0.268  16.697 -0.5417 -0.0348 -1.5170
 4818SOL    HW226091   0.808   0.122  16.728 -0.4201 -1.6384 -2.2706
 4819SOL     OW26092   4.265   1.587   4.735  0.4209  0.4258  0.3218
 4819SOL    HW126093   4.312   1.513   4.772 -1.5979 -1.8735 -1.6860
 4819SOL    HW226094   4.243   1.644   4.808 -2.9067  0.2124 -0.5078
 4820SOL     OW26095   0.022   0.346   4.389 -0.2623 -0.0657 -0.2057
 4820SOL    HW126096   4.724   0.262   4.416 -0.1290  0.9870  3.2657
 4820SOL    HW226097   0.035   0.379   4.478 -0.0368  2.5218 -1.2077
 4821SOL     OW26098   2.448   2.698   2.552 -0.0636  0.2300  0.3036
 4821SOL    HW126099   2.428   2.659   2.637 -2.0091  0.2716 -0.1315
 4821SOL    HW226100   2.443   2.792   2.569 -2.6891  0.1408 -0.0310
 4822SOL     OW26101   3.165   3.348   8.771  0.0462  0.6358 -0.1847
 4822SOL    HW126102   3.149   3.289   8.844 -0.8069  1.1045  0.0162
 4822SOL    HW226103   3.162   3.300   8.688  0.9903 -0.0162  0.1616
 4823SOL     OW26104   2.959   1.131  13.232  0.0945 -0.2475  0.1834
 4823SOL    HW126105   3.034   1.134  13.172 -3.0014 -0.3726 -3.7260
 4823SOL    HW226106   2.967   1.225  13.250  0.2245  0.3439 -3.0284
 4824SOL     OW26107   4.669   3.104   8.934 -0.5889  0.2993  0.1211
 4824SOL    HW126108   4.627   3.116   9.019 -1.8070  3.0190 -0.8749
 4824SOL    HW226109   4.714   3.020   8.940  1.6309  1.3212 -2.0726
 4825SOL     OW26110   3.313   1.972  14.447  0.3348  0.1236 -0.2659
 4825SOL    HW126111   3.388   1.967  14.386  2.1763 -3.2613  2.2712
 4825SOL    HW226112   3.311   2.065  14.469 -0.9127  0.0325 -0.0021
 4826SOL     OW26113   0.880   4.722   7.829 -0.2886  0.1140 -0.1764
 4826SOL    HW126114   0.813   4.668   7.871  0.6376 -0.0433  1.1262
 4826SOL    HW226115   0.956   4.664   7.828  0.0277  0.5449 -0.9105
 4827SOL     OW26116   0.736   1.047  10.434 -0.2975  0.1227 -0.1790
 4827SOL    HW126117   0.826   1.052  10.467  0.5686 -0.6017 -2.4066
 4827SOL    HW226118   0.698   0.969  10.476 -1.2921 -0.4475 -2.1138
 4828SOL     OW26119   2.136   1.002   7.859 -0.2328 -0.5382 -0.0830
 4828SOL    HW126120   2.199   1.038   7.797 -0.7337  0.2259 -0.1577
 4828SOL    HW226121   2.058   0.990   7.803 -0.7297 -1.4464  0.8220
 4829SOL     OW26122   1.925   4.149   7.594 -0.8120 -0.6265 -0.0548
 4829SOL    HW126123   1.862   4.171   7.526 -2.3238 -1.4274  1.0742
 4829SOL    HW226124   1.966   4.235   7.601 -2.9893  0.3248  1.1373
 4830SOL     OW26125   3.504   2.921   6.827  0.1072  0.1966 -0.2479
 4830SOL    HW126126   3.440   2.914   6.898 -0.1912  1.0513 -0.4322
 4830SOL    HW226127   3.462   2.885   6.750  1.8121 -1.1667 -0.5407
 4831SOL     OW26128   3.198   0.206  13.527 -0.2481  0.1955 -0.1808
 4831SOL    HW126129   3.256   0.222  13.453 -0.0189  3.0460  0.6058
 4831SOL    HW226130   3.262   0.201  13.598  0.5560 -2.2502 -1.0971
 4832SOL     OW26131   0.889   2.163  11.268 -0.6624 -0.0467  0.5751
 4832SOL    HW126132   0.948   2.212  11.326 -0.4102  0.9603 -0.5338
 4832SOL    HW226133   0.948   2.103  11.223 -2.6463 -0.5044 -1.3894
 4833SOL     OW26134   1.151   3.596   4.703  0.1051 -0.6414 -0.3265
 4833SOL    HW126135   1.188   3.684   4.700 -1.1534 -0.1254 -0.7293
 4833SOL    HW226136   1.188   3.557   4.624  4.1757  2.4351  0.0598
 4834SOL     OW26137   4.100   2.153   3.228 -0.0721  0.2009 -0.0373
 4834SOL    HW126138   4.161   2.169   3.156  0.6322 -1.2062  0.2471
 4834SOL    HW226139   4.016   2.159   3.183  0.0143 -0.6633 -0.2982
 4835SOL     OW26140   1.744   1.709   5.423 -0.5344  0.4592  0.2952
 4835SOL    HW126141   1.837   1.691   5.437 -0.2952  2.7623  1.7355
 4835SOL    HW226142   1.733   1.717   5.328  0.1661  0.4974  0.2147
 4836SOL     OW26143   0.924   1.708   3.789 -0.5488 -0.1421  0.2781
 4836SOL    HW126144   0.915   1.617   3.760 -0.9289  0.2028 -0.6653
 4836SOL    HW226145   0.924   1.752   3.704  2.9038 -0.1842  0.2605
 4837SOL     OW26146   3.873   3.495   5.948  0.2802  0.1617  0.5247
 4837SOL    HW126147   3.908   3.561   6.009 -0.4927 -0.0348  1.1812
 4837SOL    HW226148   3.887   3.425   6.012 -1.2522 -0.7430 -0.1590
 4838SOL     OW26149   1.663   3.403   8.602 -0.4749 -0.4259 -0.3341
 4838SOL    HW126150   1.755   3.419   8.619 -0.0900 -3.9771  0.8821
 4838SOL    HW226151   1.632   3.480   8.553 -0.3791  2.4053  4.0164
 4839SOL     OW26152   2.672   1.487   2.026 -0.4699  0.4691 -0.3436
 4839SOL    HW126153   2.734   1.446   2.087  0.6053  2.3668 -0.1368
 4839SOL    HW226154   2.608   1.531   2.082 -0.6747 -0.8411  0.4324
 4840SOL     OW26155   0.719   1.307   4.002  0.2681  0.1998  0.2901
 4840SOL    HW126156   0.777   1.361   3.947 -0.0473 -2.5850 -2.8249
 4840SOL    HW226157   0.682   1.243   3.940 -3.9568  2.3981  0.5813
 4841SOL     OW26158   0.720   0.991   8.340  0.2718  0.2067  0.1603
 4841SOL    HW126159   0.767   0.921   8.385  0.0301  2.1990  3.5498
 4841SOL    HW226160   0.753   1.076   8.369 -0.9241  0.4881  0.6840
 4842SOL     OW26161   1.499   3.347   0.071  0.9688  0.6189  0.2029
 4842SOL    HW126162   1.498   3.253   0.087  2.9726  1.0320  2.8492
 4842SOL    HW226163   1.473   3.383   0.156  1.8938 -0.8135  1.1089
 4843SOL     OW26164   1.447   4.207   6.476  0.2011  0.0985  0.3047
 4843SOL    HW126165   1.541   4.194   6.489 -0.3456 -1.7772  2.2995
 4843SOL    HW226166   1.428   4.129   6.425 -1.2362 -0.6537  1.9990
 4844SOL     OW26167   1.377   0.310   7.261 -0.3078  0.3905  0.0518
 4844SOL    HW126168   1.347   0.323   7.171  1.0680 -1.5974 -0.6815
 4844SOL    HW226169   1.386   0.215   7.266 -1.2904  0.2949  0.0623
 4845SOL     OW26170   3.264   1.688   3.083  0.8595 -0.1777  0.2694
 4845SOL    HW126171   3.193   1.730   3.033 -2.0528 -2.5854  2.3519
 4845SOL    HW226172   3.344   1.723   3.045  0.3603  1.2796  0.5417
 4846SOL     OW26173   1.639   1.732   9.441  0.2735 -0.0750  0.6024
 4846SOL    HW126174   1.620   1.753   9.532  1.8946 -1.1263  1.1856
 4846SOL    HW226175   1.591   1.806   9.403  3.1569  1.5381  0.0743
 4847SOL     OW26176   1.047   1.092   7.187 -0.2752 -0.1896  0.3407
 4847SOL    HW126177   1.028   1.132   7.272  0.9986  2.7467 -0.7398
 4847SOL    HW226178   1.004   1.008   7.196 -1.2522  0.1538 -1.1913
 4848SOL     OW26179   0.770   4.653  17.515 -0.5254  1.0107  0.0496
 4848SOL    HW126180   0.793   0.005  17.491  0.1281  0.8537  0.0858
 4848SOL    HW226181   0.695   4.631  17.460  0.1020  1.9513 -1.2193
 4849SOL     OW26182   3.448   3.679   9.040 -0.4109 -0.1217 -0.5455
 4849SOL    HW126183   3.355   3.677   9.063 -0.2643 -1.7262 -0.1067
 4849SOL    HW226184   3.457   3.772   9.020  2.5425  0.2547  2.5068
 4850SOL     OW26185   2.672   4.520   2.728  0.0966 -0.0598 -0.3488
 4850SOL    HW126186   2.598   4.471   2.692  0.1420  0.2865 -0.9102
 4850SOL    HW226187   2.634   4.597   2.772  2.4307  0.3618  0.8882
 4851SOL     OW26188   0.017   0.225   9.588 -0.5657 -0.5120 -0.2322
 4851SOL    HW126189   0.004   0.293   9.523 -0.3884 -1.1053 -0.8802
 4851SOL    HW226190   0.111   0.210   9.587 -0.6331 -0.7270 -2.3675
 4852SOL     OW26191   1.424   1.105   9.878 -0.3103 -0.0626  0.0274
 4852SOL    HW126192   1.480   1.091   9.802  2.1126  0.9190  1.6132
 4852SOL    HW226193   1.478   1.170   9.922 -1.6891  1.4039 -0.4399
 4853SOL     OW26194   3.837   1.058   9.263 -0.1386  0.8315 -0.2800
 4853SOL    HW126195   3.839   1.029   9.172 -2.4572 -3.6645  1.1365
 4853SOL    HW226196   3.799   0.981   9.305 -0.9192  0.6881 -1.2450
 4854SOL     OW26197   4.693   1.368   0.794 -0.1020 -0.4011  0.3907
 4854SOL    HW126198   4.662   1.317   0.719 -1.3200  0.2933  0.4154
 4854SOL    HW226199   4.651   1.451   0.769  1.5470  0.4841  0.5625
 4855SOL     OW26200   3.979   0.642  11.585  0.0404  0.1885  0.2162
 4855SOL    HW126201   4.071   0.622  11.605  0.5779  1.5183 -0.9258
 4855SOL    HW226202   3.980   0.698  11.508 -1.6613  1.2187  0.9358
 4856SOL     OW26203   0.321   3.857   5.728 -0.3114  0.0158 -0.6471
 4856SOL    HW126204   0.349   3.790   5.789 -2.1335 -0.6989 -0.5891
 4856SOL    HW226205   0.386   3.851   5.658  1.4691 -0.3811  1.0262
 4857SOL     OW26206   3.409   1.199   8.871 -0.2792  0.2449 -0.1932
 4857SOL    HW126207   3.390   1.176   8.780 -0.7844  1.5375 -0.4058
 4857SOL    HW226208   3.326   1.170   8.909  1.6232 -0.6895  3.2812
 4858SOL     OW26209   2.633   0.166   7.604  0.1869 -0.2936  0.6531
 4858SOL    HW126210   2.676   0.237   7.556 -0.2363  1.1032  2.3473
 4858SOL    HW226211   2.652   0.097   7.541 -1.5957  0.4348 -0.6924
 4859SOL     OW26212   0.867   1.672   5.084  0.1642  0.1926  0.0870
 4859SOL    HW126213   0.838   1.653   4.994  3.0764 -0.7437 -0.6464
 4859SOL    HW226214   0.951   1.629   5.068 -0.5981 -1.5957  0.9283
 4860SOL     OW26215   4.318   2.973   1.795 -0.0656  0.5207  0.7895
 4860SOL    HW126216   4.390   3.032   1.818 -0.8084  1.2879  1.1728
 4860SOL    HW226217   4.343   2.888   1.833  1.7625  0.1897 -1.1407
 4861SOL     OW26218   0.306   2.340   3.710 -0.0086 -0.7019 -0.2807
 4861SOL    HW126219   0.267   2.312   3.793 -1.2507  1.0825 -0.2571
 4861SOL    HW226220   0.288   2.264   3.655  0.5815 -1.5034  0.6354
 4862SOL     OW26221   1.402   3.383  12.242 -1.0420 -0.5089  0.5983
 4862SOL    HW126222   1.434   3.302  12.201  2.1736  0.2300  1.7110
 4862SOL    HW226223   1.398   3.445  12.170 -3.0725  1.2458  2.2123
 4863SOL     OW26224   1.473   2.952   7.768  0.0789 -0.9855  0.2630
 4863SOL    HW126225   1.423   3.021   7.810 -0.6787 -1.9480  0.9463
 4863SOL    HW226226   1.525   2.931   7.846 -0.2776 -1.5845  0.3435
 4864SOL     OW26227   0.970   0.635   5.622 -0.1270 -0.1064 -0.3251
 4864SOL    HW126228   0.921   0.554   5.637  1.1727 -1.0181 -0.9481
 4864SOL    HW226229   0.971   0.663   5.714 -0.1339  0.6001 -0.5443
 4865SOL     OW26230   0.313   0.226   5.695  0.5286 -0.9541 -1.2072
 4865SOL    HW126231   0.369   0.230   5.617  1.1725 -0.2330 -0.7060
 4865SOL    HW226232   0.323   0.133   5.717 -2.4221 -1.0202 -0.1283
 4866SOL     OW26233   2.565   0.399   1.742 -0.1694  0.2973 -0.1405
 4866SOL    HW126234   2.473   0.388   1.767 -0.0422 -2.0920 -0.7027
 4866SOL    HW226235   2.547   0.483   1.700  1.7188  1.1876  0.8432
 4867SOL     OW26236   2.871   1.096   4.655  0.3161  0.4832  0.0122
 4867SOL    HW126237   2.890   1.155   4.728  0.1990  1.6262 -0.8884
 4867SOL    HW226238   2.888   1.159   4.585 -1.2114  1.6687  0.7145
 4868SOL     OW26239   1.662   4.140  13.947  0.1707  0.1523 -0.0731
 4868SOL    HW126240   1.748   4.167  13.915  0.7506 -2.5382 -0.8218
 4868SOL    HW226241   1.614   4.112  13.869 -0.4490 -0.5411  0.5642
 4869SOL     OW26242   2.477   0.019   3.597  0.5191 -0.0654 -0.1347
 4869SOL    HW126243   2.518   0.050   3.677 -0.4331 -1.5365  0.9357
 4869SOL    HW226244   2.485   0.094   3.538  2.5152 -1.4500 -1.6215
 4870SOL     OW26245   3.933   4.057   2.354 -0.3758  0.5527  0.0318
 4870SOL    HW126246   3.879   4.135   2.348  2.3240  2.4269  0.0612
 4870SOL    HW226247   3.896   3.991   2.295  1.0615  0.6962 -1.0262
 4871SOL     OW26248   1.779   1.758   6.967  0.0335  0.6358 -0.5750
 4871SOL    HW126249   1.747   1.840   7.005  0.6350  0.5030  0.2069
 4871SOL    HW226250   1.830   1.723   7.039 -0.3990 -1.0140 -1.0738
 4872SOL     OW26251   1.068   2.612   8.962  0.0449 -0.6676 -0.1177
 4872SOL    HW126252   1.107   2.615   8.875  0.0726  1.6626 -0.0110
 4872SOL    HW226253   0.986   2.660   8.950  0.2357 -0.6574 -1.3239
 4873SOL     OW26254   1.821   0.037   8.168 -0.1042  0.7778 -0.2916
 4873SOL    HW126255   1.744   0.086   8.141 -0.5226  0.4381  0.2995
 4873SOL    HW226256   1.860   0.042   8.080  0.5872  0.7471  0.0087
 4874SOL     OW26257   3.617   4.122   1.857 -0.2869 -0.1166 -0.1128
 4874SOL    HW126258   3.546   4.058   1.854 -0.4111 -0.0166  0.7372
 4874SOL    HW226259   3.577   4.205   1.833  1.2696  0.7708  0.3050
 4875SOL     OW26260   0.969   4.652   5.918  0.2481 -0.4821 -0.4890
 4875SOL    HW126261   0.975   4.608   5.833 -1.8973  0.1660 -0.9805
 4875SOL    HW226262   1.061   4.654   5.944 -0.6824 -0.4534  2.7912
 4876SOL     OW26263   3.554   4.317   8.195 -0.1805 -0.2305  0.4273
 4876SOL    HW126264   3.555   4.233   8.150  0.0868  0.2697 -0.4904
 4876SOL    HW226265   3.626   4.300   8.256  2.0460 -1.1477 -2.4485
 4877SOL     OW26266   1.907   0.351   1.586  0.5958 -0.2783 -0.3862
 4877SOL    HW126267   1.906   0.305   1.670 -1.5730 -0.6457 -0.6258
 4877SOL    HW226268   1.868   0.282   1.533 -1.1842  0.9109 -0.6178
 4878SOL     OW26269   2.808   0.402   8.607 -0.0731  0.2690  0.0746
 4878SOL    HW126270   2.900   0.375   8.609  0.2236  1.3203  0.4842
 4878SOL    HW226271   2.762   0.326   8.571  1.2214  1.0972 -3.3596
 4879SOL     OW26272   3.254   4.292  11.860  0.3568  0.2420  0.0943
 4879SOL    HW126273   3.323   4.355  11.883  0.6564 -0.5775  1.4736
 4879SOL    HW226274   3.272   4.277  11.767  0.0750 -1.4639  0.3264
 4880SOL     OW26275   2.194   1.700   8.172  0.5498  0.0352  0.4355
 4880SOL    HW126276   2.116   1.680   8.224  1.2816 -2.2439  0.6379
 4880SOL    HW226277   2.164   1.677   8.084 -0.4213  0.2992  0.6976
 4881SOL     OW26278   3.123   4.177   7.059 -0.1106 -0.2898  0.0231
 4881SOL    HW126279   3.045   4.165   7.004  0.9473  0.2758 -1.6124
 4881SOL    HW226280   3.111   4.265   7.095  0.6921  0.3580 -1.2778
 4882SOL     OW26281   2.409   0.953   6.407 -0.3210  0.2228  0.2443
 4882SOL    HW126282   2.367   0.878   6.365 -2.3958  1.2079  0.5590
 4882SOL    HW226283   2.470   0.997   6.348  0.4303 -0.6880  0.3504
 4883SOL     OW26284   4.465   1.052   4.114 -0.3197  0.0164  0.5465
 4883SOL    HW126285   4.383   1.096   4.092 -1.3739 -1.1949  2.0354
 4883SOL    HW226286   4.529   1.120   4.134 -0.0246 -0.3976  0.9932
 4884SOL     OW26287   3.984   1.453   0.783 -0.2523  0.5485 -0.2535
 4884SOL    HW126288   4.049   1.517   0.753 -0.1746  0.5868 -0.0026
 4884SOL    HW226289   3.963   1.467   0.875 -0.3804  0.0017 -0.2003
 4885SOL     OW26290   1.895   3.007   7.895 -0.1205 -0.1282 -0.0642
 4885SOL    HW126291   1.854   2.921   7.886 -1.0408  0.4569 -1.4066
 4885SOL    HW226292   1.951   3.003   7.818 -2.4338 -0.3381 -1.7355
 4886SOL     OW26293   0.720   0.709   3.254 -0.9048  0.1897 -0.1265
 4886SOL    HW126294   0.635   0.670   3.274 -0.6727 -0.0880  0.3328
 4886SOL    HW226295   0.687   0.797   3.239  0.0631 -0.1230 -3.9701
 4887SOL     OW26296   0.796   3.746   6.549  0.1139 -0.1457  0.2781
 4887SOL    HW126297   0.807   3.703   6.634  0.2316 -2.2660 -0.8146
 4887SOL    HW226298   0.742   3.676   6.511  0.2168  0.2455 -0.5845
 4888SOL     OW26299   2.873   4.208   2.438  0.3009 -0.2842  0.8106
 4888SOL    HW126300   2.926   4.169   2.507 -0.9812 -1.8053  0.9458
 4888SOL    HW226301   2.896   4.299   2.455  1.2008 -0.6078  1.3174
 4889SOL     OW26302   2.038   2.432   8.501  0.0304  0.8023  0.4260
 4889SOL    HW126303   1.949   2.467   8.494  0.1404  0.6555 -1.7222
 4889SOL    HW226304   2.083   2.510   8.534  2.2158 -0.3422  0.1943
 4890SOL     OW26305   1.267   4.319  15.818  0.0919  0.7453 -0.2186
 4890SOL    HW126306   1.228   4.389  15.766 -1.2052  1.1175  1.2811
 4890SOL    HW226307   1.357   4.350  15.830  0.7890 -3.0715  4.0696
 4891SOL     OW26308   0.271   2.949   3.408 -0.1899 -0.8993  0.1264
 4891SOL    HW126309   0.274   2.944   3.312  0.2084 -0.7547  0.1345
 4891SOL    HW226310   0.304   3.037   3.420 -2.6891  0.1744 -0.7673
 4892SOL     OW26311   3.827   1.942  14.244  0.6972  0.0174  0.4094
 4892SOL    HW126312   3.821   1.960  14.150  2.1034  0.2419  0.3656
 4892SOL    HW226313   3.922   1.942  14.251  0.8284  1.3977 -1.3619
 4893SOL     OW26314   1.659   4.344   4.596 -0.2276 -0.0547 -0.3519
 4893SOL    HW126315   1.699   4.389   4.670 -0.2803 -1.7652  0.7244
 4893SOL    HW226316   1.650   4.256   4.631 -1.4080 -0.7103 -2.3137
 4894SOL     OW26317   2.293   0.377   7.197 -0.2067 -0.1139  0.0612
 4894SOL    HW126318   2.377   0.334   7.211 -0.0692  0.3603  0.6943
 4894SOL    HW226319   2.267   0.332   7.117  0.4715 -1.6665  0.7157
 4895SOL     OW26320   4.683   1.485   2.344  0.1126 -0.2954  0.7183
 4895SOL    HW126321   4.594   1.453   2.361 -0.0441  1.2870  2.8226
 4895SOL    HW226322   0.001   1.447   2.411  0.8600  0.3146  0.4205
 4896SOL     OW26323   0.828   1.974   0.710  0.4346 -0.4973  0.3717
 4896SOL    HW126324   0.919   1.996   0.730  0.1947 -0.3958  1.3336
 4896SOL    HW226325   0.787   1.962   0.796  1.5404 -0.1353  0.9493
 4897SOL     OW26326   0.318   1.206   3.725 -0.0067 -0.0937  0.3777
 4897SOL    HW126327   0.354   1.288   3.690  1.1528 -1.4349 -1.6053
 4897SOL    HW226328   0.286   1.162   3.645 -1.3841  0.3570  0.6856
 4898SOL     OW26329   4.469   4.520   9.281  0.1738  0.2481 -0.6289
 4898SOL    HW126330   4.407   4.456   9.315 -0.2046  0.9408 -0.0305
 4898SOL    HW226331   4.412   4.555   9.213  2.4080  0.3603 -2.4623
 4899SOL     OW26332   3.749   2.139   6.706 -0.3791 -0.1820  1.0508
 4899SOL    HW126333   3.838   2.159   6.678 -0.2988  0.0268  1.4680
 4899SOL    HW226334   3.764   2.050   6.737 -1.7695  0.5398  3.8094
 4900SOL     OW26335   3.385   2.603   9.331  0.1464  0.6064 -0.1440
 4900SOL    HW126336   3.371   2.672   9.266 -0.5316  0.3427 -0.2759
 4900SOL    HW226337   3.430   2.545   9.269  1.3051  2.5805 -1.1568
 4901SOL     OW26338   1.755   2.132  10.280  0.1161  0.2004  0.2262
 4901SOL    HW126339   1.682   2.095  10.328 -0.3881 -1.8110 -2.1184
 4901SOL    HW226340   1.711   2.151  10.197  2.4864  1.2866 -0.7956
 4902SOL     OW26341   4.245   4.548   7.947 -0.0205  0.0529 -0.2984
 4902SOL    HW126342   4.226   4.478   7.884  1.1954  0.3729 -1.0160
 4902SOL    HW226343   4.294   4.612   7.896 -0.9453 -0.0479 -1.3213
 4903SOL     OW26344   1.610   2.102   2.079  0.3350 -0.9395  0.3031
 4903SOL    HW126345   1.522   2.107   2.040  0.7049 -2.2056 -0.7074
 4903SOL    HW226346   1.634   2.194   2.070 -0.8179 -0.5701  0.9020
 4904SOL     OW26347   1.900   0.246   1.830  0.4818  0.1037  0.0474
 4904SOL    HW126348   1.846   0.280   1.902  0.0008  0.4718 -0.4858
 4904SOL    HW226349   1.894   0.152   1.845  1.6179  0.1478  0.7203
 4905SOL     OW26350   2.947   1.888   6.032  0.1419 -0.4066 -0.4391
 4905SOL    HW126351   2.856   1.876   6.060 -0.1341 -0.3554 -1.3123
 4905SOL    HW226352   2.938   1.980   6.004  1.8758 -0.0197  0.3331
 4906SOL     OW26353   4.607   1.642   3.429 -0.0326  0.1698 -0.0321
 4906SOL    HW126354   4.556   1.656   3.350  4.2881  0.3729 -2.8067
 4906SOL    HW226355   4.593   1.549   3.442  1.7982 -0.0053  0.6921
 4907SOL     OW26356   2.817   0.124  10.675  0.2686 -0.0487  0.4492
 4907SOL    HW126357   2.798   0.218  10.672  0.8733  0.1095  1.6996
 4907SOL    HW226358   2.725   0.100  10.689  0.4058 -1.0731 -0.3451
 4908SOL     OW26359   0.915   4.680   7.252  0.1586  0.5271  0.3531
 4908SOL    HW126360   0.908   4.589   7.222  1.0286  1.4855 -2.7548
 4908SOL    HW226361   0.866   4.678   7.335 -1.6470 -1.4169 -0.7490
 4909SOL     OW26362   4.556   1.576   2.054  0.0826  0.1299 -0.2780
 4909SOL    HW126363   4.539   1.608   2.142  1.5818  2.3282 -0.7736
 4909SOL    HW226364   4.547   1.659   2.008  0.6928  0.6958  0.6304
 4910SOL     OW26365   2.168   4.045   3.850  0.0183 -0.4761 -0.5888
 4910SOL    HW126366   2.209   4.039   3.936 -0.6960  0.7668 -0.1578
 4910SOL    HW226367   2.236   4.095   3.804 -0.0905  0.4829  0.2908
 4911SOL     OW26368   2.484   0.167  11.883 -0.4452 -0.4909  0.4190
 4911SOL    HW126369   2.563   0.147  11.833 -1.7755 -1.6539 -1.1962
 4911SOL    HW226370   2.446   0.082  11.905 -0.0229 -0.4935  1.1578
 4912SOL     OW26371   3.793   3.259   9.125  0.3600 -0.1119 -0.1505
 4912SOL    HW126372   3.824   3.275   9.214 -3.8897 -1.3886  1.5667
 4912SOL    HW226373   3.738   3.336   9.112 -1.1273 -0.9219  1.4584
 4913SOL     OW26374   1.169   3.505   2.201  0.5528  0.1553 -0.3011
 4913SOL    HW126375   1.199   3.584   2.245  2.7216 -1.3295  0.8306
 4913SOL    HW226376   1.195   3.525   2.111  1.7774  1.6131  0.3855
 4914SOL     OW26377   4.405   4.737  10.297 -0.1056  0.5085 -0.1038
 4914SOL    HW126378   4.457   4.674  10.247  2.4561  0.5980  2.3879
 4914SOL    HW226379   4.341   4.679  10.337 -0.5973  0.0508 -1.5688
 4915SOL     OW26380   3.716   1.280   9.271  0.2693 -0.5189  0.0006
 4915SOL    HW126381   3.758   1.195   9.262  0.6163 -0.3352 -0.1190
 4915SOL    HW226382   3.727   1.307   9.180 -1.2903 -1.0817 -0.3644
 4916SOL     OW26383   0.049   1.723   3.965 -0.3562 -0.3633  0.9671
 4916SOL    HW126384   0.017   1.664   4.033 -1.1215  1.3011  2.0418
 4916SOL    HW226385   4.717   1.716   3.900 -0.8307 -0.8680  1.5336
 4917SOL     OW26386   3.513   1.578   9.258  0.2785  0.2074  0.5908
 4917SOL    HW126387   3.491   1.485   9.248 -1.5183  0.9102 -2.1361
 4917SOL    HW226388   3.480   1.619   9.178 -1.7701 -1.5725  0.5161
 4918SOL     OW26389   4.517   2.179   0.415 -0.2387 -0.6141  0.6920
 4918SOL    HW126390   4.550   2.095   0.445 -0.0991 -0.7561  0.1379
 4918SOL    HW226391   4.494   2.157   0.325  1.2595  0.3458  0.0750
 4919SOL     OW26392   2.781   3.072  17.325 -0.1349 -0.3766 -0.1252
 4919SOL    HW126393   2.706   3.013  17.316 -0.3207 -0.4956  2.1886
 4919SOL    HW226394   2.760   3.134  17.256  1.2763  0.3607  0.0980
 4920SOL     OW26395   1.008   4.485   8.803 -0.2190  0.0488  0.9385
 4920SOL    HW126396   1.083   4.476   8.861 -0.2131  0.3496  0.9783
 4920SOL    HW226397   0.971   4.400   8.824  0.0724 -0.4574 -0.5528
 4921SOL     OW26398   0.894   0.408   5.738 -0.7415 -0.1423 -0.4795
 4921SOL    HW126399   0.817   0.368   5.779 -1.9417 -0.4708 -3.0721
 4921SOL    HW226400   0.958   0.391   5.807  0.1292  0.9072 -1.0189
 4922SOL     OW26401   4.547   2.833   6.521  0.3748 -0.2214  0.9157
 4922SOL    HW126402   4.576   2.884   6.597  0.6718 -1.8762  1.9266
 4922SOL    HW226403   4.557   2.741   6.547  0.1932  0.5485  3.7365
 4923SOL     OW26404   1.671   4.010   1.687  0.2633  0.0418 -0.1323
 4923SOL    HW126405   1.611   3.950   1.731  0.4498  0.6918  0.9842
 4923SOL    HW226406   1.639   4.093   1.723 -0.0612 -0.8721  1.6518
 4924SOL     OW26407   3.749   4.533   5.342  0.3885  0.4773  0.3872
 4924SOL    HW126408   3.686   4.460   5.350 -0.3291  0.9460 -1.0261
 4924SOL    HW226409   3.727   4.558   5.253  1.0669  2.0418  0.6642
 4925SOL     OW26410   3.119   0.562  12.149  0.2857  0.2345  0.5370
 4925SOL    HW126411   3.164   0.579  12.066  0.3950 -0.6311  0.4181
 4925SOL    HW226412   3.138   0.646  12.191  0.0673  0.8171 -0.5106
 4926SOL     OW26413   0.456   1.964   3.534 -0.1707 -0.0268 -0.1236
 4926SOL    HW126414   0.536   1.980   3.484  0.4119  1.9368  1.4425
 4926SOL    HW226415   0.487   1.935   3.619  0.1875 -1.7370 -0.8289
 4927SOL     OW26416   2.197   0.179   4.079 -0.6191 -0.0586 -0.2545
 4927SOL    HW126417   2.223   0.100   4.032 -0.1642 -0.4092  0.5809
 4927SOL    HW226418   2.131   0.228   4.030 -1.3594  1.1510  1.9195
 4928SOL     OW26419   0.679   1.172   2.613  0.0474 -0.8456 -0.1501
 4928SOL    HW126420   0.651   1.080   2.616 -1.2690 -0.5484 -2.9419
 4928SOL    HW226421   0.686   1.181   2.708  0.6579 -1.8676 -0.0977
 4929SOL     OW26422   3.149   3.631   0.607  0.3513  0.5535  0.7168
 4929SOL    HW126423   3.199   3.554   0.579 -0.7534  0.7176 -1.6542
 4929SOL    HW226424   3.118   3.605   0.694  0.3151  0.9278  0.8151
 4930SOL     OW26425   2.811   1.427   0.609  0.2605  0.2607  0.5359
 4930SOL    HW126426   2.883   1.486   0.633  0.2712 -0.2036  1.6556
 4930SOL    HW226427   2.736   1.459   0.659 -0.4167  0.3516 -0.5440
 4931SOL     OW26428   1.027   4.659   4.417 -0.3951  0.0612  0.1861
 4931SOL    HW126429   1.115   4.649   4.454  0.2371 -2.1561 -1.8582
 4931SOL    HW226430   1.039   4.650   4.322  3.3319  1.9794  0.4672
 4932SOL     OW26431   3.707   4.407   6.008  0.0126 -0.2001  0.4590
 4932SOL    HW126432   3.766   4.472   5.970 -0.7871 -0.6252 -1.5489
 4932SOL    HW226433   3.753   4.357   6.076  0.8702 -0.2017 -0.1185
 4933SOL     OW26434   2.193   3.374  10.761 -0.2724  1.0161  0.4078
 4933SOL    HW126435   2.205   3.314  10.687 -1.8882  0.7576  0.3649
 4933SOL    HW226436   2.179   3.452  10.707  3.9684 -0.5545 -3.0615
 4934SOL     OW26437   2.424   0.728   2.509 -0.0154  0.2528  0.1051
 4934SOL    HW126438   2.463   0.797   2.563  0.3952 -1.4118  1.8921
 4934SOL    HW226439   2.414   0.781   2.430  2.8135  2.1601  1.0313
 4935SOL     OW26440   2.812   3.518   3.559  0.1827 -0.0069 -0.1572
 4935SOL    HW126441   2.850   3.454   3.619  0.0954  0.4869  0.4269
 4935SOL    HW226442   2.803   3.472   3.476  2.1393  0.5901 -0.6877
 4936SOL     OW26443   1.017   1.399   5.511 -0.1806  0.3922 -0.4762
 4936SOL    HW126444   1.032   1.396   5.417  2.2048  1.1918 -0.1383
 4936SOL    HW226445   0.978   1.487   5.511  2.9425  1.7761  1.0623
 4937SOL     OW26446   1.262   3.549   7.720  0.3067  0.3149  0.1013
 4937SOL    HW126447   1.277   3.521   7.630  0.6099 -1.2812  0.6485
 4937SOL    HW226448   1.249   3.643   7.712  1.3361  0.5472  1.0271
 4938SOL     OW26449   0.726   3.839   5.411 -0.1099  0.2567 -0.2055
 4938SOL    HW126450   0.721   3.817   5.505 -0.8425  2.4736  0.2846
 4938SOL    HW226451   0.682   3.765   5.371 -1.0914  2.5029 -3.2837
 4939SOL     OW26452   4.661   3.548   2.412  0.3404 -0.6984 -0.2897
 4939SOL    HW126453   4.704   3.585   2.335  1.2967  1.3748  1.2555
 4939SOL    HW226454   4.575   3.591   2.407  0.9916  0.8648  2.2661
 4940SOL     OW26455   2.138   2.327   4.984 -0.4285 -0.3655  0.0525
 4940SOL    HW126456   2.117   2.293   5.071  0.7040  0.4839  0.6654
 4940SOL    HW226457   2.112   2.255   4.926 -2.6184  1.3393 -1.0878
 4941SOL     OW26458   1.273   3.511  15.384  0.2010  0.1644  0.7834
 4941SOL    HW126459   1.316   3.506  15.469 -1.2905 -1.9322  1.4120
 4941SOL    HW226460   1.347   3.485  15.328 -1.2926 -0.6056 -0.8518
 4942SOL     OW26461   3.060   3.270   3.707 -0.3774  0.0371  0.0107
 4942SOL    HW126462   3.125   3.324   3.752  0.5362 -1.2620  0.2701
 4942SOL    HW226463   3.062   3.201   3.774  2.3261  0.8655  0.8107
 4943SOL     OW26464   2.885   1.262   4.896 -0.1478 -0.5509 -0.7724
 4943SOL    HW126465   2.818   1.319   4.858 -0.9299 -1.5383 -0.8968
 4943SOL    HW226466   2.852   1.260   4.986 -0.3896 -0.2958 -0.8539
 4944SOL     OW26467   4.194   0.025   9.460  0.0733  1.0526  0.2920
 4944SOL    HW126468   4.269   0.020   9.519  0.3515 -1.6668 -0.3044
 4944SOL    HW226469   4.147   4.681   9.472  0.9129  0.6777  0.9131
 4945SOL     OW26470   0.086   4.022   2.870 -0.1203 -0.0068 -0.5199
 4945SOL    HW126471   0.052   3.946   2.822  0.2367 -0.7471  0.4039
 4945SOL    HW226472   0.017   4.085   2.849 -0.3711 -0.0125  0.2887
 4946SOL     OW26473   0.462   2.888   8.154 -0.0096 -0.1340  0.1523
 4946SOL    HW126474   0.555   2.885   8.132 -0.6498  0.4550 -2.6117
 4946SOL    HW226475   0.434   2.971   8.115  0.2420  0.6239  1.5815
 4947SOL     OW26476   0.044   1.840   7.543 -0.2412  0.0879 -0.3130
 4947SOL    HW126477   0.139   1.852   7.538 -0.6010  3.2495  0.7099
 4947SOL    HW226478   0.045   1.842   7.638 -0.5480  0.6101 -0.3200
 4948SOL     OW26479   3.858   1.152  10.648 -0.2448  0.0469 -0.0366
 4948SOL    HW126480   3.906   1.088  10.595 -2.0012 -0.3180 -1.1917
 4948SOL    HW226481   3.936   1.190  10.689  0.2085 -3.4537  2.3373
 4949SOL     OW26482   1.042   3.951   9.888 -0.0876  0.2729  0.4487
 4949SOL    HW126483   1.011   4.003   9.814  0.1880 -1.1662 -0.6761
 4949SOL    HW226484   1.010   4.000   9.964 -1.1271  0.0565  0.1534
 4950SOL     OW26485   2.608   1.580   0.776 -0.0616 -0.5542  0.2056
 4950SOL    HW126486   2.562   1.652   0.734 -1.6649 -3.3780 -2.9333
 4950SOL    HW226487   2.542   1.549   0.837  0.5475 -1.5522  0.3577
 4951SOL     OW26488   3.912   0.095  16.260 -0.6466 -0.1616 -0.3330
 4951SOL    HW126489   3.844   0.154  16.292  1.1933  2.0757 -0.4784
 4951SOL    HW226490   3.874   0.033  16.199 -0.7261 -1.5704  1.1454
 4952SOL     OW26491   2.983   3.409   0.933 -0.5773  0.5249  0.2589
 4952SOL    HW126492   2.984   3.456   1.016 -1.5007 -0.3532  0.7597
 4952SOL    HW226493   2.893   3.397   0.903 -0.0057 -0.7605 -0.9586
 4953SOL     OW26494   1.919   3.169  16.235  0.5851  0.7720  0.0063
 4953SOL    HW126495   1.998   3.139  16.279  1.0519  3.9343  1.3320
 4953SOL    HW226496   1.943   3.189  16.145  2.1287 -1.5863 -0.0947
 4954SOL     OW26497   2.797   2.510   5.861  0.4097  0.2202 -0.1730
 4954SOL    HW126498   2.734   2.460   5.912 -0.2711 -0.3536 -1.5936
 4954SOL    HW226499   2.741   2.578   5.823 -2.1249 -2.1877 -0.7513
 4955SOL     OW26500   3.590   2.815   4.136 -0.5386  0.4622 -0.0897
 4955SOL    HW126501   3.624   2.748   4.076  0.3630 -0.1067  1.0625
 4955SOL    HW226502   3.671   2.838   4.183 -0.0365  0.0431 -0.7516
 4956SOL     OW26503   1.628   1.238   8.694 -0.2355  0.4361 -0.3309
 4956SOL    HW126504   1.673   1.281   8.767  0.9431 -1.8302  0.2633
 4956SOL    HW226505   1.554   1.298   8.692 -0.7605 -0.2540 -1.5876
 4957SOL     OW26506   4.374   0.062   3.510 -0.7546  0.0253  0.1327
 4957SOL    HW126507   4.317   0.050   3.586  0.7920 -3.4836  0.7068
 4957SOL    HW226508   4.313   0.046   3.438 -0.4615 -0.1643 -0.0746
 4958SOL     OW26509   0.631   0.124   4.521  0.1804  0.1179  0.1813
 4958SOL    HW126510   0.709   0.115   4.466 -0.9289 -0.0907 -1.3864
 4958SOL    HW226511   0.598   0.034   4.525 -0.3508  0.4183  2.5991
 4959SOL     OW26512   4.132   2.475   2.655 -0.0379 -0.2724  0.3776
 4959SOL    HW126513   4.042   2.460   2.683 -0.5783  0.0157 -1.2101
 4959SOL    HW226514   4.141   2.415   2.580  1.4415 -3.8666  3.4229
 4960SOL     OW26515   0.698   0.267   5.184 -0.1899  0.8103  0.6337
 4960SOL    HW126516   0.654   0.250   5.267  0.4200  0.2610  0.8380
 4960SOL    HW226517   0.637   0.329   5.143 -1.0254 -1.2207 -1.1642
 4961SOL     OW26518   4.141   2.984   4.346  0.2512  0.4117  0.5403
 4961SOL    HW126519   4.067   2.963   4.289 -1.9184  1.0589  3.1171
 4961SOL    HW226520   4.170   2.899   4.380 -1.5715 -1.0970 -1.6434
 4962SOL     OW26521   3.531   2.083  10.408 -0.3503  0.2084  0.2278
 4962SOL    HW126522   3.594   2.110  10.474  1.9371  0.7951 -2.1999
 4962SOL    HW226523   3.585   2.033  10.347  1.3912  2.7572 -0.2984
 4963SOL     OW26524   2.054   3.296   0.885 -0.2343  0.1440  0.2631
 4963SOL    HW126525   2.148   3.280   0.892 -0.0210 -0.0822 -2.9123
 4963SOL    HW226526   2.033   3.334   0.971  0.7761  0.1237  0.5179
 4964SOL     OW26527   0.326   3.648   9.409 -0.3725 -0.1240  0.0970
 4964SOL    HW126528   0.394   3.690   9.357 -2.8646 -0.2231 -3.2673
 4964SOL    HW226529   0.312   3.567   9.360 -0.7393 -1.3466  2.2377
 4965SOL     OW26530   3.492   1.316  10.597  0.0428  0.0005  0.6367
 4965SOL    HW126531   3.487   1.265  10.516 -0.4320  0.9701  0.0641
 4965SOL    HW226532   3.558   1.272  10.650  0.6236  0.1810  0.0654
 4966SOL     OW26533   4.709   3.666   1.946 -0.7079 -0.4238 -0.0859
 4966SOL    HW126534   4.633   3.609   1.953  0.4571 -2.0049 -0.5975
 4966SOL    HW226535   4.670   3.752   1.928  0.9562  0.5173  0.7604
 4967SOL     OW26536   4.545   2.706   0.645 -0.8348 -0.5786 -0.2904
 4967SOL    HW126537   4.486   2.685   0.573 -2.6019 -1.0689  1.2803
 4967SOL    HW226538   4.521   2.798   0.654 -1.6856 -0.6209 -2.0700
 4968SOL     OW26539   0.054   3.758  16.970  0.1081 -0.9068  1.0235
 4968SOL    HW126540   4.713   3.704  16.975  0.1710 -1.2343 -1.5898
 4968SOL    HW226541   0.078   3.728  16.882  1.9438 -0.8152  1.4853
 4969SOL     OW26542   0.660   4.535   0.415  0.5428  0.2301  0.1092
 4969SOL    HW126543   0.656   4.631   0.415 -1.7748  0.1411 -0.0019
 4969SOL    HW226544   0.673   4.525   0.321  0.2804  2.1990 -0.1495
 4970SOL     OW26545   3.520   0.704  10.779  0.9038 -0.3539  0.3600
 4970SOL    HW126546   3.428   0.676  10.789 -0.0055  1.8034 -1.9145
 4970SOL    HW226547   3.553   0.621  10.743  3.9539  1.4085 -0.8524
 4971SOL     OW26548   1.977   2.903   5.913 -0.4622 -0.6205  0.0484
 4971SOL    HW126549   1.912   2.836   5.932 -1.6321  0.2017 -1.0572
 4971SOL    HW226550   1.992   2.937   6.001  1.5713 -1.3288 -0.0350
 4972SOL     OW26551   3.718   3.152   5.130  0.1089 -0.5747 -0.2056
 4972SOL    HW126552   3.706   3.186   5.041 -1.9102 -1.0405 -0.1087
 4972SOL    HW226553   3.755   3.070   5.096  3.2266 -0.0774  2.0549
 4973SOL     OW26554   0.468   0.498  11.472  0.2316  0.5640  0.3712
 4973SOL    HW126555   0.472   0.568  11.537  1.6627  0.3173  0.5495
 4973SOL    HW226556   0.553   0.457  11.490 -0.4887 -0.8605  0.4631
 4974SOL     OW26557   1.408   0.485   5.060 -0.1200 -0.7304  0.2759
 4974SOL    HW126558   1.426   0.531   5.142  1.6507 -1.1999  0.1543
 4974SOL    HW226559   1.431   0.393   5.075 -0.3320 -0.7122  0.7066
 4975SOL     OW26560   0.076   2.746   6.915  0.2486  0.1078 -0.3798
 4975SOL    HW126561   0.124   2.751   6.998  1.6097 -1.8282 -1.0418
 4975SOL    HW226562   0.109   2.660   6.890  2.0714  0.5536  0.4843
 4976SOL     OW26563   1.238   2.963  10.829  0.9215  0.4006 -0.8912
 4976SOL    HW126564   1.315   2.997  10.784  0.0384  2.9423 -0.4642
 4976SOL    HW226565   1.185   3.040  10.851  1.9647  1.3823 -1.8250
 4977SOL     OW26566   0.886   0.497   5.329  0.8564 -0.4288 -0.0175
 4977SOL    HW126567   0.967   0.543   5.304  0.0979 -0.0727 -1.8392
 4977SOL    HW226568   0.908   0.405   5.345 -2.6357 -1.0669  1.1762
 4978SOL     OW26569   2.706   4.613   0.616  0.2511 -0.4173  0.0672
 4978SOL    HW126570   2.659   4.531   0.629 -1.3583  0.7230  1.3867
 4978SOL    HW226571   2.786   4.583   0.660 -0.0223  2.8441  2.7462
 4979SOL     OW26572   1.473   0.682  13.560  0.0754 -0.1832  0.4904
 4979SOL    HW126573   1.462   0.763  13.610  2.3214  0.5909 -0.2706
 4979SOL    HW226574   1.484   0.619  13.631  0.7678 -1.7129 -0.9879
 4980SOL     OW26575   0.560   3.393   6.804 -0.0868 -0.5132  0.0280
 4980SOL    HW126576   0.491   3.451   6.836  0.8769 -0.2460  1.6259
 4980SOL    HW226577   0.634   3.413   6.861 -1.7049  0.0068  1.9510
 4981SOL     OW26578   0.057   2.962   0.238 -0.5158 -0.0463 -0.9329
 4981SOL    HW126579   0.035   2.946   0.330  0.8298 -3.1477 -1.1546
 4981SOL    HW226580   4.733   3.033   0.225  1.4934  1.7918 -0.6016
 4982SOL     OW26581   0.801   3.792  17.679  0.1319  0.2770 -0.0450
 4982SOL    HW126582   0.857   3.741  17.620 -0.0796 -1.7397  1.5075
 4982SOL    HW226583   0.863   3.856  17.716 -2.0194  1.4272  1.5466
 4983SOL     OW26584   4.266   1.339   3.044 -0.4043  0.2970  0.2140
 4983SOL    HW126585   4.192   1.283   3.068  1.0095 -1.6994 -0.0901
 4983SOL    HW226586   4.329   1.269   3.029 -3.5439 -2.4853 -0.1597
 4984SOL     OW26587   1.083   1.532   4.982  0.5841  0.1269 -0.4223
 4984SOL    HW126588   1.063   1.501   4.893 -0.2512 -0.8707  0.1133
 4984SOL    HW226589   1.156   1.589   4.960  0.5525  0.6723  0.9429
 4985SOL     OW26590   1.242   0.897   2.529  0.3171 -0.0387 -0.1245
 4985SOL    HW126591   1.182   0.961   2.569 -0.8706  0.0538 -2.0851
 4985SOL    HW226592   1.238   0.824   2.591  0.6603  1.1204  1.2771
 4986SOL     OW26593   2.003   2.577   3.182 -0.5153  0.1595  0.4472
 4986SOL    HW126594   2.081   2.632   3.177  0.3810 -1.0520  1.0343
 4986SOL    HW226595   1.946   2.632   3.235  0.7918  0.8741  1.0941
 4987SOL     OW26596   1.639   0.360   6.959  0.1336  0.3160 -0.2884
 4987SOL    HW126597   1.664   0.405   7.040 -1.1005  0.5627 -0.0473
 4987SOL    HW226598   1.545   0.376   6.953 -0.2190 -1.6543  0.2139
 4988SOL     OW26599   1.460   2.779   5.071 -0.7386 -0.0575  0.1736
 4988SOL    HW126600   1.386   2.719   5.060  0.0409 -0.7021 -1.6868
 4988SOL    HW226601   1.537   2.723   5.076 -1.9301 -1.6654  0.8684
 4989SOL     OW26602   0.966   4.124   4.891 -0.0734 -0.4384  0.4845
 4989SOL    HW126603   0.895   4.061   4.897  0.8983 -1.6282 -0.5795
 4989SOL    HW226604   1.003   4.109   4.804 -1.6102 -3.2839  0.3418
 4990SOL     OW26605   0.683   3.146   4.547  0.2785  0.2952 -0.5340
 4990SOL    HW126606   0.728   3.197   4.614 -0.6653  1.8110 -1.0421
 4990SOL    HW226607   0.646   3.219   4.498 -0.2294 -0.6611 -1.5827
 4991SOL     OW26608   4.294   3.240   7.964 -0.2130 -0.3158 -0.1058
 4991SOL    HW126609   4.384   3.271   7.973 -0.3571  0.7303 -2.1511
 4991SOL    HW226610   4.256   3.319   7.924  1.3251 -0.2969 -1.5328
 4992SOL     OW26611   1.578   3.452   7.609  0.0225 -0.2785 -0.0115
 4992SOL    HW126612   1.563   3.358   7.620 -0.7766 -0.2104 -0.5187
 4992SOL    HW226613   1.650   3.465   7.671 -1.7014  1.8223  1.5913
 4993SOL     OW26614   2.275   2.220  15.180 -0.4933 -0.1102 -0.1466
 4993SOL    HW126615   2.367   2.235  15.158 -0.4610 -0.8544 -0.5058
 4993SOL    HW226616   2.269   2.244  15.272  0.3841 -1.1179  0.1719
 4994SOL     OW26617   4.059   2.995   3.319  0.5853  0.1274 -0.1396
 4994SOL    HW126618   4.108   2.934   3.374  2.7406  0.1115 -2.0691
 4994SOL    HW226619   3.966   2.972   3.323  0.5895  0.1111 -0.1334
 4995SOL     OW26620   4.459   3.304  17.658  0.3883 -0.3054  0.3101
 4995SOL    HW126621   4.450   3.380  17.601 -2.4999 -1.2201 -0.4670
 4995SOL    HW226622   4.550   3.314  17.685  0.6691 -0.3819 -0.6196
 4996SOL     OW26623   3.979   0.539   8.961 -0.0735  0.1262 -0.8430
 4996SOL    HW126624   3.992   0.595   9.037 -3.4746  0.9288 -0.8414
 4996SOL    HW226625   3.885   0.529   8.975 -0.6457  3.7555 -2.1587
 4997SOL     OW26626   1.542   2.980  15.897  0.3843 -0.3703 -0.5090
 4997SOL    HW126627   1.450   2.998  15.881  0.0629  1.4061  3.3930
 4997SOL    HW226628   1.535   2.890  15.865  0.6985  0.1309 -1.9847
 4998SOL     OW26629   3.418   3.636   3.028 -0.0564  0.1450  0.3176
 4998SOL    HW126630   3.391   3.551   2.993 -0.5906 -0.1892  1.5563
 4998SOL    HW226631   3.416   3.604   3.118  3.9106  0.9356  0.6944
 4999SOL     OW26632   2.279   4.277   6.845 -0.3101 -0.8407  0.0549
 4999SOL    HW126633   2.341   4.207   6.826  0.4776 -0.6051  1.7584
 4999SOL    HW226634   2.196   4.230   6.836 -0.8285  0.0325  0.3010
 5000SOL     OW26635   0.901   4.361  15.209  0.5932  0.1398  0.5966
 5000SOL    HW126636   0.964   4.383  15.141 -0.3058 -0.4152 -0.4170
 5000SOL    HW226637   0.877   4.447  15.244  1.4416  0.5533  0.1462
 5001SOL     OW26638   0.074   2.398   5.700 -0.3485 -0.0027  0.3585
 5001SOL    HW126639   0.063   2.322   5.642 -1.3790 -1.0490  1.9160
 5001SOL    HW226640   4.725   2.436   5.705 -0.3513 -0.3072  2.5150
 5002SOL     OW26641   2.084   2.164   2.753  0.3042  0.1959 -0.0170
 5002SOL    HW126642   2.145   2.200   2.817  2.3728 -1.1696 -1.2090
 5002SOL    HW226643   2.001   2.166   2.801  0.5545  2.5379  0.2804
 5003SOL     OW26644   3.521   3.722   8.363  0.5567  0.3748  0.0311
 5003SOL    HW126645   3.516   3.660   8.290 -0.8316  0.2162  0.2577
 5003SOL    HW226646   3.443   3.775   8.348 -0.1790 -0.1761  2.0347
 5004SOL     OW26647   1.699   1.544  15.030 -0.4506 -0.3270  0.8138
 5004SOL    HW126648   1.725   1.527  15.120 -0.2641  0.5434  0.9286
 5004SOL    HW226649   1.694   1.640  15.035  0.5919 -0.1055 -2.0377
 5005SOL     OW26650   0.845   1.605   7.758 -0.8581 -0.0118  0.5185
 5005SOL    HW126651   0.764   1.580   7.803 -1.2145 -2.9787 -1.7554
 5005SOL    HW226652   0.878   1.674   7.815 -0.7317  1.2271 -1.0842
 5006SOL     OW26653   3.542   4.604   4.485 -0.5590  0.4707  0.3672
 5006SOL    HW126654   3.536   4.583   4.392  0.9139 -0.1068  0.4034
 5006SOL    HW226655   3.451   4.633   4.492 -0.2392  1.8050 -1.2057
 5007SOL     OW26656   1.626   3.596   4.090 -0.2624 -0.2504 -0.5699
 5007SOL    HW126657   1.562   3.667   4.084 -1.5986 -1.5009 -1.2069
 5007SOL    HW226658   1.636   3.590   4.185  2.1028 -0.4319 -0.8325
 5008SOL     OW26659   2.466   0.502  13.655 -0.0024  0.4060 -0.0056
 5008SOL    HW126660   2.388   0.459  13.692 -0.4857  1.7927  0.6044
 5008SOL    HW226661   2.484   0.565  13.725 -0.3458 -0.2030  0.6457
 5009SOL     OW26662   3.461   2.290  17.281 -0.1060  0.1407 -0.1988
 5009SOL    HW126663   3.424   2.212  17.322 -0.2010 -0.4250 -1.3869
 5009SOL    HW226664   3.435   2.276  17.191 -0.6032  2.1583 -0.3826
 5010SOL     OW26665   2.628   0.131   8.458 -0.2179  0.4608  0.2093
 5010SOL    HW126666   2.543   0.109   8.422 -0.6417 -1.0352  2.0870
 5010SOL    HW226667   2.647   0.042   8.489  1.5051  0.4794 -0.7686
 5011SOL     OW26668   3.084   1.504   1.971  0.0782  0.1047  0.1134
 5011SOL    HW126669   3.156   1.489   2.032 -1.5496  0.9974  2.2513
 5011SOL    HW226670   3.012   1.467   2.023 -1.2352  2.3336 -0.0958
 5012SOL     OW26671   2.888   3.387   4.728  0.3241 -0.5073  0.1512
 5012SOL    HW126672   2.881   3.473   4.769 -2.0191 -1.2070  1.2218
 5012SOL    HW226673   2.967   3.385   4.674 -0.2791  1.1412 -0.7730
 5013SOL     OW26674   3.162   0.722  13.947 -0.3921 -0.2541  0.7084
 5013SOL    HW126675   3.184   0.765  14.030  0.4977 -0.5141  0.6090
 5013SOL    HW226676   3.120   0.795  13.902  2.5082 -1.0022 -3.1420
 5014SOL     OW26677   0.819   2.036   1.907 -0.4063 -0.6317  0.4681
 5014SOL    HW126678   0.806   1.947   1.941  4.8872 -1.3061  0.6703
 5014SOL    HW226679   0.752   2.032   1.838  0.3288  0.2722 -0.2995
 5015SOL     OW26680   0.302   3.081   6.067 -0.3066  0.3022  0.0829
 5015SOL    HW126681   0.338   3.122   6.146  0.5719  0.9318 -0.6502
 5015SOL    HW226682   0.375   3.037   6.023 -1.0515 -1.6316  0.7398
 5016SOL     OW26683   4.007   0.595   7.225 -0.3185  0.4183  0.1308
 5016SOL    HW126684   4.014   0.597   7.130  0.7896 -0.7001  0.1809
 5016SOL    HW226685   3.918   0.625   7.244  0.2916  0.1981  3.3224
 5017SOL     OW26686   1.244   4.501   4.004 -0.2272  0.0219 -0.6351
 5017SOL    HW126687   1.220   4.443   3.932 -1.5748  0.5576 -0.6108
 5017SOL    HW226688   1.178   4.483   4.072  0.6496  2.4126  0.8385
 5018SOL     OW26689   2.291   0.185  17.199 -0.0144 -1.3995  0.2703
 5018SOL    HW126690   2.214   0.200  17.253  0.1940 -2.6812  0.9301
 5018SOL    HW226691   2.244   0.152  17.123 -0.1514 -0.3151 -0.1145
 5019SOL     OW26692   0.161   3.567   4.719 -0.0056  0.4724 -0.0406
 5019SOL    HW126693   0.128   3.654   4.742 -2.3910 -0.2545 -0.6919
 5019SOL    HW226694   0.221   3.587   4.647 -0.8269 -0.0425 -0.8695
 5020SOL     OW26695   3.172   1.726   6.654 -0.1843  0.6315  0.2221
 5020SOL    HW126696   3.132   1.735   6.741 -0.0544  1.3784  0.2024
 5020SOL    HW226697   3.094   1.724   6.598  0.9958  0.5725 -1.4328
 5021SOL     OW26698   3.794   1.991   6.388  0.2930  0.3001 -0.1873
 5021SOL    HW126699   3.778   1.904   6.425 -1.0302  1.9579  3.1738
 5021SOL    HW226700   3.889   1.990   6.394  0.2889  1.8058  0.2421
 5022SOL     OW26701   3.427   1.361   5.309 -0.1802 -0.7006 -0.4387
 5022SOL    HW126702   3.452   1.452   5.290 -0.9829  0.0854  2.3796
 5022SOL    HW226703   3.338   1.363   5.274  0.4158  1.4060 -1.8717
 5023SOL     OW26704   3.878   0.138  12.275  0.3218  0.2606  0.2060
 5023SOL    HW126705   3.937   0.113  12.346 -0.6816  1.2126  1.3860
 5023SOL    HW226706   3.862   0.226  12.311  0.0418  0.6179 -0.7956
 5024SOL     OW26707   0.921   3.547   3.309 -0.1764  0.2451  0.3715
 5024SOL    HW126708   0.973   3.623   3.338 -1.0747  1.4358 -1.1040
 5024SOL    HW226709   0.954   3.473   3.359 -0.6862 -0.9415 -1.0491
 5025SOL     OW26710   1.373   2.509  11.815  0.3159  0.2854  0.0181
 5025SOL    HW126711   1.370   2.429  11.867 -1.0360  0.5128  0.2940
 5025SOL    HW226712   1.428   2.565  11.870 -2.0806  1.8500  0.8165
 5026SOL     OW26713   2.324   0.737   4.712 -0.0652 -0.2919 -0.2378
 5026SOL    HW126714   2.316   0.694   4.626  0.4809  1.1918 -1.0293
 5026SOL    HW226715   2.415   0.734   4.738  0.1894  0.6785 -1.0056
 5027SOL     OW26716   4.511   0.234  10.331  0.3124  0.4914 -0.4707
 5027SOL    HW126717   4.557   0.201  10.408 -1.8407  1.8914  1.4187
 5027SOL    HW226718   4.466   0.155  10.303 -1.1422  1.2882 -0.3646
 5028SOL     OW26719   3.031   4.562  11.164 -0.7863  0.4206  0.0055
 5028SOL    HW126720   2.989   4.613  11.095 -2.1035 -0.2717  0.3008
 5028SOL    HW226721   3.109   4.616  11.176 -0.2728 -0.3920  0.3558
 5029SOL     OW26722   1.796   0.815   0.080 -0.1981 -0.0866  0.1085
 5029SOL    HW126723   1.705   0.785   0.072 -0.2991  0.5211 -1.1859
 5029SOL    HW226724   1.812   0.856  17.747  0.2253 -0.8129 -0.1529
 5030SOL     OW26725   0.257   1.745   4.935  0.0260 -0.1210 -0.4081
 5030SOL    HW126726   0.256   1.654   4.962 -0.7504 -1.0691 -3.5843
 5030SOL    HW226727   0.199   1.738   4.859  0.4758 -1.4667 -0.6143
 5031SOL     OW26728   3.774   1.019   8.408  0.6296 -0.1620  0.4227
 5031SOL    HW126729   3.836   0.970   8.462  1.6124 -2.1382 -2.5389
 5031SOL    HW226730   3.804   1.109   8.425  0.4345 -0.1915  0.9354
 5032SOL     OW26731   1.000   3.396  13.783  0.5303  0.0792  0.1515
 5032SOL    HW126732   0.912   3.430  13.769  0.7679  0.4220 -0.5184
 5032SOL    HW226733   0.984   3.315  13.833  0.1452  0.0341 -0.0420
 5033SOL     OW26734   0.714   0.485   2.529 -0.4231  0.0693  0.7584
 5033SOL    HW126735   0.732   0.506   2.437 -2.7311  0.4239  0.3914
 5033SOL    HW226736   0.730   0.566   2.579 -3.7459  1.5772 -0.5991
 5034SOL     OW26737   1.195   3.983   1.608  0.3276  0.1418  0.4108
 5034SOL    HW126738   1.212   4.070   1.571  0.5470  0.1792  0.5971
 5034SOL    HW226739   1.268   3.930   1.576  1.1242  0.3889  1.7786
 5035SOL     OW26740   4.271   3.214   4.554  0.5363 -0.7152 -0.0861
 5035SOL    HW126741   4.358   3.201   4.516  0.9764  0.7616  0.4186
 5035SOL    HW226742   4.278   3.168   4.637 -2.0970  1.2636  1.2211
 5036SOL     OW26743   1.869   3.452   4.532  0.6235 -0.2345  0.3026
 5036SOL    HW126744   1.776   3.433   4.547  0.2362 -0.1063 -2.0150
 5036SOL    HW226745   1.893   3.469   4.623 -0.3675 -1.1974  0.7432
 5037SOL     OW26746   0.203   1.833   2.021 -0.4465  0.6962 -0.5138
 5037SOL    HW126747   0.170   1.754   2.063  0.5320  1.1797  1.1906
 5037SOL    HW226748   0.240   1.806   1.937 -0.6744  0.2180 -0.4614
 5038SOL     OW26749   2.946   2.438   7.780  0.0759  0.2087  0.2739
 5038SOL    HW126750   2.884   2.501   7.743 -0.8879 -0.6121  0.5116
 5038SOL    HW226751   2.976   2.389   7.704 -1.5958 -0.1895 -0.1316
 5039SOL     OW26752   4.549   3.496   5.544 -0.1841 -0.1090  0.1659
 5039SOL    HW126753   4.466   3.510   5.591  0.1557  0.4376  0.6035
 5039SOL    HW226754   4.546   3.566   5.479  0.4582 -1.9248 -1.7984
 5040SOL     OW26755   4.459   3.227  10.870 -0.3851 -0.3228  0.5708
 5040SOL    HW126756   4.520   3.184  10.809  0.0460  0.4153  0.4746
 5040SOL    HW226757   4.429   3.146  10.911  0.2844 -2.8545 -3.9287
 5041SOL     OW26758   1.807   0.685   2.888  0.1201  0.1114  0.9181
 5041SOL    HW126759   1.807   0.738   2.808  0.0278 -3.4744 -1.4702
 5041SOL    HW226760   1.878   0.630   2.853 -1.3945 -0.6113 -1.0420
 5042SOL     OW26761   1.901   4.070  11.536  0.4966 -0.0710  0.0115
 5042SOL    HW126762   1.937   4.067  11.447  0.7234 -1.0158  0.1282
 5042SOL    HW226763   1.966   4.030  11.595 -0.3090 -2.8764 -0.9807
 5043SOL     OW26764   2.331   1.358   4.210 -0.8228  0.1916 -0.5578
 5043SOL    HW126765   2.286   1.363   4.294  0.3142  2.1034 -0.0342
 5043SOL    HW226766   2.343   1.451   4.189  2.0341 -0.0873 -0.1715
 5044SOL     OW26767   4.404   0.737   9.516 -0.3560 -0.0343 -0.4998
 5044SOL    HW126768   4.389   0.721   9.609  2.5418  1.2947  0.1772
 5044SOL    HW226769   4.315   0.767   9.496 -0.3407  0.2135 -0.1842
 5045SOL     OW26770   0.073   3.391   6.925 -0.2814 -0.0608 -0.0494
 5045SOL    HW126771   0.006   3.458   6.939  0.1299  0.6479 -1.5531
 5045SOL    HW226772   0.154   3.438   6.907  0.2250 -1.0303 -0.2734
 5046SOL     OW26773   4.661   3.338  14.481  0.0200 -0.2424 -0.4833
 5046SOL    HW126774   4.711   3.291  14.414 -1.1776 -2.5888  0.2712
 5046SOL    HW226775   4.680   3.278  14.554  0.7896  1.2800  0.5693
 5047SOL     OW26776   3.473   2.418   4.633  0.8982  0.0249 -0.0905
 5047SOL    HW126777   3.419   2.495   4.613  1.6559  1.0978  2.1241
 5047SOL    HW226778   3.456   2.361   4.558  0.0763  1.0236 -0.6629
 5048SOL     OW26779   2.655   3.728   4.903  0.4915 -0.1962  0.3512
 5048SOL    HW126780   2.648   3.810   4.952  1.4159  0.4818 -0.6715
 5048SOL    HW226781   2.604   3.670   4.959  0.6587 -0.8690 -0.1941
 5049SOL     OW26782   1.609   4.554   9.367 -0.2357  0.4207 -0.3344
 5049SOL    HW126783   1.627   4.641   9.402  2.2377 -0.1474 -0.1918
 5049SOL    HW226784   1.700   4.535   9.345 -0.6654 -2.2862  0.2607
 5050SOL     OW26785   2.677   1.336   2.881  0.3957  0.0472 -0.0473
 5050SOL    HW126786   2.677   1.308   2.972 -0.3480 -0.0123 -0.0653
 5050SOL    HW226787   2.671   1.257   2.827 -0.7879 -0.9264  1.4923
 5051SOL     OW26788   3.471   4.559  12.291  0.0182  0.4872  0.2080
 5051SOL    HW126789   3.545   4.618  12.303  1.0428 -0.8386  0.3366
 5051SOL    HW226790   3.459   4.524  12.380  0.3009  1.2633  0.5533
 5052SOL     OW26791   0.264   2.013   4.922 -0.2996  0.3574 -0.0632
 5052SOL    HW126792   0.270   1.918   4.925  0.9669  0.4444  0.1562
 5052SOL    HW226793   0.353   2.049   4.921 -0.0018 -0.4253 -2.2840
 5053SOL     OW26794   2.838   0.653   6.133 -0.4718 -0.3442 -0.2123
 5053SOL    HW126795   2.763   0.712   6.145  0.4604  1.1898 -1.7565
 5053SOL    HW226796   2.805   0.580   6.185  2.3689 -0.2684  1.6722
 5054SOL     OW26797   1.836   0.554   4.493 -0.0286  0.6314 -0.0084
 5054SOL    HW126798   1.885   0.548   4.575 -2.3230  1.5160  1.4031
 5054SOL    HW226799   1.790   0.473   4.513 -0.7070  0.9791 -0.1724
 5055SOL     OW26800   4.632   0.098   2.443  0.4570 -0.3857  0.1678
 5055SOL    HW126801   4.669   0.029   2.498 -1.6438 -0.4394  1.5465
 5055SOL    HW226802   4.560   0.042   2.412  0.1796  0.5830 -0.8939
 5056SOL     OW26803   0.670   4.464  12.839 -0.3690 -0.0639  0.2689
 5056SOL    HW126804   0.659   4.385  12.892 -1.2994 -0.4473 -0.4946
 5056SOL    HW226805   0.582   4.492  12.814  1.0329  2.7620 -1.5108
 5057SOL     OW26806   0.244   3.361   6.531 -0.1419  0.1252 -0.2903
 5057SOL    HW126807   0.174   3.417   6.498 -1.3857 -1.4067 -0.2848
 5057SOL    HW226808   0.300   3.361   6.453 -0.5699 -1.1097 -0.6082
 5058SOL     OW26809   3.923   1.974   4.178  0.4780 -0.2624  0.6630
 5058SOL    HW126810   3.843   1.988   4.229  0.6393  0.2782  0.7753
 5058SOL    HW226811   3.982   1.942   4.246 -1.0621 -1.6882  1.3294
 5059SOL     OW26812   2.965   3.208   2.864 -0.3407  0.2498  0.1706
 5059SOL    HW126813   2.875   3.205   2.830 -1.1254 -1.7849  2.4289
 5059SOL    HW226814   2.988   3.120   2.834 -1.4202  0.2382 -0.6286
 5060SOL     OW26815   0.656   1.263   9.166 -0.2931 -0.8617  0.2978
 5060SOL    HW126816   0.662   1.354   9.138  4.2269 -0.9485  0.9209
 5060SOL    HW226817   0.685   1.220   9.086  1.8978  0.1039  0.5770
 5061SOL     OW26818   3.683   3.113   2.388 -0.2313  0.1297  0.6111
 5061SOL    HW126819   3.641   3.034   2.353  0.4450 -1.4774  3.4111
 5061SOL    HW226820   3.722   3.160   2.314  1.9203 -1.3720  0.7878
 5062SOL     OW26821   2.757   0.416   9.066  0.3424  0.1645  0.0628
 5062SOL    HW126822   2.780   0.463   8.986  0.8066 -1.2516 -0.6185
 5062SOL    HW226823   2.697   0.481   9.104  1.0449  0.3885  0.7915
 5063SOL     OW26824   3.008   3.554  17.711  0.0785  0.0870  0.6943
 5063SOL    HW126825   3.030   3.603   0.037 -0.7524 -0.4939  1.2799
 5063SOL    HW226826   2.998   3.467  17.750 -2.0720 -1.5958 -3.5648
 5064SOL     OW26827   0.278   2.635   6.392  0.2961 -0.6579  0.3907
 5064SOL    HW126828   0.216   2.572   6.355  0.6632  0.1022 -1.4835
 5064SOL    HW226829   0.237   2.654   6.477  2.6950  1.9776  0.9753
 5065SOL     OW26830   0.940   0.904   1.373  0.3691  0.5684  0.2359
 5065SOL    HW126831   0.877   0.838   1.343 -0.0402 -0.0319  2.4235
 5065SOL    HW226832   1.020   0.866   1.335  1.5595 -0.0769  3.4415
 5066SOL     OW26833   1.583   0.887   9.419 -0.0172 -0.1374  0.1256
 5066SOL    HW126834   1.659   0.896   9.361 -2.9764  2.0624 -3.4195
 5066SOL    HW226835   1.586   0.798   9.455  1.5902  0.4700  1.4536
 5067SOL     OW26836   4.465   3.695   3.624  0.3760  0.0327  0.5142
 5067SOL    HW126837   4.513   3.689   3.706  1.7155 -0.2318 -0.2926
 5067SOL    HW226838   4.378   3.688   3.663  0.4075 -2.5792  0.1076
 5068SOL     OW26839   3.698   4.447   3.149  0.5086  0.0526 -0.3542
 5068SOL    HW126840   3.725   4.429   3.059  0.8800 -1.3611  0.0334
 5068SOL    HW226841   3.606   4.425   3.141 -0.2624  3.0318  0.3503
 5069SOL     OW26842   4.288   1.287  14.084 -0.2566 -0.7090 -0.1121
 5069SOL    HW126843   4.320   1.354  14.145  0.7984  0.2385 -1.7357
 5069SOL    HW226844   4.233   1.350  14.037  1.2731  0.2700 -0.5794
 5070SOL     OW26845   0.739   1.639  13.481  0.5561  0.4594  0.4041
 5070SOL    HW126846   0.792   1.655  13.559  1.2939 -0.3772  0.0868
 5070SOL    HW226847   0.703   1.727  13.470 -0.6115 -0.0297  0.3732
 5071SOL     OW26848   0.194   1.196   1.911  0.3479  0.3258  0.0076
 5071SOL    HW126849   0.204   1.284   1.876  0.6950 -0.2905 -1.4208
 5071SOL    HW226850   0.120   1.202   1.972 -1.3806  1.7297 -2.2012
 5072SOL     OW26851   3.028   0.561   8.290 -0.2084  0.5242  0.8363
 5072SOL    HW126852   2.978   0.623   8.343 -1.1017 -0.4512  1.1241
 5072SOL    HW226853   3.042   0.605   8.206 -2.0294 -0.9090 -0.2226
 5073SOL     OW26854   0.356   3.727   2.956 -0.6796 -0.1422  0.1711
 5073SOL    HW126855   0.450   3.706   2.953 -0.7003 -0.6553  3.4180
 5073SOL    HW226856   0.318   3.646   2.921  3.5647 -2.6780  1.3966
 5074SOL     OW26857   0.792   1.799   7.008 -0.3129 -0.0158  0.1497
 5074SOL    HW126858   0.819   1.836   7.091 -0.1987 -0.9247  0.5149
 5074SOL    HW226859   0.698   1.795   7.021 -0.2643  1.4850  0.9844
 5075SOL     OW26860   3.958   0.980   3.360  0.1168  0.2878 -0.2084
 5075SOL    HW126861   4.047   0.999   3.391 -0.3157  2.3311 -0.2299
 5075SOL    HW226862   3.971   0.931   3.279  0.1486  2.1792 -1.3295
 5076SOL     OW26863   4.407   1.330   2.579 -0.0015 -0.3147 -0.7250
 5076SOL    HW126864   4.390   1.256   2.638  0.2751  0.3943  0.2396
 5076SOL    HW226865   4.453   1.365   2.656 -0.9008  1.3224 -0.9275
 5077SOL     OW26866   1.860   1.783   3.890  0.4719 -0.5983 -0.0736
 5077SOL    HW126867   1.821   1.793   3.977 -0.6596  0.6880 -0.7279
 5077SOL    HW226868   1.951   1.797   3.916 -0.0080  1.0991  0.7095
 5078SOL     OW26869   0.035   2.932   2.505  0.3286  0.0447  0.0281
 5078SOL    HW126870   0.081   2.881   2.438 -0.6017 -1.5120  0.5645
 5078SOL    HW226871   0.030   2.865   2.573  1.9209 -0.0504  0.0510
 5079SOL     OW26872   2.413   2.418   2.178  0.1153  0.4207 -0.2959
 5079SOL    HW126873   2.347   2.461   2.123  0.0471 -0.4977 -0.9248
 5079SOL    HW226874   2.355   2.412   2.254  0.2873  2.1209 -0.0323
 5080SOL     OW26875   3.319   1.711  12.325  0.0276  0.0085 -0.6241
 5080SOL    HW126876   3.290   1.788  12.275  1.0452 -0.1204 -1.4158
 5080SOL    HW226877   3.256   1.644  12.298 -1.5463  0.6898  1.3671
 5081SOL     OW26878   4.011   4.243   5.880 -0.2548 -0.4831 -0.0130
 5081SOL    HW126879   3.984   4.334   5.894 -2.4387 -1.2359  0.7364
 5081SOL    HW226880   4.050   4.258   5.794 -2.0015 -0.0567 -0.7303
 5082SOL     OW26881   0.286   1.044   2.554  0.2202 -0.4592  0.2406
 5082SOL    HW126882   0.334   1.107   2.607 -1.3533 -1.2340  2.5656
 5082SOL    HW226883   0.264   0.979   2.620  0.6771 -2.8200 -1.9306
 5083SOL     OW26884   2.524   3.530  14.368 -0.2274  0.0705 -0.2110
 5083SOL    HW126885   2.565   3.469  14.308 -0.7407 -0.6001  0.1266
 5083SOL    HW226886   2.565   3.611  14.336  0.3788  0.7146  2.1877
 5084SOL     OW26887   3.937   4.160   4.791  0.2936  0.3054 -0.2983
 5084SOL    HW126888   3.998   4.116   4.851  0.0186  0.8165  0.3544
 5084SOL    HW226889   3.974   4.125   4.710 -0.6122 -0.0121 -0.5703
 5085SOL     OW26890   1.131   3.197   5.049 -0.1570 -0.4262  0.7389
 5085SOL    HW126891   1.203   3.135   5.032 -0.4136 -0.8890  1.3690
 5085SOL    HW226892   1.078   3.174   4.972 -1.1239 -0.2138  1.3539
 5086SOL     OW26893   2.235   4.362   5.391  0.1827  0.0685  0.5514
 5086SOL    HW126894   2.315   4.403   5.358 -0.0590 -0.4980 -0.7355
 5086SOL    HW226895   2.188   4.442   5.414  0.6981  0.8051 -0.9673
 5087SOL     OW26896   1.344   4.186   2.247  0.2191  0.2098 -0.5293
 5087SOL    HW126897   1.382   4.196   2.334 -1.7581 -1.4659  0.4914
 5087SOL    HW226898   1.299   4.102   2.251  0.0615  0.3920  1.2651
 5088SOL     OW26899   3.697   2.378   8.258 -0.3827 -0.4785 -0.0985
 5088SOL    HW126900   3.791   2.369   8.274 -0.4883 -2.9423 -0.7246
 5088SOL    HW226901   3.684   2.383   8.163  0.4438 -0.5487 -0.2171
 5089SOL     OW26902   2.604   1.156   4.202  0.9586  0.0795 -0.0131
 5089SOL    HW126903   2.575   1.083   4.148 -1.0343  2.0905 -1.6485
 5089SOL    HW226904   2.543   1.156   4.275  1.4966 -2.4797  0.4640
 5090SOL     OW26905   3.428   4.528   8.078  1.0901  0.5632 -0.4692
 5090SOL    HW126906   3.477   4.456   8.116 -1.2630 -0.7795 -0.0013
 5090SOL    HW226907   3.471   4.595   8.131  0.5209  0.3277  0.2943
 5091SOL     OW26908   2.836   0.444   1.656  0.2602 -0.4536  0.7724
 5091SOL    HW126909   2.872   0.356   1.669  2.3769  0.5451  1.5088
 5091SOL    HW226910   2.763   0.420   1.598  1.8808 -1.1603 -0.9969
 5092SOL     OW26911   3.848   1.282   2.816  0.3272 -0.0562  0.2169
 5092SOL    HW126912   3.847   1.329   2.899 -0.9375  0.3933 -0.0468
 5092SOL    HW226913   3.883   1.199   2.847  1.1822 -0.1553 -1.0054
 5093SOL     OW26914   0.858   1.335  16.612 -0.0486  0.2754 -0.5115
 5093SOL    HW126915   0.896   1.252  16.583  2.7924  1.7231 -0.9228
 5093SOL    HW226916   0.763   1.338  16.598  0.3476  1.9257 -2.8894
 5094SOL     OW26917   2.631   2.416  16.791  0.0923  0.2367 -0.6775
 5094SOL    HW126918   2.654   2.419  16.884 -1.1016  1.1553 -0.4192
 5094SOL    HW226919   2.536   2.414  16.789  0.1220 -0.4514 -1.2577
 5095SOL     OW26920   3.380   1.821   1.356  0.6113  0.0255 -0.5457
 5095SOL    HW126921   3.421   1.879   1.420  0.3046 -0.6533  0.2648
 5095SOL    HW226922   3.409   1.737   1.391 -2.0936  0.3338  2.3708
 5096SOL     OW26923   1.173   0.409   6.508 -0.7072 -0.2294 -0.3788
 5096SOL    HW126924   1.110   0.355   6.556  1.3411 -1.4011  1.0419
 5096SOL    HW226925   1.125   0.482   6.470 -0.6378  0.7330  1.3930
 5097SOL     OW26926   1.230   2.811   7.657 -0.2387 -0.3080  0.5519
 5097SOL    HW126927   1.242   2.866   7.580 -2.0629  1.5001  1.5797
 5097SOL    HW226928   1.300   2.844   7.714  0.1237 -0.2954  0.1013
 5098SOL     OW26929   0.956   1.539  10.983 -0.3165  0.5736  0.3966
 5098SOL    HW126930   1.045   1.524  10.953 -0.9724 -1.8036 -0.3596
 5098SOL    HW226931   0.954   1.623  11.029 -1.3542  1.8942 -2.0015
 5099SOL     OW26932   0.136   4.726   8.698 -0.1232  0.2511 -0.3002
 5099SOL    HW126933   0.058   4.672   8.685  0.8528 -0.7922 -1.7696
 5099SOL    HW226934   0.126   4.736   8.793  0.8752  2.3112 -0.4236
 5100SOL     OW26935   0.340   2.255   9.543 -0.2357  0.5903  0.4791
 5100SOL    HW126936   0.402   2.313   9.499  0.2981  0.5309  1.1512
 5100SOL    HW226937   0.268   2.319   9.542 -0.7901 -0.0313  0.9187
 5101SOL     OW26938   1.883   3.663   4.903  0.5967  0.6947  0.0570
 5101SOL    HW126939   1.851   3.707   4.981 -0.4044  1.4288 -0.7550
 5101SOL    HW226940   1.862   3.571   4.917 -1.0525  1.0284 -0.2335
 5102SOL     OW26941   4.056   0.066   4.681  0.1415  0.1007  0.4711
 5102SOL    HW126942   3.982   0.035   4.630 -1.4218  0.7509  2.3533
 5102SOL    HW226943   4.066   0.154   4.645 -1.7903 -0.6435 -1.8201
 5103SOL     OW26944   2.456   4.699   1.761 -0.5114  0.5958 -0.0693
 5103SOL    HW126945   2.363   4.694   1.739 -0.2695  2.2898 -1.4869
 5103SOL    HW226946   2.489   4.726   1.676  0.2881 -2.4775 -0.7498
 5104SOL     OW26947   0.746   0.917   3.499  0.1742 -0.0012  0.1707
 5104SOL    HW126948   0.821   0.935   3.442  0.0416  2.1489  0.6634
 5104SOL    HW226949   0.671   0.888   3.446  0.4468 -1.5238  0.6374
 5105SOL     OW26950   1.291   0.347   3.064  0.4201 -0.2623  0.3112
 5105SOL    HW126951   1.285   0.412   3.134  2.2308  0.4720 -0.2217
 5105SOL    HW226952   1.354   0.384   3.002  0.4509 -0.7589  0.0429
 5106SOL     OW26953   0.377   0.151   8.298 -0.3495 -0.2876  0.0856
 5106SOL    HW126954   0.462   0.184   8.326 -0.2484  1.2065 -2.0179
 5106SOL    HW226955   0.359   0.194   8.215 -1.3961  0.5674  0.7662
 5107SOL     OW26956   2.586   0.772   3.814 -0.0325  0.4342 -0.0041
 5107SOL    HW126957   2.644   0.718   3.867 -1.3452  0.1246  1.1333
 5107SOL    HW226958   2.660   0.822   3.780 -0.0135 -0.3014 -1.0372
 5108SOL     OW26959   1.278   0.007  16.714  0.2464  0.5908 -0.0018
 5108SOL    HW126960   1.346   4.704  16.660 -1.4197 -1.4482 -0.5398
 5108SOL    HW226961   1.245   0.072  16.652  0.6045  0.7103 -0.0616
 5109SOL     OW26962   3.984   0.542   4.883  0.2624 -0.1551 -0.1505
 5109SOL    HW126963   4.004   0.546   4.789 -0.5513  1.4509 -0.2524
 5109SOL    HW226964   3.897   0.580   4.899 -0.8031 -2.1161 -1.3060
 5110SOL     OW26965   2.229   1.047   6.947  0.0786 -0.7995  0.3691
 5110SOL    HW126966   2.210   1.033   7.040 -1.7757 -0.5867  0.0254
 5110SOL    HW226967   2.278   0.965   6.935  0.9176 -0.4830  1.7053
 5111SOL     OW26968   4.034   2.831   8.052  0.8502 -1.0767 -0.1567
 5111SOL    HW126969   3.982   2.808   7.975  0.5651 -0.4532 -0.1463
 5111SOL    HW226970   4.090   2.753   8.055  2.6871  0.2270 -0.0584
 5112SOL     OW26971   4.542   1.365   3.472  0.7018  0.5434  0.2380
 5112SOL    HW126972   4.495   1.306   3.414  0.4741 -0.3435  1.3084
 5112SOL    HW226973   4.552   1.306   3.547 -0.1894  0.7254  0.5009
 5113SOL     OW26974   3.166   4.531   2.275 -0.6564  0.7428 -0.2904
 5113SOL    HW126975   3.075   4.504   2.291 -0.1317 -1.6889 -1.4378
 5113SOL    HW226976   3.175   4.522   2.180 -2.3222  1.5395 -0.5362
 5114SOL     OW26977   4.494   0.523   6.974 -0.0137 -0.0059  0.9094
 5114SOL    HW126978   4.436   0.541   6.899  1.1086 -2.3545 -0.5347
 5114SOL    HW226979   4.448   0.573   7.041 -1.9976  1.9645 -1.8712
 5115SOL     OW26980   0.304   2.236   8.417 -0.1050  0.3764 -0.0947
 5115SOL    HW126981   0.385   2.196   8.451 -0.2316 -0.8373 -1.2403
 5115SOL    HW226982   0.293   2.317   8.467  2.5858  0.9562 -0.4347
 5116SOL     OW26983   3.088   1.567   0.489 -1.0741 -1.0716  0.1641
 5116SOL    HW126984   3.051   1.651   0.515  1.1221 -0.0628  0.0471
 5116SOL    HW226985   3.183   1.578   0.490 -1.3279  0.9363  1.9065
 5117SOL     OW26986   3.870   3.328   4.263  0.3795 -0.3872 -0.0587
 5117SOL    HW126987   3.846   3.416   4.233  0.1862 -0.6524 -0.6909
 5117SOL    HW226988   3.814   3.318   4.340 -1.6940  2.3514 -1.1992
 5118SOL     OW26989   4.153   1.044   9.264  0.0282  0.5616  0.6182
 5118SOL    HW126990   4.097   1.112   9.302  0.3638  1.4346 -0.4535
 5118SOL    HW226991   4.197   1.079   9.187  0.0376 -2.3295 -0.7014
 5119SOL     OW26992   4.515   1.613   2.945 -0.3715 -0.5237  0.0131
 5119SOL    HW126993   4.513   1.540   2.884  2.0513  0.0045 -0.6921
 5119SOL    HW226994   4.594   1.606   2.998 -1.1954  4.1721  1.9170
 5120SOL     OW26995   1.415   4.101   8.566 -0.0108  0.0706  0.1496
 5120SOL    HW126996   1.435   4.182   8.613 -1.0341  0.6176 -0.3611
 5120SOL    HW226997   1.452   4.133   8.483 -0.8064  0.4509 -0.0632
 5121SOL     OW26998   3.192   4.031   5.048 -0.0695  0.0199  0.4602
 5121SOL    HW126999   3.282   4.005   5.025 -1.0397 -1.7405 -1.2996
 5121SOL    HW227000   3.173   3.973   5.121 -0.5276 -0.5049 -0.0797
 5122SOL     OW27001   3.277   4.301   8.525 -0.0806 -0.9841 -0.3957
 5122SOL    HW127002   3.192   4.263   8.546 -0.4140 -0.2079 -0.3319
 5122SOL    HW227003   3.335   4.226   8.538  0.5823 -0.3634  0.2205
 5123SOL     OW27004   3.817   4.712   4.979  0.1040 -0.3187 -0.4755
 5123SOL    HW127005   3.809   4.691   4.886 -0.2173 -1.4361 -0.1962
 5123SOL    HW227006   3.848   0.064   4.981 -2.8610  0.6840  0.8537
 5124SOL     OW27007   1.319   1.448  14.807  0.2584 -0.0649  0.0853
 5124SOL    HW127008   1.236   1.494  14.797  0.8648  0.8562 -0.6304
 5124SOL    HW227009   1.309   1.422  14.899  1.2610 -0.3183  0.1164
 5125SOL     OW27010   4.135   0.466   8.271  0.9892  0.2210 -0.2852
 5125SOL    HW127011   4.046   0.500   8.279  0.6016 -0.9571  0.3435
 5125SOL    HW227012   4.150   0.506   8.185 -3.5965  2.8970  0.1160
 5126SOL     OW27013   1.801   3.976   5.367 -0.1088  0.5744 -0.1919
 5126SOL    HW127014   1.851   3.997   5.288  0.4792  0.9721  0.2878
 5126SOL    HW227015   1.871   3.947   5.425 -0.0267 -0.5717 -0.8680
 5127SOL     OW27016   3.637   3.278   4.406  0.9131  0.3049  0.1545
 5127SOL    HW127017   3.559   3.264   4.353 -0.7949 -0.6493  2.9395
 5127SOL    HW227018   3.628   3.198   4.458  0.0221  0.4225  0.1813
 5128SOL     OW27019   3.811   4.532  15.123 -0.0976 -0.2328  0.2114
 5128SOL    HW127020   3.780   4.446  15.097 -2.4820  0.1313  1.8939
 5128SOL    HW227021   3.734   4.555  15.174  0.3358 -1.0310  1.2307
 5129SOL     OW27022   2.220   0.723   5.891 -0.3137  0.2511 -0.0875
 5129SOL    HW127023   2.199   0.799   5.836 -1.5325  0.7292  1.0441
 5129SOL    HW227024   2.313   0.738   5.911 -0.2957  0.6983 -0.4912
 5130SOL     OW27025   3.529   1.965   6.226 -0.0798 -0.3924  0.0416
 5130SOL    HW127026   3.586   2.039   6.202 -0.7093  0.4589  1.2201
 5130SOL    HW227027   3.588   1.914   6.281 -1.5098  0.0138  1.9165
 5131SOL     OW27028   2.467   0.439  14.991  0.3313  0.3284 -0.3413
 5131SOL    HW127029   2.373   0.428  14.981  0.1590  3.7804 -2.5549
 5131SOL    HW227030   2.469   0.530  15.021  0.5469 -0.2663  1.4573
 5132SOL     OW27031   2.024   4.699   4.492  0.3966  0.0566 -0.0772
 5132SOL    HW127032   2.069   4.738   4.566 -2.0945 -1.0403  2.0002
 5132SOL    HW227033   2.062   4.611   4.495  0.8869  0.2209 -1.2085
 5133SOL     OW27034   0.203   4.474   0.584 -0.5615 -0.1968  0.1815
 5133SOL    HW127035   0.236   4.405   0.641  0.6121 -0.3923 -0.7536
 5133SOL    HW227036   0.226   4.433   0.501 -1.9019 -0.5613 -0.0185
 5134SOL     OW27037   0.954   0.144   5.110  0.2288 -0.3751  0.2742
 5134SOL    HW127038   0.863   0.155   5.140  0.4115 -0.4855  0.8602
 5134SOL    HW227039   0.971   0.050   5.110  0.2366 -0.3829 -1.3291
 5135SOL     OW27040   1.427   4.224   1.993 -0.1695 -0.0311  0.6571
 5135SOL    HW127041   1.399   4.236   2.084  0.5494  1.1784  0.7204
 5135SOL    HW227042   1.340   4.237   1.953  1.4789  0.2582 -2.8131
 5136SOL     OW27043   1.152   0.888   5.851 -0.1273  0.1604  0.2455
 5136SOL    HW127044   1.097   0.869   5.926  0.9333 -0.4313  0.8690
 5136SOL    HW227045   1.098   0.829   5.798  0.0743  1.6541 -1.6360
 5137SOL     OW27046   4.145   2.730   1.666  0.0329  0.2324  0.1040
 5137SOL    HW127047   4.171   2.791   1.597 -1.1676 -0.2907 -0.8227
 5137SOL    HW227048   4.202   2.750   1.739  0.2347 -1.3092  0.3776
 5138SOL     OW27049   4.345   0.851   5.964  0.3972 -0.8963  0.3555
 5138SOL    HW127050   4.410   0.820   6.027  2.1596 -1.8205 -1.9264
 5138SOL    HW227051   4.263   0.812   5.993 -0.6909  1.1500  0.0725
 5139SOL     OW27052   3.346   3.459  10.787 -0.6007 -0.0242  0.4385
 5139SOL    HW127053   3.323   3.481  10.697 -0.2080 -0.0079  0.3383
 5139SOL    HW227054   3.296   3.518  10.842  0.4384 -0.0785  1.4628
 5140SOL     OW27055   4.052   3.411  10.695  0.6605 -0.3113 -0.1138
 5140SOL    HW127056   4.043   3.433  10.787  3.2203 -1.3402  0.3904
 5140SOL    HW227057   4.134   3.362  10.697  0.8650  0.0761  1.0378
 5141SOL     OW27058   3.884   0.267   4.391  0.3687  0.0313  0.4604
 5141SOL    HW127059   3.894   0.199   4.324  1.3495  1.7771 -1.1595
 5141SOL    HW227060   3.973   0.300   4.403  0.6253 -0.4212 -0.1785
 5142SOL     OW27061   3.395   1.649  17.446  0.0889 -0.2104  0.4314
 5142SOL    HW127062   3.394   1.587  17.373 -0.2879  1.1488 -0.7168
 5142SOL    HW227063   3.338   1.604  17.508 -0.3686  0.6230  0.6077
 5143SOL     OW27064   3.089   0.315  14.840  0.1903  0.6202  0.5597
 5143SOL    HW127065   3.067   0.323  14.748  3.9021  0.0008 -0.3919
 5143SOL    HW227066   3.023   0.375  14.875 -0.6873  0.4091 -0.7457
 5144SOL     OW27067   3.342   0.591  14.282 -0.4580  0.0866  0.4388
 5144SOL    HW127068   3.350   0.563  14.191  2.0498  1.1003  0.3283
 5144SOL    HW227069   3.334   0.686  14.267  0.4253 -0.0356 -0.8322
 5145SOL     OW27070   0.518   2.419   9.418 -0.7933  0.4296  0.1084
 5145SOL    HW127071   0.605   2.382   9.404 -0.5438  0.5308  1.4194
 5145SOL    HW227072   0.532   2.498   9.470  3.7435  0.6603 -1.4757
 5146SOL     OW27073   4.611   2.182   6.253  0.1191 -0.1592 -0.2430
 5146SOL    HW127074   4.638   2.102   6.298 -0.2858  0.2344  0.7207
 5146SOL    HW227075   4.605   2.244   6.326 -1.5155 -1.9127  1.1131
 5147SOL     OW27076   0.099   4.095  10.151 -0.5881  0.1098  0.2136
 5147SOL    HW127077   0.022   4.084  10.095 -1.2115 -0.8973  1.2707
 5147SOL    HW227078   0.069   4.146  10.226  0.8877  1.5110 -0.1433
 5148SOL     OW27079   0.315   3.204   4.511 -0.4963 -0.3316 -0.4659
 5148SOL    HW127080   0.387   3.230   4.568 -2.5377  0.6015  1.7124
 5148SOL    HW227081   0.296   3.281   4.457  2.7570  0.9724  0.2075
 5149SOL     OW27082   0.588   3.893   8.741 -0.2023 -0.0090  0.3796
 5149SOL    HW127083   0.578   3.882   8.836 -0.2366  1.0720  0.5003
 5149SOL    HW227084   0.520   3.835   8.706  0.0277 -0.5511  0.8196
 5150SOL     OW27085   1.886   4.561   5.363  0.0143  0.0934  0.3518
 5150SOL    HW127086   1.857   4.575   5.453 -0.7858  1.9609 -0.1917
 5150SOL    HW227087   1.934   4.641   5.341 -1.0564  0.5971 -0.1570
 5151SOL     OW27088   0.478   0.661   9.462  0.6984 -0.0014 -0.4577
 5151SOL    HW127089   0.403   0.719   9.456  0.7290  0.0438 -0.3944
 5151SOL    HW227090   0.519   0.662   9.375 -1.2503  0.9878 -1.3554
 5152SOL     OW27091   2.585   3.633   5.666  0.6461  0.4862 -0.1956
 5152SOL    HW127092   2.634   3.552   5.680 -0.4609  0.1228  1.5521
 5152SOL    HW227093   2.658   3.694   5.672 -0.4330  1.8306 -0.7426
 5153SOL     OW27094   2.218   2.680  13.307 -0.3309  0.6471  0.3404
 5153SOL    HW127095   2.125   2.675  13.282  0.3420  0.1670 -2.0867
 5153SOL    HW227096   2.217   2.733  13.386  2.1829  1.2535 -0.0446
 5154SOL     OW27097   4.657   4.564   5.637 -0.0149 -0.3432 -0.2773
 5154SOL    HW127098   4.609   4.645   5.624  2.3987  0.8446 -1.9244
 5154SOL    HW227099   4.621   4.503   5.572 -2.3247  2.0226 -1.2178
 5155SOL     OW27100   4.688   3.823   2.680  0.7370  0.4545 -0.1841
 5155SOL    HW127101   4.680   3.856   2.591  3.3416 -0.3628 -0.7247
 5155SOL    HW227102   4.636   3.744   2.663  0.9354  0.4778 -0.8876
 5156SOL     OW27103   0.904   2.810  10.220  0.0424 -0.1289  0.5423
 5156SOL    HW127104   0.897   2.885  10.280  0.6929 -0.5537  1.1413
 5156SOL    HW227105   0.811   2.791  10.209  0.0708  0.9603 -1.5358
 5157SOL     OW27106   2.195   0.174   2.293  0.0592  0.4329 -0.0414
 5157SOL    HW127107   2.180   0.112   2.221 -2.8378  2.8296 -1.5209
 5157SOL    HW227108   2.265   0.146   2.351  0.7343  0.4952 -0.8144
 5158SOL     OW27109   3.335   0.221   7.636 -0.1208 -0.2479 -0.2100
 5158SOL    HW127110   3.337   0.126   7.640  1.9503 -0.1712  0.2816
 5158SOL    HW227111   3.327   0.243   7.729 -1.9516  1.4365 -0.7549
 5159SOL     OW27112   4.207   1.541  16.550  0.3633 -0.7857  0.0149
 5159SOL    HW127113   4.179   1.466  16.602  0.0378 -0.4556  0.3130
 5159SOL    HW227114   4.204   1.613  16.613  0.9868  0.1124 -0.9756
 5160SOL     OW27115   1.974   0.315   8.929  0.5813 -0.1164 -0.1022
 5160SOL    HW127116   2.013   0.317   9.016  0.4394 -0.4675 -0.0318
 5160SOL    HW227117   1.915   0.391   8.927  0.5962 -0.1011  0.0809
 5161SOL     OW27118   4.314   3.012  11.637  0.1825 -0.7819  0.5832
 5161SOL    HW127119   4.373   3.055  11.698 -0.7672  0.7647  0.3993
 5161SOL    HW227120   4.357   2.926  11.632 -2.3144 -2.0227  0.3722
 5162SOL     OW27121   1.744   2.642   4.408 -0.3573  0.3544  0.1732
 5162SOL    HW127122   1.670   2.605   4.455 -0.5544  0.4349 -0.0684
 5162SOL    HW227123   1.770   2.703   4.477  2.2150 -1.3633  0.7196
 5163SOL     OW27124   2.739   3.055   9.119  0.1915 -0.3296  0.2144
 5163SOL    HW127125   2.749   3.145   9.086  3.3071 -0.3741  1.0039
 5163SOL    HW227126   2.651   3.041   9.085 -0.0738  1.7083  0.0249
 5164SOL     OW27127   3.615   2.739   1.084  0.2360  0.0349  0.6698
 5164SOL    HW127128   3.562   2.703   1.155  0.8120  0.8091  1.4972
 5164SOL    HW227129   3.567   2.821   1.070  1.4201  0.6071 -0.0744
 5165SOL     OW27130   1.360   0.797   2.312  0.4966 -0.6015 -0.0078
 5165SOL    HW127131   1.312   0.841   2.383 -0.9543 -1.2771 -0.5680
 5165SOL    HW227132   1.342   0.704   2.318  2.2047 -0.8530  1.1374
 5166SOL     OW27133   1.467   0.348   4.517 -0.2814  0.1694  0.2851
 5166SOL    HW127134   1.487   0.332   4.425  0.4930  1.3686  0.2502
 5166SOL    HW227135   1.375   0.375   4.517 -0.6745 -1.1638  1.6573
 5167SOL     OW27136   0.036   0.478   8.010 -0.2316  0.3167 -0.7215
 5167SOL    HW127137   4.709   0.482   8.078  1.4127 -1.8571  1.0093
 5167SOL    HW227138   4.735   0.411   7.954  1.6697 -1.0266 -0.4746
 5168SOL     OW27139   1.907   3.697   3.345  0.6019  0.4176  0.0864
 5168SOL    HW127140   1.983   3.730   3.296  0.5434 -0.6659 -0.7208
 5168SOL    HW227141   1.958   3.641   3.403 -0.6087 -3.1438 -2.3261
 5169SOL     OW27142   1.037   0.232   6.639  0.7052  0.0337 -0.3046
 5169SOL    HW127143   0.967   0.174   6.669  1.6649 -1.2930 -0.6208
 5169SOL    HW227144   1.110   0.172   6.627  0.7338  0.3930 -1.9729
 5170SOL     OW27145   2.527   2.525   8.530  0.2731  0.1619  0.4351
 5170SOL    HW127146   2.560   2.567   8.610  0.3841  0.7134  0.1023
 5170SOL    HW227147   2.595   2.554   8.470  0.5107  0.0991  0.6702
 5171SOL     OW27148   3.699   3.269   6.145  0.0034 -0.0880  0.6105
 5171SOL    HW127149   3.781   3.317   6.159  0.2035  0.3297 -2.1673
 5171SOL    HW227150   3.697   3.233   6.234 -1.1630 -1.3529  0.0739
 5172SOL     OW27151   2.691   3.192   4.063  0.6294 -0.3599  0.0960
 5172SOL    HW127152   2.756   3.207   4.131  1.8851  1.0647 -1.4084
 5172SOL    HW227153   2.633   3.262   4.092  1.4495 -0.3126  1.6107
 5173SOL     OW27154   2.798   1.774   1.400 -0.0655 -0.0240  0.3143
 5173SOL    HW127155   2.737   1.836   1.441 -0.9404 -0.2244 -0.6829
 5173SOL    HW227156   2.748   1.693   1.391 -0.4665  0.4175 -1.4644
 5174SOL     OW27157   2.596   3.442   2.053 -0.0122 -0.8621  0.1835
 5174SOL    HW127158   2.601   3.346   2.053 -2.0292 -0.9683 -1.2653
 5174SOL    HW227159   2.668   3.465   2.112  0.6571 -0.5398 -0.7513
 5175SOL     OW27160   0.004   1.203  14.959 -0.8643  0.3298 -0.1564
 5175SOL    HW127161   4.687   1.128  14.941  0.2554 -0.5070 -0.1836
 5175SOL    HW227162   0.086   1.154  14.972 -1.2101  0.3935  2.3659
 5176SOL     OW27163   3.414   2.199   1.668  0.1532  0.1184 -0.5238
 5176SOL    HW127164   3.422   2.294   1.664 -0.6733  0.2041 -0.2355
 5176SOL    HW227165   3.320   2.194   1.651  0.3176  0.5489 -1.5362
 5177SOL     OW27166   1.228   4.499   2.436 -0.2097  0.2516 -0.1520
 5177SOL    HW127167   1.198   4.436   2.370  0.0372  0.8846 -0.8608
 5177SOL    HW227168   1.166   4.474   2.505  0.4907 -1.2967 -0.0838
 5178SOL     OW27169   1.188   0.509   9.607  0.4388  0.2280 -0.3214
 5178SOL    HW127170   1.098   0.499   9.640  0.0088 -3.3346 -2.6236
 5178SOL    HW227171   1.226   0.426   9.636  1.3091  1.0003  0.7339
 5179SOL     OW27172   3.662   4.235   9.275 -0.5779  0.3453 -0.0972
 5179SOL    HW127173   3.735   4.295   9.265 -1.2302  1.1004 -0.3000
 5179SOL    HW227174   3.605   4.249   9.199  1.7335 -0.1071 -1.9100
 5180SOL     OW27175   4.606   4.552  10.125  0.1944  0.0401 -0.2413
 5180SOL    HW127176   4.686   4.504  10.147 -0.8783 -1.2176  0.8959
 5180SOL    HW227177   4.557   4.484  10.079 -1.1273  0.9597 -0.1924
 5181SOL     OW27178   2.057   4.540  11.667  0.6175 -0.1454 -0.6586
 5181SOL    HW127179   2.150   4.547  11.645  0.6390  1.1228 -0.1969
 5181SOL    HW227180   2.043   4.632  11.691 -1.1276 -0.6865  0.3642
 5182SOL     OW27181   1.704   0.815   7.691 -0.2776  0.0965  0.1431
 5182SOL    HW127182   1.646   0.774   7.755 -2.6817 -0.9266 -2.6599
 5182SOL    HW227183   1.760   0.746   7.656  0.7801  1.4967 -0.9277
 5183SOL     OW27184   2.317   4.319   0.472 -0.0943 -0.3353  0.3110
 5183SOL    HW127185   2.257   4.353   0.406  0.2233  1.8250  1.1316
 5183SOL    HW227186   2.394   4.295   0.421  0.3236  3.2630 -0.7471
 5184SOL     OW27187   4.233   4.733   3.760  0.2862 -0.2663 -0.7185
 5184SOL    HW127188   4.259   0.004   3.852  0.7235 -1.9954 -0.6435
 5184SOL    HW227189   4.144   0.030   3.752  1.3161  1.9326 -2.1957
 5185SOL     OW27190   0.332   2.169   9.789 -0.2678  0.9199 -0.1440
 5185SOL    HW127191   0.381   2.087   9.794  0.9280  1.7520  1.9330
 5185SOL    HW227192   0.352   2.192   9.698 -0.9960 -1.8613 -1.0064
 5186SOL     OW27193   4.353   3.236   5.588 -0.0501  0.3664  0.0073
 5186SOL    HW127194   4.326   3.148   5.611 -2.0020  1.1447  0.6995
 5186SOL    HW227195   4.448   3.227   5.579  0.0480  1.6993 -0.4237
 5187SOL     OW27196   4.404   1.745   9.217  0.4158  0.3636 -0.6683
 5187SOL    HW127197   4.325   1.787   9.252 -0.9304 -1.4554 -1.5581
 5187SOL    HW227198   4.459   1.769   9.292  0.6614 -2.2830  0.0030
 5188SOL     OW27199   1.661   3.222   2.412 -0.5383  0.1517 -0.0402
 5188SOL    HW127200   1.578   3.196   2.371 -0.0449  3.0331 -2.8028
 5188SOL    HW227201   1.661   3.317   2.406 -0.5472  0.0142 -2.1111
 5189SOL     OW27202   0.409   2.831   6.957  0.4525  0.1198  0.3517
 5189SOL    HW127203   0.346   2.901   6.973  0.2202  0.2852 -1.3173
 5189SOL    HW227204   0.451   2.848   6.873  2.4945 -1.1972  1.0846
 5190SOL     OW27205   3.166   3.461   8.450 -0.2674 -0.4267 -0.3588
 5190SOL    HW127206   3.258   3.440   8.467  0.3391  2.0966 -0.5059
 5190SOL    HW227207   3.131   3.373   8.439  1.7056 -1.0492 -1.6049
 5191SOL     OW27208   1.909   0.184   3.109  0.2434 -0.4122  0.3343
 5191SOL    HW127209   1.991   0.210   3.152  1.6931 -2.2981 -1.2676
 5191SOL    HW227210   1.909   0.092   3.133  1.6319 -0.3521  0.6104
 5192SOL     OW27211   0.828   4.450   2.373 -0.0400  0.3495  0.1745
 5192SOL    HW127212   0.755   4.509   2.353  0.8682  1.0495 -1.0325
 5192SOL    HW227213   0.796   4.360   2.359  0.3028 -0.0190  1.8246
 5193SOL     OW27214   4.616   1.029   0.056  0.3469  0.1030 -0.4358
 5193SOL    HW127215   4.618   0.988  17.722 -1.0353 -0.1551 -0.3567
 5193SOL    HW227216   4.643   0.960   0.115  0.2409  0.0742 -0.4199
 5194SOL     OW27217   3.959   3.750   6.926 -0.7045 -0.0978 -0.2834
 5194SOL    HW127218   4.038   3.705   6.956  1.3823  2.3746 -2.0266
 5194SOL    HW227219   3.988   3.817   6.863  1.9761 -2.9329 -2.0889
 5195SOL     OW27220   1.945   4.573   7.187  0.6890 -0.4889 -0.1655
 5195SOL    HW127221   1.967   4.640   7.122 -0.3968  0.9856  0.9674
 5195SOL    HW227222   1.900   4.619   7.258  0.9727 -0.6064  0.0919
 5196SOL     OW27223   1.430   3.553   9.711 -0.0391  0.2563 -0.0923
 5196SOL    HW127224   1.398   3.513   9.792 -0.1991 -0.7980 -0.6658
 5196SOL    HW227225   1.439   3.478   9.652  2.0069  0.5863 -0.1788
 5197SOL     OW27226   0.975   4.374   1.206  0.7276 -0.1612  0.3107
 5197SOL    HW127227   0.890   4.413   1.227  0.6895 -1.1839  2.0590
 5197SOL    HW227228   0.951   4.282   1.222 -0.2384  0.2591  1.3026
 5198SOL     OW27229   4.409   3.774   5.599  0.8531 -0.1276  0.3498
 5198SOL    HW127230   4.489   3.755   5.550 -0.3878 -0.9668 -1.3367
 5198SOL    HW227231   4.370   3.693   5.567 -0.9719  0.6990  0.4907
 5199SOL     OW27232   1.978   2.609   9.739  0.1627  0.0182  0.0857
 5199SOL    HW127233   2.055   2.571   9.782  1.3514  1.7323 -0.5578
 5199SOL    HW227234   1.930   2.590   9.820 -0.2804  1.9190  0.2780
 5200SOL     OW27235   4.160   3.141   6.864 -0.4110  0.2745  0.1517
 5200SOL    HW127236   4.210   3.151   6.945  0.3674 -1.3828 -0.1065
 5200SOL    HW227237   4.193   3.057   6.832 -1.1428  0.0453  0.0028
 5201SOL     OW27238   3.481   1.901  15.525 -0.2892  0.6402 -0.0568
 5201SOL    HW127239   3.542   1.930  15.457  1.3592  0.3010  1.3026
 5201SOL    HW227240   3.471   1.974  15.586 -0.4097 -0.0784  0.7854
 5202SOL     OW27241   1.454   1.247   8.351 -0.1640  0.3355  0.3629
 5202SOL    HW127242   1.446   1.334   8.312 -4.1084  0.2147  0.9774
 5202SOL    HW227243   1.385   1.237   8.416 -1.0116 -0.2268 -0.6275
 5203SOL     OW27244   2.159   1.826   0.081 -0.2333  0.5834  0.5742
 5203SOL    HW127245   2.189   1.747   0.124  3.0090  0.7926 -1.3161
 5203SOL    HW227246   2.126   1.866   0.162  0.3927  1.3714  0.4427
 5204SOL     OW27247   1.989   0.610   1.706  0.2315 -0.5664 -0.6741
 5204SOL    HW127248   1.915   0.585   1.761  1.3610 -1.1741  0.5786
 5204SOL    HW227249   1.988   0.525   1.661  1.4747 -2.0242  2.0070
 5205SOL     OW27250   3.838   1.930   5.284  0.2205  0.1115  1.0150
 5205SOL    HW127251   3.746   1.931   5.257  0.1769  0.2099  1.1639
 5205SOL    HW227252   3.878   1.917   5.198  0.2044 -0.6614  1.1200
 5206SOL     OW27253   1.084   3.095  11.143 -0.9257  0.2050  0.1988
 5206SOL    HW127254   1.048   3.077  11.230 -3.9366  0.6660 -0.9538
 5206SOL    HW227255   1.157   3.033  11.134 -0.2388  0.6339  2.6947
 5207SOL     OW27256   3.203   4.073   6.149  0.2460 -0.6071  0.6539
 5207SOL    HW127257   3.199   4.147   6.089 -0.9591 -1.1864  0.0244
 5207SOL    HW227258   3.212   4.121   6.231 -1.0877  3.4673 -1.5890
 5208SOL     OW27259   3.831   3.665   3.819 -0.1134 -0.0269  0.0082
 5208SOL    HW127260   3.900   3.598   3.823 -1.3104 -1.3963 -1.8568
 5208SOL    HW227261   3.860   3.731   3.882  2.0590  1.1374 -2.2366
 5209SOL     OW27262   2.533   4.188   6.738  0.1884 -0.1534  0.2981
 5209SOL    HW127263   2.484   4.242   6.676 -0.8124  0.2362  1.4337
 5209SOL    HW227264   2.495   4.101   6.722  2.1585 -0.8130 -0.8452
 5210SOL     OW27265   2.643   1.529   6.932  0.7164 -0.1629 -0.4219
 5210SOL    HW127266   2.693   1.493   6.859  0.6919 -3.1589  1.0384
 5210SOL    HW227267   2.622   1.449   6.980  0.6073  1.5537  2.4350
 5211SOL     OW27268   3.726   0.554   2.738 -0.1761 -0.1907  0.2078
 5211SOL    HW127269   3.772   0.474   2.713 -1.4966 -0.9108  0.0565
 5211SOL    HW227270   3.771   0.627   2.696  1.2140 -0.4710  1.2137
 5212SOL     OW27271   3.110   0.182   2.875 -0.3791 -0.1341 -0.2399
 5212SOL    HW127272   3.144   0.154   2.960 -1.8396  0.0859  0.3986
 5212SOL    HW227273   3.147   0.271   2.876 -2.0106  0.5282  1.1529
 5213SOL     OW27274   3.486   1.522   3.918  0.2777  0.2727  0.5285
 5213SOL    HW127275   3.537   1.543   3.997  0.1685  0.7189  0.4844
 5213SOL    HW227276   3.435   1.601   3.938  2.4394  2.2210 -1.6680
 5214SOL     OW27277   0.350   3.459   9.139 -0.1133  0.1663  0.1128
 5214SOL    HW127278   0.336   3.364   9.129  0.9639 -0.2943  2.8941
 5214SOL    HW227279   0.398   3.487   9.061 -0.8352 -0.8735 -0.7189
 5215SOL     OW27280   4.377   3.264   9.016 -0.7003  0.1192  0.6099
 5215SOL    HW127281   4.399   3.170   9.013 -0.4700  0.1275  2.3875
 5215SOL    HW227282   4.373   3.277   9.110  1.2345  2.1184  0.3987
 5216SOL     OW27283   4.397   3.938   2.913 -0.5300  0.1242 -0.0737
 5216SOL    HW127284   4.457   3.868   2.939  1.2977  1.1874 -1.4943
 5216SOL    HW227285   4.449   4.011   2.881  3.1528 -2.2783  0.4848
 5217SOL     OW27286   1.645   4.413   3.153 -0.3221  0.1820 -0.2181
 5217SOL    HW127287   1.606   4.424   3.067  0.2234 -0.8282 -0.6000
 5217SOL    HW227288   1.713   4.347   3.141  0.4220  0.6443  1.3643
 5218SOL     OW27289   3.902   0.785   2.644  0.4176  0.0807  0.4936
 5218SOL    HW127290   3.829   0.847   2.655  2.5571  2.9828 -1.4729
 5218SOL    HW227291   3.968   0.849   2.616 -0.8706  1.0329 -0.4053
 5219SOL     OW27292   1.551   0.648   2.868  0.8174  1.0930  0.3927
 5219SOL    HW127293   1.645   0.636   2.876  0.7385 -0.1298 -0.5216
 5219SOL    HW227294   1.558   0.732   2.823 -1.0065  0.0741 -1.7657
 5220SOL     OW27295   2.699   4.034   1.983  0.5346  0.4462  0.1022
 5220SOL    HW127296   2.774   4.045   1.925  2.3278 -3.3360  1.6818
 5220SOL    HW227297   2.724   4.059   2.072 -2.3962 -1.1303  1.3657
 5221SOL     OW27298   2.334   3.101   8.615  0.4724 -0.0138 -0.0017
 5221SOL    HW127299   2.366   3.011   8.605 -2.3715 -1.1772  1.1263
 5221SOL    HW227300   2.244   3.088   8.647  0.7523 -0.9936  0.4099
 5222SOL     OW27301   2.860   3.385   2.642 -0.6954 -0.3648  0.2641
 5222SOL    HW127302   2.867   3.458   2.580  0.0605  1.7014  2.7973
 5222SOL    HW227303   2.773   3.403   2.678 -1.1153 -0.1693 -0.8525
 5223SOL     OW27304   2.369   4.207   3.316 -0.3959  0.3461 -0.0718
 5223SOL    HW127305   2.450   4.238   3.276  0.3585  0.4467  1.5175
 5223SOL    HW227306   2.401   4.130   3.362 -1.3061 -0.3934 -0.6681
 5224SOL     OW27307   0.451   2.522   2.696  0.4855 -0.4516  0.0097
 5224SOL    HW127308   0.508   2.456   2.656 -0.1177 -1.1780  0.3373
 5224SOL    HW227309   0.363   2.494   2.670  0.8124 -1.2351 -0.2522
 5225SOL     OW27310   3.486   1.396   4.608  0.5703 -0.3362  0.1312
 5225SOL    HW127311   3.463   1.330   4.674 -0.1491 -2.9788 -2.8105
 5225SOL    HW227312   3.468   1.477   4.656 -0.4638 -0.3125 -0.2897
 5226SOL     OW27313   3.000   0.582   1.972 -0.2615  0.2704  0.7452
 5226SOL    HW127314   2.908   0.557   1.976 -0.0880 -0.0716  2.5791
 5226SOL    HW227315   3.000   0.677   1.987  0.6724  0.2543  0.8815
 5227SOL     OW27316   2.362   3.862  11.627 -0.3250 -0.4907 -0.0288
 5227SOL    HW127317   2.380   3.867  11.721  0.1357 -0.8224 -0.0980
 5227SOL    HW227318   2.399   3.943  11.593  0.9659  0.8375  4.5361
 5228SOL     OW27319   3.431   3.780   7.831 -0.0670 -0.2677 -0.5525
 5228SOL    HW127320   3.485   3.709   7.796  0.9608  1.5826 -2.6775
 5228SOL    HW227321   3.487   3.857   7.835 -0.4460 -0.0874  1.3858
 5229SOL     OW27322   1.274   3.628   8.439 -0.2461 -0.2189  0.6853
 5229SOL    HW127323   1.248   3.702   8.495 -0.6518 -0.4882  0.8534
 5229SOL    HW227324   1.370   3.628   8.442 -0.2422  1.0178  0.8541
 5230SOL     OW27325   0.811   0.440  14.266  0.2110 -0.7865  0.0307
 5230SOL    HW127326   0.716   0.442  14.253  0.6558  3.3857 -2.5540
 5230SOL    HW227327   0.842   0.525  14.235  0.9836 -0.8089  0.7626
 5231SOL     OW27328   2.118   3.840   8.975 -0.5564  0.0535  0.2524
 5231SOL    HW127329   2.186   3.884   9.025 -1.0903 -0.9449  1.8484
 5231SOL    HW227330   2.064   3.794   9.039  0.2756  0.0067  0.9266
 5232SOL     OW27331   3.386   2.905   7.364 -0.0329  0.3155  0.4732
 5232SOL    HW127332   3.354   2.874   7.449 -0.3821 -0.5723  0.0261
 5232SOL    HW227333   3.480   2.904   7.382  0.0675 -1.5595 -0.1520
 5233SOL     OW27334   1.332   4.686   3.478  0.5350 -0.0749 -0.0558
 5233SOL    HW127335   1.254   4.632   3.466  1.0369 -0.9853  0.7592
 5233SOL    HW227336   1.365   4.631   3.549  0.1593 -1.3477 -0.8791
 5234SOL     OW27337   0.517   1.909   8.095  0.0712  0.5087  0.5533
 5234SOL    HW127338   0.564   1.844   8.148 -2.1252 -0.7396  0.9756
 5234SOL    HW227339   0.437   1.917   8.147 -1.2616 -0.5841 -1.3682
 5235SOL     OW27340   0.544   3.084   4.100 -0.4528 -0.3307 -0.1089
 5235SOL    HW127341   0.501   3.083   4.015 -2.3100 -1.4498  0.8301
 5235SOL    HW227342   0.627   3.046   4.072  0.8758  1.2634  1.6445
 5236SOL     OW27343   3.410   4.692   9.625  0.4086  0.2288  0.0572
 5236SOL    HW127344   3.457   4.645   9.694 -2.1921 -1.9917  0.3199
 5236SOL    HW227345   3.373   4.621   9.573  1.1992  0.2823 -0.5827
 5237SOL     OW27346   0.417   1.539   2.270 -0.3264  0.1749 -0.4655
 5237SOL    HW127347   0.470   1.517   2.347 -0.5648  0.6167 -0.1751
 5237SOL    HW227348   0.458   1.623   2.249 -2.2702  0.9414 -1.1457
 5238SOL     OW27349   4.303   2.330   0.502  0.2545  0.7552  0.1764
 5238SOL    HW127350   4.368   2.314   0.433  1.1689  1.7541  0.8008
 5238SOL    HW227351   4.348   2.302   0.582  1.1448  0.2173 -0.5076
 5239SOL     OW27352   1.731   3.487   5.048 -0.5051  0.6121  0.2182
 5239SOL    HW127353   1.666   3.556   5.061  0.0800  1.3796 -0.9219
 5239SOL    HW227354   1.771   3.471   5.133 -0.2924 -1.6900 -0.2870
 5240SOL     OW27355   4.538   3.141   2.514  0.1664  0.1900  0.7829
 5240SOL    HW127356   4.501   3.076   2.574 -0.0850  0.6528  1.1253
 5240SOL    HW227357   4.531   3.090   2.433  0.1665 -0.2713  1.0708
 5241SOL     OW27358   2.809   2.151  17.064  0.4886  0.1268  0.2014
 5241SOL    HW127359   2.751   2.110  16.999 -0.6726  3.3667 -0.8237
 5241SOL    HW227360   2.851   2.224  17.018 -2.0335  1.2899 -0.2656
 5242SOL     OW27361   3.815   1.570   4.688 -0.0481 -0.0377 -0.0573
 5242SOL    HW127362   3.816   1.476   4.708  2.2771 -0.5937 -2.7656
 5242SOL    HW227363   3.791   1.607   4.773  0.1020  1.9972 -0.8986
 5243SOL     OW27364   1.244   3.266   2.101  0.0339  0.0754 -0.3281
 5243SOL    HW127365   1.225   3.351   2.141  0.2042 -0.3420  0.6492
 5243SOL    HW227366   1.185   3.263   2.026  0.1541  0.5499 -0.4381
 5244SOL     OW27367   4.351   3.787   4.545  0.5339  0.1127 -0.0232
 5244SOL    HW127368   4.306   3.703   4.554  0.1662  0.5222  2.0975
 5244SOL    HW227369   4.365   3.814   4.636  0.6562 -1.1827  0.3368
 5245SOL     OW27370   4.009   0.430   3.721  0.0744  0.2172 -0.2211
 5245SOL    HW127371   4.084   0.418   3.662 -0.4341 -0.9504 -0.6226
 5245SOL    HW227372   4.019   0.350   3.771  0.3972 -0.3674 -1.2119
 5246SOL     OW27373   4.265   1.916   7.125  0.1017  0.1268  0.1388
 5246SOL    HW127374   4.226   1.990   7.171  0.1685  0.9539 -1.1415
 5246SOL    HW227375   4.275   1.852   7.195  1.9743  1.7342  1.3163
 5247SOL     OW27376   0.583   3.403   0.127  0.1529  0.1692 -0.4816
 5247SOL    HW127377   0.573   3.386   0.033  0.3315  0.0936 -0.4875
 5247SOL    HW227378   0.658   3.346   0.144  1.8655  2.6092  0.1133
 5248SOL     OW27379   1.010   2.969   8.516  0.0668 -0.1617 -0.0023
 5248SOL    HW127380   0.974   2.886   8.484  0.7922  0.1224 -1.5857
 5248SOL    HW227381   0.928   3.000   8.555  0.3755  0.4697  0.1437
 5249SOL     OW27382   2.228   1.427   2.970  0.4560  0.4626 -0.1816
 5249SOL    HW127383   2.276   1.483   3.030  0.1973  1.2708 -0.7354
 5249SOL    HW227384   2.255   1.346   3.014 -0.4217 -0.3760 -1.1927
 5250SOL     OW27385   0.974   3.531   8.363 -0.2998  0.0748 -0.1238
 5250SOL    HW127386   0.909   3.596   8.389  1.3271  2.3704 -1.7083
 5250SOL    HW227387   1.053   3.584   8.376 -1.4642  1.2848  1.9476
 5251SOL     OW27388   2.635   4.388  13.065  0.2552  0.2280 -0.1078
 5251SOL    HW127389   2.717   4.350  13.096 -0.3310 -0.0319  1.1290
 5251SOL    HW227390   2.652   4.430  12.980 -1.7429  0.8783 -0.1764
 5252SOL     OW27391   1.776   4.704   2.164  0.0282 -0.0993 -0.1828
 5252SOL    HW127392   1.832   0.000   2.234  0.5280 -1.7140  0.2214
 5252SOL    HW227393   1.759   0.052   2.126 -1.9267  0.0142  0.9172
 5253SOL     OW27394   0.510   1.868   2.816 -0.1220 -0.0490  0.2673
 5253SOL    HW127395   0.417   1.893   2.809  0.2649  1.2910  0.0360
 5253SOL    HW227396   0.515   1.889   2.909 -0.5119 -1.1586  0.5421
 5254SOL     OW27397   4.538   1.205   3.689 -0.1477  0.1933 -0.9062
 5254SOL    HW127398   4.520   1.111   3.699  1.0827 -0.2628 -2.9308
 5254SOL    HW227399   4.626   1.208   3.727 -0.8595 -0.0043  0.7734
 5255SOL     OW27400   4.299   1.996   2.792 -0.1832  0.4002 -0.5111
 5255SOL    HW127401   4.343   1.989   2.877 -0.1907 -1.4525 -0.6473
 5255SOL    HW227402   4.240   1.920   2.786  0.3374  0.0793 -1.5304
 5256SOL     OW27403   2.543   2.229   9.073  0.8941  0.2672 -0.0699
 5256SOL    HW127404   2.448   2.239   9.078  0.8577 -1.6833  3.2061
 5256SOL    HW227405   2.566   2.184   9.154 -2.0684  0.4952  0.8783
 5257SOL     OW27406   3.979   0.033  15.642  0.6233  0.4740  0.2247
 5257SOL    HW127407   4.042   4.700  15.641  0.0078 -0.0793  0.9904
 5257SOL    HW227408   3.927   4.737  15.715 -0.1274  2.6239  0.7192
 5258SOL     OW27409   0.955   4.396  10.652  0.1000 -0.2528 -0.1607
 5258SOL    HW127410   0.967   4.313  10.698  2.9969 -0.0734 -0.6409
 5258SOL    HW227411   0.881   4.381  10.593  0.7843 -0.4032 -0.9769
 5259SOL     OW27412   0.671   0.533   7.942 -0.3515 -0.2277 -0.7478
 5259SOL    HW127413   0.651   0.519   7.850 -1.5533  2.8344 -0.9270
 5259SOL    HW227414   0.582   0.548   7.977 -0.2112 -0.5002 -0.2630
 5260SOL     OW27415   1.808   4.092   3.615 -0.4429  0.4717  0.7115
 5260SOL    HW127416   1.848   4.148   3.548 -0.9122 -0.8366 -0.6667
 5260SOL    HW227417   1.808   4.010   3.565 -1.0295  0.9206 -0.0267
 5261SOL     OW27418   4.606   1.957   3.404  0.1958 -0.0552  0.1471
 5261SOL    HW127419   4.533   1.899   3.382 -0.9841  1.2699  0.5695
 5261SOL    HW227420   4.568   2.038   3.369  2.5006  1.4026  1.0223
 5262SOL     OW27421   3.185   3.281  15.288  0.0092  0.0183 -0.1844
 5262SOL    HW127422   3.104   3.320  15.256  1.8974  1.1865 -3.6211
 5262SOL    HW227423   3.160   3.228  15.364  4.7865 -1.0767  0.6104
 5263SOL     OW27424   3.008   0.182   4.365  0.5628 -0.5150  0.2308
 5263SOL    HW127425   3.090   0.173   4.317  1.1755 -0.1909  1.2363
 5263SOL    HW227426   3.025   0.263   4.413  2.1430 -1.8959  1.9932
 5264SOL     OW27427   1.561   1.412   8.034  0.2768 -0.3793 -0.2853
 5264SOL    HW127428   1.569   1.499   8.073  0.1229 -0.2968 -0.4390
 5264SOL    HW227429   1.502   1.437   7.964 -1.6764 -0.4666  1.3163
 5265SOL     OW27430   2.073   1.531   4.009 -0.2519 -0.4274 -0.2987
 5265SOL    HW127431   2.155   1.525   3.960  0.1803 -1.6983  0.5844
 5265SOL    HW227432   2.087   1.566   4.097 -1.2767 -0.2777 -0.1893
 5266SOL     OW27433   2.894   1.219  12.838 -0.1407 -0.1023 -0.0503
 5266SOL    HW127434   2.894   1.124  12.841  3.0235 -0.0980 -0.4666
 5266SOL    HW227435   2.960   1.229  12.769 -1.2897 -0.7578 -1.2496
 5267SOL     OW27436   3.298   2.820   5.518 -0.6311 -0.2160 -0.0073
 5267SOL    HW127437   3.352   2.895   5.494  1.2081 -2.1688 -1.9166
 5267SOL    HW227438   3.313   2.762   5.443 -0.9121  0.4427 -0.5760
 5268SOL     OW27439   0.020   2.588   3.072 -0.5094  0.3982 -0.1409
 5268SOL    HW127440   4.688   2.645   3.104  0.8434  0.1891  3.2760
 5268SOL    HW227441   0.095   2.631   3.113 -0.6573 -0.5291  1.1166
 5269SOL     OW27442   2.583   1.207   5.078 -0.5208 -0.0705  0.2056
 5269SOL    HW127443   2.665   1.254   5.083  0.4673 -1.8492  0.8145
 5269SOL    HW227444   2.599   1.153   5.156  0.1972 -0.8774 -0.4931
 5270SOL     OW27445   3.421   1.510   1.029 -0.4852  0.2834  0.5582
 5270SOL    HW127446   3.389   1.568   1.098 -3.0097 -1.1638  0.6027
 5270SOL    HW227447   3.380   1.546   0.951 -2.3846 -0.1356  1.3703
 5271SOL     OW27448   3.333   1.614  12.621 -0.0815  0.0462  0.2370
 5271SOL    HW127449   3.346   1.641  12.530 -0.6818 -0.0612  0.1211
 5271SOL    HW227450   3.260   1.556  12.599 -0.0548 -0.6370  1.9889
 5272SOL     OW27451   4.110   0.747   9.896 -0.0122  0.0451  0.2787
 5272SOL    HW127452   4.155   0.783   9.973 -1.3285  0.2019  0.9647
 5272SOL    HW227453   4.181   0.690   9.864 -0.7516  0.0972 -1.4317
 5273SOL     OW27454   4.450   3.700   9.987  0.3964  0.6277  0.3105
 5273SOL    HW127455   4.484   3.724  10.073 -1.1382 -0.6439  1.2674
 5273SOL    HW227456   4.456   3.789   9.952  3.3363  0.6947  0.9208
 5274SOL     OW27457   1.960   2.569   9.428  0.4943  0.2123  0.2168
 5274SOL    HW127458   1.956   2.605   9.516 -1.6486  0.8808 -0.1570
 5274SOL    HW227459   1.965   2.646   9.370 -0.2001  1.2304  1.5283
 5275SOL     OW27460   1.984   0.887   5.541 -0.5661  0.4280 -0.8022
 5275SOL    HW127461   1.899   0.920   5.569 -0.8040 -0.1397 -0.8666
 5275SOL    HW227462   2.044   0.922   5.607 -2.4080  3.1643 -0.6090
 5276SOL     OW27463   3.306   3.924   0.246 -0.3550  0.3701  0.1699
 5276SOL    HW127464   3.260   3.901   0.327  0.1261 -0.4016  0.2201
 5276SOL    HW227465   3.378   3.862   0.249 -1.5400 -1.1907 -4.2106
 5277SOL     OW27466   3.469   1.015   2.251 -0.0549  0.2812 -0.6534
 5277SOL    HW127467   3.440   1.008   2.342  1.1860  2.1327 -0.1226
 5277SOL    HW227468   3.562   1.019   2.273 -0.6924 -1.7400  2.4303
 5278SOL     OW27469   1.174   1.626   5.914  0.0845 -0.7212  0.4225
 5278SOL    HW127470   1.240   1.692   5.937  0.9358 -1.9970  1.6294
 5278SOL    HW227471   1.214   1.588   5.836  1.3027  0.2817  0.5682
 5279SOL     OW27472   4.035   2.538   7.001  0.0398 -0.0755  0.2436
 5279SOL    HW127473   3.976   2.483   6.948 -2.3197  1.6318  1.0826
 5279SOL    HW227474   4.121   2.512   6.968 -0.2101 -0.0391 -0.4558
 5280SOL     OW27475   4.074   0.260   5.435  0.3908  0.0633 -0.0703
 5280SOL    HW127476   4.167   0.259   5.411  0.7793 -0.3443  1.4737
 5280SOL    HW227477   4.023   0.274   5.355  1.3051 -1.0337 -0.8529
 5281SOL     OW27478   0.548   3.877  17.610  0.3771 -0.3044 -0.1650
 5281SOL    HW127479   0.531   3.875  17.705  2.2497 -1.7207  0.1386
 5281SOL    HW227480   0.635   3.840  17.625  0.5324 -0.5405 -1.7520
 5282SOL     OW27481   3.267   3.143   6.770  0.2281  0.7406  0.5405
 5282SOL    HW127482   3.315   3.208   6.719 -0.2565  0.0909 -0.7371
 5282SOL    HW227483   3.201   3.200   6.809  3.1627  3.6419  1.2762
 5283SOL     OW27484   2.085   3.477  14.613  0.3789 -0.5889 -0.6114
 5283SOL    HW127485   1.998   3.459  14.649  0.2514  1.2190 -0.0260
 5283SOL    HW227486   2.124   3.390  14.620  0.2307 -0.7633 -1.7942
 5284SOL     OW27487   2.617   3.240   7.257  0.1200 -0.8409  0.2524
 5284SOL    HW127488   2.700   3.196   7.276 -0.2123 -1.9558 -0.8701
 5284SOL    HW227489   2.561   3.170   7.289 -0.9987  0.3243  0.8602
 5285SOL     OW27490   0.939   3.435  17.261  0.0130 -0.7197 -0.5086
 5285SOL    HW127491   0.901   3.492  17.328  3.9905  0.6968  0.5720
 5285SOL    HW227492   1.032   3.457  17.267 -0.1449 -0.4828  1.2336
 5286SOL     OW27493   4.721   0.023   9.755  0.9049 -0.4700 -0.3158
 5286SOL    HW127494   4.637   4.717   9.768 -0.9141  2.5582 -1.5988
 5286SOL    HW227495   4.697   0.100   9.703  2.1460  0.6906  0.8619
 5287SOL     OW27496   4.282   0.267   7.960 -0.0484 -0.4137 -0.4381
 5287SOL    HW127497   4.317   0.244   7.874 -1.4663  1.1877 -1.4422
 5287SOL    HW227498   4.272   0.362   7.961  1.2061 -0.2618 -2.1956
 5288SOL     OW27499   2.952   0.877   3.064  0.5759 -0.0528  0.1047
 5288SOL    HW127500   2.884   0.917   3.117  1.6429 -0.1790  1.5612
 5288SOL    HW227501   2.967   0.797   3.114  2.1608  0.9476  1.2653
 5289SOL     OW27502   0.476   3.145   2.757 -0.3321  0.1154 -0.8556
 5289SOL    HW127503   0.406   3.138   2.692  1.6951 -1.4932 -2.8402
 5289SOL    HW227504   0.492   3.052   2.770  0.4063  0.0683 -2.1290
 5290SOL     OW27505   3.844   2.763  14.197 -0.1139  0.3828 -1.0783
 5290SOL    HW127506   3.835   2.831  14.130 -1.1441  2.7073  1.4558
 5290SOL    HW227507   3.930   2.724  14.180  0.2542  0.4730  0.5933
 5291SOL     OW27508   2.153   3.891   7.280 -0.1732  0.0493  0.3081
 5291SOL    HW127509   2.186   3.936   7.358 -0.9673 -3.5024  2.6737
 5291SOL    HW227510   2.059   3.904   7.292 -0.4489 -2.5545  0.9140
 5292SOL     OW27511   3.455   3.707   5.346 -0.2026  0.2602  0.5878
 5292SOL    HW127512   3.390   3.719   5.415  0.9821  1.2932  1.5240
 5292SOL    HW227513   3.498   3.792   5.356  0.2391  0.4351 -2.8000
 5293SOL     OW27514   4.091   1.723   2.084  0.1199 -0.2280 -0.5718
 5293SOL    HW127515   4.104   1.715   2.178 -1.2811 -0.0950 -0.3754
 5293SOL    HW227516   4.033   1.650   2.064  1.1503 -1.8210  2.2635
 5294SOL     OW27517   0.311   2.138   5.678 -0.2648  0.4360  0.9780
 5294SOL    HW127518   0.317   2.067   5.614 -0.5374 -0.2103  1.6526
 5294SOL    HW227519   0.286   2.220   5.636 -0.8460 -1.2110 -1.8862
 5295SOL     OW27520   0.128   4.024   7.132 -0.4934  0.4163  0.0645
 5295SOL    HW127521   0.127   3.991   7.222 -2.0337 -0.3246 -0.2098
 5295SOL    HW227522   0.057   3.976   7.089  0.3536 -1.2972  0.5780
 5296SOL     OW27523   3.143   2.859   9.952  0.0036  0.0140  0.7723
 5296SOL    HW127524   3.150   2.928   9.886 -0.0586  1.1487  1.9489
 5296SOL    HW227525   3.186   2.789   9.904  0.2130 -0.0808  1.0972
 5297SOL     OW27526   1.389   0.317   9.539 -0.5204  0.0355  0.7754
 5297SOL    HW127527   1.429   0.250   9.594  0.7860 -0.0617 -0.2738
 5297SOL    HW227528   1.469   0.366   9.520 -0.3192 -0.8611 -0.7401
 5298SOL     OW27529   1.192   2.891   5.666  0.0439  0.1609 -0.4498
 5298SOL    HW127530   1.149   2.867   5.748  1.4096  0.2768  0.2957
 5298SOL    HW227531   1.183   2.986   5.671 -1.4933 -0.0473  0.6410
 5299SOL     OW27532   1.039   0.020   5.437 -0.1994 -0.2789  0.0138
 5299SOL    HW127533   0.988   0.088   5.480 -0.1079 -1.0283  1.3138
 5299SOL    HW227534   0.978   0.009   5.364 -0.2581  0.8462 -0.0963
 5300SOL     OW27535   4.479   1.746  17.485 -0.5905 -0.3335  0.2076
 5300SOL    HW127536   4.421   1.716  17.415 -1.0974 -0.4996  0.6913
 5300SOL    HW227537   4.429   1.708  17.558  0.7242 -1.4012  0.5389
 5301SOL     OW27538   2.520   0.953  14.754  0.3854 -0.1454 -0.1845
 5301SOL    HW127539   2.554   0.946  14.664 -0.1397 -0.9000 -0.3223
 5301SOL    HW227540   2.427   0.932  14.749 -0.0545  1.9064 -0.7986
 5302SOL     OW27541   3.871   2.367  13.631  0.1060  0.1908  0.5221
 5302SOL    HW127542   3.833   2.354  13.718  1.4129 -3.6592  0.5167
 5302SOL    HW227543   3.916   2.449  13.651 -0.1242 -0.0590  2.0433
 5303SOL     OW27544   0.310   4.428   7.824 -0.3209 -0.2255  0.1474
 5303SOL    HW127545   0.374   4.379   7.876 -0.3051  0.3041  0.6294
 5303SOL    HW227546   0.247   4.359   7.805  0.4769 -1.3005  1.3939
 5304SOL     OW27547   4.525   1.317  13.018  0.0830 -0.1811 -0.0655
 5304SOL    HW127548   4.436   1.294  13.045 -0.8858  1.6188 -1.7465
 5304SOL    HW227549   4.520   1.413  13.022 -2.4021 -0.3720  1.3587
 5305SOL     OW27550   2.893   3.259   0.657 -0.6248 -0.4058 -0.8611
 5305SOL    HW127551   2.817   3.282   0.710 -0.4029 -1.5012 -0.0731
 5305SOL    HW227552   2.852   3.223   0.578 -2.9350 -2.5738  1.3479
 5306SOL     OW27553   2.252   0.970   5.168 -0.2484  0.1907 -0.1760
 5306SOL    HW127554   2.214   0.960   5.081  0.5608 -0.2449 -0.4768
 5306SOL    HW227555   2.174   0.992   5.219 -0.0391  0.3529  0.0737
 5307SOL     OW27556   4.662   4.365   7.450 -0.2467  0.7898 -0.2608
 5307SOL    HW127557   4.672   4.398   7.361  2.4665  1.7691  0.4230
 5307SOL    HW227558   4.706   4.280   7.448 -1.5335  0.0466  2.4749
 5308SOL     OW27559   0.452   2.286  11.000  0.2597 -0.5469 -0.0342
 5308SOL    HW127560   0.537   2.329  11.006 -0.6033  1.1849 -0.0362
 5308SOL    HW227561   0.421   2.311  11.087  0.5964 -2.8993  0.7469
 5309SOL     OW27562   4.078   0.769   5.894  0.1339  0.1067 -0.4907
 5309SOL    HW127563   3.991   0.733   5.915 -0.3368  0.6741 -1.5132
 5309SOL    HW227564   4.096   0.750   5.802  1.9240 -0.0258 -0.1037
 5310SOL     OW27565   0.522   0.172  15.517 -0.1144  0.2180  0.0995
 5310SOL    HW127566   0.616   0.158  15.518 -0.0892  0.3848  0.1938
 5310SOL    HW227567   0.494   0.143  15.430 -1.6345  0.2732  0.5723
 5311SOL     OW27568   3.016   3.037   5.388  0.1354  0.0893  0.2177
 5311SOL    HW127569   2.950   3.060   5.323 -1.1568 -2.9889  0.4384
 5311SOL    HW227570   3.087   3.008   5.331  0.0021 -0.3484  0.2727
 5312SOL     OW27571   0.340   1.866   1.464 -0.2289  0.0631  0.1494
 5312SOL    HW127572   0.302   1.815   1.393 -2.0564  0.8742  0.5403
 5312SOL    HW227573   0.392   1.801   1.510  0.5690  0.5032 -0.1158
 5313SOL     OW27574   3.188   3.483   2.353 -0.0266  0.0593 -0.4075
 5313SOL    HW127575   3.272   3.529   2.343  1.1881 -2.0841  0.0665
 5313SOL    HW227576   3.208   3.423   2.424 -2.4264  0.7927  0.8756
 5314SOL     OW27577   2.267   3.509  12.610 -0.1944 -0.0199 -0.1600
 5314SOL    HW127578   2.290   3.528  12.519 -1.4247  0.8139 -0.2988
 5314SOL    HW227579   2.341   3.553  12.652 -1.1838  1.4231  0.0877
 5315SOL     OW27580   2.843   1.681   5.158  0.3054 -0.4022 -0.3764
 5315SOL    HW127581   2.920   1.678   5.215 -0.4756 -1.7676  0.6301
 5315SOL    HW227582   2.779   1.625   5.203 -2.0358  1.1134 -1.8214
 5316SOL     OW27583   4.010   0.818  14.853  0.2753  0.2212 -0.3744
 5316SOL    HW127584   4.005   0.847  14.762 -0.0511 -0.2924 -0.5191
 5316SOL    HW227585   4.084   0.757  14.851 -0.1516 -0.2927 -0.2561
 5317SOL     OW27586   2.304   1.994   7.630 -0.4015  0.7749 -0.4131
 5317SOL    HW127587   2.269   1.906   7.622  2.6362 -0.2415 -2.6402
 5317SOL    HW227588   2.382   1.986   7.685 -0.5990 -0.1720 -0.2834
 5318SOL     OW27589   1.639   3.089  10.477  0.1518  0.0648 -0.1338
 5318SOL    HW127590   1.668   3.103  10.387 -0.4701  2.8889  0.1083
 5318SOL    HW227591   1.724   3.102  10.520 -0.1770  0.8630  0.2870
 5319SOL     OW27592   0.342   3.797   3.708 -0.1067 -0.0707  0.1240
 5319SOL    HW127593   0.420   3.827   3.661  0.1933  2.1009  2.0406
 5319SOL    HW227594   0.284   3.788   3.632 -0.1365  0.4609  0.0809
 5320SOL     OW27595   2.624   1.658   9.129  0.7292 -0.5337  0.3085
 5320SOL    HW127596   2.640   1.650   9.035 -0.7775  0.3683 -0.0303
 5320SOL    HW227597   2.667   1.741   9.144 -1.7579  0.9492 -0.7460
 5321SOL     OW27598   2.045   0.178  12.397  0.4715  0.6811 -0.4089
 5321SOL    HW127599   1.996   0.099  12.376  3.0339 -1.2112  0.6567
 5321SOL    HW227600   2.011   0.202  12.484 -0.5121 -0.9210 -0.3651
 5322SOL     OW27601   3.884   3.742  11.338 -0.2575  0.3320  0.2941
 5322SOL    HW127602   3.884   3.795  11.417 -0.9253  0.8772 -0.0755
 5322SOL    HW227603   3.866   3.652  11.367  0.3556  0.1831  0.2197
 5323SOL     OW27604   3.549   3.628   2.634  0.0227 -0.2457  0.3099
 5323SOL    HW127605   3.571   3.721   2.626  2.3463 -0.7969  0.4445
 5323SOL    HW227606   3.629   3.587   2.666 -1.3303 -0.0250  4.0205
 5324SOL     OW27607   3.368   2.771   6.643 -1.2400 -0.0166  0.4361
 5324SOL    HW127608   3.329   2.692   6.607  0.3190 -0.5533 -0.0627
 5324SOL    HW227609   3.317   2.832   6.590  1.7530  0.2438 -2.1357
 5325SOL     OW27610   3.336   0.484   4.859 -0.2126  0.0662 -0.7802
 5325SOL    HW127611   3.306   0.547   4.795 -0.4612 -0.0345 -0.7635
 5325SOL    HW227612   3.301   0.407   4.814  1.5930 -0.5780 -1.0958
 5326SOL     OW27613   0.967   1.665   2.716 -0.1263 -0.1584 -0.8519
 5326SOL    HW127614   1.020   1.634   2.789 -1.5560  1.6619  0.9794
 5326SOL    HW227615   0.880   1.666   2.757  0.6883 -1.4086  0.8965
 5327SOL     OW27616   4.136   2.784   9.524 -0.1375  0.1836  0.0812
 5327SOL    HW127617   4.093   2.747   9.601  1.4600 -0.8989  0.4468
 5327SOL    HW227618   4.114   2.727   9.451  2.7818  1.0458 -1.4822
 5328SOL     OW27619   3.780   1.706   7.234 -0.1046  0.1070 -0.4338
 5328SOL    HW127620   3.721   1.683   7.305 -1.1900 -1.2185 -1.7715
 5328SOL    HW227621   3.753   1.793   7.205 -3.0495 -0.5053  0.5085
 5329SOL     OW27622   1.260   2.752  15.039  0.0168  0.1071 -0.2534
 5329SOL    HW127623   1.165   2.741  15.039  0.1317 -0.9126  1.5565
 5329SOL    HW227624   1.261   2.840  15.002 -1.5946  0.9027  1.6251
 5330SOL     OW27625   4.034   0.021   0.010 -0.2251  0.8465  0.2793
 5330SOL    HW127626   3.945   4.727   0.002  0.2481 -0.6882  1.3576
 5330SOL    HW227627   4.018   0.115  17.752  1.2067  0.9578 -0.8798
 5331SOL     OW27628   2.334   1.046   7.517  0.3663 -0.7180 -0.6208
 5331SOL    HW127629   2.257   1.002   7.482 -0.0868  0.3431 -0.9484
 5331SOL    HW227630   2.385   1.035   7.437  1.6578  1.4558 -0.1121
 5332SOL     OW27631   2.461   0.710   9.385 -0.6389 -0.3456 -0.0631
 5332SOL    HW127632   2.472   0.619   9.356  1.9519 -0.2500  0.5827
 5332SOL    HW227633   2.385   0.729   9.331 -0.7856 -0.1690  0.2097
 5333SOL     OW27634   1.496   1.805   5.015  0.3365 -0.1955  0.0298
 5333SOL    HW127635   1.429   1.855   4.969  0.3762  0.2277  0.4317
 5333SOL    HW227636   1.480   1.726   4.963  0.1861 -1.6312  2.2861
 5334SOL     OW27637   3.569   2.753  14.392 -0.3349 -0.1402 -0.9650
 5334SOL    HW127638   3.555   2.677  14.336 -1.0631 -0.6556 -0.0872
 5334SOL    HW227639   3.481   2.790  14.399 -0.0797  0.1447  0.8816
 5335SOL     OW27640   3.155   0.662   5.454  0.0577  0.1230 -0.1982
 5335SOL    HW127641   3.125   0.587   5.505  1.1874  0.5461  1.0953
 5335SOL    HW227642   3.248   0.643   5.466  0.3370  1.4390 -0.2995
 5336SOL     OW27643   1.262   1.442   2.719 -0.1332  0.1404  0.1962
 5336SOL    HW127644   1.280   1.387   2.643 -1.1336 -0.6279  0.5094
 5336SOL    HW227645   1.351   1.477   2.728 -1.3332  3.0118  0.9021
 5337SOL     OW27646   0.606   1.311  16.209  0.9630  0.1619 -0.4275
 5337SOL    HW127647   0.625   1.404  16.224  1.5216 -0.2052  1.2007
 5337SOL    HW227648   0.510   1.309  16.212  1.0622 -1.1859  1.9090
 5338SOL     OW27649   4.639   2.921   7.160 -0.0666  0.5279 -0.0431
 5338SOL    HW127650   4.662   2.954   7.073 -3.7389 -0.4102 -1.3546
 5338SOL    HW227651   4.712   2.858   7.165 -1.5717 -1.2181 -0.1551
 5339SOL     OW27652   1.086   3.387  15.092  0.0061  0.0737 -0.1924
 5339SOL    HW127653   1.033   3.321  15.048 -0.8670 -0.8108  2.1561
 5339SOL    HW227654   1.133   3.349  15.167  1.8301 -0.1394 -1.4396
 5340SOL     OW27655   0.141   2.442   9.543 -0.1960  0.4179 -0.2791
 5340SOL    HW127656   0.075   2.470   9.479 -3.0207 -0.8070  2.1370
 5340SOL    HW227657   0.160   2.523   9.591  2.6126  0.5830 -1.6222
 5341SOL     OW27658   0.385   1.880   6.911 -0.4282 -0.2133  0.4446
 5341SOL    HW127659   0.443   1.954   6.894  0.6685 -1.2055 -0.1017
 5341SOL    HW227660   0.323   1.926   6.968 -0.3025  1.7842 -1.0186
 5342SOL     OW27661   0.416   1.012   9.169  0.2049 -0.4741 -0.0754
 5342SOL    HW127662   0.410   1.077   9.099 -0.3063 -2.0972 -1.5348
 5342SOL    HW227663   0.422   0.932   9.118 -0.2105 -2.3713  2.8160
 5343SOL     OW27664   1.840   1.938   2.398  0.1021 -0.4537 -0.1968
 5343SOL    HW127665   1.915   1.987   2.431 -0.7291  0.3656  0.4859
 5343SOL    HW227666   1.878   1.871   2.341  1.7219 -0.4479  0.8696
 5344SOL     OW27667   2.370   1.279   9.018  0.0336 -0.4809  0.1173
 5344SOL    HW127668   2.422   1.242   9.089 -0.9838  2.1819  2.2850
 5344SOL    HW227669   2.397   1.225   8.944 -3.3430 -1.5070 -0.3892
 5345SOL     OW27670   1.120   2.686   4.416  0.1078  0.6518 -0.5374
 5345SOL    HW127671   1.150   2.628   4.486 -1.2348  0.5886 -0.0113
 5345SOL    HW227672   1.209   2.705   4.387  0.4101 -1.3206 -0.9250
 5346SOL     OW27673   1.960   1.974   9.965  0.3479  0.2778 -0.1493
 5346SOL    HW127674   2.052   1.971   9.991  0.2697  0.1052  0.1100
 5346SOL    HW227675   1.963   1.895   9.912  1.1055  1.3894 -1.7563
 5347SOL     OW27676   4.455   2.703   8.675 -0.1218 -0.0455  0.1341
 5347SOL    HW127677   4.497   2.719   8.759  1.5113 -1.6447 -0.3733
 5347SOL    HW227678   4.478   2.775   8.616 -1.8542 -0.0434 -0.5581
 5348SOL     OW27679   0.402   1.275   2.654 -0.0797  0.1649  0.0543
 5348SOL    HW127680   0.489   1.242   2.630 -0.7407 -3.4005  2.6566
 5348SOL    HW227681   0.417   1.365   2.684  1.0336  0.4564 -1.3689
 5349SOL     OW27682   4.313   4.381   7.724  0.2434  0.8245 -0.3707
 5349SOL    HW127683   4.339   4.420   7.640  1.3744 -1.1147 -0.9007
 5349SOL    HW227684   4.399   4.366   7.763  1.0962  0.3674 -2.4107
 5350SOL     OW27685   0.804   2.685   5.051  0.4200 -0.1734  0.6630
 5350SOL    HW127686   0.790   2.766   5.002  1.8915  1.2842  2.6309
 5350SOL    HW227687   0.735   2.699   5.116 -1.6301  1.5754 -1.9247
 5351SOL     OW27688   0.544   2.666  12.236  0.4093  0.1994 -0.2420
 5351SOL    HW127689   0.461   2.620  12.229  1.1079 -0.9538 -1.0192
 5351SOL    HW227690   0.604   2.592  12.221  0.9479  0.9692 -1.9038
 5352SOL     OW27691   0.087   0.289  10.322 -0.2660 -0.5289 -0.1130
 5352SOL    HW127692   0.128   0.375  10.308  1.2879 -0.6414  3.7766
 5352SOL    HW227693   4.737   0.325  10.329  0.1300  0.0865  1.7916
 5353SOL     OW27694   1.366   4.228  13.012  0.1166  0.1231  0.1401
 5353SOL    HW127695   1.430   4.236  13.083 -0.5759  2.4826  0.5082
 5353SOL    HW227696   1.346   4.320  12.995  1.3324  0.2296 -0.6984
 5354SOL     OW27697   0.878   1.663   9.528 -0.0582 -0.2944 -0.1540
 5354SOL    HW127698   0.818   1.733   9.501 -0.2346 -0.6005 -0.5661
 5354SOL    HW227699   0.887   1.617   9.444  0.7558  1.6078 -1.1331
 5355SOL     OW27700   4.386   3.817   3.228  0.0314 -0.7868  0.4585
 5355SOL    HW127701   4.376   3.731   3.270  0.9309 -0.1950  1.8693
 5355SOL    HW227702   4.429   3.795   3.145 -0.2966  1.3574 -0.2620
 5356SOL     OW27703   3.193   0.797   7.623  0.2524  0.3801 -0.4561
 5356SOL    HW127704   3.181   0.807   7.718  0.0528 -0.3921 -0.4017
 5356SOL    HW227705   3.134   0.865   7.590 -0.1914 -0.0337 -0.5095
 5357SOL     OW27706   0.856   3.817  16.117 -0.3302  0.1245  0.0991
 5357SOL    HW127707   0.855   3.891  16.057  1.8994 -0.5947 -0.8487
 5357SOL    HW227708   0.782   3.762  16.089 -1.4438  1.5554  0.2583
 5358SOL     OW27709   2.983   2.907   4.928 -0.2165  0.4490  0.3703
 5358SOL    HW127710   2.908   2.962   4.950  0.6004  1.7883 -0.1470
 5358SOL    HW227711   2.948   2.834   4.979 -1.2261  1.9243  1.8082
 5359SOL     OW27712   2.562   3.620   3.555 -0.4883  0.2735  0.0708
 5359SOL    HW127713   2.491   3.584   3.608  0.4480 -2.1975 -0.3528
 5359SOL    HW227714   2.634   3.565   3.585 -0.6450  0.2356  0.3789
 5360SOL     OW27715   0.754   2.796   1.679 -0.9812  0.2286 -0.2499
 5360SOL    HW127716   0.749   2.723   1.740  3.8936  1.1104  1.1522
 5360SOL    HW227717   0.664   2.807   1.648 -1.3712  0.4113  0.9453
 5361SOL     OW27718   4.665   3.295   2.085 -0.2190  0.0312  0.1831
 5361SOL    HW127719   4.625   3.223   2.135  0.4972  0.7255  1.7574
 5361SOL    HW227720   0.002   3.301   2.144 -1.2020  2.3824  1.1790
 5362SOL     OW27721   2.113   1.828   4.458  0.6348 -0.3734 -0.0802
 5362SOL    HW127722   2.203   1.861   4.461  0.4714  0.0588  0.0150
 5362SOL    HW227723   2.075   1.861   4.539 -0.2179 -2.5425  0.4175
 5363SOL     OW27724   3.538   4.533  15.482  0.6555 -0.2523  0.3147
 5363SOL    HW127725   3.567   4.524  15.391  2.0987  0.6978  0.6983
 5363SOL    HW227726   3.604   4.596  15.509 -0.5925  2.0768 -2.0223
 5364SOL     OW27727   1.593   0.291   5.135  0.5396  0.3266 -0.0033
 5364SOL    HW127728   1.584   0.196   5.142  2.3066  0.1355 -0.2842
 5364SOL    HW227729   1.663   0.303   5.072 -0.8795  1.6710 -1.3312
 5365SOL     OW27730   4.277   1.818  13.026 -0.1112  0.1978  0.1218
 5365SOL    HW127731   4.189   1.795  12.997 -0.2819  1.0063  0.0125
 5365SOL    HW227732   4.271   1.791  13.117 -0.4919 -2.3718 -0.6658
 5366SOL     OW27733   4.590   3.917   4.920 -0.3007  0.1404  0.0278
 5366SOL    HW127734   4.643   3.874   4.852 -0.1047 -0.5782  0.6294
 5366SOL    HW227735   4.519   3.854   4.928 -1.2175  1.3620  1.2920
 5367SOL     OW27736   0.946   1.452   4.657  0.4752 -0.3472 -0.0337
 5367SOL    HW127737   0.936   1.373   4.604 -1.0053 -0.1775 -0.0168
 5367SOL    HW227738   1.015   1.491   4.604 -0.8143 -0.1924 -1.6071
 5368SOL     OW27739   1.229   2.934   4.988  0.4528 -0.2065  0.0750
 5368SOL    HW127740   1.315   2.900   5.014  0.5003  0.1011  0.3284
 5368SOL    HW227741   1.217   2.885   4.907 -1.6802  0.3904  0.0221
 5369SOL     OW27742   3.024   1.918   4.474  0.2425 -0.0833  0.1996
 5369SOL    HW127743   3.064   2.005   4.483 -0.5556  0.2709  0.4076
 5369SOL    HW227744   3.001   1.926   4.382 -2.4247  1.1094  0.9714
 5370SOL     OW27745   0.775   3.790   7.805  0.0590  0.2906  0.4851
 5370SOL    HW127746   0.707   3.815   7.867 -1.7047  0.4061 -1.4935
 5370SOL    HW227747   0.761   3.696   7.801  0.1009  0.3406 -0.8690
 5371SOL     OW27748   1.953   3.576   1.481 -0.2914  0.3165 -0.1891
 5371SOL    HW127749   1.909   3.660   1.487  0.7898  0.8220  0.6981
 5371SOL    HW227750   1.932   3.545   1.393 -0.6656 -0.3902  0.1510
 5372SOL     OW27751   1.589   1.244   6.107  0.6204  0.4115  0.0791
 5372SOL    HW127752   1.568   1.185   6.034  0.3353  0.3630  0.2039
 5372SOL    HW227753   1.613   1.182   6.175  2.6699  1.4164  0.2818
 5373SOL     OW27754   1.883   0.464   2.100  0.1655  0.4896 -0.6938
 5373SOL    HW127755   1.926   0.543   2.066 -0.6899  1.0070 -0.5573
 5373SOL    HW227756   1.909   0.461   2.192 -0.6145  3.8368 -0.3564
 5374SOL     OW27757   0.394   2.935   3.134  0.1468  0.2814  0.4966
 5374SOL    HW127758   0.339   2.873   3.086 -0.4506  0.6426  0.7108
 5374SOL    HW227759   0.381   3.017   3.086  3.1772 -1.2126 -2.8662
 5375SOL     OW27760   2.357   4.481  16.243 -0.0660 -0.1933 -0.3339
 5375SOL    HW127761   2.403   4.441  16.317  0.8663  0.1915 -0.6962
 5375SOL    HW227762   2.339   4.405  16.188  2.2433 -2.4892  2.0897
 5376SOL     OW27763   4.465   2.683   6.952 -0.7157  0.0512 -0.0318
 5376SOL    HW127764   4.515   2.648   7.026  1.9568  1.4276 -1.1739
 5376SOL    HW227765   4.375   2.666   6.980  0.3672 -1.5777  2.5159
 5377SOL     OW27766   2.153   1.139   8.113  0.1037 -0.1158  0.3827
 5377SOL    HW127767   2.145   1.047   8.141 -0.6911 -0.1471  0.0484
 5377SOL    HW227768   2.151   1.117   8.020 -0.4868  1.3483  0.0603
 5378SOL     OW27769   0.374   4.277   3.638  0.0688  0.7470  0.0369
 5378SOL    HW127770   0.359   4.369   3.618 -0.5362  0.0176 -2.9517
 5378SOL    HW227771   0.317   4.260   3.713 -1.2318  1.3284 -0.8070
 5379SOL     OW27772   3.312   0.629   6.014 -0.8386 -0.3651  0.1131
 5379SOL    HW127773   3.239   0.588   5.969 -0.4988 -1.6293  0.7061
 5379SOL    HW227774   3.293   0.610   6.106  0.8557  0.1175  0.5762
 5380SOL     OW27775   0.641   2.382   5.804  0.0536  0.2304  0.1107
 5380SOL    HW127776   0.675   2.293   5.797  0.1623  0.1543  1.5664
 5380SOL    HW227777   0.618   2.390   5.711 -1.6449 -1.0732  0.4239
 5381SOL     OW27778   0.298   0.310   3.537  0.5703 -0.0702 -0.2027
 5381SOL    HW127779   0.278   0.394   3.496 -0.4567 -0.2113  0.0063
 5381SOL    HW227780   0.257   0.313   3.623  0.3734  1.7772 -0.3624
 5382SOL     OW27781   3.524   1.257   2.771  0.6790  0.6565 -0.2158
 5382SOL    HW127782   3.474   1.310   2.709 -1.4317 -0.3162  0.6264
 5382SOL    HW227783   3.527   1.316   2.846 -1.5069 -1.9373  1.9152
 5383SOL     OW27784   0.746   0.026   0.097  0.7033 -0.1413 -0.0919
 5383SOL    HW127785   0.830   0.040   0.053  1.0265 -1.0045  0.2515
 5383SOL    HW227786   0.681   0.021   0.027  1.0349 -0.8031 -0.3503
 5384SOL     OW27787   2.418   0.125   6.368  0.3963  0.3552 -0.5108
 5384SOL    HW127788   2.374   0.042   6.387  0.6851  0.3791  0.2532
 5384SOL    HW227789   2.453   0.135   6.456  0.1802 -1.2526 -0.2426
 5385SOL     OW27790   3.647   1.170   3.052 -0.3062  0.2377  0.3939
 5385SOL    HW127791   3.567   1.124   3.028 -0.4642  1.7603 -2.0602
 5385SOL    HW227792   3.708   1.097   3.060  0.3113  0.9069  1.7234
 5386SOL     OW27793   3.400   1.703   7.177 -0.4618 -0.3049 -0.1443
 5386SOL    HW127794   3.430   1.720   7.266 -0.2975 -1.3944  0.0054
 5386SOL    HW227795   3.434   1.780   7.132 -0.3626  0.8001  1.8036
 5387SOL     OW27796   0.892   0.174  17.538  0.3457  0.1494  0.2123
 5387SOL    HW127797   0.970   0.190  17.484 -0.8669 -1.7090 -2.0787
 5387SOL    HW227798   0.937   0.143  17.617  0.1403  0.3582  0.4109
 5388SOL     OW27799   0.645   1.773   4.756 -0.6281 -0.4004 -0.0624
 5388SOL    HW127800   0.562   1.746   4.716 -1.0186  0.0630  0.4306
 5388SOL    HW227801   0.668   1.690   4.799  2.4680 -0.7749 -2.4796
 5389SOL     OW27802   3.492   1.086   7.837  0.0619 -0.2054 -0.2525
 5389SOL    HW127803   3.404   1.087   7.800  0.4687  2.6241 -1.1289
 5389SOL    HW227804   3.501   1.179   7.855  3.9004 -0.5331 -0.3972
 5390SOL     OW27805   2.824   2.345   3.317 -0.1218 -0.2749  0.5787
 5390SOL    HW127806   2.747   2.332   3.263 -1.0023  0.4835  1.6518
 5390SOL    HW227807   2.858   2.256   3.327  1.7075  0.3801  0.3485
 5391SOL     OW27808   3.162   4.432   8.143  0.0341 -0.2938 -0.1388
 5391SOL    HW127809   3.246   4.477   8.140 -0.0437  0.0693  2.6951
 5391SOL    HW227810   3.125   4.444   8.056 -1.4137  1.1417  0.6707
 5392SOL     OW27811   4.304   1.118   9.006  0.0734  0.7486  0.2897
 5392SOL    HW127812   4.264   1.162   8.931 -0.2871 -2.7915 -1.5807
 5392SOL    HW227813   4.396   1.127   8.983  0.1684  1.9539  1.1402
 5393SOL     OW27814   3.278   1.923  12.165 -0.1728  0.5085 -0.4250
 5393SOL    HW127815   3.187   1.926  12.133 -0.1920  0.3852 -0.3846
 5393SOL    HW227816   3.321   1.993  12.116 -0.1699  0.4009 -0.5767
 5394SOL     OW27817   3.895   3.055   6.993  0.2512  0.2290  0.4490
 5394SOL    HW127818   3.832   2.983   6.986 -0.4971  1.1667 -2.1121
 5394SOL    HW227819   3.960   3.035   6.925 -0.8460 -1.1814 -0.1954
 5395SOL     OW27820   0.776   0.552   3.996 -0.5525 -0.1603  0.2517
 5395SOL    HW127821   0.840   0.583   3.932 -1.1627 -0.1936 -0.3761
 5395SOL    HW227822   0.688   0.557   3.957 -0.7764  0.2247  0.8157
 5396SOL     OW27823   4.624   2.461   0.745 -0.4297 -0.0243  0.3124
 5396SOL    HW127824   4.551   2.442   0.803 -1.3329 -1.2239 -1.2172
 5396SOL    HW227825   4.599   2.542   0.702  0.8874  0.2210  0.0222
 5397SOL     OW27826   3.980   4.432   5.220 -0.0361  0.4821  0.2392
 5397SOL    HW127827   3.896   4.473   5.238 -0.2194 -0.4195  1.4394
 5397SOL    HW227828   4.035   4.511   5.219  1.8975 -0.8750 -0.8589
 5398SOL     OW27829   2.682   4.070   4.408  0.7361 -0.9812 -0.5154
 5398SOL    HW127830   2.757   4.073   4.349  1.7531  2.0589  0.9332
 5398SOL    HW227831   2.729   4.042   4.487  1.4525 -1.0956 -0.9881
 5399SOL     OW27832   4.512   1.765   6.161  0.1540  0.3939 -0.7164
 5399SOL    HW127833   4.576   1.811   6.107  0.1034  0.0622 -1.0602
 5399SOL    HW227834   4.461   1.839   6.195 -0.5131  0.4413 -1.8067
 5400SOL     OW27835   3.106   0.099  10.859 -0.4154 -0.0122  0.3832
 5400SOL    HW127836   3.078   0.162  10.793  1.5090 -0.0989 -0.5107
 5400SOL    HW227837   3.072   0.019  10.817 -0.4213  0.7231 -1.0172
 5401SOL     OW27838   0.373   4.544   9.340  0.5359  0.1785  0.5981
 5401SOL    HW127839   0.460   4.560   9.378  0.7905 -0.1725  0.1617
 5401SOL    HW227840   0.311   4.568   9.409 -0.5458 -0.4414 -0.1678
 5402SOL     OW27841   0.710   1.153   7.612 -0.1953 -0.3155 -0.1686
 5402SOL    HW127842   0.744   1.186   7.696  0.4167  1.7517 -1.2195
 5402SOL    HW227843   0.649   1.224   7.592 -0.7663 -0.7749 -0.0447
 5403SOL     OW27844   3.500   0.359   1.454  0.0505 -0.3622 -0.0645
 5403SOL    HW127845   3.568   0.292   1.444  1.1670  0.7374  0.0998
 5403SOL    HW227846   3.475   0.354   1.362 -1.8190  0.9857  0.3739
 5404SOL     OW27847   1.976   2.184   0.361  0.7676  0.2075  0.6477
 5404SOL    HW127848   1.932   2.247   0.304 -0.2593 -3.6514 -2.7998
 5404SOL    HW227849   2.005   2.126   0.291 -0.2802  1.8850 -1.1963
 5405SOL     OW27850   2.364   0.345   6.238  0.0144 -0.0691 -0.0878
 5405SOL    HW127851   2.387   0.399   6.315  1.3824  1.1462 -1.3424
 5405SOL    HW227852   2.358   0.259   6.280  0.3991 -0.0357  0.0406
 5406SOL     OW27853   3.986   3.872   5.640 -0.0728  0.4089  0.3334
 5406SOL    HW127854   3.914   3.896   5.699  0.5334 -0.1311  1.2781
 5406SOL    HW227855   4.062   3.877   5.697  0.0177 -1.4130  0.3761
 5407SOL     OW27856   4.015   0.889   7.392 -0.0740  0.3357 -0.3267
 5407SOL    HW127857   3.950   0.856   7.331 -0.2890  0.3077 -0.0844
 5407SOL    HW227858   4.079   0.818   7.402  2.1752  1.8695 -3.9016
 5408SOL     OW27859   0.202   0.415   8.220 -0.5137 -0.7596 -0.6385
 5408SOL    HW127860   0.146   0.467   8.162  0.7849  0.1662 -1.0825
 5408SOL    HW227861   0.263   0.371   8.160  0.8218 -1.6422  1.3703
 5409SOL     OW27862   2.243   0.625   6.623 -0.2539 -0.3639 -0.1374
 5409SOL    HW127863   2.177   0.691   6.601  0.8709  0.9528  0.4322
 5409SOL    HW227864   2.281   0.674   6.697  1.0535 -1.5863 -0.0079
 5410SOL     OW27865   4.684   1.347   8.516 -0.1558  0.1725 -0.2315
 5410SOL    HW127866   4.594   1.323   8.494 -0.2299  0.5123 -0.3001
 5410SOL    HW227867   4.678   1.331   8.610  0.0206  0.8600 -0.1064
 5411SOL     OW27868   2.421   2.353  13.368 -0.0477 -0.0399  0.4980
 5411SOL    HW127869   2.342   2.400  13.394 -0.1912 -0.4084  0.7201
 5411SOL    HW227870   2.394   2.313  13.286 -0.2578 -1.0586  1.0761
 5412SOL     OW27871   2.732   0.793   8.783  0.4884 -0.4261  0.1674
 5412SOL    HW127872   2.710   0.747   8.702 -1.3854 -0.6286  0.8051
 5412SOL    HW227873   2.655   0.848   8.780  0.6293 -0.2362  0.0467
 5413SOL     OW27874   0.762   1.076   6.376  0.1249  0.3638 -0.6277
 5413SOL    HW127875   0.752   1.027   6.458  0.5741  2.0229  0.4232
 5413SOL    HW227876   0.791   1.004   6.319 -1.0138 -2.3629  2.1910
 5414SOL     OW27877   4.458   1.685   8.724 -0.6417  0.3388  0.4458
 5414SOL    HW127878   4.506   1.631   8.787 -1.7857 -1.1030  0.0769
 5414SOL    HW227879   4.426   1.745   8.791 -1.9674  0.0617  0.0520
 5415SOL     OW27880   0.197   1.961  17.132 -0.2895  0.2790 -0.1396
 5415SOL    HW127881   0.120   2.014  17.150 -0.2838  0.3317 -0.2671
 5415SOL    HW227882   0.162   1.875  17.154 -0.8344 -0.3068 -3.3495
 5416SOL     OW27883   1.903   1.684   7.197  0.0096  0.2846  0.1046
 5416SOL    HW127884   1.849   1.620   7.244  1.1752 -0.5470  0.2990
 5416SOL    HW227885   1.905   1.753   7.263 -0.5826 -0.1145  0.5454
 5417SOL     OW27886   4.163   1.872   3.253  0.3518  0.1542 -0.4194
 5417SOL    HW127887   4.162   1.964   3.228  0.8052 -0.1446 -1.5658
 5417SOL    HW227888   4.123   1.837   3.173  0.9792  2.6246 -1.7909
 5418SOL     OW27889   0.032   0.720   7.822 -0.4439  0.2069 -0.2423
 5418SOL    HW127890   0.014   0.669   7.902 -0.1297  1.4222  0.6043
 5418SOL    HW227891   0.104   0.670   7.782 -1.6200  1.3557 -3.7488
 5419SOL     OW27892   1.614   2.484   8.140 -0.2396  0.0104 -0.9617
 5419SOL    HW127893   1.603   2.500   8.046 -1.3405 -0.1153 -0.8532
 5419SOL    HW227894   1.531   2.513   8.178  0.2210  0.2739 -0.1708
 5420SOL     OW27895   4.370   2.516   9.401 -0.0022 -0.3061  1.0078
 5420SOL    HW127896   4.315   2.501   9.324  0.4346 -1.7585  0.9850
 5420SOL    HW227897   4.423   2.585   9.362 -0.4269 -0.7046 -0.2698
 5421SOL     OW27898   2.850   2.236   8.156  0.2129 -0.0458  0.4640
 5421SOL    HW127899   2.922   2.264   8.100 -2.3835  2.6352 -1.5507
 5421SOL    HW227900   2.890   2.242   8.242 -1.9437 -1.2422  1.5433
 5422SOL     OW27901   3.061   1.187   5.296  0.1226  0.6843  0.7514
 5422SOL    HW127902   3.031   1.211   5.383  1.3261  2.1697  0.7752
 5422SOL    HW227903   3.075   1.093   5.301  1.4809  0.8941  0.9317
 5423SOL     OW27904   1.310   0.339  16.327 -0.4473 -0.1631 -0.3245
 5423SOL    HW127905   1.367   0.413  16.309 -2.0504  1.4430  1.1803
 5423SOL    HW227906   1.251   0.349  16.253 -0.7912  1.0186  0.1154
 5424SOL     OW27907   2.876   0.940   4.906 -0.0552 -0.9526  0.0447
 5424SOL    HW127908   2.944   0.977   4.962 -0.1895 -1.2626  0.4120
 5424SOL    HW227909   2.914   0.860   4.871  1.9032 -0.0155  0.0101
 5425SOL     OW27910   1.405   1.018   5.899  0.3156 -0.2889  0.7263
 5425SOL    HW127911   1.356   1.098   5.878 -0.7682 -1.0143  0.4907
 5425SOL    HW227912   1.333   0.956   5.889  1.5521 -1.8628  1.7604
 5426SOL     OW27913   4.142   3.791  14.255 -0.9504  0.6373 -0.0575
 5426SOL    HW127914   4.137   3.702  14.219 -2.2586  0.3645  0.7939
 5426SOL    HW227915   4.198   3.780  14.331  1.2477  0.5441 -1.7046
 5427SOL     OW27916   2.973   4.175   0.967  0.0995  0.7339 -0.9023
 5427SOL    HW127917   3.049   4.132   0.929  0.5667 -1.8963  3.0711
 5427SOL    HW227918   2.917   4.201   0.894  2.7862  0.0132 -3.2137
 5428SOL     OW27919   0.723   1.332   8.829 -0.5262 -0.0709 -0.2994
 5428SOL    HW127920   0.632   1.351   8.805 -0.5264 -0.5058 -0.6515
 5428SOL    HW227921   0.756   1.420   8.811 -0.9448  0.4540  1.5079
 5429SOL     OW27922   2.977   2.951   9.015 -0.5789 -0.1337 -0.1578
 5429SOL    HW127923   2.896   2.992   9.044 -1.3582 -1.8426  0.0517
 5429SOL    HW227924   2.932   2.890   8.956  1.5896 -0.3639 -1.5683
 5430SOL     OW27925   1.163   4.322   5.665  0.2066 -0.1313  0.3318
 5430SOL    HW127926   1.146   4.414   5.648 -1.8709 -0.8578 -1.5082
 5430SOL    HW227927   1.114   4.277   5.596  3.9710  0.3909 -2.6813
 5431SOL     OW27928   3.099   1.618  15.437 -0.2637 -0.2040 -0.2171
 5431SOL    HW127929   3.130   1.537  15.477 -1.5060 -0.9953 -0.8530
 5431SOL    HW227930   3.177   1.653  15.394 -0.5756  1.8731  0.9010
 5432SOL     OW27931   0.119   2.397   8.271  0.9026 -0.1262  0.4104
 5432SOL    HW127932   0.029   2.418   8.248  0.6991 -0.5920  0.7900
 5432SOL    HW227933   0.158   2.481   8.295  1.7349 -1.2169  2.8856
 5433SOL     OW27934   4.187   2.636   6.254  0.6573 -0.2876 -0.0622
 5433SOL    HW127935   4.120   2.607   6.192  0.6263  0.6597 -0.4689
 5433SOL    HW227936   4.192   2.558   6.309 -0.6070 -1.0262 -0.9931
 5434SOL     OW27937   2.556   1.603   3.819 -0.3249 -0.0457  0.1467
 5434SOL    HW127938   2.636   1.639   3.856  0.2624  0.8387 -1.9555
 5434SOL    HW227939   2.562   1.625   3.726 -2.0526  0.7462  0.2153
 5435SOL     OW27940   1.679   0.047  16.675 -0.5908  0.2194  0.2550
 5435SOL    HW127941   1.661   0.026  16.767  0.1564 -0.0819  0.3335
 5435SOL    HW227942   1.696   4.694  16.652 -1.4593  0.0785  0.1838
 5436SOL     OW27943   2.791   0.325   6.828  0.9962  0.0356 -0.3568
 5436SOL    HW127944   2.885   0.324   6.847  1.1325  1.4607 -0.9458
 5436SOL    HW227945   2.793   0.328   6.732  2.3836  2.5740 -0.2342
 5437SOL     OW27946   2.977   0.477   3.729  0.1118  0.6565 -0.6332
 5437SOL    HW127947   2.949   0.391   3.698  0.9807  0.7977 -1.8191
 5437SOL    HW227948   3.043   0.494   3.661 -2.5736 -1.2297 -3.7042
 5438SOL     OW27949   4.285   3.171   4.214 -0.1234 -0.0805  0.0491
 5438SOL    HW127950   4.346   3.193   4.284 -0.1963 -0.1097  0.1215
 5438SOL    HW227951   4.221   3.125   4.268 -1.6257  1.8664 -0.0741
 5439SOL     OW27952   0.991   4.323   7.630  0.4235  0.0025 -0.4380
 5439SOL    HW127953   0.951   4.347   7.714 -0.2299 -1.6680 -0.2684
 5439SOL    HW227954   0.994   4.404   7.578  3.1278 -0.2445 -0.6649
 5440SOL     OW27955   1.118   2.434   4.551  0.0883  0.0803  0.4547
 5440SOL    HW127956   1.080   2.349   4.529 -0.2251  0.9309 -2.2268
 5440SOL    HW227957   1.061   2.463   4.621  1.7668 -1.0611  2.3074
 5441SOL     OW27958   2.689   4.382  15.126  0.6266  0.0612  0.0635
 5441SOL    HW127959   2.723   4.453  15.071  0.4314 -0.6372 -0.9660
 5441SOL    HW227960   2.724   4.408  15.211 -0.5256  2.6806 -0.2514
 5442SOL     OW27961   2.975   1.754   1.605 -0.3950  0.0370 -0.1427
 5442SOL    HW127962   2.887   1.768   1.570 -1.0256 -1.1189  0.9641
 5442SOL    HW227963   3.021   1.801   1.536 -3.1095  2.3027 -0.4197
 5443SOL     OW27964   3.608   1.955  12.188  0.1637 -0.3510 -0.3050
 5443SOL    HW127965   3.558   1.881  12.154  1.2670 -0.8209 -0.9072
 5443SOL    HW227966   3.609   1.913  12.274 -0.5228  0.7359  0.2333
 5444SOL     OW27967   4.380   4.684   7.563  0.6695  0.0037 -0.3659
 5444SOL    HW127968   4.303   4.703   7.618  1.4698  0.7084  0.5155
 5444SOL    HW227969   4.449   4.663   7.626 -0.7682  2.0689  1.9111
 5445SOL     OW27970   1.625   4.679   4.657 -0.3045 -0.2158  0.6314
 5445SOL    HW127971   1.705   4.627   4.664 -1.3291 -1.6383  1.7497
 5445SOL    HW227972   1.563   4.616   4.694  1.4780 -1.5540  1.3386
 5446SOL     OW27973   1.625   1.809   7.500  0.5892  0.2438  0.2332
 5446SOL    HW127974   1.649   1.830   7.410 -1.5771  1.6969 -0.0186
 5446SOL    HW227975   1.588   1.721   7.492 -0.1942  0.3930  2.1140
 5447SOL     OW27976   3.514   4.513   4.232 -0.1740  0.0734 -0.2277
 5447SOL    HW127977   3.491   4.420   4.231 -1.0002  0.2425  2.1942
 5447SOL    HW227978   3.482   4.550   4.150 -1.8627 -1.0643 -0.0920
 5448SOL     OW27979   4.608   0.598   0.066  0.3089  0.6349 -0.4201
 5448SOL    HW127980   4.602   0.504   0.078  0.3916  0.3425 -2.7318
 5448SOL    HW227981   4.572   0.596  17.731 -0.1899 -1.6287 -0.1528
 5449SOL     OW27982   2.110   0.165   5.847  0.5680  0.2986 -0.2435
 5449SOL    HW127983   2.175   0.203   5.788 -0.5280  2.8856  0.1877
 5449SOL    HW227984   2.132   0.206   5.930  0.1665 -2.5511  1.2522
 5450SOL     OW27985   0.192   1.440   6.025 -0.0945 -0.3532  0.3995
 5450SOL    HW127986   0.188   1.439   6.121  2.0597 -1.4317  0.4721
 5450SOL    HW227987   0.149   1.358   6.004 -0.6758  0.3890 -1.2662
 5451SOL     OW27988   1.212   3.829   2.651 -0.2652  0.5895 -0.0135
 5451SOL    HW127989   1.287   3.786   2.693  1.0309  1.9804 -0.8952
 5451SOL    HW227990   1.208   3.909   2.703  0.3373  0.6440 -0.0523
 5452SOL     OW27991   0.090   3.509  15.887  0.3069  0.4214 -0.0018
 5452SOL    HW127992   4.736   3.527  15.872 -0.3650 -2.7714  0.4101
 5452SOL    HW227993   0.120   3.600  15.888  0.8498  0.2605 -1.9867
 5453SOL     OW27994   1.314   1.433   3.618 -0.3215  0.5439 -0.2432
 5453SOL    HW127995   1.408   1.415   3.618 -0.7106 -1.4265 -2.2394
 5453SOL    HW227996   1.278   1.375   3.685  0.9425 -1.2996 -1.1704
 5454SOL     OW27997   2.217   0.521  16.098 -0.3330 -0.3279  0.2916
 5454SOL    HW127998   2.152   0.539  16.165 -0.2721  0.4418  0.1509
 5454SOL    HW227999   2.271   0.600  16.103  0.3840 -0.6519 -2.1046
 5455SOL     OW28000   0.835   2.242  17.208  0.3803 -0.0285 -0.1983
 5455SOL    HW128001   0.898   2.172  17.193  2.0016  1.6290 -1.1669
 5455SOL    HW228002   0.822   2.266  17.116  0.9192 -0.5213 -0.3984
 5456SOL     OW28003   0.979   4.362   6.475 -0.0434 -0.0988  0.5335
 5456SOL    HW128004   0.944   4.313   6.401 -1.3553  3.0294 -0.9225
 5456SOL    HW228005   1.065   4.391   6.445 -0.7721  0.9012 -0.5812
 5457SOL     OW28006   3.906   0.917   9.884 -0.0398 -0.4227 -0.2637
 5457SOL    HW128007   3.965   0.841   9.883 -1.2574 -1.3632  0.2333
 5457SOL    HW228008   3.963   0.989   9.856 -1.4505  0.2992 -1.2865
 5458SOL     OW28009   2.548   1.199   7.900  0.0871  0.1099  0.2056
 5458SOL    HW128010   2.465   1.244   7.912 -0.0873  0.0765 -0.8323
 5458SOL    HW228011   2.587   1.250   7.971  0.3233 -0.6043  0.5859
 5459SOL     OW28012   3.700   4.023   5.622 -0.1679 -0.1492  0.1916
 5459SOL    HW128013   3.614   4.045   5.658 -0.9766 -2.1433 -0.5184
 5459SOL    HW228014   3.754   4.099   5.645  1.7758 -1.7785  1.0244
 5460SOL     OW28015   0.789   1.923   4.132  0.2124 -0.0606  0.0759
 5460SOL    HW128016   0.838   1.944   4.053 -0.5971  2.7760  0.3228
 5460SOL    HW228017   0.698   1.923   4.103 -0.8229 -3.7202  3.2104
 5461SOL     OW28018   1.404   1.593   9.033 -0.5861  0.3167  0.6027
 5461SOL    HW128019   1.408   1.684   9.062  2.3630 -0.4808  2.5956
 5461SOL    HW228020   1.483   1.594   8.980 -0.9469  0.9739  0.0766
 5462SOL     OW28021   2.042   3.875  16.240 -0.2734 -0.1575  0.2460
 5462SOL    HW128022   2.075   3.953  16.284 -0.6742 -0.4025  0.9725
 5462SOL    HW228023   1.983   3.835  16.304 -0.2624 -1.4669 -0.5549
 5463SOL     OW28024   3.561   0.503   3.669 -0.2656  0.2282  0.4955
 5463SOL    HW128025   3.491   0.464   3.617 -2.7848  1.5903  2.8864
 5463SOL    HW228026   3.623   0.431   3.680 -0.7364 -0.3253 -0.4348
 5464SOL     OW28027   0.482   3.644   8.537 -0.2725  0.0898  1.0197
 5464SOL    HW128028   0.424   3.584   8.584 -0.3228 -2.6299 -2.5273
 5464SOL    HW228029   0.420   3.713   8.510  0.4843  0.4620  0.2321
 5465SOL     OW28030   3.139   0.144   0.492 -0.2396  0.7073  0.1699
 5465SOL    HW128031   3.136   0.076   0.425 -0.5062  1.9324 -1.0767
 5465SOL    HW228032   3.209   0.205   0.469 -0.9830  1.0322 -1.2345
 5466SOL     OW28033   2.739   2.988   2.317  0.3681 -0.0128  0.0174
 5466SOL    HW128034   2.786   2.912   2.281 -1.2226 -0.7818 -0.4522
 5466SOL    HW228035   2.800   3.026   2.380 -3.6729  3.7639  1.5881
 5467SOL     OW28036   2.554   0.804   2.870  0.0383 -0.3976  0.1863
 5467SOL    HW128037   2.517   0.817   2.957  3.4998  0.4000  1.5200
 5467SOL    HW228038   2.500   0.732   2.839  1.0061 -1.2104  0.4151
 5468SOL     OW28039   2.963   1.722   4.900 -0.2316  0.2641 -0.9420
 5468SOL    HW128040   2.884   1.700   4.949  1.2911  0.8673  1.7663
 5468SOL    HW228041   3.027   1.657   4.928  1.3014  1.6467 -1.2565
 5469SOL     OW28042   4.424   2.935   2.662  0.0887 -0.0744  0.7060
 5469SOL    HW128043   4.419   2.884   2.744  3.7915  0.5962  1.3380
 5469SOL    HW228044   4.336   2.926   2.626 -0.4965 -0.8304  2.3158
 5470SOL     OW28045   2.978   0.205  12.903 -0.2998  0.9367 -0.3335
 5470SOL    HW128046   2.996   0.114  12.882 -1.7850  0.7381 -0.6980
 5470SOL    HW228047   2.885   0.212  12.885 -0.4813  0.6733  0.4928
 5471SOL     OW28048   2.822   1.140   8.459  0.1387 -0.1053 -0.3382
 5471SOL    HW128049   2.797   1.178   8.543  1.8225  0.4895 -0.1192
 5471SOL    HW228050   2.744   1.161   8.406  0.8399 -2.2444 -2.2189
 5472SOL     OW28051   2.188   0.792   4.194 -0.7824  0.5414 -0.1824
 5472SOL    HW128052   2.241   0.761   4.121  1.0698 -0.9873  1.8286
 5472SOL    HW228053   2.123   0.722   4.187  0.4932 -0.6901  0.3326
 5473SOL     OW28054   4.216   4.627  15.060 -0.0712 -0.6146 -0.1570
 5473SOL    HW128055   4.301   4.592  15.034  0.5461  0.1808  0.7618
 5473SOL    HW228056   4.174   4.645  14.976 -1.0947 -1.8887  0.0727
 5474SOL     OW28057   1.452   2.269   6.067  0.1342  0.5537  0.3416
 5474SOL    HW128058   1.398   2.291   6.143 -0.9525  0.3232 -0.3654
 5474SOL    HW228059   1.415   2.184   6.047  0.3153  0.5883 -0.1530
 5475SOL     OW28060   2.222   0.077   3.252 -0.2070 -0.1177  0.1500
 5475SOL    HW128061   2.184   0.091   3.339  0.4231  0.3005  0.3613
 5475SOL    HW228062   2.169   0.003   3.224  2.1379 -2.0536  0.7541
 5476SOL     OW28063   2.091   4.449   4.572  0.3246  0.4643 -0.3592
 5476SOL    HW128064   2.124   4.405   4.494  2.4007 -0.1581  0.8520
 5476SOL    HW228065   2.111   4.390   4.645  0.9343 -0.6467 -1.4281
 5477SOL     OW28066   1.750   0.765   8.132 -0.0517  0.6243 -0.1704
 5477SOL    HW128067   1.700   0.728   8.205 -1.2255 -2.9848 -2.7661
 5477SOL    HW228068   1.676   0.805   8.086  0.1260  0.3288 -0.7138
 5478SOL     OW28069   1.056   0.379  13.459 -0.2250  0.2822  0.4149
 5478SOL    HW128070   1.052   0.295  13.506  2.5557  0.5643  1.1196
 5478SOL    HW228071   1.031   0.444  13.525 -0.1378  0.6408  0.0906
 5479SOL     OW28072   0.589   0.169   3.802  0.4609  0.0408 -0.6585
 5479SOL    HW128073   0.605   0.248   3.750  2.6501 -1.4151 -2.1835
 5479SOL    HW228074   0.576   0.203   3.891 -1.0469  1.6631 -1.4975
 5480SOL     OW28075   0.069   2.199   3.469  0.5391 -0.0752  0.7744
 5480SOL    HW128076   0.139   2.187   3.534 -0.8357  0.8194  2.4380
 5480SOL    HW228077   0.062   2.114   3.427 -2.4954 -0.0791  1.3202
 5481SOL     OW28078   2.157   1.328  16.139  0.4111 -0.0951  0.0385
 5481SOL    HW128079   2.081   1.305  16.192 -0.0818  0.2981 -0.5018
 5481SOL    HW228080   2.118   1.307  16.054  2.7308 -0.2749 -0.9825
 5482SOL     OW28081   2.667   0.386  14.085 -0.9057 -0.2196  0.6615
 5482SOL    HW128082   2.691   0.397  13.993  1.2029 -0.7710  1.1305
 5482SOL    HW228083   2.622   0.465  14.114  1.0734  0.6520  1.3587
 5483SOL     OW28084   3.401   1.208  14.730 -0.3609 -0.4256  0.0815
 5483SOL    HW128085   3.336   1.139  14.743 -0.3891 -0.2326  0.9526
 5483SOL    HW228086   3.357   1.262  14.795  1.6359  2.4867 -0.9385
 5484SOL     OW28087   1.463   0.143   4.722  0.0997 -0.0221  0.3383
 5484SOL    HW128088   1.504   0.211   4.669  0.7136 -1.1234 -0.6130
 5484SOL    HW228089   1.526   0.071   4.713 -1.1923 -0.8942 -1.8827
 5485SOL     OW28090   3.860   0.253  12.756  0.0724 -0.1964 -0.2843
 5485SOL    HW128091   3.885   0.167  12.722  1.4938  0.3545 -0.6313
 5485SOL    HW228092   3.793   0.237  12.822  1.1486 -0.9975  0.6097
 5486SOL     OW28093   0.180   4.644   4.887  0.4611 -0.0300  0.2793
 5486SOL    HW128094   0.180   4.649   4.792 -0.3672 -2.3151  0.1734
 5486SOL    HW228095   0.196   4.550   4.899 -0.0523 -0.1380  0.1178
 5487SOL     OW28096   4.625   3.895   5.212  0.4959  0.0786  0.5101
 5487SOL    HW128097   4.660   3.913   5.125 -0.1033  1.7239  0.6204
 5487SOL    HW228098   4.588   3.979   5.236  2.4222  0.8943  0.5815
 5488SOL     OW28099   2.162   3.076   5.518  0.0439  0.0713 -0.1778
 5488SOL    HW128100   2.149   3.140   5.588  0.0999  1.5450 -1.5040
 5488SOL    HW228101   2.229   3.023   5.560  2.1717  0.4903 -3.0356
 5489SOL     OW28102   2.210   4.349   4.030 -0.4580  0.5467  0.0303
 5489SOL    HW128103   2.167   4.287   3.971 -2.1890  0.3071  1.5206
 5489SOL    HW228104   2.155   4.356   4.108 -2.1575 -0.9183 -1.0250
 5490SOL     OW28105   0.048   2.531   8.797 -0.0871  0.3669  0.2606
 5490SOL    HW128106   4.716   2.476   8.831  0.9478 -0.4851  1.0056
 5490SOL    HW228107   0.127   2.498   8.839 -0.2112 -0.0281  0.1900
 5491SOL     OW28108   4.255   4.203  15.026 -0.6678  0.6108 -0.5492
 5491SOL    HW128109   4.338   4.162  15.001 -0.5174  1.5788 -1.6405
 5491SOL    HW228110   4.215   4.259  14.959 -0.4784 -2.0027 -2.8573
 5492SOL     OW28111   2.127   4.699   3.715  0.0976 -0.5232 -0.0457
 5492SOL    HW128112   2.187   4.686   3.789  0.5621  0.9369 -0.1602
 5492SOL    HW228113   2.057   4.724   3.775  0.9354  2.2372 -0.2237
 5493SOL     OW28114   2.234   1.233  13.434  0.0145  0.0227 -0.1848
 5493SOL    HW128115   2.174   1.307  13.444 -1.5493 -1.0796 -1.4771
 5493SOL    HW228116   2.187   1.162  13.479  1.1476 -0.1349  0.7733
 5494SOL     OW28117   3.309   1.321   6.375 -0.0135  0.3047  0.0353
 5494SOL    HW128118   3.267   1.302   6.459 -2.3295 -0.8628 -1.3877
 5494SOL    HW228119   3.250   1.289   6.307  2.0424  0.0065 -1.6372
 5495SOL     OW28120   2.422   1.751  14.837  0.2601 -0.4057 -0.4021
 5495SOL    HW128121   2.509   1.789  14.850 -1.3809  3.2501 -0.0920
 5495SOL    HW228122   2.424   1.663  14.874  0.0829 -1.7493 -3.5179
 5496SOL     OW28123   2.140   2.075  13.379  0.4586 -0.4116  0.0178
 5496SOL    HW128124   2.069   2.033  13.330  0.8439  0.2175 -1.0610
 5496SOL    HW228125   2.181   2.130  13.314 -0.5725  0.1499 -0.1470
 5497SOL     OW28126   2.724   0.941   9.721  0.2603  0.0695  0.1038
 5497SOL    HW128127   2.662   0.987   9.777  0.6089  0.0845  0.4754
 5497SOL    HW228128   2.700   0.965   9.631  0.3643 -1.3177 -0.2878
 5498SOL     OW28129   2.561   1.006  10.954 -0.2279 -0.0320 -0.6189
 5498SOL    HW128130   2.536   1.041  11.040 -0.3894  0.7488 -0.9838
 5498SOL    HW228131   2.570   0.913  10.976 -0.3831 -0.3402 -1.8888
 5499SOL     OW28132   2.389   3.707  17.723 -0.1681 -0.3061 -0.0757
 5499SOL    HW128133   2.476   3.746  17.722 -0.1806 -0.1746  2.6072
 5499SOL    HW228134   2.327   3.779  17.734  0.2253  0.2960 -1.9802
 5500SOL     OW28135   1.425   2.352   3.404  0.1045 -0.2674  0.0378
 5500SOL    HW128136   1.364   2.279   3.394 -0.4067  0.1435  0.1270
 5500SOL    HW228137   1.501   2.311   3.444 -1.5924 -2.8121  0.6429
 5501SOL     OW28138   1.304   4.113  13.938  0.1506  0.7736  0.1656
 5501SOL    HW128139   1.274   4.096  13.849  1.5637  1.4739 -0.4444
 5501SOL    HW228140   1.265   4.200  13.950  1.0948  1.0301  1.4482
 5502SOL     OW28141   3.651   0.012  12.367 -0.0935 -0.3963  0.4662
 5502SOL    HW128142   3.635   0.079  12.433  3.1845 -0.0391  0.8970
 5502SOL    HW228143   3.739   0.037  12.338 -0.4115  1.6973  1.2946
 5503SOL     OW28144   2.246   3.781   2.880 -0.0706  0.4922  0.1409
 5503SOL    HW128145   2.340   3.781   2.901 -0.0505 -2.3265 -0.0293
 5503SOL    HW228146   2.246   3.768   2.786 -3.0348  2.3357 -0.1091
 5504SOL     OW28147   3.708   0.607   3.012  0.6202 -0.4279 -0.4308
 5504SOL    HW128148   3.802   0.619   3.024  0.4308  1.0430 -0.4896
 5504SOL    HW228149   3.705   0.605   2.916 -0.3743  1.6473 -0.4407
 5505SOL     OW28150   1.559   2.990   5.700 -0.4750 -0.1169  0.1509
 5505SOL    HW128151   1.579   2.936   5.777  1.0069 -0.9009 -0.7793
 5505SOL    HW228152   1.626   2.948   5.647 -0.1050 -0.6146  1.0027
 5506SOL     OW28153   2.077   0.106   4.988 -0.2134  0.0470  0.0295
 5506SOL    HW128154   2.109   0.191   5.017 -0.6681 -1.4166  4.8292
 5506SOL    HW228155   2.143   0.045   5.021  0.6844  1.3103  0.5352
 5507SOL     OW28156   2.829   4.417   6.084 -0.7386 -0.2053  0.2703
 5507SOL    HW128157   2.773   4.340   6.093  0.6587 -1.2227  0.2974
 5507SOL    HW228158   2.884   4.407   6.161  0.4763  0.5033 -0.5035
 5508SOL     OW28159   0.226   3.905   6.303 -0.7494 -0.1579  0.0622
 5508SOL    HW128160   0.318   3.928   6.305 -0.4802 -1.1518 -1.1051
 5508SOL    HW228161   0.217   3.885   6.210  0.5542  1.6740 -0.4413
 5509SOL     OW28162   3.346   2.273  14.909  0.4159 -0.5199 -0.0347
 5509SOL    HW128163   3.390   2.192  14.937 -0.8065 -1.3703 -0.5694
 5509SOL    HW228164   3.304   2.313  14.985  1.2507  1.4436 -0.6183
 5510SOL     OW28165   0.816   3.420   8.175  0.0919  0.3874  0.3067
 5510SOL    HW128166   0.879   3.454   8.239  2.1601  0.3169 -1.6711
 5510SOL    HW228167   0.750   3.490   8.176  1.2698  1.5091  0.0723
 5511SOL     OW28168   2.616   3.321  15.827 -0.3324 -0.5181  0.2839
 5511SOL    HW128169   2.674   3.369  15.768  0.4829 -1.0762  0.6360
 5511SOL    HW228170   2.675   3.249  15.849  0.6476  0.1142 -0.2632
 5512SOL     OW28171   2.603   2.504   1.158 -0.5869 -0.0038  0.0100
 5512SOL    HW128172   2.565   2.531   1.074 -0.0354  1.2694  0.1753
 5512SOL    HW228173   2.676   2.454   1.123  0.4782  1.1434  0.6030
 5513SOL     OW28174   0.977   1.448   8.533 -0.2314  0.0018 -0.2383
 5513SOL    HW128175   1.043   1.379   8.537 -0.2532  0.0462  0.6975
 5513SOL    HW228176   0.894   1.405   8.508 -0.3084  1.3201 -2.2685
 5514SOL     OW28177   0.163   4.441   6.977  0.3894 -0.1614 -0.4461
 5514SOL    HW128178   0.217   4.510   6.938  0.5100 -0.4358 -0.7647
 5514SOL    HW228179   0.123   4.406   6.898 -1.7899 -0.8716  0.9811
 5515SOL     OW28180   1.571   0.181   1.886  0.2604 -0.0556 -0.0653
 5515SOL    HW128181   1.528   0.266   1.877 -2.7862 -1.4881  1.0980
 5515SOL    HW228182   1.622   0.188   1.967 -0.1011 -1.4325  0.2799
 5516SOL     OW28183   3.452   0.775  14.551  0.5206  0.3380 -0.1199
 5516SOL    HW128184   3.507   0.697  14.559  0.2019  0.1251  0.0070
 5516SOL    HW228185   3.496   0.826  14.618  1.0649  0.6890 -0.7400
 5517SOL     OW28186   1.995   2.301   1.892  0.8806  0.2635 -0.4828
 5517SOL    HW128187   2.048   2.323   1.815 -0.6835  1.2930 -1.2596
 5517SOL    HW228188   1.934   2.242   1.848 -0.4663  2.1860 -1.1994
 5518SOL     OW28189   3.177   0.813  16.126  0.5181  0.5287  0.2847
 5518SOL    HW128190   3.104   0.810  16.063  1.6838  0.6981 -1.0865
 5518SOL    HW228191   3.149   0.748  16.190 -0.2758 -0.0505 -0.6565
 5519SOL     OW28192   0.525   0.894   2.382 -0.4615  0.0828 -0.1821
 5519SOL    HW128193   0.608   0.923   2.343 -0.6223  1.1741  0.2833
 5519SOL    HW228194   0.463   0.940   2.324  0.1728  2.1019  0.7388
 5520SOL     OW28195   1.895   0.789  17.333  0.1643  0.4003  0.6652
 5520SOL    HW128196   1.900   0.802  17.428  2.1578  0.1298  0.6106
 5520SOL    HW228197   1.988   0.765  17.326 -0.2748 -1.2172  0.2042
 5521SOL     OW28198   2.517   3.502   6.304 -0.1072 -0.2852  0.5284
 5521SOL    HW128199   2.448   3.499   6.371  0.0643 -0.4161  0.6976
 5521SOL    HW228200   2.573   3.572   6.334 -2.5097  1.5174  0.8261
 5522SOL     OW28201   1.259   0.210   3.544 -0.3450 -0.4725 -0.8897
 5522SOL    HW128202   1.296   0.122   3.557 -1.6995 -0.9225 -0.0189
 5522SOL    HW228203   1.196   0.193   3.475 -2.6122 -0.2671  1.1128
 5523SOL     OW28204   0.685   1.652  14.744 -0.3430 -0.4171 -0.3324
 5523SOL    HW128205   0.768   1.695  14.762 -1.1024  0.8272  0.2402
 5523SOL    HW228206   0.720   1.563  14.738  1.0537  0.1931 -1.0354
 5524SOL     OW28207   1.392   0.571  15.204  0.2374  0.4911  0.1891
 5524SOL    HW128208   1.349   0.636  15.259 -1.0386 -0.0006 -0.2278
 5524SOL    HW228209   1.307   0.548  15.168  0.7866 -1.5181  0.1268
 5525SOL     OW28210   0.842   0.046   6.653 -0.1881 -0.6512 -0.4193
 5525SOL    HW128211   0.829   4.698   6.614 -1.9229  1.2553 -4.0273
 5525SOL    HW228212   0.816   0.024   6.743  0.0023  1.7153  0.2195
 5526SOL     OW28213   2.109   2.704   4.503 -0.2002 -0.5403 -0.0280
 5526SOL    HW128214   2.064   2.772   4.454  1.0880 -0.5190 -1.1746
 5526SOL    HW228215   2.062   2.624   4.479 -2.2516  0.9732 -1.0591
 5527SOL     OW28216   0.077   3.494   6.301 -0.0486 -0.1404 -0.6571
 5527SOL    HW128217   4.732   3.518   6.262 -1.7143 -1.5802  2.0329
 5527SOL    HW228218   0.096   3.579   6.341  0.4632 -1.5319  2.0849
 5528SOL     OW28219   1.059   1.706   8.655  0.4303 -0.0987 -0.0091
 5528SOL    HW128220   1.067   1.638   8.589  1.9095  0.6661 -0.6323
 5528SOL    HW228221   1.151   1.711   8.679 -0.1188  1.8703  1.6626
 5529SOL     OW28222   0.286   0.737   8.187  0.2451  0.0077 -0.1493
 5529SOL    HW128223   0.244   0.740   8.273 -1.0194 -1.1350 -0.7337
 5529SOL    HW228224   0.359   0.799   8.199  0.8692 -0.5993 -0.8110
 5530SOL     OW28225   3.537   1.082  12.621  0.4885  0.4059  0.3864
 5530SOL    HW128226   3.487   1.144  12.674 -0.8789 -1.4141  1.2054
 5530SOL    HW228227   3.615   1.073  12.676 -1.3912 -3.9971  2.2531
 5531SOL     OW28228   3.497   1.947   4.756 -0.0168  0.5029  0.0396
 5531SOL    HW128229   3.579   1.903   4.780 -0.0517  0.0432 -0.6799
 5531SOL    HW228230   3.458   1.980   4.837 -1.5853  0.5551 -0.7505
 5532SOL     OW28231   3.747   2.265   1.701 -0.2068  0.2319  0.0996
 5532SOL    HW128232   3.837   2.250   1.673 -0.7062 -0.0580 -1.3808
 5532SOL    HW228233   3.745   2.360   1.704 -1.1622  0.2440 -0.8022
 5533SOL     OW28234   0.201   3.164  15.296  0.2023 -0.0824  0.1420
 5533SOL    HW128235   0.141   3.143  15.367  0.5948  0.2850  0.5846
 5533SOL    HW228236   0.148   3.138  15.221  1.1916  1.3160 -1.0489
 5534SOL     OW28237   0.104   1.684  12.189 -0.1021  0.0766  0.1291
 5534SOL    HW128238   0.055   1.633  12.253  1.9211  0.9072  2.3690
 5534SOL    HW228239   0.150   1.741  12.251 -0.6142 -1.8457  2.2353
 5535SOL     OW28240   0.455   1.195  16.555 -0.9477 -1.1177  0.4654
 5535SOL    HW128241   0.532   1.144  16.578  0.3118  0.3885 -0.4576
 5535SOL    HW228242   0.485   1.285  16.547  1.6395 -1.9125  1.1915
 5536SOL     OW28243   1.315   3.388   7.957 -0.1587 -0.0633  0.1346
 5536SOL    HW128244   1.288   3.460   8.013 -0.6749  0.3295 -0.6207
 5536SOL    HW228245   1.368   3.434   7.892 -0.5012 -2.6853 -1.9986
 5537SOL     OW28246   3.956   2.109   5.776  0.2399 -0.2966  0.0771
 5537SOL    HW128247   3.978   2.029   5.823 -0.3961 -0.4434  0.1169
 5537SOL    HW228248   3.862   2.116   5.790  0.2086 -2.8542  1.0880
 5538SOL     OW28249   2.660   0.705   6.769  0.5429  0.3899  0.1858
 5538SOL    HW128250   2.623   0.697   6.858  1.2880  1.6676  0.6080
 5538SOL    HW228251   2.746   0.741   6.790  1.7662 -0.9375 -2.5537
 5539SOL     OW28252   0.423   2.911  14.579 -0.0516  0.1115  0.0443
 5539SOL    HW128253   0.417   2.853  14.654 -0.0232  0.6460  0.4590
 5539SOL    HW228254   0.422   2.851  14.505  0.5249 -1.1055  1.0319
 5540SOL     OW28255   4.625   2.492   3.561  0.5758 -0.3536  0.1105
 5540SOL    HW128256   4.703   2.546   3.555 -0.0623  0.6765  1.1793
 5540SOL    HW228257   4.665   2.406   3.576  0.3299 -0.0938  2.3321
 5541SOL     OW28258   2.592   1.890   1.552  0.4301  0.1039 -0.2152
 5541SOL    HW128259   2.576   1.875   1.645 -0.9856  2.2773 -0.0896
 5541SOL    HW228260   2.518   1.946   1.527  0.5906 -0.0144 -0.9416
 5542SOL     OW28261   0.291   4.710   7.191  0.1435  0.0290 -0.1764
 5542SOL    HW128262   0.310   4.665   7.274 -0.1635 -0.1442 -0.1996
 5542SOL    HW228263   0.365   4.680   7.139 -0.4055 -0.3399 -0.7456
 5543SOL     OW28264   1.382   1.931   7.947 -0.3614  0.3580  0.1282
 5543SOL    HW128265   1.465   1.955   7.907 -1.0676  2.6011 -0.0150
 5543SOL    HW228266   1.397   1.975   8.031  1.0942 -2.5224  1.3912
 5544SOL     OW28267   2.947   1.453  13.775 -0.3407 -0.6930 -0.0676
 5544SOL    HW128268   2.915   1.363  13.787  0.2063 -0.6089  2.0093
 5544SOL    HW228269   2.864   1.501  13.779 -0.1552 -0.4227  0.3911
 5545SOL     OW28270   2.346   3.578   0.730 -0.2219 -0.5755 -0.1759
 5545SOL    HW128271   2.316   3.537   0.648 -0.1625  0.7496 -0.8757
 5545SOL    HW228272   2.320   3.668   0.707 -1.1799 -0.6835  0.4632
 5546SOL     OW28273   2.617   3.160   2.045  0.4969  0.2250  0.1143
 5546SOL    HW128274   2.598   3.137   2.136 -0.2532  0.4729  0.0168
 5546SOL    HW228275   2.539   3.120   2.006  0.2766 -1.0410  1.8318
 5547SOL     OW28276   4.165   0.309   8.812 -0.2230 -0.2909  0.2657
 5547SOL    HW128277   4.176   0.396   8.850  0.1099  0.7066 -2.1140
 5547SOL    HW228278   4.072   0.312   8.787  0.7414  1.2899 -3.1779
 5548SOL     OW28279   0.544   3.934   2.655 -0.0890 -0.0530  0.8360
 5548SOL    HW128280   0.609   3.873   2.692 -0.5470 -0.1667  1.4366
 5548SOL    HW228281   0.537   3.993   2.729  0.3722  0.8474  0.1624
 5549SOL     OW28282   4.242   3.253   5.327 -0.5243 -0.0256 -0.4520
 5549SOL    HW128283   4.234   3.160   5.309  0.3481 -0.4156  1.2286
 5549SOL    HW228284   4.284   3.251   5.413  0.8056  1.0614 -1.0748
 5550SOL     OW28285   1.938   1.190   4.414 -0.2012 -0.3227  0.1820
 5550SOL    HW128286   1.974   1.124   4.355 -1.2574  0.4898 -1.3655
 5550SOL    HW228287   1.895   1.146   4.486  1.9106  0.6551  2.0557
 5551SOL     OW28288   4.618   2.347   3.080 -0.4657 -0.1509  0.0492
 5551SOL    HW128289   4.679   2.420   3.092  2.6296 -2.8159  0.6199
 5551SOL    HW228290   4.638   2.342   2.986 -1.0652  1.3970 -0.1551
 5552SOL     OW28291   4.578   4.429   6.589  0.1508 -0.0008 -0.7502
 5552SOL    HW128292   4.549   4.367   6.522 -0.9426  0.8124 -1.0260
 5552SOL    HW228293   4.612   4.502   6.538  1.2781  0.7294  1.0437
 5553SOL     OW28294   3.544   0.034  13.978  0.3587 -0.2700 -0.3808
 5553SOL    HW128295   3.480   0.105  13.984 -2.8976 -3.1250 -1.3796
 5553SOL    HW228296   3.480   4.701  13.981  0.3545 -0.3251 -1.5982
 5554SOL     OW28297   1.684   0.030   2.462  0.1563 -0.0775  0.2706
 5554SOL    HW128298   1.708   0.116   2.427 -0.5543 -0.3407 -0.8444
 5554SOL    HW228299   1.772   4.731   2.458  0.7166  1.1491  0.8077
 5555SOL     OW28300   1.322   4.192   8.080 -0.0453 -0.4779 -0.1639
 5555SOL    HW128301   1.280   4.272   8.113  0.4388 -1.3791  2.5412
 5555SOL    HW228302   1.245   4.136   8.082  0.3849 -1.0120  1.4613
 5556SOL     OW28303   2.750   3.658  16.247  0.2219 -0.1154  0.3703
 5556SOL    HW128304   2.844   3.646  16.229  0.3159  0.1911  0.6567
 5556SOL    HW228305   2.747   3.700  16.332 -0.0146 -0.8356  0.7206
 5557SOL     OW28306   2.300   2.818   4.270 -0.0607 -0.0841 -0.0573
 5557SOL    HW128307   2.230   2.860   4.321 -0.4128  0.4743 -1.0013
 5557SOL    HW228308   2.353   2.895   4.248  0.7222 -0.3087  1.0392
 5558SOL     OW28309   3.661   4.097  13.806 -0.3463  0.3024  0.0312
 5558SOL    HW128310   3.754   4.104  13.782  0.4802 -2.0656  2.4877
 5558SOL    HW228311   3.656   4.001  13.806 -0.0686  0.2867  0.3449
 5559SOL     OW28312   0.623   0.331  16.930  0.3414 -0.0987 -0.0204
 5559SOL    HW128313   0.606   0.404  16.989 -0.2149  0.6325 -1.0891
 5559SOL    HW228314   0.535   0.292  16.933 -0.9282  2.7378 -1.1705
 5560SOL     OW28315   2.011   0.466  10.098 -0.0042 -0.0563  0.3716
 5560SOL    HW128316   1.951   0.506  10.161 -0.5967 -1.8858  0.9655
 5560SOL    HW228317   2.081   0.530  10.105  0.1257 -0.2867  1.1515
 5561SOL     OW28318   1.338   3.606   9.433  0.2557 -0.2007  0.3489
 5561SOL    HW128319   1.360   3.608   9.526 -0.7384 -0.4469  0.5851
 5561SOL    HW228320   1.416   3.561   9.400 -0.8314 -0.6614 -1.5653
 5562SOL     OW28321   3.091   0.182   8.496 -0.3713 -0.2904  0.0906
 5562SOL    HW128322   3.071   0.094   8.529  2.6751 -0.9890  0.0216
 5562SOL    HW228323   3.169   0.166   8.443 -0.0495 -0.6351  0.6658
 5563SOL     OW28324   1.138   1.646   9.033 -0.0987 -0.2595  0.2919
 5563SOL    HW128325   1.232   1.630   9.038 -0.0673  0.4721  1.9205
 5563SOL    HW228326   1.114   1.568   8.984  1.0547 -0.1992 -0.3566
 5564SOL     OW28327   0.215   1.454   2.529  0.0749  0.4318  0.2024
 5564SOL    HW128328   0.248   1.392   2.595  0.5593  1.1373  0.6178
 5564SOL    HW228329   0.257   1.537   2.554  0.3792  0.5725 -0.7983
 5565SOL     OW28330   1.684   3.289   8.929 -0.1427  0.0345 -0.0623
 5565SOL    HW128331   1.619   3.345   8.971 -0.4701 -1.3098  1.2043
 5565SOL    HW228332   1.702   3.340   8.850 -2.7418  0.6205 -0.2782
 5566SOL     OW28333   3.709   4.264   1.521  0.1407 -0.1733 -0.7604
 5566SOL    HW128334   3.802   4.242   1.519 -0.3637 -2.2727 -1.3241
 5566SOL    HW228335   3.670   4.255   1.434 -3.3810 -2.3627  1.0287
 5567SOL     OW28336   3.400   4.344   9.200 -0.1558 -0.4985 -0.1231
 5567SOL    HW128337   3.452   4.352   9.120 -0.3463 -0.3409 -0.2295
 5567SOL    HW228338   3.361   4.262   9.171 -2.3263  0.0374  1.2501
 5568SOL     OW28339   3.599   3.951   5.401  0.0435 -0.3405  0.0046
 5568SOL    HW128340   3.675   3.998   5.366  1.0747 -0.3831  2.2041
 5568SOL    HW228341   3.626   3.963   5.492 -1.1726  0.8366  0.2017
 5569SOL     OW28342   2.526   4.296   4.385 -0.5318 -0.1868 -0.2357
 5569SOL    HW128343   2.591   4.354   4.345  0.7044 -0.5925  1.1855
 5569SOL    HW228344   2.581   4.220   4.402 -0.8392  0.0852  1.9428
 5570SOL     OW28345   3.244   1.084  15.372 -0.1614  0.5251 -0.2013
 5570SOL    HW128346   3.257   1.178  15.387  1.5728  0.4961 -1.5399
 5570SOL    HW228347   3.161   1.072  15.326  0.8909  1.9434 -2.4719
 5571SOL     OW28348   0.118   1.108   9.512  0.3522  0.0748  1.0699
 5571SOL    HW128349   0.081   1.155   9.588  0.2450  2.9710 -0.7517
 5571SOL    HW228350   0.050   1.047   9.485  0.7567 -0.1388  0.5575
 5572SOL     OW28351   1.363   2.418   1.640  0.0952 -0.2111 -0.0380
 5572SOL    HW128352   1.282   2.386   1.680 -0.0596  0.8534  0.4929
 5572SOL    HW228353   1.386   2.350   1.577 -2.9165 -0.8184 -0.4765
 5573SOL     OW28354   3.021   2.957   2.712 -0.4841  0.6688  0.0747
 5573SOL    HW128355   3.103   2.909   2.726  0.0579  1.2927 -0.9413
 5573SOL    HW228356   2.970   2.895   2.660 -0.6711  0.5071  0.4492
 5574SOL     OW28357   1.101   1.783  10.682  0.2322 -0.0747 -0.7768
 5574SOL    HW128358   1.066   1.694  10.684 -0.9934  0.4248 -0.1204
 5574SOL    HW228359   1.067   1.802  10.595  1.6096  1.4476 -0.9975
 5575SOL     OW28360   1.510   1.765  14.185 -0.1595  0.1090 -0.2487
 5575SOL    HW128361   1.574   1.836  14.184 -1.7109  1.5322  0.5269
 5575SOL    HW228362   1.425   1.810  14.190 -0.0791  0.1864  0.4739
 5576SOL     OW28363   0.998   4.332   5.087  0.0516  0.0788 -0.3767
 5576SOL    HW128364   0.987   4.267   5.017 -2.7401  2.7784 -2.4341
 5576SOL    HW228365   1.093   4.328   5.099  0.1072  0.5976 -0.6734
 5577SOL     OW28366   2.101   4.733  15.438 -0.0163  0.8940 -0.8201
 5577SOL    HW128367   2.058   4.658  15.479  0.4980  1.3386  0.5156
 5577SOL    HW228368   2.096   4.712  15.345 -0.1373  0.4252 -0.7062
 5578SOL     OW28369   0.344   2.975   8.379  0.2829 -0.0062 -0.3187
 5578SOL    HW128370   0.384   2.945   8.297 -3.9067 -2.6465 -1.4301
 5578SOL    HW228371   0.414   3.026   8.418  0.7423 -0.5209 -0.4675
 5579SOL     OW28372   4.060   1.990   4.747  0.7077 -0.2781 -0.0841
 5579SOL    HW128373   4.063   1.966   4.840  0.2390  3.4327  0.8744
 5579SOL    HW228374   4.001   1.917   4.727  0.8206 -0.4633  0.2438
 5580SOL     OW28375   3.657   3.447   2.336 -0.2384  0.4564 -0.2081
 5580SOL    HW128376   3.626   3.415   2.421 -0.9191 -0.3150 -0.7468
 5580SOL    HW228377   3.569   3.478   2.314  0.1718  1.5138 -0.3946
 5581SOL     OW28378   2.909   2.045   9.424 -0.2801 -0.7484  0.7077
 5581SOL    HW128379   2.816   2.063   9.434 -0.4616 -1.3059  0.0039
 5581SOL    HW228380   2.913   2.051   9.329  0.7135 -0.6775  0.7458
 5582SOL     OW28381   3.311   4.283   3.893 -0.0445 -0.3216  0.0856
 5582SOL    HW128382   3.327   4.312   3.803 -1.2233  0.7447  0.2167
 5582SOL    HW228383   3.228   4.320   3.922  0.8910  1.4150  0.6097
 5583SOL     OW28384   0.853   2.263   5.078  0.3069  0.4182 -0.0752
 5583SOL    HW128385   0.834   2.355   5.091 -0.4519  0.2520 -0.0188
 5583SOL    HW228386   0.779   2.208   5.104 -0.9209  1.2412 -1.8555
 5584SOL     OW28387   0.330   4.010   4.193 -0.6677 -0.0614 -0.4681
 5584SOL    HW128388   0.319   3.994   4.100  1.7275 -1.6551 -0.4661
 5584SOL    HW228389   0.317   4.105   4.194 -0.7359 -0.0705 -0.6163
 5585SOL     OW28390   1.641   3.337  10.164  0.2319  0.1644 -0.2890
 5585SOL    HW128391   1.720   3.283  10.157  0.6972  0.4039  3.0553
 5585SOL    HW228392   1.573   3.272  10.179 -0.9558  1.3386 -0.5692
 5586SOL     OW28393   1.319   4.374   6.652 -0.7927 -0.1029  0.0206
 5586SOL    HW128394   1.393   4.379   6.713 -0.1856 -0.7763 -0.6582
 5586SOL    HW228395   1.350   4.305   6.594  0.1685  0.4302 -0.1199
 5587SOL     OW28396   4.015   2.703  12.634  0.3709 -0.2824 -0.5445
 5587SOL    HW128397   4.049   2.626  12.681  0.2684  0.8386  1.3829
 5587SOL    HW228398   3.929   2.665  12.620 -0.6342  1.2161  1.5648
 5588SOL     OW28399   0.316   2.830   0.637  0.1340  0.0452 -0.0363
 5588SOL    HW128400   0.319   2.739   0.606 -0.0217 -0.0311  0.1790
 5588SOL    HW228401   0.236   2.832   0.688 -0.9398 -2.2194 -1.6219
 5589SOL     OW28402   0.999   2.702   0.259  0.1201  0.2804  0.7382
 5589SOL    HW128403   0.968   2.778   0.208 -0.3050  0.8237  1.8076
 5589SOL    HW228404   0.994   2.629   0.197 -1.9555  0.9362  0.1118
 5590SOL     OW28405   4.417   2.299   5.628  0.3915  0.0892 -0.0782
 5590SOL    HW128406   4.448   2.212   5.652  0.4434 -0.0297 -0.5714
 5590SOL    HW228407   4.432   2.347   5.709  2.3360 -0.2890 -0.2274
 5591SOL     OW28408   2.958   4.223   3.434  0.5926  0.3489 -0.7177
 5591SOL    HW128409   3.047   4.189   3.445  0.0828 -0.5727  0.5561
 5591SOL    HW228410   2.911   4.142   3.418  0.6870  0.1134  0.1845
 5592SOL     OW28411   4.008   4.140  15.177 -0.4060  0.3889  0.0898
 5592SOL    HW128412   4.101   4.146  15.154 -0.2696 -2.2994 -0.0517
 5592SOL    HW228413   4.000   4.183  15.262 -1.1500  1.0140 -0.2888
 5593SOL     OW28414   2.877   3.132  11.446  0.2873  0.1147 -0.3366
 5593SOL    HW128415   2.908   3.164  11.530  0.2412 -3.8589  1.1830
 5593SOL    HW228416   2.859   3.041  11.469  0.5453  0.0276 -0.4704
 5594SOL     OW28417   2.388   0.063   5.982 -0.1741 -0.0538 -0.2280
 5594SOL    HW128418   2.349   4.734   6.037 -2.2903 -0.1638 -1.8281
 5594SOL    HW228419   2.472   0.021   5.965 -0.1439  0.1726 -0.6393
 5595SOL     OW28420   2.574   2.894   8.567  0.0990 -0.1752 -0.1977
 5595SOL    HW128421   2.595   2.966   8.507  2.5302 -0.5250  0.2009
 5595SOL    HW228422   2.663   2.872   8.594  0.4168  0.1716 -0.9410
 5596SOL     OW28423   4.552   0.406  13.094  0.1552 -0.8175 -0.5976
 5596SOL    HW128424   4.558   0.312  13.080  1.7234 -0.7904 -0.1462
 5596SOL    HW228425   4.576   0.426  13.184 -0.6242  0.5653 -0.6866
 5597SOL     OW28426   2.219   2.559   8.970 -0.2202  0.3204 -0.1244
 5597SOL    HW128427   2.240   2.541   8.878  2.4965 -2.1745  0.9974
 5597SOL    HW228428   2.277   2.635   8.976  0.9621 -0.5992  0.1433
 5598SOL     OW28429   1.532   3.880   4.902 -0.0717  0.1566  0.1981
 5598SOL    HW128430   1.585   3.838   4.835 -1.4123 -0.6609 -0.3333
 5598SOL    HW228431   1.525   3.964   4.857  2.0399 -0.0110 -0.4451
 5599SOL     OW28432   0.225   4.677   8.335  0.3614 -0.3492  0.1455
 5599SOL    HW128433   0.267   0.022   8.315  0.4274 -0.3297  0.3628
 5599SOL    HW228434   0.138   4.704   8.364 -0.5013 -1.8735 -1.0310
 5600SOL     OW28435   2.390   3.563   2.450  0.0082 -0.4005 -0.0523
 5600SOL    HW128436   2.315   3.555   2.391 -0.0526 -0.3633  0.0197
 5600SOL    HW228437   2.442   3.632   2.409 -0.0947 -0.4951 -0.3389
 5601SOL     OW28438   1.138   4.324   9.616 -0.2822  0.6258 -0.3626
 5601SOL    HW128439   1.089   4.293   9.540 -1.2777 -1.8134  1.2695
 5601SOL    HW228440   1.211   4.263   9.629  1.7005  2.3961 -3.2406
 5602SOL     OW28441   3.661   0.955   0.560 -0.5378  0.5216  0.4552
 5602SOL    HW128442   3.596   0.887   0.578  0.8683 -1.2719 -1.2470
 5602SOL    HW228443   3.612   1.001   0.492  1.6011  1.0516 -0.7320
 5603SOL     OW28444   4.405   2.460   2.401  0.0720 -0.4908 -0.3724
 5603SOL    HW128445   4.420   2.551   2.426 -0.7432 -0.6914  0.8592
 5603SOL    HW228446   4.311   2.448   2.401 -0.1773  1.4021 -0.3312
 5604SOL     OW28447   1.283   1.987   8.375  0.0186  0.6270 -0.3339
 5604SOL    HW128448   1.280   2.009   8.468  3.1768  1.5735 -0.4341
 5604SOL    HW228449   1.376   1.968   8.361  0.1563  0.0477  1.3304
 5605SOL     OW28450   1.561   2.372   6.766 -0.5512  0.6237 -0.8191
 5605SOL    HW128451   1.547   2.342   6.676 -0.4626  0.1885 -0.6914
 5605SOL    HW228452   1.484   2.429   6.771 -1.1728 -0.2255 -0.7053
 5606SOL     OW28453   2.898   0.206   3.686 -0.1085 -0.0013 -0.0334
 5606SOL    HW128454   2.898   0.208   3.590  3.5431  1.9452 -0.0161
 5606SOL    HW228455   2.937   0.119   3.701 -2.2252 -0.6285  1.8669
 5607SOL     OW28456   3.889   3.390   8.051  0.1997 -0.3920  0.9106
 5607SOL    HW128457   3.926   3.302   8.051  0.9798 -0.0587  1.6527
 5607SOL    HW228458   3.855   3.404   8.139  2.1586  0.7478  1.4935
 5608SOL     OW28459   0.584   0.236   6.136  0.2423  0.2199 -0.3317
 5608SOL    HW128460   0.527   0.198   6.069  0.4876  0.7291 -0.8208
 5608SOL    HW228461   0.669   0.198   6.113  1.3442  1.7858  1.1189
 5609SOL     OW28462   3.156   0.646   2.756  0.0227  0.4189  0.0782
 5609SOL    HW128463   3.143   0.626   2.664 -0.9810 -2.7187  0.9039
 5609SOL    HW228464   3.113   0.732   2.762 -1.1217 -0.2075  0.9954
 5610SOL     OW28465   1.802   1.187   1.954 -0.2086  0.0324 -0.0559
 5610SOL    HW128466   1.828   1.144   2.035  1.3309  1.1063  0.0160
 5610SOL    HW228467   1.789   1.278   1.983 -0.6266 -0.0511  0.0284
 5611SOL     OW28468   0.396   3.145   8.717 -0.0266  0.0342  0.5123
 5611SOL    HW128469   0.397   3.049   8.716  0.2344  0.0262  1.0328
 5611SOL    HW228470   0.303   3.163   8.712 -0.1939 -0.4519  1.7234
 5612SOL     OW28471   2.634   0.136  13.816 -0.0878  0.4060  0.0202
 5612SOL    HW128472   2.539   0.144  13.811  0.0703  1.4006 -1.3839
 5612SOL    HW228473   2.663   0.222  13.849  0.8600  0.3213 -0.5942
 5613SOL     OW28474   0.745   2.128  14.848  0.1439  0.0187 -0.0350
 5613SOL    HW128475   0.742   2.203  14.789  1.6765  1.1187  1.2833
 5613SOL    HW228476   0.818   2.153  14.905 -1.4957 -0.2690  2.1773
 5614SOL     OW28477   0.590   3.793  15.219 -1.0694 -0.1806  0.2164
 5614SOL    HW128478   0.674   3.764  15.255 -1.0426 -0.0011  0.3023
 5614SOL    HW228479   0.614   3.809  15.128  2.3429  0.3824  1.1915
 5615SOL     OW28480   4.408   0.567   3.801  0.2648  0.5892 -0.6586
 5615SOL    HW128481   4.477   0.574   3.736  0.1987  2.8600 -0.4818
 5615SOL    HW228482   4.429   0.483   3.842  1.1559  1.9899  1.7900
 5616SOL     OW28483   1.367   2.023   5.968  0.3136  0.2887  0.0438
 5616SOL    HW128484   1.424   1.984   5.901 -0.3256  0.1514 -0.4273
 5616SOL    HW228485   1.301   2.061   5.909 -0.5808 -1.7175 -0.2216
 5617SOL     OW28486   0.100   4.058   3.735 -0.5414  0.6784 -0.5122
 5617SOL    HW128487   0.023   4.048   3.679 -1.5677  0.7833  0.8701
 5617SOL    HW228488   0.112   4.152   3.746 -1.2576  0.6746  0.3204
 5618SOL     OW28489   3.817   0.143   2.313 -0.3632 -0.0643  0.2506
 5618SOL    HW128490   3.723   0.124   2.309 -0.6552  1.5723 -0.8364
 5618SOL    HW228491   3.850   0.120   2.226 -0.5635  0.3045  0.0725
 5619SOL     OW28492   1.571   0.500   6.616  0.0856 -0.1344  0.3679
 5619SOL    HW128493   1.579   0.572   6.679 -1.0055  0.9668 -0.7579
 5619SOL    HW228494   1.496   0.454   6.655  2.1679 -1.1644  3.1825
 5620SOL     OW28495   0.117   3.447   3.078 -0.0570 -1.0561 -0.0124
 5620SOL    HW128496   0.096   3.529   3.122 -0.9578 -0.6563 -1.1987
 5620SOL    HW228497   0.091   3.465   2.987  0.2213  2.0529  0.5085
 5621SOL     OW28498   3.277   4.105   9.571 -0.0124 -0.4414 -0.9860
 5621SOL    HW128499   3.217   4.138   9.638  0.8852 -2.9244  1.0325
 5621SOL    HW228500   3.345   4.171   9.579  0.6807 -1.2061 -0.5070
 5622SOL     OW28501   4.090   4.013   0.304 -0.0467  0.0299  0.2504
 5622SOL    HW128502   4.000   3.986   0.323 -0.3215 -0.7443 -2.1179
 5622SOL    HW228503   4.115   3.943   0.243  0.9137  0.2964  0.3329
 5623SOL     OW28504   1.888   1.473   5.054 -0.3338 -0.3707 -0.1803
 5623SOL    HW128505   1.908   1.565   5.075  3.7461 -1.2541 -0.0971
 5623SOL    HW228506   1.957   1.449   4.991  2.2604  1.5591  1.9156
 5624SOL     OW28507   1.648   0.407   9.505  0.3158 -0.0985 -0.1048
 5624SOL    HW128508   1.701   0.444   9.434  0.3670  3.4565  1.8218
 5624SOL    HW228509   1.715   0.354   9.549  1.4080  1.9533  0.6843
 5625SOL     OW28510   3.490   0.236  10.647  0.1055 -0.1802  0.1605
 5625SOL    HW128511   3.478   0.143  10.663  1.7898 -0.3420  0.5268
 5625SOL    HW228512   3.406   0.267  10.614 -0.1233  0.9785  1.8340
 5626SOL     OW28513   4.401   0.717  11.533 -0.1747  0.0349 -0.6340
 5626SOL    HW128514   4.458   0.691  11.461  0.0998  0.7126 -0.6673
 5626SOL    HW228515   4.412   0.812  11.526  0.4882  0.0995  1.3842
 5627SOL     OW28516   0.017   2.324   6.061  0.6949  0.1154 -0.3680
 5627SOL    HW128517   4.694   2.279   6.120  2.9615  0.1177  2.0130
 5627SOL    HW228518   0.082   2.256   6.048  1.4615  0.4942  1.4295
 5628SOL     OW28519   3.549   3.579  12.926 -0.5495 -0.3272 -0.1153
 5628SOL    HW128520   3.611   3.594  12.997 -1.5964 -2.4866  1.2658
 5628SOL    HW228521   3.497   3.659  12.923  0.9179  0.6749  1.3965
 5629SOL     OW28522   2.743   0.941   3.190  0.2673  0.3137  0.3532
 5629SOL    HW128523   2.745   0.956   3.285  1.8113  0.9204  0.2201
 5629SOL    HW228524   2.673   0.877   3.183 -0.3369  1.1891 -1.5134
 5630SOL     OW28525   3.710   3.043   5.836  0.0744 -0.3583 -0.2712
 5630SOL    HW128526   3.637   3.090   5.877  0.2773 -0.1787 -0.1161
 5630SOL    HW228527   3.744   3.119   5.789 -2.3594  0.5022 -0.6714
 5631SOL     OW28528   3.587   3.562  11.221  0.0084  0.7705  0.1951
 5631SOL    HW128529   3.513   3.512  11.256  2.2446 -1.3688  1.9073
 5631SOL    HW228530   3.649   3.571  11.293 -1.6132 -0.6944  1.7739
 5632SOL     OW28531   4.089   3.224   9.484 -0.1892 -0.2347  0.6675
 5632SOL    HW128532   4.115   3.132   9.483 -1.7109 -0.6553  0.4198
 5632SOL    HW228533   4.084   3.241   9.578  0.5555 -1.3202  0.9022
 5633SOL     OW28534   1.852   4.244  15.030 -0.6731  0.0341 -0.0795
 5633SOL    HW128535   1.849   4.329  14.986 -0.4647 -0.2291 -0.5995
 5633SOL    HW228536   1.781   4.257  15.093 -1.6986 -1.4055 -0.9452
 5634SOL     OW28537   0.795   0.843   5.504 -0.1922  0.2034  0.6638
 5634SOL    HW128538   0.795   0.750   5.526  0.8713 -0.2899 -1.3802
 5634SOL    HW228539   0.887   0.863   5.522 -0.0570 -0.1764  0.4004
 5635SOL     OW28540   0.434   1.474   4.356  0.2406 -0.1010  0.4761
 5635SOL    HW128541   0.511   1.489   4.411  0.8470  1.7705 -0.8713
 5635SOL    HW228542   0.476   1.505   4.275  0.3169  0.1893  0.6269
 5636SOL     OW28543   0.115   3.723  14.936  0.2447  0.7520  0.1020
 5636SOL    HW128544   0.210   3.718  14.937  0.2126 -0.2016 -2.0472
 5636SOL    HW228545   0.109   3.628  14.948  1.0807  0.7169  0.2460
 5637SOL     OW28546   4.313   4.071   8.983 -0.8387 -0.2083 -0.3785
 5637SOL    HW128547   4.352   4.033   9.061 -0.3010  0.1351 -0.4809
 5637SOL    HW228548   4.397   4.096   8.944 -0.4126 -2.6075 -0.9534
 5638SOL     OW28549   3.094   1.211   2.224  0.4046 -0.3223 -0.3431
 5638SOL    HW128550   3.168   1.237   2.278  0.1944 -0.6343  0.0944
 5638SOL    HW228551   3.130   1.142   2.167 -1.9973 -1.8285 -0.0344
 5639SOL     OW28552   2.686   1.824   6.158 -0.0134 -0.1586 -0.7396
 5639SOL    HW128553   2.665   1.742   6.203 -4.3295  1.0336 -0.6347
 5639SOL    HW228554   2.603   1.862   6.131  0.5753  2.1994  0.7734
 5640SOL     OW28555   4.536   3.836  11.190 -0.4797  0.0979  0.0650
 5640SOL    HW128556   4.622   3.846  11.231  0.0550 -0.3343 -0.9494
 5640SOL    HW228557   4.532   3.917  11.139 -0.6473  0.8281  1.2351
 5641SOL     OW28558   4.500   4.068  15.265 -0.5732  0.3187  0.3372
 5641SOL    HW128559   4.556   4.129  15.313 -1.9537  2.2602 -0.5510
 5641SOL    HW228560   4.412   4.099  15.287 -0.8716 -0.2915  0.0085
 5642SOL     OW28561   2.059   2.155  11.410 -0.1895  0.8518  0.4626
 5642SOL    HW128562   2.151   2.131  11.400 -0.4958  0.0547 -0.5252
 5642SOL    HW228563   2.010   2.073  11.413  2.0504 -0.5622 -1.2308
 5643SOL     OW28564   3.548   0.110   2.379 -0.0485 -0.0217 -0.7226
 5643SOL    HW128565   3.568   0.020   2.354  0.4785  0.0076 -0.3987
 5643SOL    HW228566   3.453   0.109   2.389 -0.1328  0.1654 -1.4690
 5644SOL     OW28567   2.700   0.156   8.949 -0.0566 -0.0373  0.0235
 5644SOL    HW128568   2.613   0.136   8.982  0.4668 -1.8654  0.3195
 5644SOL    HW228569   2.716   0.240   8.991  2.1146  1.3429 -3.5433
 5645SOL     OW28570   0.984   4.601   7.554  0.0393  0.8040 -0.1994
 5645SOL    HW128571   1.051   4.648   7.604 -0.2446 -0.8249  1.7238
 5645SOL    HW228572   0.912   4.663   7.539 -1.5585 -1.1121 -0.4101
 5646SOL     OW28573   2.870   0.297  14.231  0.3177  0.1102  0.6299
 5646SOL    HW128574   2.887   0.381  14.275  1.3597  0.5522 -0.6027
 5646SOL    HW228575   2.793   0.320  14.179  0.3795 -0.6705  0.2051
 5647SOL     OW28576   4.614   4.322   6.321  0.4050 -0.1415  0.3324
 5647SOL    HW128577   4.651   4.404   6.289  1.4699  0.6239  3.5323
 5647SOL    HW228578   4.692   4.266   6.325  0.4150 -0.0384  1.5830
 5648SOL     OW28579   1.857   3.597   5.527  0.0418  0.4149  0.1009
 5648SOL    HW128580   1.834   3.546   5.605  0.1888  0.6964  0.3298
 5648SOL    HW228581   1.862   3.525   5.464  2.9454  2.7778 -2.3791
 5649SOL     OW28582   2.172   0.131   7.703 -0.0570 -0.5759 -0.2881
 5649SOL    HW128583   2.161   0.169   7.790  0.7950 -0.2535 -0.3219
 5649SOL    HW228584   2.259   0.091   7.706 -0.0174 -0.5163 -0.5816
 5650SOL     OW28585   1.751   1.915  12.967 -0.8623 -0.5407  0.2225
 5650SOL    HW128586   1.834   1.880  12.933 -1.0122  0.2608 -0.9554
 5650SOL    HW228587   1.696   1.919  12.889  1.3875  2.8690 -1.1614
 5651SOL     OW28588   1.519   3.109  12.163  0.1064 -0.2037  0.6248
 5651SOL    HW128589   1.540   3.122  12.071 -0.1619 -1.2195  0.4120
 5651SOL    HW228590   1.450   3.043  12.150  0.8267 -1.2359  2.0765
 5652SOL     OW28591   1.773   1.970   1.563 -0.1466  0.0057 -0.0612
 5652SOL    HW128592   1.777   1.999   1.472  1.3264  1.9112  0.5982
 5652SOL    HW228593   1.679   1.954   1.575 -0.2849  0.2735 -0.8521
 5653SOL     OW28594   2.330   0.809   3.892  0.9094  0.3153 -0.1399
 5653SOL    HW128595   2.290   0.724   3.912 -0.6620  1.2621  0.7997
 5653SOL    HW228596   2.422   0.790   3.878  1.2327  0.6648  1.4669
 5654SOL     OW28597   3.455   3.818   5.800 -0.3695 -0.7847 -0.1400
 5654SOL    HW128598   3.455   3.864   5.884 -2.7107 -2.9446  1.0256
 5654SOL    HW228599   3.536   3.767   5.801  0.6767  0.8453 -0.8828
 5655SOL     OW28600   2.890   1.168  13.765  0.6867  0.4310 -0.0006
 5655SOL    HW128601   2.892   1.086  13.816 -0.8751  1.0244  1.0226
 5655SOL    HW228602   2.966   1.149  13.710 -0.2371 -0.5479 -0.9524
 5656SOL     OW28603   0.886   4.231   8.902  0.0711 -0.1153  0.0835
 5656SOL    HW128604   0.935   4.247   8.982 -0.1929  1.8562 -0.1691
 5656SOL    HW228605   0.896   4.136   8.890 -1.4123 -0.0496 -1.7437
 5657SOL     OW28606   1.734   1.600  12.866 -0.5607 -0.5950  0.4881
 5657SOL    HW128607   1.813   1.643  12.900  0.7384 -1.6432 -1.2526
 5657SOL    HW228608   1.750   1.593  12.772  0.2357 -1.8409  0.7231
 5658SOL     OW28609   4.662   3.487  12.080 -0.1079  0.2231  0.2167
 5658SOL    HW128610   4.718   3.565  12.075  0.7381 -0.5267 -2.0944
 5658SOL    HW228611   4.728   3.418  12.076 -1.3867 -0.9489 -0.5962
 5659SOL     OW28612   4.459   1.155   4.657  0.1090  0.5658  0.2749
 5659SOL    HW128613   4.537   1.137   4.708  0.0266  1.2663  0.6389
 5659SOL    HW228614   4.486   1.143   4.565  0.0710  1.4232  0.1574
 5660SOL     OW28615   1.517   2.003   7.690  0.5483  0.6462  0.2149
 5660SOL    HW128616   1.541   2.095   7.699  0.8849  0.8366 -2.8882
 5660SOL    HW228617   1.592   1.963   7.646  0.1361  0.7513 -0.5735
 5661SOL     OW28618   1.502   1.483   4.401  0.4222 -0.2553  0.4171
 5661SOL    HW128619   1.456   1.536   4.466  0.3872  1.6619 -1.1677
 5661SOL    HW228620   1.589   1.516   4.424  0.4128  1.4662 -2.0536
 5662SOL     OW28621   0.323   0.199   9.320  0.1297  0.2321 -0.1786
 5662SOL    HW128622   0.399   0.152   9.285 -0.3560 -1.5681  1.2035
 5662SOL    HW228623   0.253   0.135   9.313 -0.2115  0.5922 -0.0497
 5663SOL     OW28624   0.528   4.675   1.744  0.7992 -0.4479 -0.5467
 5663SOL    HW128625   0.547   4.601   1.801 -0.6973 -0.4113  0.0193
 5663SOL    HW228626   0.450   4.711   1.786  0.4544 -2.0821  0.2166
 5664SOL     OW28627   3.924   3.489   2.417 -0.3643  0.3368  0.9159
 5664SOL    HW128628   3.936   3.397   2.395 -1.1663  0.2451  0.8502
 5664SOL    HW228629   3.839   3.503   2.375  0.7486 -0.3102 -1.5545
 5665SOL     OW28630   3.006   0.490   6.629  0.5143 -0.1296 -0.3916
 5665SOL    HW128631   2.916   0.464   6.608  0.0309  0.6472  0.6640
 5665SOL    HW228632   3.005   0.486   6.724 -0.0148 -0.0499 -0.3913
 5666SOL     OW28633   0.477   2.956   4.547  0.3832 -0.0375  0.3023
 5666SOL    HW128634   0.394   2.982   4.508  0.3620  1.4120  1.2835
 5666SOL    HW228635   0.543   3.022   4.522 -0.6811  0.4285 -1.2665
 5667SOL     OW28636   3.063   2.071   7.204 -0.4965  0.1271 -0.3049
 5667SOL    HW128637   2.994   2.129   7.171  1.5157  2.1441 -0.9720
 5667SOL    HW228638   3.124   2.135   7.241  1.3360 -1.4028 -0.6606
 5668SOL     OW28639   3.043   3.133   4.759  0.0289 -0.6378 -0.3404
 5668SOL    HW128640   3.015   3.071   4.826 -0.7714  0.1284  0.0275
 5668SOL    HW228641   2.963   3.131   4.706  0.3381  1.1078 -0.8654
 5669SOL     OW28642   3.382   0.751   2.914  0.3734 -0.1243 -0.2407
 5669SOL    HW128643   3.427   0.687   2.857 -1.6027 -0.5804 -1.3070
 5669SOL    HW228644   3.297   0.714   2.935  0.5664 -0.8194 -0.6695
 5670SOL     OW28645   4.568   2.605   6.661  0.0153 -0.0006 -0.1477
 5670SOL    HW128646   4.503   2.601   6.731 -0.0064  0.9080 -0.1165
 5670SOL    HW228647   4.646   2.631   6.711 -1.5520  0.8687  1.8198
 5671SOL     OW28648   4.300   1.551  15.064 -0.7575  0.2672  0.8002
 5671SOL    HW128649   4.231   1.535  15.000  0.5420 -2.2359  0.0247
 5671SOL    HW228650   4.266   1.627  15.111  2.0834  1.2957  1.2448
 5672SOL     OW28651   3.575   2.604   6.730  0.2230 -0.0845  0.0706
 5672SOL    HW128652   3.609   2.572   6.647  0.2315  2.6063 -0.9689
 5672SOL    HW228653   3.510   2.662   6.691  0.5930  0.3550  0.0994
 5673SOL     OW28654   3.192   2.538   1.597 -0.2636 -0.0352 -0.4782
 5673SOL    HW128655   3.272   2.493   1.622  0.0397  0.9236  0.2942
 5673SOL    HW228656   3.176   2.592   1.675 -0.3915 -1.3925  0.4274
 5674SOL     OW28657   4.342   1.060  15.744  0.7635  0.3719 -0.4661
 5674SOL    HW128658   4.379   0.980  15.707  1.2624 -1.2508  3.5585
 5674SOL    HW228659   4.266   1.075  15.688  1.1145 -0.2123 -1.0853
 5675SOL     OW28660   3.627   2.428   2.964  0.0685 -0.4690 -0.1158
 5675SOL    HW128661   3.616   2.345   2.918 -0.3292 -1.5605  1.9710
 5675SOL    HW228662   3.537   2.462   2.955 -0.2929 -1.7440 -1.3950
 5676SOL     OW28663   0.153   1.401   5.451 -0.4273 -0.5311 -0.2421
 5676SOL    HW128664   0.066   1.365   5.465 -0.0848 -1.4465 -0.4847
 5676SOL    HW228665   0.203   1.354   5.517 -0.5662 -1.8315 -1.0622
 5677SOL     OW28666   2.915   0.317   9.994 -0.0628 -0.1192 -0.0601
 5677SOL    HW128667   2.896   0.237  10.042 -1.1487 -1.6688 -3.0558
 5677SOL    HW228668   2.921   0.386  10.060 -0.0803 -0.2155  0.0422
 5678SOL     OW28669   2.111   0.219  13.932 -0.3763  0.0474 -0.4832
 5678SOL    HW128670   2.037   0.185  13.982  0.8635 -1.6792  0.1728
 5678SOL    HW228671   2.179   0.229  13.998 -1.0997 -1.7065  0.5080
 5679SOL     OW28672   1.702   0.251   2.121  0.0035 -0.4624 -0.3534
 5679SOL    HW128673   1.776   0.311   2.123  0.1488 -0.6276 -0.6968
 5679SOL    HW228674   1.653   0.280   2.198  1.9637  0.4996  0.5503
 5680SOL     OW28675   1.742   3.037   4.377  0.3003  0.1412  0.0634
 5680SOL    HW128676   1.650   3.015   4.360  0.1920 -0.7456  1.7024
 5680SOL    HW228677   1.744   3.023   4.472 -1.3137  0.6252  0.1621
 5681SOL     OW28678   4.267   2.375   4.061  0.0714 -0.4884 -0.2134
 5681SOL    HW128679   4.210   2.300   4.047 -1.2125 -0.1393  3.0972
 5681SOL    HW228680   4.207   2.441   4.096 -1.7769 -2.7931  0.9227
 5682SOL     OW28681   3.614   3.596   6.576 -0.3411 -0.1414 -0.5369
 5682SOL    HW128682   3.532   3.640   6.598 -0.0361 -0.3747  1.0357
 5682SOL    HW228683   3.639   3.560   6.661  1.4595 -0.7355 -1.3067
 5683SOL     OW28684   3.712   2.219   6.256  0.3357 -0.4790 -0.0518
 5683SOL    HW128685   3.783   2.268   6.215 -0.1231 -0.4529 -0.8144
 5683SOL    HW228686   3.755   2.148   6.303 -0.6207 -0.4366  0.8954
 5684SOL     OW28687   2.698   0.300   1.452 -0.1228 -0.3785  0.1251
 5684SOL    HW128688   2.672   0.212   1.480  3.7692 -1.3994  0.4918
 5684SOL    HW228689   2.624   0.327   1.397  0.9358 -1.6923 -1.9408
 5685SOL     OW28690   2.899   1.777  13.728  0.2382 -0.0858 -0.3549
 5685SOL    HW128691   2.857   1.691  13.734  0.3940 -0.0814  0.8123
 5685SOL    HW228692   2.902   1.796  13.822 -1.6822 -0.8208 -0.1423
 5686SOL     OW28693   3.322   0.175   9.244  0.0636  0.3374 -0.3029
 5686SOL    HW128694   3.368   0.109   9.192  1.6946  1.1776  0.0583
 5686SOL    HW228695   3.265   0.133   9.308 -0.8028  2.9997  0.6841
 5687SOL     OW28696   0.043   4.164   5.263 -0.0200 -0.3988 -0.3227
 5687SOL    HW128697   0.084   4.248   5.284  1.6937 -1.0098 -1.1864
 5687SOL    HW228698   0.042   4.123   5.349 -0.6963 -2.2277 -1.2031
 5688SOL     OW28699   3.559   2.878   4.980  0.2575 -0.3020 -1.0145
 5688SOL    HW128700   3.601   2.963   4.967 -0.2198  0.1428  0.3456
 5688SOL    HW228701   3.513   2.885   5.064 -0.2741 -0.3494 -1.3016
 5689SOL     OW28702   1.271   0.413  16.860 -0.3790 -0.6192 -0.4291
 5689SOL    HW128703   1.348   0.389  16.911 -0.6104  1.4215  0.8741
 5689SOL    HW228704   1.303   0.395  16.772  1.0805 -0.8588  0.1490
 5690SOL     OW28705   0.707   4.317   4.041 -0.4475  0.2259 -0.4453
 5690SOL    HW128706   0.649   4.367   4.099  0.0976 -1.0885  1.2368
 5690SOL    HW228707   0.768   4.270   4.098 -3.3088  1.0754  3.3664
 5691SOL     OW28708   0.477   1.075   0.772  0.1464  0.0667  0.5460
 5691SOL    HW128709   0.556   1.054   0.722  0.0177  0.4177  0.1970
 5691SOL    HW228710   0.485   1.018   0.849  0.2085 -0.4882  0.1304
 5692SOL     OW28711   2.618   4.623   5.936  0.0368  0.2565 -0.3667
 5692SOL    HW128712   2.679   4.662   5.873  0.7734 -0.9190 -0.3672
 5692SOL    HW228713   2.677   4.556   5.969 -0.7627  0.0027  0.5751
 5693SOL     OW28714   1.573   4.011   6.704 -0.9537  0.2191  0.3274
 5693SOL    HW128715   1.629   3.944   6.742 -3.2477 -0.9846  1.6027
 5693SOL    HW228716   1.633   4.039   6.635  0.0777  3.6419  2.5968
 5694SOL     OW28717   2.642   2.529   4.228 -0.2237  0.5557  0.3870
 5694SOL    HW128718   2.723   2.579   4.217 -0.7248  1.1419 -0.5386
 5694SOL    HW228719   2.635   2.478   4.147 -0.1303 -0.3896  0.9725
 5695SOL     OW28720   0.426   4.195   3.370 -0.8153 -0.8174  0.7189
 5695SOL    HW128721   0.401   4.192   3.462  0.2927 -1.1662  1.0143
 5695SOL    HW228722   0.439   4.288   3.352  0.9122 -1.0956  0.5310
 5696SOL     OW28723   2.742   2.735   7.500 -0.3911  0.4055 -0.3203
 5696SOL    HW128724   2.765   2.670   7.567 -0.2899 -0.1567 -0.8963
 5696SOL    HW228725   2.820   2.741   7.445  0.4795  2.7630  1.1858
 5697SOL     OW28726   1.051   2.023  14.857 -0.2892 -0.0429  0.3873
 5697SOL    HW128727   1.138   1.982  14.852 -0.1806  0.2296  0.0224
 5697SOL    HW228728   0.989   1.954  14.880 -0.4392 -0.6863 -1.8946
 5698SOL     OW28729   4.276   4.656   1.573  0.2719  0.5469  0.3111
 5698SOL    HW128730   4.186   4.665   1.604 -0.2928 -1.8019 -0.7081
 5698SOL    HW228731   4.336   4.693   1.638 -1.6868  1.7641  1.4389
 5699SOL     OW28732   4.491   1.325  14.846 -0.2628  0.2472  0.1902
 5699SOL    HW128733   4.472   1.400  14.901  1.4288  1.7277 -1.2423
 5699SOL    HW228734   4.584   1.303  14.859 -0.3384 -1.0536 -1.4049
 5700SOL     OW28735   1.487   2.882  11.277  0.2301  0.4043  0.7862
 5700SOL    HW128736   1.510   2.964  11.320  0.5534  1.7013 -1.8160
 5700SOL    HW228737   1.542   2.889  11.199 -2.6494  0.4159 -1.2566
 5701SOL     OW28738   3.552   2.056  14.658 -0.2205  0.3869 -0.2315
 5701SOL    HW128739   3.464   2.082  14.633 -0.1059 -0.7505 -1.8207
 5701SOL    HW228740   3.594   2.140  14.678  0.4037 -0.5448  2.4836
 5702SOL     OW28741   1.973   4.455   8.502 -0.2426 -0.1113 -0.1110
 5702SOL    HW128742   1.993   4.362   8.508 -0.0765  0.0144  1.3026
 5702SOL    HW228743   1.995   4.460   8.409 -1.3073  1.0146 -0.3062
 5703SOL     OW28744   1.911   2.842   2.939 -0.0027 -0.3791  0.1320
 5703SOL    HW128745   1.915   2.836   3.035 -2.6767 -1.1096  0.1876
 5703SOL    HW228746   1.818   2.866   2.931 -0.0364 -0.4227  0.3813
 5704SOL     OW28747   2.390   4.065   8.670 -0.2941 -0.3293  0.3089
 5704SOL    HW128748   2.430   3.978   8.679  0.5032  0.0717  0.7170
 5704SOL    HW228749   2.451   4.101   8.735 -1.0430  0.9010  0.3095
 5705SOL     OW28750   0.006   2.398   9.104  0.1633  0.6478 -0.1785
 5705SOL    HW128751   4.738   2.309   9.069 -2.9399  0.0546  1.9088
 5705SOL    HW228752   4.664   2.441   9.078  0.3302  1.7053  1.0502
 5706SOL     OW28753   1.168   2.370   3.990  0.2859  0.6911 -0.1046
 5706SOL    HW128754   1.217   2.305   4.040  1.7970  1.7104 -0.2589
 5706SOL    HW228755   1.076   2.363   4.017  0.5702  2.0850  1.2088
 5707SOL     OW28756   0.700   4.709   8.781 -0.3912  0.0192  0.1469
 5707SOL    HW128757   0.750   4.664   8.713  1.7877  1.0820  1.0324
 5707SOL    HW228758   0.770   0.007   8.836 -1.8165 -1.8632  3.2241
 5708SOL     OW28759   2.055   1.493   3.218 -0.1209 -0.9013  0.6349
 5708SOL    HW128760   2.024   1.534   3.299 -0.7102  0.7433 -0.4144
 5708SOL    HW228761   2.150   1.505   3.223 -0.2938  1.0116 -0.5641
 5709SOL     OW28762   3.728   2.895   8.780  0.1859 -0.6468 -0.1184
 5709SOL    HW128763   3.786   2.822   8.758  0.8343  0.2466 -1.3949
 5709SOL    HW228764   3.729   2.936   8.693 -0.1135 -1.6969 -0.6141
 5710SOL     OW28765   4.669   1.970   2.858  0.2851  0.0286 -0.4553
 5710SOL    HW128766   4.682   2.032   2.786  0.1675 -2.3518 -2.5163
 5710SOL    HW228767   0.013   1.923   2.867  0.5460  0.5203 -0.2909
 5711SOL     OW28768   2.256   0.014   9.340 -0.2221  0.1544  0.1794
 5711SOL    HW128769   2.221   4.664   9.334  0.2707 -0.1459  1.6656
 5711SOL    HW228770   2.172   0.059   9.344  0.5779  1.6739  0.1836
 5712SOL     OW28771   0.229   1.319   2.295 -0.0171 -0.4169 -0.2594
 5712SOL    HW128772   0.219   1.345   2.387  0.8745  2.3014 -0.9361
 5712SOL    HW228773   0.292   1.388   2.273  1.7043 -1.7655  0.4569
 5713SOL     OW28774   3.768   1.751  14.459 -0.1936  0.6958  0.1405
 5713SOL    HW128775   3.760   1.686  14.389  1.6491 -1.7535  2.2150
 5713SOL    HW228776   3.767   1.831  14.406 -0.4976  0.1048 -0.7601
 5714SOL     OW28777   1.944   3.291   6.192 -0.3452  0.1370  0.5532
 5714SOL    HW128778   1.880   3.224   6.170 -0.0549  0.6754 -1.9728
 5714SOL    HW228779   2.029   3.252   6.171 -0.3280  0.6433 -0.3461
 5715SOL     OW28780   3.630   2.547   6.109 -0.3670  0.0466  0.0144
 5715SOL    HW128781   3.599   2.540   6.019 -1.8240  0.0144  0.5187
 5715SOL    HW228782   3.720   2.578   6.095  0.2108 -1.9610 -0.7866
 5716SOL     OW28783   1.047   3.591   3.676  0.0615 -0.0601 -0.4285
 5716SOL    HW128784   1.104   3.515   3.666 -0.5223 -0.3680 -1.4516
 5716SOL    HW228785   0.975   3.557   3.728  0.8423 -0.9596  0.0555
 5717SOL     OW28786   1.626   1.199   2.512 -0.3163  0.2882  0.6680
 5717SOL    HW128787   1.664   1.278   2.475 -1.9606  0.1916 -1.2178
 5717SOL    HW228788   1.535   1.227   2.522 -0.3817  1.1092 -2.4728
 5718SOL     OW28789   0.295   0.481   8.832 -0.1306  0.3230  0.4792
 5718SOL    HW128790   0.369   0.469   8.891 -1.5500  3.9483  2.9771
 5718SOL    HW228791   0.299   0.413   8.764  1.5187  0.2885  0.6223
 5719SOL     OW28792   2.053   4.548   2.758  0.2122 -1.0448  0.2676
 5719SOL    HW128793   2.091   4.592   2.834  0.6840 -0.9917  0.0050
 5719SOL    HW228794   2.060   4.459   2.793  0.4181 -0.6823  1.1421
 5720SOL     OW28795   2.852   4.281  14.760  0.3240 -0.2748  0.1341
 5720SOL    HW128796   2.823   4.256  14.673 -1.0067 -1.0490  0.7981
 5720SOL    HW228797   2.809   4.212  14.811  1.7030 -0.5294  0.9500
 5721SOL     OW28798   1.481   1.422   6.308 -0.2902  0.2241 -0.0841
 5721SOL    HW128799   1.388   1.429   6.283 -0.4032 -1.7540 -0.2279
 5721SOL    HW228800   1.527   1.381   6.235  0.3322 -1.1113  1.0695
 5722SOL     OW28801   0.962   3.683   5.860 -0.3015  0.0038 -0.3269
 5722SOL    HW128802   1.053   3.656   5.866  1.0168  4.4714 -0.4059
 5722SOL    HW228803   0.923   3.630   5.930  1.6507 -0.9854  0.0018
 5723SOL     OW28804   4.587   2.343   8.799  0.3327  0.1214  0.1536
 5723SOL    HW128805   4.646   2.317   8.728  1.8488 -2.1648  2.2598
 5723SOL    HW228806   4.507   2.295   8.778  1.3309 -3.3424  4.2291
 5724SOL     OW28807   3.268   0.549  10.856 -0.2118 -0.1489  0.0681
 5724SOL    HW128808   3.245   0.559  10.764 -1.1547  0.8995  0.4203
 5724SOL    HW228809   3.183   0.559  10.900  0.7433  1.0836  1.6321
 5725SOL     OW28810   4.571   4.660   8.149 -0.1248  0.7995  0.6211
 5725SOL    HW128811   4.655   4.634   8.113 -1.1858  1.6468 -2.4372
 5725SOL    HW228812   4.531   4.682   8.065  0.8168  3.6903  0.9386
 5726SOL     OW28813   0.704   0.526  14.515 -0.0049  0.2913 -0.1843
 5726SOL    HW128814   0.719   0.619  14.498 -0.9508  0.5216  0.2041
 5726SOL    HW228815   0.636   0.531  14.583 -0.8606  0.5190 -1.0486
 5727SOL     OW28816   0.349   3.145   5.525  0.0772 -0.1729  0.2516
 5727SOL    HW128817   0.385   3.120   5.610 -0.0397  1.1939  0.6918
 5727SOL    HW228818   0.419   3.191   5.479 -0.0551 -1.5302 -1.3222
 5728SOL     OW28819   3.587   2.139   3.692  0.0601 -0.4346  0.0398
 5728SOL    HW128820   3.544   2.058   3.668 -0.9369  0.0093  0.3281
 5728SOL    HW228821   3.651   2.113   3.758 -1.3711  0.1110  1.6629
 5729SOL     OW28822   3.349   4.008   3.577  0.0929  0.0493 -0.0394
 5729SOL    HW128823   3.304   3.951   3.640 -1.1706  1.8400  0.6630
 5729SOL    HW228824   3.280   4.014   3.512  0.4656  0.4208 -0.4029
 5730SOL     OW28825   3.256   0.124   4.251  0.1791  0.1892 -0.0293
 5730SOL    HW128826   3.312   0.198   4.230  0.9301 -0.6528 -0.9915
 5730SOL    HW228827   3.294   0.048   4.207 -1.0639 -2.2257  3.0526
 5731SOL     OW28828   0.330   4.244   6.372 -0.2723  0.0224 -0.6900
 5731SOL    HW128829   0.391   4.170   6.369  0.3288  0.4722  0.6199
 5731SOL    HW228830   0.292   4.253   6.284 -1.2350  1.7830 -0.1014
 5732SOL     OW28831   0.921   0.201  15.746 -0.4307 -0.4894  0.1319
 5732SOL    HW128832   1.005   0.171  15.780 -0.5640 -0.1210  0.7712
 5732SOL    HW228833   0.906   0.281  15.796 -0.6827 -1.9959  2.4456
 5733SOL     OW28834   2.999   1.140  15.247 -0.3819  0.0421  0.0780
 5733SOL    HW128835   3.001   1.236  15.246 -3.8699  0.0863 -0.0887
 5733SOL    HW228836   2.908   1.111  15.244 -0.5023  0.4949 -0.8355
 5734SOL     OW28837   2.568   1.070   3.715  0.2503  0.0172 -0.2585
 5734SOL    HW128838   2.528   1.007   3.774  1.0360 -1.6320 -1.4945
 5734SOL    HW228839   2.563   1.153   3.763  1.0066 -0.7365  1.1360
 5735SOL     OW28840   3.369   3.105   9.107  0.3968 -0.4186 -0.0038
 5735SOL    HW128841   3.416   3.128   9.187 -1.1864 -1.7220  1.2851
 5735SOL    HW228842   3.433   3.126   9.039 -1.8695 -1.1841 -2.3543
 5736SOL     OW28843   3.786   3.328   6.987  0.1076 -0.0796  0.0473
 5736SOL    HW128844   3.860   3.353   6.933  0.3362 -2.1808 -0.6285
 5736SOL    HW228845   3.827   3.269   7.050 -1.5480  1.9202  2.9888
 5737SOL     OW28846   2.103   0.138  14.210  0.1343 -0.2552  0.0757
 5737SOL    HW128847   2.097   0.233  14.215  1.6224 -0.1131 -0.7129
 5737SOL    HW228848   2.029   0.114  14.266 -0.3351  0.1402 -0.3765
 5738SOL     OW28849   3.118   3.070   2.290 -0.0608 -0.0171  0.4473
 5738SOL    HW128850   3.141   3.148   2.240 -0.5694  0.0889  0.3819
 5738SOL    HW228851   3.054   3.104   2.353 -0.2913  1.2815 -0.5094
 5739SOL     OW28852   2.052   1.036  16.129  0.2908  0.1106  0.5690
 5739SOL    HW128853   2.089   1.073  16.048  0.3539 -0.8690  0.1451
 5739SOL    HW228854   2.002   1.111  16.160 -1.2217 -0.2597 -0.9396
 5740SOL     OW28855   4.582   4.485   4.430  0.4455  0.0829  0.4360
 5740SOL    HW128856   4.549   4.562   4.384  0.3446 -0.8979 -1.1213
 5740SOL    HW228857   4.531   4.412   4.396  0.2505  0.4724 -0.1124
 5741SOL     OW28858   2.474   0.184   2.071  0.4889  0.4752 -0.1512
 5741SOL    HW128859   2.390   0.151   2.039  0.2817 -0.0880  0.9753
 5741SOL    HW228860   2.468   0.280   2.065  0.0223  0.5672  1.7368
 5742SOL     OW28861   3.452   0.830   8.754  0.0736  0.0799  0.2746
 5742SOL    HW128862   3.423   0.756   8.701 -0.6003 -0.3106  1.1860
 5742SOL    HW228863   3.379   0.892   8.746  0.2848  0.1379 -1.1623
 5743SOL     OW28864   0.409   1.642   4.717 -0.4116 -0.8608  0.2389
 5743SOL    HW128865   0.341   1.674   4.657  1.2844  0.2668 -1.0733
 5743SOL    HW228866   0.362   1.625   4.798 -2.3516  0.7976 -0.5172
 5744SOL     OW28867   4.561   0.587  10.883  0.1199  0.1703 -0.4120
 5744SOL    HW128868   4.593   0.497  10.883  2.1214  0.8747 -1.2822
 5744SOL    HW228869   4.469   0.573  10.861  0.0498 -0.1173  0.0595
 5745SOL     OW28870   3.100   3.306   2.139  0.4286  0.1300 -0.6597
 5745SOL    HW128871   3.104   3.344   2.052  0.7176  0.3902 -0.5293
 5745SOL    HW228872   3.125   3.380   2.194 -0.2202  0.1231 -0.3545
 5746SOL     OW28873   0.219   0.896   3.702 -0.6076  0.2672  0.1773
 5746SOL    HW128874   0.306   0.862   3.680  0.0011  2.2026 -0.4120
 5746SOL    HW228875   0.186   0.914   3.614 -1.9709  2.9851  1.2317
 5747SOL     OW28876   2.912   1.892   0.762 -0.1852 -0.5156  0.3784
 5747SOL    HW128877   2.971   1.911   0.835  2.2539  0.8785 -2.0047
 5747SOL    HW228878   2.889   1.802   0.784  1.2548 -0.9630  0.0611
 5748SOL     OW28879   1.884   0.621   7.572 -0.5833  0.2746 -0.9386
 5748SOL    HW128880   1.975   0.615   7.603  0.3917 -1.4900 -4.1746
 5748SOL    HW228881   1.873   0.531   7.541  2.4509 -1.0596  1.8256
 5749SOL     OW28882   3.841   3.320   4.699 -0.2418 -0.2804  0.5986
 5749SOL    HW128883   3.883   3.316   4.785  2.1869 -0.2819 -0.5873
 5749SOL    HW228884   3.911   3.279   4.649 -0.4068 -1.6134  1.4573
 5750SOL     OW28885   3.558   2.590  14.973 -0.2880  0.0505  0.5658
 5750SOL    HW128886   3.519   2.676  14.983 -0.5497 -0.2085  1.8043
 5750SOL    HW228887   3.634   2.618  14.922 -0.6265 -1.5909 -0.8426
 5751SOL     OW28888   4.290   0.880   2.423  0.4890  0.0585 -0.3527
 5751SOL    HW128889   4.303   0.855   2.331  0.0658 -1.1562 -0.0857
 5751SOL    HW228890   4.348   0.819   2.468 -0.3969  0.7889  1.7664
 5752SOL     OW28891   2.629   3.389   8.149 -0.2123  0.0510 -0.1516
 5752SOL    HW128892   2.566   3.461   8.144  0.3776  0.6929  1.5795
 5752SOL    HW228893   2.593   3.343   8.073  2.3668 -1.5729 -0.4031
 5753SOL     OW28894   0.092   3.537   3.698  0.2671 -0.2935 -0.2415
 5753SOL    HW128895   0.096   3.618   3.749  2.9678  0.1997 -1.2636
 5753SOL    HW228896   0.070   3.484   3.775  1.1928  0.9867  0.8954
 5754SOL     OW28897   2.884   2.822   7.101 -0.0948  0.3120  0.7200
 5754SOL    HW128898   2.916   2.889   7.041 -1.3249 -0.4387 -0.7609
 5754SOL    HW228899   2.823   2.878   7.149 -0.7524 -1.7073  2.2084
 5755SOL     OW28900   1.719   1.098   6.759 -0.3760 -0.1433  0.2214
 5755SOL    HW128901   1.678   1.122   6.842  0.4112  1.5856  0.1163
 5755SOL    HW228902   1.811   1.100   6.786 -0.0996 -0.6179 -0.6869
 5756SOL     OW28903   4.711   3.902   9.702  0.5165  0.4396  0.6365
 5756SOL    HW128904   0.034   3.865   9.765  2.2977  1.4916 -0.4820
 5756SOL    HW228905   0.009   3.867   9.621  1.6885 -0.9114  1.7604
 5757SOL     OW28906   3.920   3.454   0.498 -0.9546  0.0418  0.0580
 5757SOL    HW128907   3.890   3.513   0.429 -1.9565 -1.7022 -0.9960
 5757SOL    HW228908   3.939   3.374   0.448 -0.1067  0.9547 -1.0894
 5758SOL     OW28909   4.305   3.729   4.239  0.1281  0.5385  0.7630
 5758SOL    HW128910   4.235   3.710   4.302  0.6580 -0.7462  0.9759
 5758SOL    HW228911   4.377   3.726   4.302  1.7492 -2.5690 -1.2094
 5759SOL     OW28912   1.257   0.556   3.852  0.4415 -0.3274 -0.1409
 5759SOL    HW128913   1.196   0.483   3.853  0.1706 -0.1119 -0.8059
 5759SOL    HW228914   1.219   0.603   3.927 -0.3880 -0.4165 -0.5064
 5760SOL     OW28915   3.190   1.525   8.509  0.1129 -0.2487  0.2620
 5760SOL    HW128916   3.265   1.530   8.568 -1.1386 -2.0088  2.0154
 5760SOL    HW228917   3.222   1.465   8.441  1.1812  1.7497 -1.0034
 5761SOL     OW28918   0.371   0.509   5.377  0.2063 -0.4323 -0.1593
 5761SOL    HW128919   0.280   0.493   5.402  0.3201  1.2459  1.2854
 5761SOL    HW228920   0.402   0.422   5.351  1.3006 -0.3665  0.9498
 5762SOL     OW28921   4.211   4.192   1.775  0.2794  0.0863 -0.5042
 5762SOL    HW128922   4.221   4.248   1.698 -1.0307 -2.8316 -2.7987
 5762SOL    HW228923   4.183   4.111   1.732  1.5060 -0.7053  0.1714
 5763SOL     OW28924   2.330   3.423  10.996  0.3797 -0.5817  0.0697
 5763SOL    HW128925   2.265   3.419  10.925  1.7317  0.9913 -1.2698
 5763SOL    HW228926   2.284   3.382  11.069 -0.1029  0.1772  0.1949
 5764SOL     OW28927   0.263   2.373   8.859  0.0785 -0.9101  0.4894
 5764SOL    HW128928   0.308   2.376   8.943  1.5793 -0.5435 -0.3301
 5764SOL    HW228929   0.216   2.290   8.864  0.0768 -0.8788  0.9394
 5765SOL     OW28930   1.583   0.182   1.621 -0.1266 -0.4245 -0.3140
 5765SOL    HW128931   1.577   0.155   1.712 -2.4661  1.7701  0.1756
 5765SOL    HW228932   1.603   0.275   1.632 -0.7146 -0.4080  0.6222
 5766SOL     OW28933   3.103   3.831   5.827  0.2545 -0.0971 -0.3960
 5766SOL    HW128934   3.152   3.889   5.885 -0.0626  0.0549 -0.2781
 5766SOL    HW228935   3.111   3.866   5.738  1.6227  1.4252  0.3206
 5767SOL     OW28936   0.485   0.748  17.290  0.3045  0.0503  0.6942
 5767SOL    HW128937   0.469   0.809  17.362  0.1142  0.9657 -0.1104
 5767SOL    HW228938   0.480   0.666  17.337  1.9420 -2.2428 -3.1335
 5768SOL     OW28939   4.172   4.595   4.854  0.0948 -0.7470 -0.8707
 5768SOL    HW128940   4.100   4.542   4.819 -0.8303  0.4634 -0.8096
 5768SOL    HW228941   4.136   4.681   4.830  0.8637 -0.2537 -0.2696
 5769SOL     OW28942   2.359   3.182  12.815 -0.1121 -0.5840 -0.0873
 5769SOL    HW128943   2.393   3.265  12.847  1.5746 -1.4855  0.4381
 5769SOL    HW228944   2.421   3.121  12.856  0.8989  0.7545  0.3923
 5770SOL     OW28945   3.152   1.881   3.545  0.2482  0.2019  0.3593
 5770SOL    HW128946   3.169   1.897   3.638 -2.0795  1.5278  0.5538
 5770SOL    HW228947   3.083   1.815   3.538 -0.0109  0.7757 -2.4621
 5771SOL     OW28948   2.566   0.712   4.802 -0.3370 -0.4252 -0.1549
 5771SOL    HW128949   2.552   0.677   4.891  1.4748 -1.5350 -0.3074
 5771SOL    HW228950   2.643   0.663   4.774  2.8370  4.0699  0.8018
 5772SOL     OW28951   1.847   1.755   7.646  0.0842  0.0767 -0.7223
 5772SOL    HW128952   1.826   1.686   7.709 -0.5543  1.3322  0.4474
 5772SOL    HW228953   1.761   1.768   7.606  0.1161 -0.6884 -1.0389
 5773SOL     OW28954   2.679   3.983   4.998  0.5052 -0.0956  0.1207
 5773SOL    HW128955   2.658   4.043   4.926  1.0747 -0.3968 -0.2970
 5773SOL    HW228956   2.757   4.024   5.034 -1.7164  3.9449  0.3396
 5774SOL     OW28957   0.636   0.688   4.889 -0.4921 -0.4999 -0.4818
 5774SOL    HW128958   0.673   0.732   4.812 -2.8833  0.9120 -0.8351
 5774SOL    HW228959   0.632   0.595   4.868 -0.1162 -0.0456 -2.6040
 5775SOL     OW28960   1.079   1.971  16.267 -0.1404 -0.1036 -0.1921
 5775SOL    HW128961   0.995   1.931  16.289  1.0187 -3.3218 -1.5807
 5775SOL    HW228962   1.111   1.900  16.210 -1.9256 -1.5263  0.5606
 5776SOL     OW28963   2.122   2.330   5.615 -0.7532  0.7802  0.2606
 5776SOL    HW128964   2.193   2.307   5.554  1.2706  1.7755  2.2397
 5776SOL    HW228965   2.095   2.411   5.573 -0.4915  0.8126  0.1549
 5777SOL     OW28966   1.927   0.241   2.824  0.7725  0.1784  0.8144
 5777SOL    HW128967   1.995   0.291   2.868  0.5358 -1.3575  2.8963
 5777SOL    HW228968   1.875   0.214   2.900  1.7023  0.8275  1.6719
 5778SOL     OW28969   0.744   3.811   7.379  0.2233 -0.2816  0.0602
 5778SOL    HW128970   0.770   3.857   7.299 -3.5676  0.5167 -0.7105
 5778SOL    HW228971   0.783   3.724   7.367  2.2677  0.4745  1.0908
 5779SOL     OW28972   0.944   0.542   3.747  0.0720 -0.3461  0.2143
 5779SOL    HW128973   0.983   0.457   3.726  0.5001 -0.1834  0.3380
 5779SOL    HW228974   0.885   0.555   3.673 -0.9469  1.5765  1.3571
 5780SOL     OW28975   4.649   1.633   4.186  0.1959 -0.4882  0.2246
 5780SOL    HW128976   4.633   1.715   4.232  1.6077 -0.3756  0.5058
 5780SOL    HW228977   4.560   1.606   4.163  0.0225  0.0012  0.3180
 5781SOL     OW28978   0.987   4.163   2.006  0.4371  0.1996 -0.2508
 5781SOL    HW128979   0.913   4.104   1.998  0.9674 -0.4601 -0.3053
 5781SOL    HW228980   1.039   4.128   2.078  0.7413 -3.7010 -2.3804
 5782SOL     OW28981   0.147   2.293   4.349  0.4219 -0.4767  0.4409
 5782SOL    HW128982   0.210   2.286   4.421  1.5476 -3.1157 -0.7775
 5782SOL    HW228983   0.143   2.388   4.343 -1.6994 -0.6509 -0.7004
 5783SOL     OW28984   3.493   1.967   6.579  0.3650  0.0807  0.3747
 5783SOL    HW128985   3.429   1.994   6.514 -1.1993  0.9707  2.2952
 5783SOL    HW228986   3.561   2.034   6.567  2.8369 -2.7509 -1.4663
 5784SOL     OW28987   3.647   0.436  10.730  0.2373 -0.0525  0.9804
 5784SOL    HW128988   3.608   0.364  10.681  1.4609  0.6674 -1.0724
 5784SOL    HW228989   3.731   0.401  10.760  1.0457  0.2320 -0.9085
 5785SOL     OW28990   4.014   1.038   7.621 -0.5890  0.1676 -0.2009
 5785SOL    HW128991   4.033   0.984   7.545  1.1293  0.0866  0.2934
 5785SOL    HW228992   4.025   0.967   7.685  0.5647 -0.0770 -0.6706
 5786SOL     OW28993   3.515   4.021   4.447  0.1155 -0.3626 -0.0440
 5786SOL    HW128994   3.552   3.979   4.525  0.4611 -1.6823 -0.9067
 5786SOL    HW228995   3.573   4.096   4.438 -1.0696  0.4444 -0.9025
 5787SOL     OW28996   3.816   0.770   4.133  0.1011  0.6900 -0.3573
 5787SOL    HW128997   3.903   0.772   4.171  1.0737 -0.0210 -2.5030
 5787SOL    HW228998   3.839   0.764   4.040 -2.7894  0.3537 -1.0413
 5788SOL     OW28999   3.926   2.520   3.969 -0.1204 -0.5267 -0.0157
 5788SOL    HW129000   3.856   2.581   3.946 -0.1163  0.7914  3.4619
 5788SOL    HW229001   3.982   2.525   3.891 -2.7092  2.0526 -1.7327
 5789SOL     OW29002   3.430   0.288  17.141  0.2387  0.0228  0.1580
 5789SOL    HW129003   3.500   0.242  17.094  0.5265  0.7705 -0.1461
 5789SOL    HW229004   3.358   0.226  17.146  1.7450 -1.6319  1.3186
 5790SOL     OW29005   4.708   3.559   9.797  0.0413 -0.3561 -0.2305
 5790SOL    HW129006   4.678   3.600   9.879 -1.5702  1.2244 -1.6180
 5790SOL    HW229007   0.044   3.507   9.826 -1.2658 -2.6184 -0.9307
 5791SOL     OW29008   0.913   0.805   2.410  0.1138 -0.6678  0.2464
 5791SOL    HW129009   0.986   0.798   2.348  0.6082  0.9209  0.6538
 5791SOL    HW229010   0.844   0.839   2.354 -0.8536  0.8859  2.3967
 5792SOL     OW29011   4.488   2.524   7.713 -0.0585 -0.4646  0.3849
 5792SOL    HW129012   4.523   2.435   7.714 -2.2602 -1.3429  0.0790
 5792SOL    HW229013   4.556   2.574   7.758 -0.5942  0.3727  0.2687
 5793SOL     OW29014   3.453   2.670   0.236  0.5659  0.2712 -0.5400
 5793SOL    HW129015   3.487   2.649   0.149 -0.0732 -2.5915 -0.0668
 5793SOL    HW229016   3.505   2.747   0.261  1.4401 -0.9270  1.3535
 5794SOL     OW29017   3.154   0.793   2.167 -0.4695  0.0322  0.0262
 5794SOL    HW129018   3.242   0.757   2.177 -0.4591  0.0113 -0.1389
 5794SOL    HW229019   3.160   0.819   2.075  1.7123  2.4060  0.8251
 5795SOL     OW29020   2.740   2.711   2.120  0.5374 -0.1028  0.2177
 5795SOL    HW129021   2.720   2.694   2.212  2.3713 -0.1733  0.6088
 5795SOL    HW229022   2.658   2.685   2.078  0.6089  1.3990 -0.8374
 5796SOL     OW29023   2.128   4.353  10.879 -0.0939  0.4708  0.1723
 5796SOL    HW129024   2.205   4.380  10.930  0.2488  0.3754 -0.2993
 5796SOL    HW229025   2.077   4.434  10.879 -0.1024  0.4579  3.3983
 5797SOL     OW29026   1.852   4.138   2.550  0.2692 -0.2302  0.6560
 5797SOL    HW129027   1.940   4.102   2.564  1.3239  1.4922 -1.6085
 5797SOL    HW229028   1.821   4.154   2.639  1.2956  0.2672  0.9266
 5798SOL     OW29029   1.376   3.801  12.000 -0.1213  0.1516 -0.6044
 5798SOL    HW129030   1.329   3.808  12.083 -1.3504  0.4366 -1.3205
 5798SOL    HW229031   1.414   3.714  12.007 -0.1583  0.1376 -0.5796
 5799SOL     OW29032   2.453   1.424   0.120 -0.0312 -0.1852  0.4328
 5799SOL    HW129033   2.515   1.447   0.052  0.0448  1.6176  1.0926
 5799SOL    HW229034   2.499   1.346   0.150  1.0154 -0.1885 -1.1936
 5800SOL     OW29035   1.140   4.589   8.561  0.2444 -0.6732  0.7096
 5800SOL    HW129036   1.184   4.643   8.627  3.7577 -2.3056 -0.3355
 5800SOL    HW229037   1.070   4.553   8.616 -1.9047  2.5438  0.1223
 5801SOL     OW29038   0.785   0.263  14.620  0.3812  0.0096  0.0519
 5801SOL    HW129039   0.839   0.229  14.549 -1.1190 -0.7279 -0.7577
 5801SOL    HW229040   0.728   0.315  14.564 -1.0450  1.0952  2.5015
 5802SOL     OW29041   3.854   3.609   9.210  0.3450  0.2677  0.6739
 5802SOL    HW129042   3.943   3.645   9.204  0.4315 -0.0315  0.1838
 5802SOL    HW229043   3.865   3.532   9.266 -0.6141 -1.1088 -1.0407
 5803SOL     OW29044   3.961   2.203   2.275  0.3985  0.2217  0.0601
 5803SOL    HW129045   3.978   2.116   2.239 -0.3590 -0.2361  0.8294
 5803SOL    HW229046   3.904   2.236   2.205 -0.2595 -1.9013 -0.3945
 5804SOL     OW29047   2.719   0.540  15.449  0.0024  0.5419 -0.0044
 5804SOL    HW129048   2.710   0.449  15.421  0.1726  0.0074  1.7392
 5804SOL    HW229049   2.678   0.527  15.534  1.3474  2.1838  0.8860
 5805SOL     OW29050   0.829   3.561   1.671 -0.5475 -0.3435 -0.1643
 5805SOL    HW129051   0.915   3.534   1.638 -0.8142 -0.9809 -0.3469
 5805SOL    HW229052   0.773   3.484   1.660 -0.0561 -0.3798 -2.4975
 5806SOL     OW29053   0.714   2.108   1.366  0.1398  0.0436  0.3450
 5806SOL    HW129054   0.797   2.090   1.322 -0.3267 -0.0940 -0.4869
 5806SOL    HW229055   0.670   2.026   1.345 -1.5401  1.3348 -1.2664
 5807SOL     OW29056   3.566   4.453   6.396 -0.4565 -0.9747 -0.0351
 5807SOL    HW129057   3.655   4.459   6.360  0.1508 -0.7909  1.4833
 5807SOL    HW229058   3.545   4.542   6.425  0.3389 -0.5395 -0.7819
 5808SOL     OW29059   1.841   1.685   1.516 -0.5585 -0.6729  0.0274
 5808SOL    HW129060   1.779   1.747   1.554  0.2278  0.1248  0.0047
 5808SOL    HW229061   1.837   1.695   1.421  0.5181 -1.1236 -0.0572
 5809SOL     OW29062   1.436   3.684   3.699  0.5608  0.2232 -0.4659
 5809SOL    HW129063   1.526   3.652   3.684  0.1342 -0.5787 -1.3359
 5809SOL    HW229064   1.382   3.617   3.657 -1.8481  1.2415  1.0363
 5810SOL     OW29065   4.650   4.272  10.956  0.0560  0.0664  0.2288
 5810SOL    HW129066   4.655   4.268  11.052 -1.4819 -2.0275  0.2313
 5810SOL    HW229067   4.592   4.197  10.940  0.4563 -0.6643  2.2426
 5811SOL     OW29068   2.605   4.505   2.416 -0.1697 -0.1420  0.3686
 5811SOL    HW129069   2.528   4.514   2.472 -0.1108  0.8875  0.2764
 5811SOL    HW229070   2.645   4.587   2.445 -1.4601  0.7895 -0.4612
 5812SOL     OW29071   0.870   4.169   6.310 -0.3891 -0.7879  0.1760
 5812SOL    HW129072   0.826   4.221   6.242 -1.0599 -1.8795 -0.2208
 5812SOL    HW229073   0.944   4.128   6.266  0.9978  1.8715 -0.0146
 5813SOL     OW29074   1.100   0.932   7.523  0.3089  0.8627 -0.2343
 5813SOL    HW129075   1.072   1.009   7.475 -0.6442 -0.5047 -1.8817
 5813SOL    HW229076   1.157   0.891   7.458 -1.8110 -0.7214 -1.1236
 5814SOL     OW29077   4.693   2.613   1.600 -0.1097  0.1128  0.2609
 5814SOL    HW129078   4.663   2.527   1.569 -0.2124  0.2363  0.0122
 5814SOL    HW229079   0.047   2.588   1.604  0.3912  2.1804  1.5838
 5815SOL     OW29080   1.134   0.340   5.167  0.0825  0.0129  0.6855
 5815SOL    HW129081   1.196   0.307   5.233  0.1964 -0.7978  0.1692
 5815SOL    HW229082   1.100   0.258   5.132  0.0650  0.7562 -1.0440
 5816SOL     OW29083   0.065   2.000  15.152 -0.3433  0.4973 -0.7616
 5816SOL    HW129084   0.053   1.985  15.058 -1.5859  0.3315 -0.5694
 5816SOL    HW229085   0.040   2.091  15.166 -0.7862 -0.0257  1.7398
 5817SOL     OW29086   1.457   0.920   5.305 -0.3475  0.7719  1.0801
 5817SOL    HW129087   1.454   0.922   5.209 -0.6183  0.7621  1.0867
 5817SOL    HW229088   1.396   0.988   5.335 -0.8637  0.7902 -0.0122
 5818SOL     OW29089   4.357   3.257   0.508  0.3552  0.1751  0.5840
 5818SOL    HW129090   4.367   3.262   0.603  2.0329  1.2546  0.3590
 5818SOL    HW229091   4.290   3.324   0.497 -0.9377 -1.5540 -2.1709
 5819SOL     OW29092   3.769   0.337   3.679  0.5035  0.2489  0.1927
 5819SOL    HW129093   3.847   0.379   3.642 -0.7369  1.9858 -0.4348
 5819SOL    HW229094   3.766   0.259   3.624  0.9631  1.8117 -2.0469
 5820SOL     OW29095   3.885   3.708   4.588 -0.3073 -0.1317 -0.9452
 5820SOL    HW129096   3.830   3.634   4.561 -2.1135  1.2983 -1.2174
 5820SOL    HW229097   3.918   3.674   4.672 -0.0735  1.2799 -0.4758
 5821SOL     OW29098   0.966   2.454   3.380 -0.3617 -0.1942 -0.3672
 5821SOL    HW129099   1.031   2.443   3.310  1.4825  1.3334  1.0804
 5821SOL    HW229100   0.885   2.479   3.336 -0.7180 -0.3222  0.2244
 5822SOL     OW29101   2.293   3.528   8.989  0.0788 -0.2560 -0.6381
 5822SOL    HW129102   2.294   3.509   8.895 -2.2552 -0.7652 -0.5507
 5822SOL    HW229103   2.236   3.604   8.981  0.6534  0.4491  2.1402
 5823SOL     OW29104   3.914   4.323   1.965  0.3423  0.0777 -0.0280
 5823SOL    HW129105   4.008   4.331   1.983  0.7998 -2.7458 -1.0923
 5823SOL    HW229106   3.872   4.332   2.050 -0.4623  0.7572 -0.4942
 5824SOL     OW29107   4.335   3.417   6.584  0.0067 -0.3235  0.0391
 5824SOL    HW129108   4.413   3.472   6.586 -0.3524  0.0889  2.8295
 5824SOL    HW229109   4.357   3.359   6.657 -0.2557 -2.4216 -1.5199
 5825SOL     OW29110   4.556   3.245   9.396  0.6076  0.7809  0.4479
 5825SOL    HW129111   4.649   3.250   9.416  1.0595 -0.8821 -1.2468
 5825SOL    HW229112   4.522   3.323   9.439  0.7161  2.3367 -2.2794
 5826SOL     OW29113   0.258   0.782  16.016  0.1158 -0.2330  0.0510
 5826SOL    HW129114   0.172   0.754  16.046  1.3512 -0.1918  3.6385
 5826SOL    HW229115   0.317   0.711  16.043  1.6207  1.6674  1.7477
 5827SOL     OW29116   2.368   2.885  10.523  0.2486  0.4025  0.1214
 5827SOL    HW129117   2.448   2.834  10.509  0.6240  0.8155  0.7797
 5827SOL    HW229118   2.379   2.905  10.616 -0.3410  1.5246 -0.0522
 5828SOL     OW29119   3.855   3.505  13.008  0.2113  0.5226 -0.2684
 5828SOL    HW129120   3.819   3.565  13.074  0.2810  0.9349 -0.6064
 5828SOL    HW229121   3.798   3.429  13.020  2.1765 -0.7018  1.3535
 5829SOL     OW29122   2.382   1.849  17.501 -0.4938  0.5079 -0.3713
 5829SOL    HW129123   2.400   1.895  17.419 -1.2245 -1.9279 -1.9054
 5829SOL    HW229124   2.338   1.773  17.463  0.4896 -1.1087  1.6887
 5830SOL     OW29125   3.433   0.790   0.415  0.3847  0.1155  0.2557
 5830SOL    HW129126   3.449   0.723   0.482  0.4273  1.4716  1.5882
 5830SOL    HW229127   3.357   0.838   0.447 -0.7840 -0.9500 -0.9072
 5831SOL     OW29128   4.377   1.870   8.984 -0.1718  0.0771  0.3237
 5831SOL    HW129129   4.298   1.919   9.010  0.1069  0.7480 -0.0881
 5831SOL    HW229130   4.396   1.816   9.061 -0.9190 -0.7357 -0.0685
 5832SOL     OW29131   4.552   2.060   8.020 -0.1188  0.2688 -0.0689
 5832SOL    HW129132   4.464   2.093   8.037 -0.3932  0.0623 -1.0679
 5832SOL    HW229133   4.570   2.118   7.947  2.8710 -1.8299 -1.0106
 5833SOL     OW29134   1.577   1.765   1.650  0.0693 -0.8549 -0.3476
 5833SOL    HW129135   1.556   1.853   1.681  2.0327 -0.3749 -0.3736
 5833SOL    HW229136   1.645   1.744   1.713  0.0562  1.3605  0.4139
 5834SOL     OW29137   3.451   1.557   1.432  0.0078  0.2955 -0.1131
 5834SOL    HW129138   3.512   1.573   1.360  3.1993  1.0308  2.7965
 5834SOL    HW229139   3.369   1.527   1.392 -0.2370 -0.2833  0.8299
 5835SOL     OW29140   1.281   2.703  15.731 -0.2678 -0.3150  0.2370
 5835SOL    HW129141   1.367   2.669  15.708 -0.8490 -1.0588 -0.8424
 5835SOL    HW229142   1.283   2.707  15.827  1.2589  0.8756  0.1482
 5836SOL     OW29143   2.914   2.763   9.695  0.6376 -0.6626 -0.2290
 5836SOL    HW129144   2.840   2.824   9.702 -0.1726 -1.4003 -2.5171
 5836SOL    HW229145   2.876   2.683   9.662  1.3533 -1.9029  1.9393
 5837SOL     OW29146   2.938   2.650  16.739  0.2887 -0.4758 -0.3530
 5837SOL    HW129147   2.866   2.587  16.737  2.9550 -3.6085  1.9013
 5837SOL    HW229148   2.994   2.621  16.666  1.6250 -1.0350  0.8962
 5838SOL     OW29149   2.697   1.967  12.684 -0.5726  0.3351 -0.3547
 5838SOL    HW129150   2.702   1.929  12.772 -0.7446  0.5306 -0.2612
 5838SOL    HW229151   2.788   1.982  12.658 -0.6225  1.8204  0.3411
 5839SOL     OW29152   1.603   0.176   8.107 -0.2053  0.2113 -0.0684
 5839SOL    HW129153   1.608   0.272   8.109  0.2039  0.2163 -1.5740
 5839SOL    HW229154   1.530   0.162   8.048  0.3291  0.5961 -0.8164
 5840SOL     OW29155   0.036   1.201   2.127  0.3943  0.5642 -0.1806
 5840SOL    HW129156   4.713   1.140   2.169  1.2913 -0.0915  0.1848
 5840SOL    HW229157   0.076   1.249   2.199  0.6018 -0.1777  0.1990
 5841SOL     OW29158   2.537   2.499   1.410 -0.6463 -0.3643 -0.0452
 5841SOL    HW129159   2.555   2.492   1.316 -0.1187  1.2411 -0.0517
 5841SOL    HW229160   2.597   2.571   1.428 -0.1755 -0.9370  0.6896
 5842SOL     OW29161   4.105   1.351   0.326 -0.4525 -0.6621  0.5683
 5842SOL    HW129162   4.111   1.268   0.374  0.4500 -1.3564 -0.7377
 5842SOL    HW229163   4.014   1.374   0.346 -0.4647 -0.6625  0.5119
 5843SOL     OW29164   2.391   0.353   9.603  0.0988  0.1934  0.1156
 5843SOL    HW129165   2.469   0.357   9.657 -0.7456  2.5117  1.1386
 5843SOL    HW229166   2.424   0.287   9.541  1.6896  0.6586  0.4855
 5844SOL     OW29167   1.210   3.505  17.323  0.2397 -0.2809  0.0915
 5844SOL    HW129168   1.247   3.475  17.406  0.4590  1.4310  0.6144
 5844SOL    HW229169   1.286   3.503  17.265  0.5220  0.2306  0.4512
 5845SOL     OW29170   3.518   0.012   5.695 -0.2016  0.0901 -0.4803
 5845SOL    HW129171   3.608   0.032   5.670 -0.0005  1.6159  1.4165
 5845SOL    HW229172   3.500   4.664   5.660 -1.1074  0.1418 -0.1553
 5846SOL     OW29173   4.329   2.184   3.614 -0.0109 -0.5601 -0.4815
 5846SOL    HW129174   4.263   2.136   3.564  0.1650 -0.2062 -1.0579
 5846SOL    HW229175   4.355   2.239   3.540 -0.3108  0.5545  0.2424
 5847SOL     OW29176   2.601   1.203  13.761 -0.2582 -0.0883 -0.1042
 5847SOL    HW129177   2.551   1.175  13.685  1.1196 -0.3637 -0.9095
 5847SOL    HW229178   2.690   1.171  13.747  1.0645  2.4171  2.3672
 5848SOL     OW29179   2.389   0.905  13.395 -0.2665  0.0728 -0.8812
 5848SOL    HW129180   2.339   0.830  13.429  0.6336  0.8521  2.1677
 5848SOL    HW229181   2.474   0.864  13.380 -0.0595  0.3211 -0.4129
 5849SOL     OW29182   1.370   4.166   9.324 -0.2020 -0.4108  0.3989
 5849SOL    HW129183   1.407   4.254   9.325  0.1369 -0.5549  0.4793
 5849SOL    HW229184   1.294   4.173   9.381  0.1405 -1.0289  0.9335
 5850SOL     OW29185   3.918   2.801   3.079  0.0029 -0.0133  0.1745
 5850SOL    HW129186   3.858   2.805   3.005  0.3698  1.5702 -0.0466
 5850SOL    HW229187   3.878   2.869   3.134  1.4245  0.4514  0.6563
 5851SOL     OW29188   4.654   2.136  14.716 -0.7058  0.3168  0.0679
 5851SOL    HW129189   4.691   2.085  14.789  1.1386 -3.0629 -3.1742
 5851SOL    HW229190   4.719   2.107  14.651  1.8058  2.1341  1.7736
 5852SOL     OW29191   1.916   1.452  10.444  0.3916  0.2524 -0.2198
 5852SOL    HW129192   2.001   1.407  10.445  1.0752  1.6105  1.7112
 5852SOL    HW229193   1.937   1.538  10.481  2.2178  1.1612 -3.3508
 5853SOL     OW29194   3.035   3.790   7.199  0.0587 -0.1076 -0.1543
 5853SOL    HW129195   2.999   3.701   7.204 -2.2946  0.8004 -0.6771
 5853SOL    HW229196   3.013   3.813   7.290  0.4765  1.0739 -0.3577
 5854SOL     OW29197   0.091   0.150   4.956 -0.0377  0.0189  0.4242
 5854SOL    HW129198   0.021   0.170   4.894  1.2484  0.9961 -0.7106
 5854SOL    HW229199   0.123   0.065   4.925 -1.2730 -0.3013  0.0686
 5855SOL     OW29200   2.237   3.274  11.218 -0.0190 -0.2233 -0.2167
 5855SOL    HW129201   2.231   3.334  11.292 -3.0334 -0.1322 -0.5227
 5855SOL    HW229202   2.148   3.239  11.225 -0.9402  2.0692 -0.5082
 5856SOL     OW29203   3.605   3.359   4.074 -0.7811  0.3723  0.0470
 5856SOL    HW129204   3.538   3.310   4.122 -0.4608 -0.5655 -0.4549
 5856SOL    HW229205   3.574   3.448   4.091 -0.9340  0.4295 -0.5119
 5857SOL     OW29206   1.497   2.408   4.968  0.2651  0.4206 -0.5345
 5857SOL    HW129207   1.498   2.341   4.899  0.2430 -0.9774  0.8392
 5857SOL    HW229208   1.408   2.387   4.995 -0.3439  1.4612 -1.6861
 5858SOL     OW29209   1.225   2.898   2.867 -0.0512  0.2523 -0.0479
 5858SOL    HW129210   1.231   2.964   2.798  1.3503  2.6974  2.4143
 5858SOL    HW229211   1.275   2.828   2.826  1.0162  0.8613  0.2041
 5859SOL     OW29212   2.071   4.277   2.847 -0.1627 -0.1967  0.3634
 5859SOL    HW129213   2.098   4.185   2.841 -2.0032 -0.6288 -1.2070
 5859SOL    HW229214   2.011   4.282   2.922 -1.5214 -1.2537 -0.6534
 5860SOL     OW29215   1.459   1.749   6.381 -0.1574 -0.2711  0.1607
 5860SOL    HW129216   1.443   1.658   6.406  0.1412  0.1050  1.6908
 5860SOL    HW229217   1.525   1.746   6.449  0.8793 -0.7641 -0.8663
 5861SOL     OW29218   2.504   4.170   5.133 -0.2041  0.2530  0.3317
 5861SOL    HW129219   2.556   4.103   5.088  0.8762  0.9872  0.4566
 5861SOL    HW229220   2.551   4.248   5.101  1.8708 -0.9046  0.5770
 5862SOL     OW29221   3.546   1.422   2.997 -0.2378 -0.5630  0.7089
 5862SOL    HW129222   3.585   1.343   3.034 -1.2390 -1.5686 -0.3503
 5862SOL    HW229223   3.573   1.486   3.063  0.0057 -1.2875  1.3172
 5863SOL     OW29224   2.440   0.573  14.673 -0.6373  0.4330  0.0628
 5863SOL    HW129225   2.470   0.516  14.602  0.8204  1.2399  0.0263
 5863SOL    HW229226   2.371   0.524  14.717  0.5692  0.5687  2.1016
 5864SOL     OW29227   4.385   3.331   6.891  0.0163 -0.5966 -0.0454
 5864SOL    HW129228   4.369   3.273   6.965 -0.4186  0.8065  0.9629
 5864SOL    HW229229   4.432   3.270   6.834  1.2957  0.5681 -0.2360
 5865SOL     OW29230   4.724   1.439  10.511  0.1722  0.8172 -0.6031
 5865SOL    HW129231   4.731   1.371  10.578 -1.2412  0.5862 -0.6925
 5865SOL    HW229232   4.635   1.420  10.483 -0.1938  0.0581  1.1191
 5866SOL     OW29233   4.268   4.534   3.543  0.4386  0.2230  0.1099
 5866SOL    HW129234   4.290   4.610   3.597 -0.2326  0.0592  0.6157
 5866SOL    HW229235   4.183   4.513   3.580  1.0817 -0.5124  1.1852
 5867SOL     OW29236   3.399   2.572   3.990  0.3998  0.0900  0.2556
 5867SOL    HW129237   3.443   2.595   4.072  0.4385  1.7396 -0.2241
 5867SOL    HW229238   3.477   2.556   3.936 -0.3367 -0.0443 -0.7621
 5868SOL     OW29239   2.714   4.583  12.886  0.2815  0.4845 -0.5352
 5868SOL    HW129240   2.732   4.626  12.803 -1.5814  1.2423 -0.5550
 5868SOL    HW229241   2.800   4.572  12.926  0.5686 -1.3266 -1.6327
 5869SOL     OW29242   3.459   2.200   6.973 -0.5368  0.0834 -0.2933
 5869SOL    HW129243   3.365   2.217   6.973 -0.4853  0.3575  0.0809
 5869SOL    HW229244   3.491   2.250   6.898 -1.6593 -0.4060 -1.0977
 5870SOL     OW29245   1.033   1.752  12.163  0.1552  0.1349 -0.5903
 5870SOL    HW129246   1.049   1.671  12.115  0.5658 -0.2587  0.2130
 5870SOL    HW229247   1.111   1.755  12.219  0.1373  1.8134 -0.6524
 5871SOL     OW29248   2.780   3.973   6.609 -0.2982  0.2769 -0.4146
 5871SOL    HW129249   2.754   4.045   6.667 -2.0958 -0.4500 -0.3004
 5871SOL    HW229250   2.736   3.903   6.658 -0.4924  2.1971  2.1670
 5872SOL     OW29251   2.415   1.455  11.560  0.0156 -0.0821  0.1882
 5872SOL    HW129252   2.485   1.402  11.597 -0.3667  0.1515  1.2493
 5872SOL    HW229253   2.342   1.423  11.613  1.7283 -1.1037  1.9290
 5873SOL     OW29254   1.860   2.754   7.591  0.3698 -0.7568  0.2958
 5873SOL    HW129255   1.785   2.808   7.566  0.0002 -1.2987  0.2453
 5873SOL    HW229256   1.841   2.738   7.684  1.1450 -2.6315  0.1268
 5874SOL     OW29257   2.166   0.472   9.356 -0.0479  0.3366 -0.2647
 5874SOL    HW129258   2.174   0.567   9.348 -0.9918  0.5649  1.4848
 5874SOL    HW229259   2.251   0.462   9.313  0.0109  0.1334 -0.1002
 5875SOL     OW29260   4.257   4.668  15.445 -0.4109 -0.4539 -0.1868
 5875SOL    HW129261   4.232   4.625  15.363 -0.4344 -1.4252  0.3267
 5875SOL    HW229262   4.322   4.727  15.408 -1.5056  2.5007  2.6236
 5876SOL     OW29263   4.476   0.003   6.488 -0.2643  0.5900  0.6043
 5876SOL    HW129264   4.549   4.700   6.443 -1.4297  1.2029 -1.8687
 5876SOL    HW229265   4.406   4.689   6.449 -0.5424 -1.7170  4.2313
 5877SOL     OW29266   0.074   1.714   2.229  0.0402 -0.3741  0.4111
 5877SOL    HW129267   4.725   1.753   2.236  0.6489  1.0241  0.1939
 5877SOL    HW229268   0.059   1.629   2.270  2.5421  0.4056  2.9608
 5878SOL     OW29269   3.628   4.016   3.562 -0.2646  0.1450  0.6824
 5878SOL    HW129270   3.652   3.929   3.593  0.6436  0.1149 -0.1099
 5878SOL    HW229271   3.533   4.019   3.576 -0.1492 -0.1597  1.5087
 5879SOL     OW29272   3.216   0.597  11.887  0.0360 -0.1139 -0.2291
 5879SOL    HW129273   3.235   0.506  11.866 -0.3614 -0.9570  3.0857
 5879SOL    HW229274   3.306   0.627  11.890  0.3521 -0.9611 -1.3526
 5880SOL     OW29275   4.735   3.320  12.837  0.2404 -0.3852 -0.0684
 5880SOL    HW129276   4.713   3.251  12.900 -0.2872  0.5143  0.7372
 5880SOL    HW229277   4.709   3.293  12.749 -0.4463 -0.7388  0.2508
 5881SOL     OW29278   3.000   4.286  11.942  0.1578  0.2227 -0.1650
 5881SOL    HW129279   2.997   4.333  11.859  1.5580 -1.0940 -0.9464
 5881SOL    HW229280   3.095   4.276  11.945 -0.0647 -0.8314  3.4627
 5882SOL     OW29281   4.319   2.790  17.292  0.0223 -0.3877 -0.6397
 5882SOL    HW129282   4.337   2.699  17.270 -0.1206 -1.0507  1.9836
 5882SOL    HW229283   4.309   2.781  17.386  1.5493 -1.7761 -0.6176
 5883SOL     OW29284   4.739   1.157  12.915 -0.5006  0.1574 -0.1127
 5883SOL    HW129285   4.728   1.067  12.947 -0.4149  1.2289  2.8597
 5883SOL    HW229286   4.664   1.194  12.962  0.0245  0.1782  0.6918
 5884SOL     OW29287   2.477   0.262  14.231 -0.0192 -0.0092 -0.0137
 5884SOL    HW129288   2.422   0.309  14.168  0.7148  0.5076 -0.2725
 5884SOL    HW229289   2.561   0.290  14.195  0.1909  0.1299  0.5789
 5885SOL     OW29290   3.619   1.672   6.569  0.2751 -0.2689  0.1806
 5885SOL    HW129291   3.611   1.739   6.501  1.1077  0.4672  0.8185
 5885SOL    HW229292   3.709   1.642   6.560  0.0948 -0.6431 -0.3837
 5886SOL     OW29293   4.175   2.308   2.444  0.0362  0.7822  0.7224
 5886SOL    HW129294   4.100   2.286   2.389 -0.3696  4.1097 -0.0506
 5886SOL    HW229295   4.234   2.232   2.441  0.6588  1.2512  1.0747
 5887SOL     OW29296   1.713   4.408  15.273  0.0961  0.0530  0.1220
 5887SOL    HW129297   1.635   4.354  15.260  1.6747 -2.0231 -0.6487
 5887SOL    HW229298   1.680   4.493  15.244 -0.1513 -0.1367 -0.1544
 5888SOL     OW29299   1.268   0.065   3.121  0.3262  0.4838  0.3425
 5888SOL    HW129300   1.267   0.055   3.217  0.7428  0.3556  0.3331
 5888SOL    HW229301   1.267   0.160   3.114 -2.7774  0.4727  0.7178
 5889SOL     OW29302   1.589   0.811   4.569 -0.0456  0.1552  0.2840
 5889SOL    HW129303   1.588   0.716   4.583  0.4478 -0.0768 -1.3155
 5889SOL    HW229304   1.613   0.837   4.658  1.1612  0.8817 -0.2685
 5890SOL     OW29305   2.763   2.641  14.343 -0.1610 -0.1828  0.9031
 5890SOL    HW129306   2.848   2.685  14.346  0.7267 -1.8265 -0.4514
 5890SOL    HW229307   2.715   2.656  14.425  1.0595  5.1062  0.6428
 5891SOL     OW29308   3.269   1.611   3.354 -0.2049  0.3331 -0.0300
 5891SOL    HW129309   3.262   1.653   3.269  1.5973  1.4427  0.3813
 5891SOL    HW229310   3.204   1.543   3.338 -0.4453  0.2505  1.2671
 5892SOL     OW29311   2.325   2.835   7.978 -0.0327 -0.0538 -0.5018
 5892SOL    HW129312   2.410   2.794   7.960  0.2834  0.3705 -0.0133
 5892SOL    HW229313   2.263   2.766   7.956  0.3193 -0.7315  0.6216
 5893SOL     OW29314   1.260   0.949   3.427 -0.0002 -0.4027 -0.5695
 5893SOL    HW129315   1.339   0.896   3.438 -0.2254 -0.3673  1.2047
 5893SOL    HW229316   1.280   0.983   3.340 -0.3132 -0.0737 -0.5138
 5894SOL     OW29317   2.474   0.152   3.177  0.0515 -0.6717  0.3847
 5894SOL    HW129318   2.527   0.186   3.249 -0.2941  0.9340 -0.1295
 5894SOL    HW229319   2.396   0.124   3.225 -2.1715  1.1833 -2.1607
 5895SOL     OW29320   1.780   2.321  12.245  0.7772  0.0456  0.0046
 5895SOL    HW129321   1.699   2.272  12.228 -0.0292  1.1789  0.5486
 5895SOL    HW229322   1.774   2.386  12.176  1.0430 -1.5268 -1.5023
 5896SOL     OW29323   1.352   3.157  12.659  0.1152 -0.3852 -0.4777
 5896SOL    HW129324   1.447   3.166  12.668 -0.0348 -0.2711  1.0335
 5896SOL    HW229325   1.340   3.083  12.718  3.5373  0.2964  1.0441
 5897SOL     OW29326   4.430   1.236   8.562 -0.0413  0.8526  0.6464
 5897SOL    HW129327   4.385   1.242   8.646  1.8159 -0.9624  1.7907
 5897SOL    HW229328   4.357   1.210   8.506  0.6452 -1.9894  1.0370
 5898SOL     OW29329   1.315   3.304   3.402 -0.5092 -0.0342 -0.4546
 5898SOL    HW129330   1.397   3.258   3.385 -0.2438  0.6272 -0.9435
 5898SOL    HW229331   1.252   3.232   3.409  0.4448 -0.6721  1.4146
 5899SOL     OW29332   2.681   2.967   0.681 -0.1354 -0.4421 -0.2778
 5899SOL    HW129333   2.685   2.990   0.588  2.0672 -0.5035 -0.2157
 5899SOL    HW229334   2.774   2.965   0.704 -0.1954 -2.7060 -0.2083
 5900SOL     OW29335   0.005   2.119   2.339  0.3074 -0.2796  0.1455
 5900SOL    HW129336   4.683   2.179   2.296 -0.5520 -1.8195 -0.7863
 5900SOL    HW229337   4.728   2.041   2.286  0.4718  0.8494 -1.5366
 5901SOL     OW29338   1.861   2.399   3.960  0.0117 -0.4851  0.2520
 5901SOL    HW129339   1.910   2.317   3.972  0.7372 -0.4721 -2.6044
 5901SOL    HW229340   1.790   2.383   4.022  1.2730 -0.1196  1.7881
 5902SOL     OW29341   4.672   0.908   9.429  0.6675  0.0013  0.2060
 5902SOL    HW129342   4.584   0.888   9.462 -0.3852  3.3401 -0.6009
 5902SOL    HW229343   4.648   0.915   9.337  0.0150  1.2161  0.4608
 5903SOL     OW29344   4.455   4.009  14.286 -0.4584  0.1148 -0.0928
 5903SOL    HW129345   4.477   3.917  14.277  1.1955  0.3589  1.4734
 5903SOL    HW229346   4.431   4.017  14.379 -0.6450 -1.5674 -0.0059
 5904SOL     OW29347   1.500   3.808   1.804 -0.3203  0.4678 -0.5811
 5904SOL    HW129348   1.431   3.778   1.745  1.6074 -2.6047 -1.3160
 5904SOL    HW229349   1.440   3.837   1.872 -0.7127  0.1538 -0.7879
 5905SOL     OW29350   0.316   3.528   6.813  0.3104 -0.4982  0.1893
 5905SOL    HW129351   0.308   3.621   6.792 -0.7641 -0.2938  1.5618
 5905SOL    HW229352   0.326   3.483   6.729  1.2435 -3.7367  2.0261
 5906SOL     OW29353   1.614   4.267   5.237 -0.2189  0.3389 -0.0606
 5906SOL    HW129354   1.597   4.345   5.290  0.2303  0.7068 -0.4662
 5906SOL    HW229355   1.561   4.214   5.296  1.7518 -2.5540 -0.8889
 5907SOL     OW29356   0.107   3.786  15.954  0.6967 -0.2956  0.0028
 5907SOL    HW129357   0.166   3.859  15.933 -1.1573  1.1408 -0.2598
 5907SOL    HW229358   0.074   3.810  16.040 -1.6613  2.7331 -1.7078
 5908SOL     OW29359   0.573   2.562   3.727 -0.2711  0.2411  0.0201
 5908SOL    HW129360   0.494   2.596   3.772  1.7917  1.9686  2.3634
 5908SOL    HW229361   0.610   2.646   3.700 -0.7434  0.9421  1.4951
 5909SOL     OW29362   1.741   0.986   6.231 -0.5974 -0.0289  0.8395
 5909SOL    HW129363   1.834   0.981   6.252 -1.4097 -3.5717  3.5652
 5909SOL    HW229364   1.710   1.015   6.317  2.1601 -0.5935  2.0257
 5910SOL     OW29365   1.800   2.324   4.561 -0.4832  0.1647  0.3274
 5910SOL    HW129366   1.789   2.295   4.652 -2.1853 -0.9693 -0.2529
 5910SOL    HW229367   1.724   2.282   4.521 -0.5169 -2.2077  2.8540
 5911SOL     OW29368   0.625   2.479   2.428  0.0188 -0.1905  0.1745
 5911SOL    HW129369   0.702   2.470   2.484 -1.2657  1.4506  2.2328
 5911SOL    HW229370   0.641   2.409   2.365 -1.1404  1.4180 -1.9489
 5912SOL     OW29371   0.194   2.385  12.202 -0.6650  0.0257 -0.6055
 5912SOL    HW129372   0.201   2.475  12.169  1.2195  0.2253  0.3400
 5912SOL    HW229373   0.200   2.332  12.123 -0.3037 -1.1242  0.1862
 5913SOL     OW29374   4.568   2.718   3.207 -0.1808 -0.7750  0.4744
 5913SOL    HW129375   4.497   2.676   3.255 -2.3948  2.8541  0.4241
 5913SOL    HW229376   4.558   2.814   3.203 -0.7106 -0.9897 -2.7947
 5914SOL     OW29377   2.580   0.338   3.011 -0.4912  0.0257 -0.3520
 5914SOL    HW129378   2.661   0.350   3.062 -0.6255 -3.3758  0.6958
 5914SOL    HW229379   2.531   0.275   3.063 -2.6640  1.4462 -0.6882
 5915SOL     OW29380   0.210   3.523   8.450  0.4210  0.1426 -0.2792
 5915SOL    HW129381   0.237   3.448   8.502  0.8917 -0.7532 -1.8177
 5915SOL    HW229382   0.143   3.557   8.510  0.0214  0.2351 -0.7717
 5916SOL     OW29383   1.520   2.578   8.542  0.3099 -0.2651  0.2730
 5916SOL    HW129384   1.607   2.570   8.503  0.9158  0.3016  1.5074
 5916SOL    HW229385   1.514   2.490   8.580 -1.4042  1.2179  3.4149
 5917SOL     OW29386   4.273   1.587   0.450  0.2912  0.0883  0.0707
 5917SOL    HW129387   4.348   1.639   0.421  0.7841 -0.7265 -0.0888
 5917SOL    HW229388   4.194   1.624   0.409 -0.1808 -1.4227 -0.3984
 5918SOL     OW29389   2.533   1.057   1.615  0.1292 -0.4616  0.3636
 5918SOL    HW129390   2.596   1.129   1.609 -0.9101  0.4806  0.6950
 5918SOL    HW229391   2.599   0.989   1.604  0.3849  0.0438 -1.2732
 5919SOL     OW29392   3.390   3.150  15.796 -0.1975  0.2570 -0.3258
 5919SOL    HW129393   3.423   3.216  15.736 -2.0408 -0.3127 -1.9728
 5919SOL    HW229394   3.451   3.079  15.777 -2.9650 -2.1986 -0.0691
 5920SOL     OW29395   1.734   2.509   8.391 -0.0497  0.5400  0.3339
 5920SOL    HW129396   1.798   2.565   8.346 -0.8627 -0.3218 -1.8843
 5920SOL    HW229397   1.709   2.458   8.314 -0.4932  1.7011 -0.2965
 5921SOL     OW29398   3.647   1.676   6.846 -0.4382 -0.0052  0.4313
 5921SOL    HW129399   3.689   1.761   6.834  3.6953 -1.9751  0.9362
 5921SOL    HW229400   3.575   1.677   6.783 -0.6476  0.3176  0.6778
 5922SOL     OW29401   3.553   2.303   7.226  0.0033  0.4545  0.3497
 5922SOL    HW129402   3.587   2.387   7.196 -1.3020  0.6694 -0.5367
 5922SOL    HW229403   3.525   2.276   7.138  0.4163 -1.0366  0.6736
 5923SOL     OW29404   4.306   3.938  14.059  0.2913 -0.0638  0.1079
 5923SOL    HW129405   4.238   3.917  14.123  1.2782 -2.2779  0.4386
 5923SOL    HW229406   4.377   3.963  14.119  2.9798 -5.2753 -0.9170
 5924SOL     OW29407   0.800   0.842  14.475 -0.1995 -0.3169  0.3728
 5924SOL    HW129408   0.768   0.909  14.534 -0.7742 -0.9987  0.8319
 5924SOL    HW229409   0.728   0.816  14.417  2.7684 -1.4184 -2.8068
 5925SOL     OW29410   2.884   4.645   5.633 -0.8253  0.2673 -0.4786
 5925SOL    HW129411   2.978   4.663   5.634 -0.5884 -0.9842  0.1059
 5925SOL    HW229412   2.875   4.620   5.725 -1.2847 -3.6171 -1.5784
 5926SOL     OW29413   1.744   0.946   4.183 -0.1457 -0.5790  0.3661
 5926SOL    HW129414   1.750   0.883   4.111  2.7747 -2.6116  2.3615
 5926SOL    HW229415   1.720   0.888   4.256  0.2958  0.4032  1.2840
 5927SOL     OW29416   3.565   4.660   6.899 -0.1856 -0.0853  0.0058
 5927SOL    HW129417   3.549   4.650   6.993  0.8209 -0.3344  0.1493
 5927SOL    HW229418   3.553   0.016   6.895 -0.2885 -0.1317 -0.8159
 5928SOL     OW29419   1.980   4.338   4.253 -0.0995 -0.5682 -0.2017
 5928SOL    HW129420   1.962   4.260   4.201 -0.5773 -0.9066  0.4880
 5928SOL    HW229421   2.046   4.295   4.306 -0.5817 -1.1396 -0.0691
 5929SOL     OW29422   2.067   4.720   4.742 -0.1567 -0.2745 -0.5004
 5929SOL    HW129423   2.044   0.024   4.825 -0.2968  0.3136 -0.8452
 5929SOL    HW229424   2.157   4.694   4.759 -0.1003  0.4611  0.3529
 5930SOL     OW29425   4.142   3.554   0.273  0.2968  0.3871 -0.0693
 5930SOL    HW129426   4.088   3.532   0.349 -0.4828 -0.2468 -0.8115
 5930SOL    HW229427   4.110   3.502   0.199  1.4082  0.9334 -0.9360
 5931SOL     OW29428   2.165   1.069   3.569 -0.3850  0.0641  0.1016
 5931SOL    HW129429   2.228   1.120   3.620  0.2403  0.7059 -1.3165
 5931SOL    HW229430   2.130   1.142   3.518  0.4630  0.0303 -0.5335
 5932SOL     OW29431   0.606   0.809   7.116 -0.0536  0.4655  0.2003
 5932SOL    HW129432   0.639   0.898   7.109 -0.5198  0.5404 -1.0549
 5932SOL    HW229433   0.572   0.795   7.028 -0.0559 -0.5971  0.3748
 5933SOL     OW29434   1.116   2.927   3.135 -0.2039  0.6577  0.1753
 5933SOL    HW129435   1.180   2.998   3.138  0.4499  0.1723 -1.9420
 5933SOL    HW229436   1.124   2.919   3.039  1.8760  2.5834  0.1959
 5934SOL     OW29437   1.006   1.472  12.008  0.4447  0.0985 -0.0810
 5934SOL    HW129438   0.977   1.448  12.096  1.1808 -0.8465 -0.0988
 5934SOL    HW229439   0.924   1.471  11.957  0.0378  1.2178  0.5360
 5935SOL     OW29440   3.366   2.118   7.797 -0.2379 -0.3503 -0.5747
 5935SOL    HW129441   3.393   2.204   7.765  0.7046 -0.2488  0.4869
 5935SOL    HW229442   3.298   2.097   7.732 -0.1008 -0.6348 -0.6243
 5936SOL     OW29443   0.935   4.386  17.370  0.7631 -0.3820 -0.1287
 5936SOL    HW129444   0.878   4.349  17.302  1.1178  1.5015 -1.4816
 5936SOL    HW229445   0.948   4.475  17.335  0.1846  0.0227  0.6793
 5937SOL     OW29446   4.396   3.920   8.490  0.0357  0.0938  0.0904
 5937SOL    HW129447   4.471   3.863   8.472  0.8388  0.8462  1.0840
 5937SOL    HW229448   4.380   3.948   8.400  2.6384 -1.7310 -0.9408
 5938SOL     OW29449   1.955   2.036   7.103  0.3068  0.0367  0.4584
 5938SOL    HW129450   1.965   2.018   7.196  1.5570 -2.6901 -0.2030
 5938SOL    HW229451   1.941   2.130   7.098  2.3305  0.3624  1.1842
 5939SOL     OW29452   4.630   1.296   5.425 -0.4585 -0.5951 -0.2482
 5939SOL    HW129453   4.582   1.372   5.391 -0.1532 -0.2687  0.0537
 5939SOL    HW229454   4.618   1.241   5.348 -0.3463 -0.5252 -0.3148
 5940SOL     OW29455   1.704   4.396   4.925 -0.2164  0.5271  1.1564
 5940SOL    HW129456   1.754   4.466   4.881 -0.2943 -1.1624 -1.6207
 5940SOL    HW229457   1.757   4.391   5.004 -0.0210  0.0972  0.9990
 5941SOL     OW29458   0.976   2.136  10.995  0.9716  0.1754 -0.1248
 5941SOL    HW129459   1.022   2.074  10.939 -1.3556 -0.0717 -1.7421
 5941SOL    HW229460   0.881   2.134  10.981  1.3367  0.2094 -2.5526
 5942SOL     OW29461   0.695   3.443   7.481 -0.1359  0.0752  0.2861
 5942SOL    HW129462   0.779   3.485   7.462 -0.3428  0.5872  0.5133
 5942SOL    HW229463   0.677   3.413   7.392  1.9986  2.5891 -1.0003
 5943SOL     OW29464   0.690   1.597   6.669  0.4568 -0.4889 -0.1819
 5943SOL    HW129465   0.626   1.554   6.726  2.5994 -0.1585  2.4799
 5943SOL    HW229466   0.693   1.536   6.596 -0.1444  0.2522 -0.8216
 5944SOL     OW29467   1.911   3.987   7.252 -0.3198  0.7384  0.1434
 5944SOL    HW129468   1.842   4.046   7.283  0.7291  1.2651  1.5024
 5944SOL    HW229469   1.937   4.030   7.170 -0.4702  0.1186 -0.2256
 5945SOL     OW29470   4.084   1.857   4.360  0.7864 -0.1186  0.0562
 5945SOL    HW129471   4.080   1.806   4.440  0.4671  0.3893  0.3652
 5945SOL    HW229472   4.177   1.878   4.360  0.4829  1.2288 -0.1561
 5946SOL     OW29473   3.324   0.665   4.658  0.3200  0.1853  0.2198
 5946SOL    HW129474   3.369   0.725   4.717 -0.3884 -1.9777  2.9623
 5946SOL    HW229475   3.384   0.639   4.588 -0.9138  1.4251 -1.2990
 5947SOL     OW29476   0.752   4.386   3.105  0.2823 -0.3174 -0.0836
 5947SOL    HW129477   0.726   4.329   3.178  1.5028 -2.5543 -1.3839
 5947SOL    HW229478   0.843   4.391   3.133 -0.0187  1.1399  0.6188
 5948SOL     OW29479   2.845   2.909  16.481  0.4203 -0.3289  0.1218
 5948SOL    HW129480   2.933   2.935  16.510  0.2797 -0.1965  0.4390
 5948SOL    HW229481   2.809   2.878  16.564  2.4969  0.7435  1.4385
 5949SOL     OW29482   1.078   1.360   3.060 -0.5485  0.0087  0.4369
 5949SOL    HW129483   1.139   1.423   3.098  0.3864  0.4474 -1.7862
 5949SOL    HW229484   1.037   1.416   2.994  0.4719  1.4776  1.0408
 5950SOL     OW29485   1.643   0.208   8.871 -0.2013 -0.3053 -0.2395
 5950SOL    HW129486   1.612   0.296   8.892  1.3401 -0.3805  2.2964
 5950SOL    HW229487   1.640   0.163   8.955  2.0935  0.4599  0.2256
 5951SOL     OW29488   2.440   4.715  16.352 -0.0420 -0.3107 -0.4441
 5951SOL    HW129489   2.401   4.640  16.308 -3.1135  0.5965  0.7167
 5951SOL    HW229490   2.531   4.701  16.327  0.4957  1.4267  0.5794
 5952SOL     OW29491   0.711   0.589   6.319 -0.1684 -0.0888 -0.3704
 5952SOL    HW129492   0.628   0.567   6.276  1.5353  1.1441 -4.2609
 5952SOL    HW229493   0.756   0.508   6.294 -0.8987 -1.5953  3.1653
 5953SOL     OW29494   2.584   3.366   9.371 -0.0356  0.2942  0.3385
 5953SOL    HW129495   2.629   3.366   9.286  0.0721 -0.7673  0.3928
 5953SOL    HW229496   2.642   3.305   9.417 -2.6961 -0.7768  2.2615
 5954SOL     OW29497   1.055   4.003   6.483 -0.1803 -0.4363 -0.0686
 5954SOL    HW129498   1.074   3.997   6.389 -0.7722 -0.1689 -0.2068
 5954SOL    HW229499   1.139   4.016   6.526 -0.2193  1.4374 -0.5270
 5955SOL     OW29500   0.482   1.695   5.256 -0.2089  0.2920  0.5356
 5955SOL    HW129501   0.505   1.706   5.164  1.0622 -0.6781  0.7462
 5955SOL    HW229502   0.485   1.600   5.248 -2.0297  0.4527 -2.1638
 5956SOL     OW29503   3.177   0.658   5.051 -0.5312  0.1940 -0.1882
 5956SOL    HW129504   3.197   0.569   5.079 -0.3660  0.1786 -0.3589
 5956SOL    HW229505   3.100   0.655   4.994 -1.9688 -1.5393  1.8521
 5957SOL     OW29506   0.422   2.814   2.719 -0.4551  0.2954  0.0934
 5957SOL    HW129507   0.428   2.723   2.690 -0.6141  0.2697  0.1425
 5957SOL    HW229508   0.483   2.849   2.654  1.9396  0.0266  2.1914
 5958SOL     OW29509   4.288   0.317  14.836  0.7764  0.3152 -0.8650
 5958SOL    HW129510   4.230   0.266  14.780 -1.8549  1.7175  0.5826
 5958SOL    HW229511   4.375   0.292  14.806  1.3902 -0.4123  1.5375
 5959SOL     OW29512   1.132   0.659   7.664 -0.2616 -0.7859  0.4893
 5959SOL    HW129513   1.140   0.741   7.615 -0.8153  0.3562  2.3030
 5959SOL    HW229514   1.039   0.643   7.648 -0.0100 -2.1560  0.4130
 5960SOL     OW29515   2.661   0.249  15.347 -0.3816 -0.0980  0.3419
 5960SOL    HW129516   2.605   0.183  15.389 -1.2132  0.3745 -0.0258
 5960SOL    HW229517   2.747   0.232  15.384 -0.3310 -0.5035  0.0455
 5961SOL     OW29518   0.266   4.266   2.971  0.1533 -0.4531  0.3549
 5961SOL    HW129519   0.216   4.334   2.925  1.1785  0.8643  1.1951
 5961SOL    HW229520   0.292   4.213   2.896  1.9207 -1.7362  1.8867
 5962SOL     OW29521   0.075   3.466   2.625  0.5110  0.0598  0.5243
 5962SOL    HW129522   0.047   3.378   2.603 -0.8313  1.6082 -3.8923
 5962SOL    HW229523   0.037   3.512   2.550 -0.6561 -0.9544  0.4982
 5963SOL     OW29524   0.937   1.332   9.057 -0.1235  0.6217 -0.6781
 5963SOL    HW129525   0.854   1.365   9.022 -0.5432 -0.8808 -1.1115
 5963SOL    HW229526   0.995   1.343   8.982  1.1344 -0.8124  0.0842
 5964SOL     OW29527   0.541   2.682   4.071 -0.0726 -0.1896 -0.1882
 5964SOL    HW129528   0.576   2.744   4.135 -1.3956  0.1784  0.1877
 5964SOL    HW229529   0.508   2.748   4.010  1.5217  0.0609 -0.7761
 5965SOL     OW29530   4.245   4.416   3.938 -0.2220  0.1458  0.2943
 5965SOL    HW129531   4.263   4.322   3.948  0.9843  0.4434  0.9058
 5965SOL    HW229532   4.231   4.419   3.843 -0.4615 -1.7192  0.2604
 5966SOL     OW29533   4.411   0.263   7.720  0.1277  0.0132  0.3100
 5966SOL    HW129534   4.466   0.274   7.642  0.3046  0.3503  0.4865
 5966SOL    HW229535   4.368   0.348   7.728  0.5164  0.4223 -1.9394
 5967SOL     OW29536   4.662   0.883   3.167 -0.6130 -0.4781 -0.3920
 5967SOL    HW129537   0.005   0.847   3.132 -1.2564 -0.5170 -1.8502
 5967SOL    HW229538   4.659   0.831   3.247 -0.1748 -0.3455 -0.2864
 5968SOL     OW29539   4.393   2.736   1.909  0.5988 -0.2010 -0.2424
 5968SOL    HW129540   4.385   2.653   1.861 -0.3220 -0.6132  0.6501
 5968SOL    HW229541   4.429   2.721   1.996  1.5993  2.2005 -0.2459
 5969SOL     OW29542   0.846   3.187   3.257  0.2265  0.1349 -0.3710
 5969SOL    HW129543   0.757   3.221   3.267  0.7082  0.3864  3.0482
 5969SOL    HW229544   0.840   3.195   3.162 -1.7969 -0.2266 -0.2744
 5970SOL     OW29545   1.994   0.697   8.710  0.4283 -0.0278  0.1372
 5970SOL    HW129546   2.044   0.625   8.671  1.7617  0.7129  0.5008
 5970SOL    HW229547   1.937   0.719   8.636  0.4057 -1.2614 -0.2129
 5971SOL     OW29548   2.739   1.638   2.481 -0.2652 -0.1048 -0.0299
 5971SOL    HW129549   2.799   1.713   2.480 -3.3227  2.3720  3.1633
 5971SOL    HW229550   2.660   1.691   2.469 -0.2981 -0.2608 -0.4897
 5972SOL     OW29551   2.827   3.951   2.616  0.7425  0.0870  0.2357
 5972SOL    HW129552   2.808   3.954   2.523 -1.4129  0.7473  0.7090
 5972SOL    HW229553   2.907   3.898   2.620 -0.3995 -1.4912  2.1301
 5973SOL     OW29554   0.911   0.954   8.897  0.0439  0.4273  0.3789
 5973SOL    HW129555   0.825   0.992   8.879 -0.0784  0.1398  0.3509
 5973SOL    HW229556   0.944   0.999   8.975 -0.2092 -0.1964  0.8442
 5974SOL     OW29557   0.977   4.506   3.828 -0.1352  0.2401 -0.8995
 5974SOL    HW129558   0.994   4.416   3.798 -1.7577  0.6044 -2.8751
 5974SOL    HW229559   0.942   4.539   3.746 -2.8202 -1.1258 -0.2878
 5975SOL     OW29560   1.113   3.161  10.258  0.0626  0.1255  0.2319
 5975SOL    HW129561   1.126   3.200  10.344 -1.4607 -0.8991  0.9268
 5975SOL    HW229562   1.179   3.193  10.196 -1.1697  0.3596 -0.9522
 5976SOL     OW29563   0.906   0.246   5.529  0.2083 -0.5472  0.2633
 5976SOL    HW129564   0.811   0.235   5.531  0.0294  1.3697  1.8835
 5976SOL    HW229565   0.913   0.313   5.597  0.6398 -0.2421 -0.0839
 5977SOL     OW29566   2.219   1.313   0.003  0.1060  0.1193  0.2761
 5977SOL    HW129567   2.155   1.341   0.069  1.7398  0.6399  1.6479
 5977SOL    HW229568   2.297   1.359   0.033  0.9527 -0.2811 -1.3064
 5978SOL     OW29569   3.768   3.919  11.534  0.0507 -0.3694  0.2888
 5978SOL    HW129570   3.810   3.980  11.473  2.2337 -0.5525  1.5928
 5978SOL    HW229571   3.770   3.972  11.614 -0.1236  0.0503  0.0170
 5979SOL     OW29572   2.204   0.721  15.037  0.0917  0.5241 -0.9120
 5979SOL    HW129573   2.166   0.781  15.101 -1.9224  0.5477 -2.1107
 5979SOL    HW229574   2.296   0.716  15.063 -0.1515  0.4893 -0.0570
 5980SOL     OW29575   1.475   3.848   2.775  0.1006 -0.1026  0.0472
 5980SOL    HW129576   1.549   3.906   2.792 -0.3121 -0.3815  2.6866
 5980SOL    HW229577   1.446   3.837   2.865  1.4232  1.1417  0.6301
 5981SOL     OW29578   2.762   3.790  16.476  0.2064  0.1750 -0.1189
 5981SOL    HW129579   2.821   3.865  16.489 -0.6029  0.3904  2.2911
 5981SOL    HW229580   2.747   3.774  16.569  4.2268 -0.3350  0.4443
 5982SOL     OW29581   1.763   0.596   1.851 -0.1260 -0.5443  0.2708
 5982SOL    HW129582   1.718   0.676   1.821 -1.2115 -0.6846  1.5196
 5982SOL    HW229583   1.755   0.601   1.946  2.3383 -2.2221  0.5591
 5983SOL     OW29584   4.278   4.391   5.752 -0.1094 -0.0202 -0.2087
 5983SOL    HW129585   4.243   4.466   5.800 -1.0131 -0.4873 -0.1206
 5983SOL    HW229586   4.314   4.419   5.668  0.3913 -1.3398 -0.4301
 5984SOL     OW29587   3.102   2.078  16.072 -0.2456  0.1323  0.3405
 5984SOL    HW129588   3.118   2.061  16.164 -1.1243  1.3453  0.7232
 5984SOL    HW229589   3.007   2.086  16.070 -0.1130  1.7000  0.5612
 5985SOL     OW29590   3.277   2.372   5.567  0.4476  0.7994  0.0477
 5985SOL    HW129591   3.295   2.339   5.655  1.4004  4.6232  1.3081
 5985SOL    HW229592   3.217   2.443   5.591 -1.0327 -0.5974  0.4450
 5986SOL     OW29593   2.248   3.647   4.830 -1.0393 -0.1410  0.1439
 5986SOL    HW129594   2.221   3.707   4.900 -1.6865 -0.6626  0.3400
 5986SOL    HW229595   2.269   3.567   4.878  1.8321 -0.6597 -1.9738
 5987SOL     OW29596   3.736   2.364   7.975  0.1422 -0.0387 -0.2310
 5987SOL    HW129597   3.720   2.386   7.884 -0.7230  1.8878  0.3792
 5987SOL    HW229598   3.801   2.294   7.967 -2.2669 -2.3959  0.7584
 5988SOL     OW29599   4.519   3.938   9.173 -0.5503 -0.4801  0.0582
 5988SOL    HW129600   4.536   4.011   9.233 -0.3434 -0.4349 -0.0558
 5988SOL    HW229601   4.601   3.938   9.123 -1.1222  1.3915 -0.8730
 5989SOL     OW29602   4.494   0.179  13.321  0.3904 -0.0088 -0.5296
 5989SOL    HW129603   4.454   0.159  13.405 -0.1801 -1.1933 -1.0864
 5989SOL    HW229604   4.544   0.258  13.342 -0.4143  0.6839 -1.1756
 5990SOL     OW29605   1.851   0.392   5.950  0.0459 -0.0966  0.0181
 5990SOL    HW129606   1.933   0.378   5.998  0.0116  1.0707  0.4174
 5990SOL    HW229607   1.871   0.382   5.857  2.0492 -1.0919  0.5563
 5991SOL     OW29608   3.749   0.699   4.915 -0.2362 -0.2462  0.5970
 5991SOL    HW129609   3.722   0.790   4.911 -1.6984 -0.7792 -1.7020
 5991SOL    HW229610   3.667   0.667   4.953 -0.4703  1.9268  1.9015
 5992SOL     OW29611   0.243   4.310  17.246  0.1195  0.3560  0.3947
 5992SOL    HW129612   0.255   4.366  17.170 -0.3636 -1.8956 -1.3522
 5992SOL    HW229613   0.296   4.233  17.226 -1.6134 -0.2234 -1.9901
 5993SOL     OW29614   3.650   1.169   5.919  0.0080  0.1421  0.1805
 5993SOL    HW129615   3.590   1.106   5.880 -1.1227  1.0365  0.4791
 5993SOL    HW229616   3.661   1.122   6.002 -1.0656 -0.2182  0.1183
 5994SOL     OW29617   3.937   2.461   1.288  0.5606 -0.1362  0.0137
 5994SOL    HW129618   3.918   2.543   1.243 -2.1749 -0.9551 -0.3340
 5994SOL    HW229619   3.929   2.391   1.223  1.8415 -0.4093  0.1468
 5995SOL     OW29620   1.602   3.794  15.174 -0.0747  0.7467  0.1455
 5995SOL    HW129621   1.691   3.824  15.159  0.1584 -0.7171 -1.3606
 5995SOL    HW229622   1.561   3.847  15.105 -0.4789  0.0903 -0.1149
 5996SOL     OW29623   1.176   0.637   0.011 -0.6634 -0.5263  0.3834
 5996SOL    HW129624   1.215   0.634   0.098 -2.0897  2.2234  1.1281
 5996SOL    HW229625   1.165   0.729  17.741  2.3637 -0.4286 -0.6336
 5997SOL     OW29626   0.526   2.502   9.050 -0.0299  0.2038 -0.6844
 5997SOL    HW129627   0.584   2.491   9.125  0.8596  1.5316 -1.1663
 5997SOL    HW229628   0.443   2.469   9.084  0.4944 -1.9603 -1.5050
 5998SOL     OW29629   1.246   4.699   6.094 -0.5889 -0.6063  0.2133
 5998SOL    HW129630   1.316   0.024   6.112 -1.0477  0.2186 -0.9708
 5998SOL    HW229631   1.204   4.683   6.179  0.0735  3.1189  1.2206
 5999SOL     OW29632   2.513   3.432   5.397 -0.3377 -0.5056  0.3774
 5999SOL    HW129633   2.595   3.472   5.368 -1.1643  0.7898 -0.1632
 5999SOL    HW229634   2.533   3.338   5.400  1.8298 -0.0985 -1.9181
 6000SOL     OW29635   0.399   0.597   7.959 -0.2971  0.1589  0.0880
 6000SOL    HW129636   0.340   0.640   8.021  0.1808  1.9820 -0.7226
 6000SOL    HW229637   0.358   0.511   7.960 -1.2356  0.6089  0.4061
 6001SOL     OW29638   1.801   0.087   5.776  0.2041  0.0724  0.1306
 6001SOL    HW129639   1.742   0.158   5.802  0.3655  0.6658 -1.1422
 6001SOL    HW229640   1.890   0.123   5.768  0.0096  0.2808 -1.0177
 6002SOL     OW29641   0.985   0.301   9.413 -0.0897 -0.0986  0.2067
 6002SOL    HW129642   0.969   0.358   9.488  0.8291  1.9345 -1.1512
 6002SOL    HW229643   0.897   0.307   9.376 -0.3926 -1.2472  0.7320
 6003SOL     OW29644   2.145   4.396   5.096  0.2999 -0.1777 -0.5665
 6003SOL    HW129645   2.051   4.379   5.105  0.3126  0.5943  1.0689
 6003SOL    HW229646   2.172   4.401   5.188 -0.3050 -0.8178 -0.3590
 6004SOL     OW29647   0.088   0.680   2.865  0.0835 -0.5488  0.3140
 6004SOL    HW129648   0.068   0.597   2.821 -1.7809  0.0722 -0.0010
 6004SOL    HW229649   0.006   0.685   2.913  0.6030  2.7140  0.8666
 6005SOL     OW29650   4.608   4.133   9.333  0.5580 -0.4259 -0.4158
 6005SOL    HW129651   4.606   4.151   9.427  0.2922 -1.5395 -0.2179
 6005SOL    HW229652   4.703   4.133   9.322  0.2817  1.1075 -2.8142
 6006SOL     OW29653   3.503   1.016   8.446 -0.3307  0.3266 -0.4827
 6006SOL    HW129654   3.465   1.024   8.359 -1.4089 -1.3080 -0.1561
 6006SOL    HW229655   3.596   1.002   8.430 -0.2271  0.2112  0.2147
 6007SOL     OW29656   3.879   4.693  12.717 -0.3789  0.3696  0.0372
 6007SOL    HW129657   3.935   4.653  12.783 -0.0736 -2.6873 -2.0522
 6007SOL    HW229658   3.793   4.669  12.752 -0.8396  1.8051 -0.1250
 6008SOL     OW29659   0.982   1.257   3.646  0.0880 -0.2197 -0.5331
 6008SOL    HW129660   1.031   1.303   3.578  1.4366  1.3369  1.4722
 6008SOL    HW229661   1.039   1.181   3.657  2.0471  1.1919 -0.9320
 6009SOL     OW29662   0.841   4.167   4.274 -0.0243 -0.0517 -0.2608
 6009SOL    HW129663   0.878   4.079   4.268  0.2593  0.0520 -0.0619
 6009SOL    HW229664   0.773   4.154   4.339  0.7854  0.0552  0.6128
 6010SOL     OW29665   0.733   0.465   9.849  0.2600  0.2649  0.2238
 6010SOL    HW129666   0.813   0.460   9.902  0.7501  1.3168 -0.4234
 6010SOL    HW229667   0.669   0.511   9.903  1.9875  1.6196  1.1148
 6011SOL     OW29668   2.706   3.180   0.472  0.1944  0.1548 -0.2935
 6011SOL    HW129669   2.702   3.115   0.402  0.9890  0.1062 -0.2920
 6011SOL    HW229670   2.620   3.221   0.469  0.5783  1.0599  1.1241
 6012SOL     OW29671   1.027   1.530  10.630 -0.0290 -0.6285  0.7017
 6012SOL    HW129672   1.068   1.443  10.626 -0.8338 -0.9303 -1.1028
 6012SOL    HW229673   0.937   1.505  10.648 -0.2296  0.4079  1.1374
 6013SOL     OW29674   3.644   4.279  10.627 -0.0608  0.4267  0.2751
 6013SOL    HW129675   3.624   4.372  10.637  0.8153  0.6831 -0.2913
 6013SOL    HW229676   3.732   4.281  10.666  0.1564 -1.1652 -0.1283
 6014SOL     OW29677   2.551   3.752   2.287  0.2639  0.3507  0.1363
 6014SOL    HW129678   2.625   3.695   2.266  2.2934  2.3048  1.9934
 6014SOL    HW229679   2.531   3.787   2.200  0.1357 -1.3312 -0.5074
 6015SOL     OW29680   3.704   0.358   6.552  0.2972  0.1762 -0.0036
 6015SOL    HW129681   3.767   0.292   6.582 -0.9179 -1.0174 -0.0792
 6015SOL    HW229682   3.655   0.314   6.483 -1.5596  0.6365  1.0353
 6016SOL     OW29683   3.800   0.231  14.646  0.8054 -0.5044 -0.3585
 6016SOL    HW129684   3.773   0.247  14.556 -2.8058  0.1913  0.8507
 6016SOL    HW229685   3.731   0.173  14.677 -0.0892  1.0416  0.5174
 6017SOL     OW29686   2.649   4.559   6.816 -0.1829  0.0083 -0.2209
 6017SOL    HW129687   2.693   4.644   6.826 -2.4293  1.1092  0.2806
 6017SOL    HW229688   2.693   4.538   6.733 -0.2786 -1.1895  0.0329
 6018SOL     OW29689   1.431   3.550  13.074  0.7253  0.5762 -0.7168
 6018SOL    HW129690   1.502   3.515  13.020  1.2390 -1.9823  1.6081
 6018SOL    HW229691   1.442   3.645  13.068  0.2800  0.5125 -2.7363
 6019SOL     OW29692   4.295   2.268   4.574  0.5775  0.8354  0.3641
 6019SOL    HW129693   4.257   2.245   4.489  0.0047  1.6860  0.3857
 6019SOL    HW229694   4.357   2.338   4.553  0.9478  0.5545  0.5324
 6020SOL     OW29695   1.138   4.567   9.733 -0.0198 -0.2682 -0.3795
 6020SOL    HW129696   1.189   4.565   9.814  0.0111  0.2392 -0.3870
 6020SOL    HW229697   1.175   4.497   9.679 -2.1758 -0.9688 -0.9438
 6021SOL     OW29698   2.968   1.696   3.640  0.7932 -0.1214 -0.1531
 6021SOL    HW129699   3.035   1.644   3.684 -0.7135 -2.9596 -1.2021
 6021SOL    HW229700   2.908   1.629   3.607 -0.4385  0.3871  1.0538
 6022SOL     OW29701   2.853   2.453   3.558 -0.1224  0.1619 -0.1622
 6022SOL    HW129702   2.831   2.409   3.476  2.6797 -0.9747 -0.3155
 6022SOL    HW229703   2.882   2.538   3.526 -1.2176  0.6182  0.0727
 6023SOL     OW29704   1.321   1.747  12.915  0.0406  0.2696 -0.0808
 6023SOL    HW129705   1.307   1.663  12.959  2.0832  0.5600  1.1118
 6023SOL    HW229706   1.285   1.745  12.827 -1.8147  1.2017  0.6409
 6024SOL     OW29707   0.550   0.857   4.484  0.2343 -0.4383 -0.0174
 6024SOL    HW129708   0.645   0.866   4.496  0.0878  3.0777 -1.8318
 6024SOL    HW229709   0.528   0.950   4.481  0.8415 -0.3738 -2.2120
 6025SOL     OW29710   4.573   2.113   1.814  0.1443 -0.5288 -0.0673
 6025SOL    HW129711   4.519   2.188   1.787 -0.5863 -0.7837  0.6897
 6025SOL    HW229712   4.659   2.133   1.778  0.2458 -2.2133 -0.7482
 6026SOL     OW29713   0.654   4.687  10.146 -0.1293 -0.8053  0.5172
 6026SOL    HW129714   0.592   4.734  10.090 -0.0502 -1.3365 -0.0074
 6026SOL    HW229715   0.737   4.707  10.103 -1.0255  2.4479  0.2672
 6027SOL     OW29716   1.298   0.810   4.428  0.3709 -0.0160 -0.0018
 6027SOL    HW129717   1.381   0.835   4.467 -0.7332  1.6017  1.3119
 6027SOL    HW229718   1.328   0.733   4.378  1.0254 -0.5101  1.1637
 6028SOL     OW29719   1.338   0.661   9.442  0.2346 -0.2559 -0.0659
 6028SOL    HW129720   1.415   0.677   9.495 -2.3580  2.4902  2.8566
 6028SOL    HW229721   1.283   0.597   9.487 -0.4440  0.3033 -0.0990
 6029SOL     OW29722   4.158   1.597   8.777  0.1743  0.5923 -0.0480
 6029SOL    HW129723   4.120   1.612   8.690 -1.3495 -1.8478  0.2021
 6029SOL    HW229724   4.250   1.606   8.750  0.8861  2.0371  2.9105
 6030SOL     OW29725   0.450   1.924   8.901  0.1190 -0.3639 -0.9274
 6030SOL    HW129726   0.417   1.872   8.828 -2.5558  0.4028 -0.2667
 6030SOL    HW229727   0.536   1.889   8.923  0.8634  1.1830 -1.3817
 6031SOL     OW29728   2.931   3.356   5.957 -0.1525 -0.4039 -0.1545
 6031SOL    HW129729   2.888   3.273   5.978  1.2113 -0.7091  1.4892
 6031SOL    HW229730   2.957   3.328   5.869  0.8761  1.1284 -0.3363
 6032SOL     OW29731   0.668   3.311  10.442 -0.5927  0.0543  0.1634
 6032SOL    HW129732   0.732   3.279  10.505 -2.6341 -2.0709  1.1538
 6032SOL    HW229733   0.636   3.227  10.411 -1.3838 -0.3656  2.0848
 6033SOL     OW29734   3.623   3.203   0.522  0.0071 -0.1028  0.1002
 6033SOL    HW129735   3.549   3.234   0.573  1.7072  1.0397  1.8770
 6033SOL    HW229736   3.680   3.179   0.595 -1.9073 -3.0122  0.6402
 6034SOL     OW29737   1.960   4.033   8.085  0.6602 -0.1593  0.0667
 6034SOL    HW129738   1.912   3.984   8.018 -0.2243  1.3260 -0.3760
 6034SOL    HW229739   2.007   4.087   8.022 -0.4494  1.2541  0.4485
 6035SOL     OW29740   3.174   3.656   7.831 -0.3232  0.7516  0.0119
 6035SOL    HW129741   3.169   3.628   7.740  0.3997  0.3119  0.1073
 6035SOL    HW229742   3.247   3.716   7.821 -1.6936  2.6131  1.2293
 6036SOL     OW29743   4.500   1.706  17.106  0.2348  0.8542 -0.2116
 6036SOL    HW129744   4.428   1.731  17.163 -0.3761 -0.4057 -0.4429
 6036SOL    HW229745   4.532   1.796  17.092  2.8543 -0.5709 -3.4949
 6037SOL     OW29746   0.351   0.610   2.873 -0.1763  0.2502  0.3849
 6037SOL    HW129747   0.348   0.563   2.790 -3.0378  1.9737 -0.4980
 6037SOL    HW229748   0.263   0.646   2.871  0.3153  1.3713 -1.6157
 6038SOL     OW29749   0.123   2.413  10.418  0.0086 -0.3704 -0.2829
 6038SOL    HW129750   0.183   2.432  10.346  2.6399 -0.7753  1.7964
 6038SOL    HW229751   0.162   2.470  10.484 -0.2606 -1.7558  1.0835
 6039SOL     OW29752   3.861   1.505   5.236  0.2674 -0.0273  0.1314
 6039SOL    HW129753   3.937   1.544   5.194 -2.2351  0.4569 -3.8614
 6039SOL    HW229754   3.839   1.551   5.317 -2.2573 -0.5825 -0.2338
 6040SOL     OW29755   2.863   3.670   5.611  0.8038  0.3882 -0.7086
 6040SOL    HW129756   2.915   3.612   5.555 -0.6854 -1.1502 -0.5029
 6040SOL    HW229757   2.869   3.624   5.695  0.8276 -0.7727 -1.3383
 6041SOL     OW29758   2.579   4.278   0.322  0.0906  0.0946  0.0552
 6041SOL    HW129759   2.636   4.351   0.347 -0.5951 -0.3811  2.9531
 6041SOL    HW229760   2.608   4.239   0.239  0.4186 -2.6903  1.4992
 6042SOL     OW29761   0.317   1.380  17.301 -0.2340 -0.2058  0.6945
 6042SOL    HW129762   0.399   1.390  17.348  1.2472  2.8167 -2.5527
 6042SOL    HW229763   0.272   1.460  17.329 -1.6210 -0.3424 -1.1396
 6043SOL     OW29764   1.769   3.900   6.881  0.2380 -0.1517 -0.8239
 6043SOL    HW129765   1.857   3.865   6.890  0.7358  0.5454 -3.0638
 6043SOL    HW229766   1.784   3.965   6.950  2.0929 -1.2277 -0.2286
 6044SOL     OW29767   3.884   1.843   6.138  0.0824  0.3735  0.2984
 6044SOL    HW129768   3.917   1.818   6.051 -0.7612  0.5618 -0.0676
 6044SOL    HW229769   3.965   1.879   6.176  1.3804 -0.3734 -1.7677
 6045SOL     OW29770   3.052   2.663   2.625  0.9482 -0.2159 -0.7931
 6045SOL    HW129771   3.077   2.690   2.537 -0.1866  1.4523 -0.6139
 6045SOL    HW229772   2.978   2.609   2.599  1.1409 -1.5230  1.3573
 6046SOL     OW29773   1.087   1.432   3.395 -0.6999  0.1478  0.2804
 6046SOL    HW129774   1.089   1.504   3.331  1.2048 -2.8023 -2.9602
 6046SOL    HW229775   1.174   1.442   3.433 -0.5808 -0.3544  0.1361
 6047SOL     OW29776   2.245   2.364   0.092 -0.6517 -0.1789  0.3972
 6047SOL    HW129777   2.328   2.324   0.116 -0.0325 -0.5947 -2.3624
 6047SOL    HW229778   2.261   2.456   0.113 -1.6041 -0.1397  0.9253
 6048SOL     OW29779   3.889   1.528  16.645  0.1386 -0.0795  0.0878
 6048SOL    HW129780   3.877   1.549  16.552  1.2321  0.1131 -0.0134
 6048SOL    HW229781   3.858   1.612  16.679  1.5587 -0.2625  1.8165
 6049SOL     OW29782   0.901   4.022   2.594  0.2296 -0.0496 -0.2809
 6049SOL    HW129783   0.988   4.032   2.632 -1.5536  1.1663  3.4881
 6049SOL    HW229784   0.873   3.934   2.620 -4.0641  1.6494  0.8867
 6050SOL     OW29785   2.531   2.595   6.426  0.3970 -0.2928  0.4803
 6050SOL    HW129786   2.444   2.618   6.393  1.7389  1.8100 -1.5374
 6050SOL    HW229787   2.582   2.670   6.395  3.5491 -1.8927  1.7986
 6051SOL     OW29788   3.181   3.866   9.184  0.2563 -0.3060 -0.2537
 6051SOL    HW129789   3.098   3.821   9.201  0.4867 -0.3953  0.6240
 6051SOL    HW229790   3.228   3.840   9.263  2.1801  2.0621 -0.6492
 6052SOL     OW29791   0.151   4.433   5.256  0.0195 -0.4685 -0.0770
 6052SOL    HW129792   0.165   4.394   5.169  1.6516 -1.8567  0.8060
 6052SOL    HW229793   0.236   4.478   5.257 -1.0790  1.6514 -1.9043
 6053SOL     OW29794   2.441   1.484   8.842 -0.3595  0.0744  0.0180
 6053SOL    HW129795   2.405   1.427   8.910  0.5179 -0.9504 -0.3721
 6053SOL    HW229796   2.532   1.456   8.846 -0.4488 -0.5244 -1.8629
 6054SOL     OW29797   2.297   3.430   6.146 -0.1820 -0.2837  0.4624
 6054SOL    HW129798   2.252   3.515   6.145  1.5481  0.6389  2.0127
 6054SOL    HW229799   2.377   3.457   6.191 -1.3428  1.6192  1.4089
 6055SOL     OW29800   0.647   3.874   9.475  1.3009  0.4443  0.7931
 6055SOL    HW129801   0.632   3.896   9.567  0.4882  0.8781  0.5632
 6055SOL    HW229802   0.715   3.808   9.480 -1.7446 -2.6547  1.4375
 6056SOL     OW29803   2.842   4.116   8.409 -0.1528  0.0349 -0.1434
 6056SOL    HW129804   2.926   4.089   8.445  1.3778  2.0699 -2.1306
 6056SOL    HW229805   2.793   4.036   8.428 -1.3557  0.8098  0.0071
 6057SOL     OW29806   3.428   0.019   3.333  0.1089 -0.1325 -0.1963
 6057SOL    HW129807   3.518   0.028   3.304  0.7846 -1.7120  1.4507
 6057SOL    HW229808   3.383   4.733   3.252  1.5514  0.0346 -1.0365
 6058SOL     OW29809   4.656   4.197  17.174  0.2189  0.0463 -0.3045
 6058SOL    HW129810   4.576   4.154  17.144  0.0559 -1.8886  2.9135
 6058SOL    HW229811   4.711   4.119  17.180 -1.8278 -1.4531 -1.1177
 6059SOL     OW29812   1.263   3.358   6.475 -0.4535 -0.3314 -0.0539
 6059SOL    HW129813   1.353   3.372   6.504 -0.8924 -0.3205  1.2684
 6059SOL    HW229814   1.214   3.403   6.543 -0.2298 -0.4815  0.2022
 6060SOL     OW29815   1.798   3.410   6.470  0.0294 -0.0790 -0.5915
 6060SOL    HW129816   1.820   3.324   6.506 -2.8591 -1.1695 -1.4207
 6060SOL    HW229817   1.883   3.425   6.428  0.0397  3.3610  0.7240
 6061SOL     OW29818   2.171   4.720   2.046 -0.5077  0.4552 -0.6100
 6061SOL    HW129819   2.200   4.658   2.112 -2.9682 -1.1578 -1.0707
 6061SOL    HW229820   2.151   4.668   1.968  0.8033  0.5105 -0.9892
 6062SOL     OW29821   2.801   3.689   3.089 -0.3117 -0.4658  0.1496
 6062SOL    HW129822   2.884   3.695   3.041  0.1839 -0.1004  1.0529
 6062SOL    HW229823   2.758   3.770   3.063  0.9487  0.0253 -0.4461
 6063SOL     OW29824   3.128   2.020   0.938 -0.4926  0.0018  0.2779
 6063SOL    HW129825   3.222   2.022   0.958 -0.5933  1.4833  0.5907
 6063SOL    HW229826   3.126   2.085   0.867 -2.6647 -1.1612 -0.7005
 6064SOL     OW29827   3.936   1.651   5.727  0.3366  0.0798 -0.0976
 6064SOL    HW129828   3.919   1.661   5.633  0.6802  0.5742 -0.1065
 6064SOL    HW229829   3.888   1.572   5.750  0.1667  0.1347 -0.2662
 6065SOL     OW29830   1.599   0.536   7.739 -0.3745  0.6675  0.2088
 6065SOL    HW129831   1.509   0.511   7.716  0.3944 -0.6378 -1.3994
 6065SOL    HW229832   1.645   0.499   7.663 -0.7750 -0.0478  0.3102
 6066SOL     OW29833   3.596   4.378  12.154  0.0333 -0.1101 -0.2321
 6066SOL    HW129834   3.566   4.450  12.209 -0.5553  0.3624 -1.1778
 6066SOL    HW229835   3.513   4.365  12.109 -0.1249 -0.7114  0.2244
 6067SOL     OW29836   4.413   4.164  11.633  0.5445  0.6959  0.3201
 6067SOL    HW129837   4.371   4.249  11.621  0.9443  1.0576  1.4071
 6067SOL    HW229838   4.503   4.197  11.645  0.5517  0.6405  0.4156
 6068SOL     OW29839   0.910   1.736  11.184 -0.0986  0.5438  0.2656
 6068SOL    HW129840   0.822   1.771  11.168 -0.0066  1.0288  0.8351
 6068SOL    HW229841   0.948   1.820  11.209  0.2565  0.8764 -1.3673
 6069SOL     OW29842   0.059   1.468  13.860  0.1292 -0.6998  0.0075
 6069SOL    HW129843   0.137   1.493  13.909 -0.3326  0.0468  0.3748
 6069SOL    HW229844   0.059   1.527  13.784 -1.8839  0.0821  0.5972
 6070SOL     OW29845   0.333   0.133   0.528 -0.1886 -0.3464 -0.1332
 6070SOL    HW129846   0.381   0.151   0.447 -0.9798 -1.1569 -0.7832
 6070SOL    HW229847   0.305   0.223   0.546  0.0748  0.0011 -1.4575
 6071SOL     OW29848   0.994   1.709   5.463 -0.2450  0.5106 -0.0433
 6071SOL    HW129849   1.002   1.793   5.418  1.5413 -0.0220 -0.7418
 6071SOL    HW229850   0.907   1.677   5.440  0.2375  2.1809 -4.1916
 6072SOL     OW29851   2.253   4.093  16.329 -0.5327 -0.0197 -0.4413
 6072SOL    HW129852   2.314   4.067  16.398 -0.0306  2.0933 -0.0672
 6072SOL    HW229853   2.214   4.169  16.373 -1.4413 -0.5931 -0.2476
 6073SOL     OW29854   2.307   4.031   9.055 -0.3404  0.7019  0.6295
 6073SOL    HW129855   2.323   4.092   8.983  0.6995 -2.1549 -1.5811
 6073SOL    HW229856   2.386   3.978   9.046 -2.2467 -1.9979 -0.2701
 6074SOL     OW29857   2.779   3.556   5.858 -0.1210 -0.1659  0.3265
 6074SOL    HW129858   2.699   3.540   5.909 -0.0664  2.1384  1.1058
 6074SOL    HW229859   2.832   3.492   5.905 -1.9708 -3.5751 -2.1306
 6075SOL     OW29860   4.194   4.395   5.050 -0.2971  0.0070  0.2106
 6075SOL    HW129861   4.116   4.416   5.101  0.6394  1.5408  1.0203
 6075SOL    HW229862   4.181   4.470   4.992 -1.1332 -2.1785 -2.4268
 6076SOL     OW29863   3.620   1.874   2.703 -0.0118  0.0812 -0.5111
 6076SOL    HW129864   3.647   1.805   2.643 -0.1417  1.4911 -2.2084
 6076SOL    HW229865   3.618   1.944   2.637 -4.0780  0.6270  0.1835
 6077SOL     OW29866   2.100   2.157  13.624  0.5455 -0.5154  0.0406
 6077SOL    HW129867   2.100   2.146  13.529  2.2250  1.7263 -0.2115
 6077SOL    HW229868   2.050   2.079  13.648  0.1805  0.0836  1.2384
 6078SOL     OW29869   1.446   4.585  16.074 -0.5618  0.3950  0.3616
 6078SOL    HW129870   1.398   4.551  16.150 -0.9989 -0.3092 -0.2277
 6078SOL    HW229871   1.417   4.676  16.065  2.4074  1.2387 -0.4836
 6079SOL     OW29872   0.508   3.103   5.778 -0.0683 -0.1608  0.0883
 6079SOL    HW129873   0.491   3.171   5.843 -1.4100  0.8282 -1.2977
 6079SOL    HW229874   0.600   3.087   5.800  0.2423  1.2889 -0.0919
 6080SOL     OW29875   4.534   0.494   4.881  0.2163  0.0596 -0.8092
 6080SOL    HW129876   4.440   0.507   4.896  0.6074  1.9469  0.0981
 6080SOL    HW229877   4.559   0.431   4.949 -1.1518 -0.6329 -0.9451
 6081SOL     OW29878   1.595   2.622   2.531  0.5622 -0.5564 -0.0227
 6081SOL    HW129879   1.563   2.553   2.590 -0.5335  0.4193  0.5256
 6081SOL    HW229880   1.569   2.585   2.447  1.5503  1.7861 -1.3743
 6082SOL     OW29881   3.053   0.716  15.001  0.7164 -1.1352  0.0464
 6082SOL    HW129882   3.018   0.805  15.006  0.4768 -1.1053 -1.9460
 6082SOL    HW229883   3.130   0.733  14.946 -0.8969 -1.9843 -2.4601
 6083SOL     OW29884   3.307   0.394  12.320 -0.4836 -0.5632 -0.4326
 6083SOL    HW129885   3.246   0.446  12.268  0.0830 -0.4828 -1.0213
 6083SOL    HW229886   3.384   0.437  12.283  0.2798 -1.8873 -0.4049
 6084SOL     OW29887   3.570   0.790  13.783  0.2151  0.2215 -0.2943
 6084SOL    HW129888   3.644   0.760  13.730  1.1364  2.9228 -0.5058
 6084SOL    HW229889   3.588   0.739  13.861  2.1582  1.4396  0.0359
 6085SOL     OW29890   0.320   1.169  16.067 -0.5110  0.0189 -0.3748
 6085SOL    HW129891   0.291   1.146  16.155  2.1159  1.2213  0.8162
 6085SOL    HW229892   0.249   1.156  16.003 -1.1468  0.6420  0.2191
 6086SOL     OW29893   3.122   2.048  16.915  0.2438 -0.0951 -0.5177
 6086SOL    HW129894   3.103   1.965  16.960 -0.2762 -0.3113 -1.1310
 6086SOL    HW229895   3.044   2.059  16.861 -1.1706 -1.1488  1.2651
 6087SOL     OW29896   0.930   0.741  10.180  0.2259 -0.1322 -0.4002
 6087SOL    HW129897   1.013   0.785  10.196  0.7533 -1.4798  0.6390
 6087SOL    HW229898   0.930   0.664  10.238 -0.6478 -0.3900 -0.7407
 6088SOL     OW29899   2.870   0.781   7.583  0.2994  0.1394 -0.2304
 6088SOL    HW129900   2.902   0.846   7.521  1.9348 -0.4772 -0.0443
 6088SOL    HW229901   2.884   0.698   7.537  0.5361  0.1377 -0.1557
 6089SOL     OW29902   0.944   0.530  14.683  0.1287 -0.5702  0.0801
 6089SOL    HW129903   0.983   0.611  14.648  1.3248 -1.0530  0.3116
 6089SOL    HW229904   0.872   0.521  14.619 -1.8145 -2.9154  2.6101
 6090SOL     OW29905   0.041   0.089  14.484  0.0516  0.1163  0.2005
 6090SOL    HW129906   0.043   0.178  14.449 -0.0227  0.2336  0.5010
 6090SOL    HW229907   0.012   0.049  14.402  1.2449 -1.1075  0.3854
 6091SOL     OW29908   0.888   0.599   1.897 -0.2691  0.5208  0.6304
 6091SOL    HW129909   0.800   0.584   1.862  0.0553 -1.1299  0.5344
 6091SOL    HW229910   0.935   0.519   1.874 -0.6990 -0.0440  1.7498
 6092SOL     OW29911   1.138   1.299  10.602 -0.1344 -0.5187 -0.0740
 6092SOL    HW129912   1.212   1.304  10.541 -0.2465 -1.2032 -0.2734
 6092SOL    HW229913   1.167   1.231  10.663  1.7496  1.0508  0.7692
 6093SOL     OW29914   2.900   0.005   5.124  0.5241  0.3025  0.0892
 6093SOL    HW129915   2.920   0.092   5.088 -3.9735  0.6078 -1.6432
 6093SOL    HW229916   2.981   4.718   5.168 -1.4576  0.1032  3.6193
 6094SOL     OW29917   3.151   2.272  17.356  0.3210  0.2512  0.1408
 6094SOL    HW129918   3.135   2.233  17.442 -0.7835  0.0776 -0.1420
 6094SOL    HW229919   3.180   2.360  17.381  1.8896 -0.2873  0.2066
 6095SOL     OW29920   0.576   2.231   7.993  0.4356 -0.4139 -0.2120
 6095SOL    HW129921   0.502   2.260   8.047  0.0316 -3.2489  0.7377
 6095SOL    HW229922   0.596   2.150   8.040  0.2981 -0.6242 -0.5118
 6096SOL     OW29923   3.012   3.995   5.420 -0.4834  0.4054  0.0543
 6096SOL    HW129924   2.955   3.990   5.497  0.1884  1.6169  0.6271
 6096SOL    HW229925   3.085   4.042   5.459  0.5628  0.6631 -2.2288
 6097SOL     OW29926   2.807   4.357   9.220 -0.1511  0.2478  0.2183
 6097SOL    HW129927   2.752   4.425   9.182  1.5726  0.0982 -2.5511
 6097SOL    HW229928   2.779   4.275   9.179  1.4657 -0.6871  0.9633
 6098SOL     OW29929   3.787   3.554   6.392 -0.2422  0.4275 -0.5594
 6098SOL    HW129930   3.776   3.459   6.380 -1.4680  0.8024 -2.4084
 6098SOL    HW229931   3.721   3.572   6.460  1.5660  0.8431  1.0747
 6099SOL     OW29932   2.311   2.753   7.303  0.0848 -0.1804 -0.9798
 6099SOL    HW129933   2.243   2.793   7.250  0.5087  0.1774 -1.2458
 6099SOL    HW229934   2.246   2.716   7.364  2.5450  0.0827  1.8252
 6100SOL     OW29935   4.598   2.472   2.087 -0.1974  0.3477 -0.5128
 6100SOL    HW129936   4.678   2.475   2.140 -0.5380  2.1651 -0.1321
 6100SOL    HW229937   4.629   2.527   2.015  0.9735 -1.5134 -1.4422
 6101SOL     OW29938   4.574   1.644   1.589 -0.0015 -0.5010 -0.6169
 6101SOL    HW129939   4.529   1.634   1.673 -0.2787  0.9857 -0.5958
 6101SOL    HW229940   4.625   1.563   1.595  0.6020 -0.0898 -0.1964
 6102SOL     OW29941   0.726   1.208   2.869  0.3331  0.2912  0.3160
 6102SOL    HW129942   0.780   1.164   2.934  0.8746 -0.0884 -0.3862
 6102SOL    HW229943   0.780   1.286   2.854 -2.6040  2.4291  0.7078
 6103SOL     OW29944   1.190   3.996   0.734  0.0149 -0.0583  0.1216
 6103SOL    HW129945   1.235   4.059   0.678 -0.5307  1.3740  1.3025
 6103SOL    HW229946   1.121   3.975   0.671 -0.3909  0.7951  0.2814
 6104SOL     OW29947   2.359   2.063   5.849 -0.8161 -0.0703  0.6263
 6104SOL    HW129948   2.450   2.092   5.841 -0.9960  0.0308 -1.1488
 6104SOL    HW229949   2.331   2.140   5.898  2.1649  0.0190  2.1878
 6105SOL     OW29950   2.251   0.400  13.127 -0.4424 -0.3466  0.2752
 6105SOL    HW129951   2.252   0.494  13.143 -0.4605 -0.3807  0.4788
 6105SOL    HW229952   2.343   0.395  13.100 -0.6774 -0.5296 -0.4968
 6106SOL     OW29953   3.139   4.644   9.209 -1.2931  0.8196  0.3612
 6106SOL    HW129954   3.114   4.560   9.171  0.9663  0.1074  0.4718
 6106SOL    HW229955   3.129   4.701   9.133 -0.1921  1.1763  0.4877
 6107SOL     OW29956   0.872   1.329   6.435 -0.3513 -0.6062 -0.1510
 6107SOL    HW129957   0.831   1.242   6.432 -0.6535 -0.4662 -0.0576
 6107SOL    HW229958   0.804   1.378   6.482  0.6718  0.0088  0.6852
 6108SOL     OW29959   1.323   3.317   9.597 -0.9148 -0.1092 -0.9478
 6108SOL    HW129960   1.330   3.247   9.663  2.2470  2.3279  1.2819
 6108SOL    HW229961   1.231   3.343   9.602 -0.8346 -0.0271  0.1812
 6109SOL     OW29962   3.692   1.250   8.933 -0.1639 -0.2753 -0.5339
 6109SOL    HW129963   3.601   1.221   8.939 -0.1531 -0.3250 -0.6160
 6109SOL    HW229964   3.693   1.302   8.853 -1.4754  1.6448  0.7169
 6110SOL     OW29965   0.848   2.322   1.911  0.0828  0.8854 -0.2942
 6110SOL    HW129966   0.908   2.337   1.984  0.6746 -1.7975 -0.2260
 6110SOL    HW229967   0.828   2.228   1.916  1.3658  0.6221 -0.0459
 6111SOL     OW29968   2.982   2.358   9.566  0.2240 -0.0077  0.1808
 6111SOL    HW129969   3.032   2.430   9.527 -0.4290  2.5910  4.2794
 6111SOL    HW229970   3.024   2.286   9.517  0.4597  0.0504  0.2986
 6112SOL     OW29971   4.221   4.420   6.302 -0.1362 -0.6706 -0.1119
 6112SOL    HW129972   4.128   4.416   6.277  0.2175 -0.2246 -1.5211
 6112SOL    HW229973   4.226   4.491   6.366 -0.3951 -1.2647  0.5653
 6113SOL     OW29974   3.981   4.675   8.886 -0.3388 -0.1734  0.2205
 6113SOL    HW129975   3.936   4.606   8.934  0.1312 -0.4220  0.3040
 6113SOL    HW229976   3.916   4.735   8.851 -1.5567 -1.3728  0.4581
 6114SOL     OW29977   2.712   3.004  10.462 -0.5106 -0.6622 -0.0817
 6114SOL    HW129978   2.664   3.025  10.542  1.6392 -1.6042  1.4630
 6114SOL    HW229979   2.672   2.929  10.417  1.5741 -0.9091 -1.5035
 6115SOL     OW29980   3.437   4.328   3.085 -0.2156 -0.1972  0.4466
 6115SOL    HW129981   3.496   4.255   3.104  0.0353 -0.4680 -1.3751
 6115SOL    HW229982   3.369   4.276   3.043  0.5408 -0.9253  0.1116
 6116SOL     OW29983   0.335   1.593  12.471 -0.0774  0.3047 -0.0241
 6116SOL    HW129984   0.247   1.601  12.509  0.3820 -0.3091  1.1459
 6116SOL    HW229985   0.320   1.511  12.425  2.3207 -0.0089 -0.2135
 6117SOL     OW29986   4.000   4.313  15.429  0.2237 -0.0675  0.3115
 6117SOL    HW129987   3.907   4.299  15.415  0.0314  3.2166 -1.5364
 6117SOL    HW229988   4.025   4.381  15.367  0.7109 -0.9527 -0.4715
 6118SOL     OW29989   0.179   4.070   4.664  0.2114 -0.0477  0.0434
 6118SOL    HW129990   0.127   4.149   4.651 -3.0055 -2.3319 -1.1329
 6118SOL    HW229991   0.245   4.084   4.596 -0.3423 -0.8687 -0.6734
 6119SOL     OW29992   1.120   2.778   1.288 -0.1132  0.7364  0.1646
 6119SOL    HW129993   1.130   2.846   1.355 -1.9541  2.1618 -1.0093
 6119SOL    HW229994   1.132   2.703   1.346 -3.7208 -1.0231 -1.3385
 6120SOL     OW29995   3.634   3.234   8.426 -0.4120  0.6615 -0.1425
 6120SOL    HW129996   3.659   3.182   8.349 -1.9317  0.0437 -0.2266
 6120SOL    HW229997   3.634   3.172   8.499 -0.5172  0.2574 -0.4818
 6121SOL     OW29998   3.072   2.458   8.032 -0.1939 -0.1190  0.5563
 6121SOL    HW129999   3.117   2.373   8.024 -0.4994 -0.5004  2.9670
 6121SOL    HW230000   3.015   2.470   7.956 -1.4158  0.1844  1.5385
 6122SOL     OW30001   1.352   4.719   3.874  0.2116  0.9453  0.1315
 6122SOL    HW130002   1.258   4.736   3.881  0.4049  1.4709  1.5407
 6122SOL    HW230003   1.349   4.629   3.909 -1.1751  0.2901 -1.6154
 6123SOL     OW30004   2.631   1.000  16.878 -0.0125  0.2391  0.3565
 6123SOL    HW130005   2.544   1.015  16.841 -1.5380 -3.2254  2.5280
 6123SOL    HW230006   2.676   0.949  16.810 -0.9057  0.5027 -0.4221
 6124SOL     OW30007   3.448   1.683   2.508  0.5795  0.1984 -0.0728
 6124SOL    HW130008   3.540   1.699   2.486  0.0353  2.9758 -0.3661
 6124SOL    HW230009   3.421   1.751   2.446  0.4481  0.8537  0.7012
 6125SOL     OW30010   0.632   4.322   6.456  0.4745 -0.7805  0.4076
 6125SOL    HW130011   0.573   4.270   6.511 -0.7919 -2.1455 -2.2333
 6125SOL    HW230012   0.681   4.248   6.419 -1.5280 -1.0863 -1.6837
 6126SOL     OW30013   1.794   4.623   8.645  0.2622  0.0792  0.0691
 6126SOL    HW130014   1.839   4.664   8.719  2.7449 -0.9517 -0.8656
 6126SOL    HW230015   1.867   4.597   8.589 -0.0602 -0.2312 -0.2073
 6127SOL     OW30016   3.174   4.399   6.066 -0.2133 -0.1821 -0.5046
 6127SOL    HW130017   3.115   4.398   6.141  0.3338  3.1420 -0.0608
 6127SOL    HW230018   3.262   4.390   6.100 -0.6055 -3.0640 -0.2673
 6128SOL     OW30019   3.889   4.115   6.276 -0.0804  0.6415  0.9240
 6128SOL    HW130020   3.800   4.110   6.242  0.6880  1.9647 -1.2558
 6128SOL    HW230021   3.883   4.081   6.366 -1.6773  0.2397  0.6493
 6129SOL     OW30022   3.002   1.786   3.956 -0.0969 -0.0967 -0.0892
 6129SOL    HW130023   3.092   1.817   3.958 -0.5994  1.4740 -1.4980
 6129SOL    HW230024   3.021   1.694   3.934 -1.3753 -0.5191  0.5799
 6130SOL     OW30025   0.088   3.089   2.852  0.3940  0.2865 -0.0006
 6130SOL    HW130026   0.086   3.144   2.774 -1.0715 -0.5141 -0.5394
 6130SOL    HW230027   0.118   3.148   2.920  0.7170 -1.8705  1.7147
 6131SOL     OW30028   3.205   3.564   5.273  0.1658 -0.0994 -0.7019
 6131SOL    HW130029   3.247   3.499   5.216  1.0896  0.8307 -1.0820
 6131SOL    HW230030   3.284   3.606   5.308 -0.9702  0.3906  1.2596
 6132SOL     OW30031   2.137   3.779  17.445 -0.1422  0.4928  0.0715
 6132SOL    HW130032   2.111   3.872  17.445  1.4815  0.9433  0.3146
 6132SOL    HW230033   2.097   3.742  17.524  3.1066 -0.7252  1.1510
 6133SOL     OW30034   2.184   1.965   6.446  0.4025 -0.0557 -0.3115
 6133SOL    HW130035   2.208   1.985   6.536 -1.3054  1.2299 -0.1249
 6133SOL    HW230036   2.128   1.888   6.456 -0.5053  0.6922  0.3602
 6134SOL     OW30037   0.068   2.771   5.296  0.1699 -0.4346  0.1369
 6134SOL    HW130038   0.147   2.813   5.330  0.2771 -0.7498  0.2807
 6134SOL    HW230039   0.048   2.817   5.214 -0.4329  1.2579  1.2297
 6135SOL     OW30040   3.447   3.605   1.139  0.1380  0.5769  0.0385
 6135SOL    HW130041   3.375   3.591   1.077  0.2238  2.5172 -0.4954
 6135SOL    HW230042   3.510   3.540   1.107  0.8989  0.2335  2.2428
 6136SOL     OW30043   1.182   4.085   0.096  0.5309  0.0179  0.1570
 6136SOL    HW130044   1.101   4.065   0.050 -0.2083  2.8655  0.2429
 6136SOL    HW230045   1.150   4.161   0.145  1.5972 -0.3111  1.3609
 6137SOL     OW30046   1.365   2.629   5.794 -0.6444 -0.3000  0.3611
 6137SOL    HW130047   1.274   2.606   5.777 -0.2876  0.0564 -2.0107
 6137SOL    HW230048   1.392   2.678   5.716  0.1147 -1.3342 -0.0219
 6138SOL     OW30049   1.960   3.097   9.212 -0.0152 -0.4192 -0.6331
 6138SOL    HW130050   1.970   3.192   9.205  0.4603 -0.4859 -0.8614
 6138SOL    HW230051   1.920   3.078   9.127 -0.5051  0.8227 -0.6839
 6139SOL     OW30052   2.806   1.148  12.333  0.4381  0.5913 -0.5186
 6139SOL    HW130053   2.719   1.143  12.372  1.7407  1.4340  2.5157
 6139SOL    HW230054   2.863   1.089  12.383  0.0337  0.1858 -0.5387
 6140SOL     OW30055   2.400   1.095   1.855  0.0526 -0.2279  0.0830
 6140SOL    HW130056   2.438   1.183   1.862 -0.7873  0.1071  0.3966
 6140SOL    HW230057   2.423   1.077   1.764 -0.5966 -2.6093  0.3959
 6141SOL     OW30058   1.334   1.402  13.314  0.0332  0.1000 -0.1059
 6141SOL    HW130059   1.322   1.380  13.406  1.4250 -0.4771 -0.0611
 6141SOL    HW230060   1.429   1.417  13.309 -0.1523  1.5309  0.6349
 6142SOL     OW30061   1.885   2.762   0.765  0.4867  0.5098  0.4117
 6142SOL    HW130062   1.865   2.757   0.859 -0.0500 -1.0745  0.2085
 6142SOL    HW230063   1.858   2.675   0.735 -1.9083  2.0743 -1.9228
 6143SOL     OW30064   0.387   3.312   3.762  0.4721  0.3282  0.4129
 6143SOL    HW130065   0.374   3.392   3.814  2.3741  2.4025 -2.2980
 6143SOL    HW230066   0.302   3.312   3.718  0.8682 -0.3467 -0.3444
 6144SOL     OW30067   0.880   3.983  15.910 -0.4244  0.4890  0.2971
 6144SOL    HW130068   0.809   4.044  15.893  2.2054  2.2481 -4.4538
 6144SOL    HW230069   0.957   4.009  15.859  0.0513  0.7499  1.1363
 6145SOL     OW30070   1.457   3.443  13.872  0.2186  0.1572  0.3251
 6145SOL    HW130071   1.417   3.436  13.786  1.8390 -0.5204 -0.3653
 6145SOL    HW230072   1.407   3.379  13.923  0.0724 -0.4686 -0.6015
 6146SOL     OW30073   1.078   4.058   6.179  0.4554  0.1677  0.9869
 6146SOL    HW130074   1.090   3.981   6.124 -1.2710  0.1704  0.6034
 6146SOL    HW230075   1.096   4.125   6.113 -3.3396 -0.2804 -0.4816
 6147SOL     OW30076   3.930   3.056   8.123 -0.2157 -0.2190 -0.0916
 6147SOL    HW130077   3.969   2.971   8.102 -1.4882  0.0475 -3.4629
 6147SOL    HW230078   3.935   3.100   8.038  0.5011 -1.6448 -0.7919
 6148SOL     OW30079   3.759   3.701  15.750 -0.2776  0.7192  0.1749
 6148SOL    HW130080   3.795   3.622  15.709 -1.2431  1.0633 -1.3200
 6148SOL    HW230081   3.833   3.762  15.754 -0.8087  1.2878  1.1622
 6149SOL     OW30082   1.201   0.028   6.614 -0.3165 -0.0706 -0.2906
 6149SOL    HW130083   1.294   0.046   6.604 -0.1495 -0.9130 -0.2984
 6149SOL    HW230084   1.205   4.688   6.669 -0.5561  0.1733  0.0737
 6150SOL     OW30085   3.584   1.393  14.045  0.2244  0.2555 -0.3487
 6150SOL    HW130086   3.539   1.444  13.978 -0.0845  0.7771  0.2534
 6150SOL    HW230087   3.556   1.305  14.021  0.4347  0.0589  0.1336
 6151SOL     OW30088   2.515   1.597   5.669 -0.1265 -0.9713  0.4560
 6151SOL    HW130089   2.440   1.590   5.610  0.7885  1.0608 -0.9422
 6151SOL    HW230090   2.482   1.631   5.752 -0.4548  0.9390 -0.4574
 6152SOL     OW30091   0.368   3.621   4.523 -0.7991 -0.0958 -0.2137
 6152SOL    HW130092   0.400   3.700   4.568 -2.9589  2.0366 -2.4816
 6152SOL    HW230093   0.384   3.649   4.433  0.3419 -2.7547 -0.8439
 6153SOL     OW30094   0.676   4.128   3.825  0.3771 -0.5067  0.0974
 6153SOL    HW130095   0.639   4.204   3.870 -0.1330 -1.2427  0.9381
 6153SOL    HW230096   0.769   4.145   3.840  0.1661  1.9335 -1.3879
 6154SOL     OW30097   4.393   2.729  11.573  0.5181 -0.2774  0.1952
 6154SOL    HW130098   4.338   2.715  11.496  3.0621  2.3291 -2.1044
 6154SOL    HW230099   4.476   2.689  11.544 -0.6294 -0.2316 -3.2358
 6155SOL     OW30100   2.058   3.453   6.402 -0.3920  0.0899 -0.3593
 6155SOL    HW130101   2.130   3.390   6.408  0.3568  0.8780 -0.9854
 6155SOL    HW230102   2.024   3.410   6.323  0.0996 -0.8508 -0.0578
 6156SOL     OW30103   1.735   4.201   7.358 -0.3953 -0.1452 -0.0636
 6156SOL    HW130104   1.717   4.277   7.303 -1.9841  0.7020  1.6109
 6156SOL    HW230105   1.650   4.192   7.401  0.5257  0.0365  1.7836
 6157SOL     OW30106   4.708   3.958  15.083  0.0964 -0.1031  0.0349
 6157SOL    HW130107   0.050   3.952  15.134 -1.1261  1.0617  2.1154
 6157SOL    HW230108   4.650   4.003  15.144  0.7453  3.0900 -1.7055
 6158SOL     OW30109   3.641   4.738  11.305  0.0835  0.1024 -0.1807
 6158SOL    HW130110   3.716   0.050  11.336  0.3401 -0.0489 -0.5602
 6158SOL    HW230111   3.682   4.685  11.237 -2.9156 -1.4517 -0.7656
 6159SOL     OW30112   2.008   4.337   0.374  0.4550 -0.0237 -0.5619
 6159SOL    HW130113   1.998   4.249   0.338  1.1021  0.6318 -2.3325
 6159SOL    HW230114   1.988   4.312   0.465 -0.2300  0.5982 -0.5365
 6160SOL     OW30115   3.036   1.670   6.429 -0.2001  0.1639 -0.2398
 6160SOL    HW130116   2.993   1.755   6.417 -0.0268  0.3088  0.1777
 6160SOL    HW230117   3.032   1.632   6.341 -1.1643 -1.1636  0.3736
 6161SOL     OW30118   0.001   2.961   5.780  0.0707 -0.1525 -0.4628
 6161SOL    HW130119   0.028   2.959   5.871 -1.9562  1.6582  0.1709
 6161SOL    HW230120   0.046   2.885   5.742  0.5085  0.4802 -1.2273
 6162SOL     OW30121   0.725   2.402   6.679  0.3264  0.4328  0.3067
 6162SOL    HW130122   0.642   2.382   6.635 -0.6483  1.8440  1.4881
 6162SOL    HW230123   0.801   2.357   6.643  0.6973  1.1288  0.2148
 6163SOL     OW30124   3.292   4.052  12.050 -0.4927 -0.2850 -0.5006
 6163SOL    HW130125   3.242   3.983  12.093  0.7614 -1.4642 -0.9455
 6163SOL    HW230126   3.330   4.014  11.971  0.1992 -0.4285 -0.0999
 6164SOL     OW30127   0.434   3.015  12.273  0.5458 -0.0999  0.1333
 6164SOL    HW130128   0.404   3.070  12.346 -2.4401  0.5303 -1.5868
 6164SOL    HW230129   0.479   2.943  12.317 -0.5530  0.0361  1.4612
 6165SOL     OW30130   0.636   4.402   8.296  0.1470  0.5100 -0.2340
 6165SOL    HW130131   0.578   4.476   8.315 -0.6395 -0.2342  0.2694
 6165SOL    HW230132   0.716   4.455   8.295  1.0030 -0.7821 -0.1187
 6166SOL     OW30133   3.155   0.622   2.456 -0.0723 -0.1690  0.4280
 6166SOL    HW130134   3.167   0.586   2.369  2.0543 -0.5111  0.8577
 6166SOL    HW230135   3.199   0.706   2.445  0.0591 -0.0279  1.9838
 6167SOL     OW30136   1.138   1.307   4.127  0.6255 -0.2413  0.1253
 6167SOL    HW130137   1.108   1.372   4.191 -0.8466 -0.7082 -0.0825
 6167SOL    HW230138   1.222   1.288   4.169  0.5254 -1.4790 -0.2438
 6168SOL     OW30139   3.663   3.860  14.363  0.2257 -0.6535  0.5221
 6168SOL    HW130140   3.686   3.771  14.338  1.0592  0.5660 -2.9962
 6168SOL    HW230141   3.729   3.916  14.322 -0.3218 -1.0905 -0.9523
 6169SOL     OW30142   1.980   2.970   8.934 -0.1188  0.5694 -0.0281
 6169SOL    HW130143   1.950   3.005   8.850 -1.6279  0.5615  0.5097
 6169SOL    HW230144   1.900   2.931   8.967 -0.7037  3.1036  1.5661
 6170SOL     OW30145   4.005   3.908   9.467  0.7137 -0.1398 -0.5456
 6170SOL    HW130146   3.997   3.816   9.443  1.6941  0.4281 -3.1258
 6170SOL    HW230147   3.916   3.939   9.450  0.9838 -0.5034 -2.6382
 6171SOL     OW30148   0.161   1.804   7.795  0.2527  0.4170  0.3237
 6171SOL    HW130149   0.137   1.872   7.857 -1.0028  0.3501 -0.0908
 6171SOL    HW230150   0.256   1.808   7.799  0.3662 -2.7958  1.2098
 6172SOL     OW30151   1.190   4.566  11.874  0.2933 -0.0111 -0.2332
 6172SOL    HW130152   1.112   4.517  11.903 -0.7755  0.2549 -2.7212
 6172SOL    HW230153   1.162   4.655  11.894  2.5814  0.7758 -0.5817
 6173SOL     OW30154   4.686   3.193  11.380  0.0572  0.2086 -0.2061
 6173SOL    HW130155   4.691   3.281  11.418  1.6935  0.5126 -1.1478
 6173SOL    HW230156   4.697   3.210  11.286 -1.1479  0.1232 -0.3655
 6174SOL     OW30157   1.345   0.348   6.977  0.3145  0.5253  0.1645
 6174SOL    HW130158   1.281   0.329   6.909 -0.0532  2.5377 -0.0589
 6174SOL    HW230159   1.331   0.443   6.977  1.6348  0.7193  0.2633
 6175SOL     OW30160   2.631   1.887  14.106  0.0365 -0.1893 -0.0675
 6175SOL    HW130161   2.574   1.946  14.057  0.3054 -0.7195 -1.0047
 6175SOL    HW230162   2.702   1.857  14.049 -1.3697 -1.2868 -1.2338
 6176SOL     OW30163   2.926   1.384   3.112 -0.1117  0.1160 -0.0769
 6176SOL    HW130164   2.971   1.312   3.067  1.8423  0.5926  1.1187
 6176SOL    HW230165   2.841   1.340   3.118 -0.5081  0.9500  0.3704
 6177SOL     OW30166   2.042   0.606  16.290 -0.3960  0.1973  0.3063
 6177SOL    HW130167   1.960   0.577  16.329 -0.2750 -2.8074 -1.6484
 6177SOL    HW230168   2.001   0.682  16.249 -1.6235  0.7867  2.6245
 6178SOL     OW30169   2.789   4.509  15.794 -0.4503  0.2343 -0.1457
 6178SOL    HW130170   2.722   4.494  15.861  0.7343 -1.9594  0.5412
 6178SOL    HW230171   2.760   4.595  15.763 -2.9527 -0.5071  0.1542
 6179SOL     OW30172   2.440   1.789   5.892  0.3128  0.3107  0.2280
 6179SOL    HW130173   2.350   1.772   5.921  0.9835 -3.1058  0.3147
 6179SOL    HW230174   2.433   1.882   5.872 -1.1859  0.7116  2.6368
 6180SOL     OW30175   0.675   3.205   8.766  0.1146  0.9722 -0.4205
 6180SOL    HW130176   0.675   3.181   8.859  1.1114 -0.7313 -0.8734
 6180SOL    HW230177   0.587   3.243   8.757 -0.4226  0.2017  1.4797
 6181SOL     OW30178   4.173   4.153  13.465 -0.3823  0.4888 -0.1100
 6181SOL    HW130179   4.094   4.110  13.496 -0.0888 -1.3010 -1.8971
 6181SOL    HW230180   4.152   4.237  13.425  0.0790  0.2289 -0.8947
 6182SOL     OW30181   1.252   4.409   1.250  0.0385 -0.4283 -0.0248
 6182SOL    HW130182   1.295   4.380   1.330  0.4859  1.2599  0.3345
 6182SOL    HW230183   1.161   4.381   1.262  0.5281 -2.3155 -0.7780
 6183SOL     OW30184   1.499   1.253   1.667  0.3312 -0.5040 -0.3029
 6183SOL    HW130185   1.550   1.328   1.697 -0.0495  0.5239 -2.2878
 6183SOL    HW230186   1.570   1.190   1.655 -1.0228 -1.8594 -1.2635
 6184SOL     OW30187   2.035   4.184   3.379  0.3186  0.3273  0.4967
 6184SOL    HW130188   2.088   4.117   3.422 -2.2351 -2.0162  0.0010
 6184SOL    HW230189   2.053   4.168   3.287 -0.1182  2.6263  0.0188
 6185SOL     OW30190   2.103   3.298   3.476  0.1736  0.3000  0.4762
 6185SOL    HW130191   2.097   3.342   3.392 -0.5211 -3.1999 -1.3159
 6185SOL    HW230192   2.091   3.204   3.463  2.8659  0.0103  0.2153
 6186SOL     OW30193   3.649   0.984   5.322  0.2600 -0.1825  0.3159
 6186SOL    HW130194   3.669   1.070   5.284 -0.2319  0.5067  1.6108
 6186SOL    HW230195   3.687   1.011   5.406  2.1840 -0.4830 -0.4542
 6187SOL     OW30196   1.712   3.675   1.951  0.1955  0.2558 -0.1563
 6187SOL    HW130197   1.641   3.711   1.899 -1.0245  1.0909  2.1040
 6187SOL    HW230198   1.783   3.720   1.905 -0.4896  0.8563 -0.6334
 6188SOL     OW30199   0.309   0.484   3.120 -0.3448  0.1181 -0.7362
 6188SOL    HW130200   0.302   0.513   3.029  0.1534  0.8667 -0.5271
 6188SOL    HW230201   0.316   0.388   3.118  0.1481  0.1313  0.1412
 6189SOL     OW30202   2.927   4.324  17.383 -0.3699  0.0993 -0.2048
 6189SOL    HW130203   2.992   4.253  17.388  0.1839  0.4832 -1.8462
 6189SOL    HW230204   2.955   4.356  17.297  2.0933 -0.8568  0.2380
 6190SOL     OW30205   2.099   3.369   2.205 -0.3966 -0.3971  0.0032
 6190SOL    HW130206   2.108   3.373   2.109  1.7296 -0.8615  0.1947
 6190SOL    HW230207   2.097   3.462   2.230 -1.4991 -0.0170 -1.4990
 6191SOL     OW30208   2.766   0.677   9.652 -0.0948 -0.1301  0.6387
 6191SOL    HW130209   2.807   0.679   9.566  1.1616 -0.2882  1.2351
 6191SOL    HW230210   2.747   0.768   9.672 -0.7302 -0.2798  0.7218
 6192SOL     OW30211   2.189   2.109   7.949 -0.2782 -0.1014 -0.4065
 6192SOL    HW130212   2.174   2.167   8.025  2.3725 -0.7009  0.5474
 6192SOL    HW230213   2.216   2.175   7.885  1.8196  0.8618  1.4793
 6193SOL     OW30214   4.365   0.698   5.743 -0.2934  0.3270 -0.0302
 6193SOL    HW130215   4.367   0.770   5.806  2.6880 -0.0488  0.3283
 6193SOL    HW230216   4.379   0.628   5.807 -0.9247 -0.4415 -0.7350
 6194SOL     OW30217   4.267   3.818   2.708  0.9018  0.2178 -0.3644
 6194SOL    HW130218   4.311   3.866   2.777 -0.5758  0.2120  0.5769
 6194SOL    HW230219   4.335   3.815   2.641  0.1241 -1.6683 -1.0699
 6195SOL     OW30220   1.273   1.123   5.343  0.4910 -0.0402  0.3457
 6195SOL    HW130221   1.285   1.214   5.317  1.9018 -0.4234 -0.3365
 6195SOL    HW230222   1.187   1.100   5.306  0.0589  0.7545  0.8736
 6196SOL     OW30223   1.946   2.230  14.828 -0.4377  0.8384 -0.3111
 6196SOL    HW130224   2.002   2.267  14.896  1.3475 -1.1594 -0.6912
 6196SOL    HW230225   1.969   2.138  14.817 -0.3677  0.8174  0.0110
 6197SOL     OW30226   1.454   3.865   3.505 -0.7453 -0.0166  0.3119
 6197SOL    HW130227   1.470   3.947   3.551 -1.2120 -0.8999  2.0776
 6197SOL    HW230228   1.439   3.795   3.569  0.2404  1.6222  2.3250
 6198SOL     OW30229   4.737   4.328   4.609  0.5814 -0.3105 -0.4703
 6198SOL    HW130230   4.675   4.395   4.579 -0.6958 -1.3884 -0.2403
 6198SOL    HW230231   4.721   4.334   4.703  2.7425 -0.6585 -0.0953
 6199SOL     OW30232   4.004   3.906  17.679 -0.5402  0.1207  0.2105
 6199SOL    HW130233   4.057   3.870  17.750 -1.0986 -1.8625 -0.3579
 6199SOL    HW230234   4.038   3.857  17.604 -2.4724  0.1234 -0.6710
 6200SOL     OW30235   0.954   1.964  12.599  0.2793 -0.2650 -0.4127
 6200SOL    HW130236   0.995   1.996  12.519 -0.1702  2.1131  0.2998
 6200SOL    HW230237   0.888   2.033  12.609  0.3836 -0.8202  4.0393
 6201SOL     OW30238   2.383   2.422   5.762  0.0105  0.1155 -0.0386
 6201SOL    HW130239   2.293   2.394   5.746 -0.7458  0.5694  3.2968
 6201SOL    HW230240   2.374   2.518   5.766  2.3301  0.3961 -1.7576
 6202SOL     OW30241   4.143   4.029   2.587 -0.2921 -0.0598 -0.1246
 6202SOL    HW130242   4.172   3.949   2.630 -4.0032 -0.0021  2.5054
 6202SOL    HW230243   4.055   4.008   2.554  0.2543 -0.9584 -0.9941
 6203SOL     OW30244   3.436   3.943   5.024  0.0010 -0.0283 -0.0447
 6203SOL    HW130245   3.465   3.929   4.934  0.0311  0.6940 -0.1472
 6203SOL    HW230246   3.522   3.969   5.056  0.1191 -0.8873  0.3236
 6204SOL     OW30247   2.117   0.297   7.904 -0.1264 -0.1726 -0.0149
 6204SOL    HW130248   2.138   0.355   7.832  1.4137 -1.3237 -0.4849
 6204SOL    HW230249   2.202   0.290   7.946 -0.1288 -0.8521 -0.1217
 6205SOL     OW30250   4.018   1.127   2.577 -0.1877  0.1009 -0.4853
 6205SOL    HW130251   4.085   1.146   2.512 -0.1822  0.3080 -0.4171
 6205SOL    HW230252   3.937   1.173   2.556  1.2710  1.9949 -1.8559
 6206SOL     OW30253   2.922   1.676   7.039 -0.2667 -0.1349  0.0512
 6206SOL    HW130254   2.916   1.705   6.948 -0.0909 -1.9908 -0.5379
 6206SOL    HW230255   3.015   1.677   7.063 -0.2520  1.4089 -0.0154
 6207SOL     OW30256   4.617   3.212  12.625  0.1834  0.1009  0.0027
 6207SOL    HW130257   4.644   3.162  12.548 -1.1260  0.1918 -0.5136
 6207SOL    HW230258   4.533   3.172  12.645  0.2502  0.4124  0.8981
 6208SOL     OW30259   3.928   3.524   9.858 -0.1302 -0.7303  0.3764
 6208SOL    HW130260   4.002   3.572   9.894  1.0299 -1.8966 -0.4898
 6208SOL    HW230261   3.861   3.556   9.918 -0.3911 -1.2896  0.3831
 6209SOL     OW30262   1.050   4.179   7.242 -0.2758  0.3042 -0.7835
 6209SOL    HW130263   1.102   4.205   7.166  0.4174  1.6746  0.1652
 6209SOL    HW230264   1.011   4.263   7.270 -1.0872  0.0288 -1.0841
 6210SOL     OW30265   3.858   4.102   7.271 -0.0647  0.1014  0.1113
 6210SOL    HW130266   3.844   4.063   7.358 -0.7907  0.6473  0.2430
 6210SOL    HW230267   3.845   4.026   7.214 -0.4100  0.8656 -0.8250
 6211SOL     OW30268   1.048   4.006   5.527 -0.2940  0.4139  0.5807
 6211SOL    HW130269   1.135   3.967   5.540  0.2621  1.0912 -0.9844
 6211SOL    HW230270   0.997   3.992   5.606 -0.3592 -0.1630  0.4376
 6212SOL     OW30271   1.364   2.578   6.778  0.0736  0.4467  0.4208
 6212SOL    HW130272   1.331   2.546   6.862 -1.6411 -1.1367 -0.8620
 6212SOL    HW230273   1.413   2.652   6.815 -0.8138  0.1490  2.2305
 6213SOL     OW30274   1.811   2.739   7.881 -0.0784  0.1196  0.4354
 6213SOL    HW130275   1.853   2.677   7.941 -1.5707  0.6647  2.0722
 6213SOL    HW230276   1.721   2.712   7.862  0.1356  0.9772 -1.7637
 6214SOL     OW30277   2.677   4.124   6.958  0.1963  0.2799 -0.2845
 6214SOL    HW130278   2.630   4.168   6.887 -2.1456 -0.1412  1.0186
 6214SOL    HW230279   2.612   4.108   7.026  0.9595 -2.4293 -0.1817
 6215SOL     OW30280   0.040   0.205   8.963  0.2618 -0.0726  0.4072
 6215SOL    HW130281   4.700   0.256   8.984  0.6921  0.8052 -0.1367
 6215SOL    HW230282   0.005   0.117   8.978 -0.2501 -0.1668 -1.3463
 6216SOL     OW30283   2.324   0.690   4.441  0.3813 -0.0407 -0.0668
 6216SOL    HW130284   2.385   0.717   4.373  1.5253 -1.5224  0.3797
 6216SOL    HW230285   2.253   0.651   4.389  2.3410 -0.8956 -2.0794
 6217SOL     OW30286   4.097   1.412  16.771  0.9329 -0.3192 -0.0470
 6217SOL    HW130287   4.109   1.460  16.853  2.5657  0.5632 -0.8169
 6217SOL    HW230288   4.009   1.435  16.743 -0.6356 -2.0569  3.4593
 6218SOL     OW30289   0.540   4.050   2.131 -0.4201 -0.2389  0.2020
 6218SOL    HW130290   0.551   4.000   2.212  0.7581 -0.2354  0.0528
 6218SOL    HW230291   0.620   4.031   2.081  0.1297  0.9236  0.6452
 6219SOL     OW30292   4.025   1.926  17.058  0.4103  0.4413 -0.5910
 6219SOL    HW130293   4.029   1.966  17.146  1.5852 -0.3809 -0.2748
 6219SOL    HW230294   4.084   1.851  17.065  0.9159  0.9296  0.3918
 6220SOL     OW30295   0.073   3.331   9.464 -0.1741  0.2551 -0.3190
 6220SOL    HW130296   0.169   3.339   9.458 -0.0891  1.2026  2.4711
 6220SOL    HW230297   0.063   3.399   9.531  0.5980 -0.3814  0.4404
 6221SOL     OW30298   2.770   2.097   3.860 -0.0606  0.0271  0.3566
 6221SOL    HW130299   2.688   2.098   3.910 -0.9470 -1.5150 -1.0488
 6221SOL    HW230300   2.798   2.185   3.886 -0.1458 -0.1063  0.9055
 6222SOL     OW30301   2.571   1.823   2.844  0.1608 -0.0514  0.0001
 6222SOL    HW130302   2.519   1.768   2.785 -1.5420 -0.3689  1.7960
 6222SOL    HW230303   2.587   1.758   2.912  1.3526  1.2500  0.9597
 6223SOL     OW30304   0.080   2.904   8.931 -0.4883  0.2116 -0.3097
 6223SOL    HW130305   0.095   2.843   8.860 -2.5932  0.1006 -0.6724
 6223SOL    HW230306   0.155   2.881   8.985 -0.2695  0.4293 -0.5199
 6224SOL     OW30307   1.237   1.691   7.922 -0.0898 -0.4341  0.2111
 6224SOL    HW130308   1.288   1.772   7.920 -4.0305  1.9480 -1.5192
 6224SOL    HW230309   1.189   1.703   8.004  1.0535  0.1736  0.8041
 6225SOL     OW30310   0.004   1.995   2.062  0.0795 -0.2117 -0.0190
 6225SOL    HW130311   4.687   1.988   1.984  1.4961 -3.3501 -0.7467
 6225SOL    HW230312   0.074   1.931   2.054  0.7700  0.3121  1.8729
 6226SOL     OW30313   1.374   3.466   1.712 -0.3143  0.1229 -0.1504
 6226SOL    HW130314   1.426   3.460   1.792 -0.6487 -0.5128  0.0143
 6226SOL    HW230315   1.290   3.484   1.755  1.4559  0.9322  2.9649
 6227SOL     OW30316   2.043   0.636  15.821 -0.2144 -0.7572  0.3545
 6227SOL    HW130317   2.090   0.698  15.764 -1.8372 -0.8117 -1.0523
 6227SOL    HW230318   1.956   0.677  15.826 -0.4973 -1.2255 -0.7315
 6228SOL     OW30319   1.618   0.762   8.740 -0.0203  0.5155  0.3045
 6228SOL    HW130320   1.626   0.818   8.817 -0.2077 -2.7998  2.7307
 6228SOL    HW230321   1.655   0.825   8.679  2.3845 -1.9141 -0.7359
 6229SOL     OW30322   4.425   0.004   9.620  0.3737 -0.0620 -0.0720
 6229SOL    HW130323   4.428   4.695   9.703  1.5084 -1.9834 -1.2031
 6229SOL    HW230324   4.448   4.676   9.556  0.2833  0.0375 -0.2065
 6230SOL     OW30325   3.365   2.167   1.325 -0.4217  0.1258 -0.1535
 6230SOL    HW130326   3.289   2.141   1.377 -0.2745  0.2683  0.1326
 6230SOL    HW230327   3.338   2.255   1.297 -0.7675  0.1748  0.3415
 6231SOL     OW30328   2.279   4.708  11.927  0.3742  0.0501  0.2500
 6231SOL    HW130329   2.257   4.641  11.991  0.4919  0.7503  1.0298
 6231SOL    HW230330   2.259   4.668  11.842  0.6889 -0.6060  0.4926
 6232SOL     OW30331   0.343   3.384  13.148 -1.0631  0.6249 -0.2113
 6232SOL    HW130332   0.291   3.462  13.168 -2.5225 -0.4071  0.0686
 6232SOL    HW230333   0.426   3.401  13.191 -1.0085  0.4979 -0.2669
 6233SOL     OW30334   3.485   0.422  16.097  0.6042  0.0916 -0.2020
 6233SOL    HW130335   3.489   0.501  16.151  0.4860  1.3710 -2.0462
 6233SOL    HW230336   3.481   0.347  16.155  0.6575  0.3076  0.0808
 6234SOL     OW30337   2.420   1.074   9.726 -0.4369 -0.0205  0.1930
 6234SOL    HW130338   2.379   1.161   9.725 -0.4259  0.0172  2.3736
 6234SOL    HW230339   2.454   1.064   9.815 -1.5216 -1.5845  0.4218
 6235SOL     OW30340   2.172   2.064  17.618 -0.4133  0.0737  0.4212
 6235SOL    HW130341   2.181   2.148  17.572  0.2986 -0.0447  0.3477
 6235SOL    HW230342   2.255   2.018  17.607 -0.5932  0.0971 -1.0641
 6236SOL     OW30343   3.392   3.910  14.333  0.4171  0.3391 -0.4735
 6236SOL    HW130344   3.370   4.002  14.324  2.6180  0.9969  0.7501
 6236SOL    HW230345   3.481   3.914  14.369 -0.4800  1.0297  1.7142
 6237SOL     OW30346   2.330   1.620   6.588 -0.0106 -0.1969 -0.4315
 6237SOL    HW130347   2.263   1.554   6.605 -0.7234  0.7020  0.2024
 6237SOL    HW230348   2.281   1.675   6.528 -0.5303 -0.4800 -0.2620
 6238SOL     OW30349   4.609   1.698   6.598  0.5223  0.5575  0.2007
 6238SOL    HW130350   4.518   1.671   6.587  0.8592 -0.2177 -0.6884
 6238SOL    HW230351   4.596   1.710   6.692 -0.1014 -2.6846  0.5539
 6239SOL     OW30352   2.237   2.879  16.195 -0.3549 -0.4039 -0.1542
 6239SOL    HW130353   2.315   2.834  16.229  1.1234  1.6905 -0.7738
 6239SOL    HW230354   2.211   2.825  16.120  1.4767  0.0324 -1.0998
 6240SOL     OW30355   3.423   2.128   4.181 -0.3132 -0.1844  0.3160
 6240SOL    HW130356   3.448   2.036   4.170  3.0079  0.9743 -1.8766
 6240SOL    HW230357   3.368   2.133   4.103  2.4361 -0.8838 -1.6747
 6241SOL     OW30358   2.317   2.812   8.579 -0.2603 -0.8971 -0.2614
 6241SOL    HW130359   2.337   2.742   8.641 -0.6151 -0.9250 -0.1811
 6241SOL    HW230360   2.409   2.836   8.561  0.4220 -2.5015  1.1058
 6242SOL     OW30361   2.933   2.793   8.050  0.4043  0.0248 -0.0452
 6242SOL    HW130362   3.017   2.782   8.093  0.6447 -0.6933 -0.7110
 6242SOL    HW230363   2.955   2.819   7.960 -0.2586 -1.2471 -0.5732
 6243SOL     OW30364   4.460   0.342   3.478  0.3858  0.0102  0.0602
 6243SOL    HW130365   4.381   0.337   3.533 -1.1962 -0.1864 -2.2458
 6243SOL    HW230366   4.474   0.254   3.445 -0.7486 -0.1872  0.1128
 6244SOL     OW30367   4.118   3.753   7.871  0.0155 -0.0239  0.1477
 6244SOL    HW130368   4.135   3.737   7.964  0.6943 -0.5414 -0.0663
 6244SOL    HW230369   4.056   3.682   7.859 -1.8894  1.3320  1.8993
 6245SOL     OW30370   4.739   2.101  13.745 -0.3473 -0.1640  0.4691
 6245SOL    HW130371   0.048   2.179  13.718 -1.6113  0.1019 -1.0574
 6245SOL    HW230372   4.729   2.121  13.838  0.1098  1.9108  0.0798
 6246SOL     OW30373   4.546   1.083   4.406 -0.4124  0.2147 -0.3250
 6246SOL    HW130374   4.506   1.086   4.319 -0.6565  1.0846 -0.1846
 6246SOL    HW230375   4.637   1.059   4.389 -1.1112 -1.0244 -2.3448
 6247SOL     OW30376   1.417   2.431  11.219  0.1007 -0.3464 -0.4033
 6247SOL    HW130377   1.393   2.357  11.274 -1.1761 -0.5248 -1.2037
 6247SOL    HW230378   1.434   2.502  11.280 -0.8059  0.4183 -1.0370
 6248SOL     OW30379   1.158   3.461   5.156  0.6431  0.5764  0.2897
 6248SOL    HW130380   1.151   3.369   5.130 -0.9069  0.6361  0.4838
 6248SOL    HW230381   1.169   3.500   5.070  0.9562 -0.8659 -0.3253
 6249SOL     OW30382   3.602   2.587   7.208  0.0322 -0.2944  0.2460
 6249SOL    HW130383   3.568   2.634   7.132  1.4989 -0.1811 -0.3325
 6249SOL    HW230384   3.668   2.647   7.242  2.3859 -2.2018 -0.9524
 6250SOL     OW30385   2.965   0.196   9.748  0.0288  0.2177 -0.2165
 6250SOL    HW130386   2.921   0.244   9.817 -0.8822 -2.4900  1.0709
 6250SOL    HW230387   3.052   0.235   9.762 -0.6256  1.4998  0.2237
 6251SOL     OW30388   0.542   4.292   5.015 -0.1872  0.4231 -0.8062
 6251SOL    HW130389   0.606   4.310   4.945  0.6980  1.7203  0.3268
 6251SOL    HW230390   0.569   4.204   5.042 -0.7579  0.0125 -1.5690
 6252SOL     OW30391   4.233   1.813   3.996  0.0575 -0.8601 -0.0421
 6252SOL    HW130392   4.300   1.859   3.946  0.9933 -2.7354 -0.5172
 6252SOL    HW230393   4.233   1.864   4.077  0.0340 -1.1760  0.1582
 6253SOL     OW30394   2.852   3.701   4.441 -0.2279  0.2240 -0.1689
 6253SOL    HW130395   2.939   3.688   4.478  0.1427 -1.9933 -1.8268
 6253SOL    HW230396   2.814   3.766   4.500 -1.6810 -0.5164 -0.2701
 6254SOL     OW30397   1.222   2.853  11.135 -0.2287  0.8272 -0.0319
 6254SOL    HW130398   1.306   2.863  11.181  0.2213  1.0458 -0.9168
 6254SOL    HW230399   1.178   2.788  11.190  2.6298 -0.2183  1.0471
 6255SOL     OW30400   2.013   3.410   3.987 -0.3721  0.1591 -0.0992
 6255SOL    HW130401   1.964   3.361   4.054  1.1341 -0.1979  0.7397
 6255SOL    HW230402   2.087   3.351   3.976  2.0419  2.6258  2.7073
 6256SOL     OW30403   3.118   1.561  13.013  0.1423 -0.7594 -0.0294
 6256SOL    HW130404   3.124   1.604  13.098  1.9432  0.2130 -0.6541
 6256SOL    HW230405   3.163   1.623  12.956  0.9913 -0.9269  0.4630
 6257SOL     OW30406   1.185   3.545   1.899  0.7105 -0.4794 -0.1813
 6257SOL    HW130407   1.140   3.626   1.875  1.2527 -0.8102 -2.3363
 6257SOL    HW230408   1.119   3.477   1.885 -0.0159  0.4738 -1.3918
 6258SOL     OW30409   3.778   0.021   6.631 -0.4558  0.8107 -0.4808
 6258SOL    HW130410   3.788   4.679   6.681 -0.3727  1.0916 -0.0391
 6258SOL    HW230411   3.861   0.067   6.643  0.6348 -0.5938 -2.8412
 6259SOL     OW30412   3.012   0.849  16.377 -0.1159  0.3942 -0.0068
 6259SOL    HW130413   3.077   0.779  16.383 -2.0623 -1.3659  0.7079
 6259SOL    HW230414   3.055   0.920  16.423  2.6085 -0.3391 -1.4041
 6260SOL     OW30415   1.335   4.129   5.376 -0.3172  0.3175 -0.0130
 6260SOL    HW130416   1.379   4.048   5.400 -0.5051  0.3984  0.6037
 6260SOL    HW230417   1.287   4.144   5.457 -0.3005 -0.8367  0.2079
 6261SOL     OW30418   2.506   1.841   1.813  0.4522 -0.2456  0.0878
 6261SOL    HW130419   2.426   1.849   1.865  0.8994 -1.1163  0.9102
 6261SOL    HW230420   2.554   1.773   1.861  0.2973  0.1316  0.7713
 6262SOL     OW30421   0.691   3.948  15.566  0.2919 -0.4288 -0.0058
 6262SOL    HW130422   0.758   3.993  15.515  2.4582 -1.2497  2.1711
 6262SOL    HW230423   0.751   3.896  15.618 -2.7945 -3.0688  0.9305
 6263SOL     OW30424   1.329   2.868   2.042  0.2006  0.0078  0.0842
 6263SOL    HW130425   1.275   2.883   2.120  1.9338  0.6350  1.1715
 6263SOL    HW230426   1.254   2.848   1.986  0.5996 -1.2740  0.0084
 6264SOL     OW30427   2.916   2.332   0.748 -0.0580  0.2264 -0.0979
 6264SOL    HW130428   2.854   2.275   0.703  0.3076 -1.6639  1.7920
 6264SOL    HW230429   2.998   2.284   0.752 -0.3509 -0.2192  0.5900
 6265SOL     OW30430   1.164   1.254   8.517 -0.1752 -0.5483  0.0145
 6265SOL    HW130431   1.126   1.167   8.506 -0.6133 -0.2042 -1.2246
 6265SOL    HW230432   1.180   1.276   8.426  0.6119  0.6266  0.4344
 6266SOL     OW30433   3.133   1.993   7.652  0.0998 -0.1029  0.0430
 6266SOL    HW130434   3.145   1.931   7.724 -0.3292 -0.5897 -0.3034
 6266SOL    HW230435   3.092   1.938   7.585  0.2701 -1.5395  1.1275
 6267SOL     OW30436   2.160   0.832  16.456 -0.0436 -0.3767 -0.2440
 6267SOL    HW130437   2.145   0.810  16.548  0.7254  0.4168  0.0741
 6267SOL    HW230438   2.131   0.749  16.420  1.6604 -0.1879 -2.1114
 6268SOL     OW30439   4.404   0.638   7.185 -0.6087  0.1557  0.5460
 6268SOL    HW130440   4.490   0.647   7.226 -0.8444 -1.0314  1.2932
 6268SOL    HW230441   4.359   0.709   7.232  1.5126  2.6157 -1.1041
 6269SOL     OW30442   1.124   2.770   6.497  0.2094 -0.0961 -0.0905
 6269SOL    HW130443   1.081   2.684   6.505 -0.7154  0.4527  0.7314
 6269SOL    HW230444   1.163   2.768   6.409 -0.5472  0.0013 -0.4300
 6270SOL     OW30445   4.051   3.461   5.280  0.7293 -0.5743 -0.2288
 6270SOL    HW130446   4.108   3.386   5.300 -0.6928 -1.5179  0.3203
 6270SOL    HW230447   3.989   3.473   5.352  1.6585  0.0405  0.4647
 6271SOL     OW30448   0.318   4.694   7.578 -0.2967 -0.4977 -0.4525
 6271SOL    HW130449   0.376   4.667   7.507  0.4762  0.3791 -0.1572
 6271SOL    HW230450   0.256   4.623   7.567 -0.5065 -0.4864  0.6025
 6272SOL     OW30451   1.156   4.584   5.611 -0.4181  0.1487 -0.4355
 6272SOL    HW130452   1.239   4.628   5.595  0.7782 -1.4555  1.4048
 6272SOL    HW230453   1.100   4.632   5.550 -0.2575  1.5849  0.5376
 6273SOL     OW30454   3.656   0.994   3.985  0.1667  0.0445 -0.3996
 6273SOL    HW130455   3.707   0.914   3.970 -0.2680 -0.5750  1.4639
 6273SOL    HW230456   3.643   1.021   3.894 -1.1702  0.9897  0.0823
 6274SOL     OW30457   2.854   1.277   7.838 -0.4832 -0.1140 -0.1457
 6274SOL    HW130458   2.883   1.340   7.772 -2.2268 -0.6404 -1.4115
 6274SOL    HW230459   2.759   1.279   7.825 -0.2695 -1.1153 -1.8498
 6275SOL     OW30460   4.383   3.736   6.512  0.0149 -0.0567 -0.1486
 6275SOL    HW130461   4.350   3.650   6.538 -0.2556  0.2551  0.5245
 6275SOL    HW230462   4.457   3.702   6.462  1.2611  1.7233  0.4709
 6276SOL     OW30463   2.242   2.900   8.973 -0.1017  0.7091 -0.0710
 6276SOL    HW130464   2.229   2.919   9.066  3.3764 -0.0495  0.5704
 6276SOL    HW230465   2.150   2.915   8.951 -0.6744  1.2696  2.6730
 6277SOL     OW30466   0.930   2.556   4.706 -0.3706 -0.1862 -0.3841
 6277SOL    HW130467   0.900   2.610   4.633 -1.9377  1.5183  1.5025
 6277SOL    HW230468   0.847   2.517   4.734  0.6078 -1.3263  0.9396
 6278SOL     OW30469   4.071   0.195   5.066  0.0138  0.2900  0.3303
 6278SOL    HW130470   4.043   0.273   5.115  5.4498  1.2813  1.8485
 6278SOL    HW230471   4.006   0.208   4.997  0.3364 -0.9389 -0.1969
 6279SOL     OW30472   4.509   1.393   6.772  0.1528  0.2610  0.5072
 6279SOL    HW130473   4.499   1.298   6.768 -1.9199  0.5547 -1.3463
 6279SOL    HW230474   4.424   1.418   6.810  0.3902 -0.2138  1.3348
 6280SOL     OW30475   4.412   4.682   2.400 -0.1573  0.1949 -0.4281
 6280SOL    HW130476   4.336   4.713   2.352  0.5906  1.6298 -0.6823
 6280SOL    HW230477   4.399   4.588   2.387  1.5466  0.2696 -2.6787
 6281SOL     OW30478   4.570   1.315   1.966  0.3826 -0.6033  0.2235
 6281SOL    HW130479   4.558   1.403   2.001  1.1726 -0.0799 -0.8372
 6281SOL    HW230480   4.649   1.274   2.002 -0.6261 -2.8889 -0.1372
 6282SOL     OW30481   0.523   2.159   0.644 -0.3188  0.4213  0.4240
 6282SOL    HW130482   0.466   2.206   0.705 -2.2935 -0.4996 -0.7212
 6282SOL    HW230483   0.461   2.149   0.572  0.9881 -1.8287 -0.3776
 6283SOL     OW30484   3.691   4.008   4.664 -0.2653 -0.1606  0.3447
 6283SOL    HW130485   3.698   4.093   4.620  2.5704  0.3624  1.8055
 6283SOL    HW230486   3.778   4.001   4.704  0.5153  0.5790 -1.2258
 6284SOL     OW30487   1.033   2.038   7.489 -0.4606  0.4175 -0.6365
 6284SOL    HW130488   1.004   2.125   7.516  0.6048 -0.1376  2.2584
 6284SOL    HW230489   1.028   1.999   7.576 -0.6401  0.2897 -0.7019
 6285SOL     OW30490   3.310   2.700   7.843  0.4729 -0.0953 -0.1228
 6285SOL    HW130491   3.377   2.676   7.906 -2.1140 -0.9328  2.2878
 6285SOL    HW230492   3.240   2.723   7.904 -0.1401 -0.2879 -0.7588
 6286SOL     OW30493   3.310   0.792   5.771 -0.1443  0.0943 -0.5671
 6286SOL    HW130494   3.316   0.698   5.788 -0.7744 -0.0323 -1.0355
 6286SOL    HW230495   3.243   0.786   5.703 -0.4328 -0.8219 -0.1926
 6287SOL     OW30496   2.375   3.464   1.915  0.5454  0.2035 -0.1196
 6287SOL    HW130497   2.392   3.546   1.868 -0.2970  0.8480  0.6825
 6287SOL    HW230498   2.451   3.462   1.973  1.6971  0.6820 -1.6111
 6288SOL     OW30499   2.622   2.083   5.979 -0.2260 -0.7629 -0.7979
 6288SOL    HW130500   2.682   2.139   6.028  1.7270 -1.2637 -2.6207
 6288SOL    HW230501   2.570   2.045   6.049 -0.7197  1.8667  0.2916
 6289SOL     OW30502   3.426   3.945   6.545  0.3282  0.4583  0.8530
 6289SOL    HW130503   3.419   3.865   6.597 -0.3360 -1.1310 -1.6767
 6289SOL    HW230504   3.511   3.928   6.503  0.5759  1.6907  0.8722
 6290SOL     OW30505   4.359   1.620  17.730 -0.4782  0.5998 -0.1352
 6290SOL    HW130506   4.269   1.644  17.705 -0.7591  1.0679  1.3466
 6290SOL    HW230507   4.330   1.537   0.015 -0.4031  0.9705  0.7236
 6291SOL     OW30508   3.259   1.139   9.158 -0.3356  0.4998  0.3880
 6291SOL    HW130509   3.251   1.052   9.119 -3.1816  1.2842 -0.7850
 6291SOL    HW230510   3.276   1.117   9.250  2.9152  1.0837 -0.0664
 6292SOL     OW30511   3.002   4.682   3.715  0.0374 -0.0232  0.1024
 6292SOL    HW130512   2.918   4.644   3.690  0.1689 -0.2938  0.0720
 6292SOL    HW230513   3.052   4.609   3.681  0.1607  0.4174 -0.6661
 6293SOL     OW30514   2.225   0.952   4.476 -0.4779 -0.0739  0.5530
 6293SOL    HW130515   2.267   0.866   4.471  2.4510  1.3828  0.1757
 6293SOL    HW230516   2.171   0.961   4.397 -1.3444 -2.8229  0.8295
 6294SOL     OW30517   0.915   1.508  17.039  0.2162  0.1045 -0.4185
 6294SOL    HW130518   0.932   1.545  16.952  0.3346 -0.3594 -0.5916
 6294SOL    HW230519   0.859   1.432  17.024  0.2810 -0.3876  1.8583
 6295SOL     OW30520   0.099   2.337  12.668  0.1223  0.1958  0.3296
 6295SOL    HW130521   0.049   2.345  12.586 -0.6816  1.5642  0.9665
 6295SOL    HW230522   0.183   2.308  12.632 -1.1231 -3.0975  0.0138
 6296SOL     OW30523   0.915   1.252   3.284  0.1050 -0.3639 -0.3772
 6296SOL    HW130524   0.956   1.277   3.202  3.0399  0.1333  1.2448
 6296SOL    HW230525   0.958   1.314   3.343  1.5067 -1.6001 -0.0857
 6297SOL     OW30526   1.211   2.924   7.195  0.4322  0.0488  0.1498
 6297SOL    HW130527   1.300   2.937   7.163  1.2939 -2.5135  1.4708
 6297SOL    HW230528   1.166   3.004   7.168 -1.2922 -0.5017  1.4357
 6298SOL     OW30529   3.242   2.978   6.977 -0.0159  0.0927  0.1848
 6298SOL    HW130530   3.246   3.041   6.905  2.1553  0.1387  0.3596
 6298SOL    HW230531   3.253   3.027   7.059 -1.4870 -0.2751  0.6090
 6299SOL     OW30532   1.029   2.029   9.265 -0.3269  0.2021  0.7192
 6299SOL    HW130533   1.090   2.102   9.255  0.1221 -0.6822 -2.9273
 6299SOL    HW230534   1.067   1.993   9.345 -2.0476 -0.5603  1.1867
 6300SOL     OW30535   0.818   3.731   8.681 -0.6547  0.0647 -0.0834
 6300SOL    HW130536   0.821   3.713   8.587 -0.1915  0.8025 -0.2091
 6300SOL    HW230537   0.734   3.775   8.686  1.1359  3.5411 -0.6337
 6301SOL     OW30538   1.512   0.348   2.537  0.7911 -0.1150 -0.1441
 6301SOL    HW130539   1.473   0.419   2.589 -2.0830 -0.9327 -1.1926
 6301SOL    HW230540   1.437   0.329   2.481  0.2029  0.1301  0.5564
 6302SOL     OW30541   3.376   3.180   6.228 -0.2273 -0.1082 -0.1711
 6302SOL    HW130542   3.390   3.158   6.320  0.6064  0.4440 -0.1566
 6302SOL    HW230543   3.298   3.235   6.233  1.2553  1.8707  1.0909
 6303SOL     OW30544   4.085   2.500  12.794 -0.4476  0.0064  0.1305
 6303SOL    HW130545   4.049   2.411  12.792 -0.9666  0.2323 -0.6081
 6303SOL    HW230546   4.111   2.510  12.885  1.1297 -1.2500 -0.1843
 6304SOL     OW30547   0.638   4.096   0.490 -0.0090 -0.5612  0.1482
 6304SOL    HW130548   0.679   4.173   0.529 -0.4941 -0.9992  1.5447
 6304SOL    HW230549   0.601   4.128   0.408 -0.2498 -1.5163 -0.1146
 6305SOL     OW30550   0.384   0.689   2.479  0.2565  0.0835  0.3048
 6305SOL    HW130551   0.440   0.747   2.428 -0.4405 -0.2618 -0.8536
 6305SOL    HW230552   0.316   0.753   2.499 -0.5297  0.1423 -2.5481
 6306SOL     OW30553   2.934   3.176  17.490 -0.1750 -0.4534 -0.8209
 6306SOL    HW130554   2.885   3.132  17.421  1.3738  1.9215 -3.4246
 6306SOL    HW230555   2.943   3.265  17.456 -2.8416  0.5074  0.9628
 6307SOL     OW30556   2.387   2.400   8.280  0.4648 -0.0921 -0.4453
 6307SOL    HW130557   2.462   2.381   8.224  1.4739  1.0197  0.5332
 6307SOL    HW230558   2.417   2.404   8.371  1.0456  1.2725 -0.6908
 6308SOL     OW30559   0.637   1.960   1.738  0.4091 -0.0164 -0.2385
 6308SOL    HW130560   0.607   2.051   1.743 -0.7653 -0.4007 -0.2939
 6308SOL    HW230561   0.627   1.921   1.651 -2.4573 -0.6267  0.3592
 6309SOL     OW30562   0.989   3.435   9.235 -0.3199  0.0689 -0.4808
 6309SOL    HW130563   1.049   3.374   9.191 -0.7793 -0.9545  0.3045
 6309SOL    HW230564   0.922   3.374   9.265  0.8244 -1.3744 -0.8618
 6310SOL     OW30565   3.395   2.039  17.305 -0.0581 -0.0414 -0.3215
 6310SOL    HW130566   3.445   1.989  17.240 -0.2632  2.6236 -2.5515
 6310SOL    HW230567   3.307   2.011  17.281 -0.2710 -0.1774  0.6139
 6311SOL     OW30568   3.455   1.663  12.036 -0.2718 -0.2544  0.3425
 6311SOL    HW130569   3.372   1.616  12.044 -0.2302 -1.0231 -3.5867
 6311SOL    HW230570   3.424   1.739  11.986  0.1883  0.4105  1.0743
 6312SOL     OW30571   0.940   1.247   5.046  0.7205 -0.4034 -0.3933
 6312SOL    HW130572   0.963   1.338   5.026  1.6949 -0.7195 -0.7014
 6312SOL    HW230573   0.936   1.210   4.958 -3.1502 -0.0146 -0.3827
 6313SOL     OW30574   2.872   2.562   1.543  0.4134  0.0536 -0.2467
 6313SOL    HW130575   2.835   2.504   1.477 -1.3094  0.2064  0.5814
 6313SOL    HW230576   2.964   2.547   1.521  0.5918 -0.2316  0.6971
 6314SOL     OW30577   3.966   2.007  17.306 -0.1354 -0.2353  0.1704
 6314SOL    HW130578   3.890   2.046  17.348  1.0997 -1.3011  3.4119
 6314SOL    HW230579   4.007   1.961  17.380  0.2533 -1.9488 -1.1085
 6315SOL     OW30580   3.527   3.597   8.791 -0.0548  0.2998  0.4183
 6315SOL    HW130581   3.511   3.657   8.864  1.5696 -0.9090  1.7791
 6315SOL    HW230582   3.438   3.584   8.758  0.9910  1.7349 -2.8937
 6316SOL     OW30583   2.966   2.194   2.912 -0.4333  0.4577 -0.0316
 6316SOL    HW130584   2.922   2.115   2.881 -0.0889  0.0192  0.5913
 6316SOL    HW230585   3.007   2.159   2.992 -0.5768  2.6141  0.9869
 6317SOL     OW30586   3.792   2.182   7.073  0.0147 -0.4233 -0.0791
 6317SOL    HW130587   3.809   2.200   7.165  0.6211 -0.2205 -0.2267
 6317SOL    HW230588   3.779   2.272   7.043 -0.2310 -0.6395 -0.6325
 6318SOL     OW30589   0.754   1.771  14.457  0.8854 -0.0587 -0.3712
 6318SOL    HW130590   0.787   1.832  14.523 -2.0013  1.6934 -0.5493
 6318SOL    HW230591   0.704   1.704  14.503 -0.6808  0.6529 -1.0573
 6319SOL     OW30592   2.780   3.522   7.050  0.4884 -0.0903 -0.2697
 6319SOL    HW130593   2.716   3.538   7.120  1.2794  1.4925  0.1066
 6319SOL    HW230594   2.861   3.519   7.101  0.0357  2.6610  0.6348
 6320SOL     OW30595   0.307   4.484   4.148  0.2132 -0.5453  0.2506
 6320SOL    HW130596   0.297   4.527   4.063 -1.0609  0.2198  0.7765
 6320SOL    HW230597   0.219   4.467   4.183 -0.7206  2.5806 -0.5813
 6321SOL     OW30598   1.502   3.092   3.687 -0.3648  0.0620 -0.2728
 6321SOL    HW130599   1.471   3.001   3.682  0.1275 -0.0956 -0.4913
 6321SOL    HW230600   1.483   3.107   3.779  1.3119  1.9304 -0.2271
 6322SOL     OW30601   2.074   1.958  12.833  0.4681 -0.4912  0.0845
 6322SOL    HW130602   2.151   1.974  12.888  0.9773  1.4384 -1.1839
 6322SOL    HW230603   2.048   1.871  12.863 -2.1845 -0.0660 -0.9924
 6323SOL     OW30604   0.723   1.076  14.891 -0.4064  0.3598  0.4032
 6323SOL    HW130605   0.772   0.998  14.917 -0.1587 -0.2973 -2.0361
 6323SOL    HW230606   0.773   1.145  14.936 -1.7268  2.6442 -1.6772
 6324SOL     OW30607   2.912   4.514   0.801  0.0821 -0.3410  0.2931
 6324SOL    HW130608   2.947   4.593   0.759  0.8266 -1.8382 -1.8972
 6324SOL    HW230609   2.975   4.484   0.866 -1.3486 -4.3629 -0.1860
 6325SOL     OW30610   1.620   0.774  15.305  0.3463 -0.1431  0.3447
 6325SOL    HW130611   1.650   0.838  15.240 -2.1726  0.9325  0.2102
 6325SOL    HW230612   1.692   0.778  15.368  1.0232 -2.1781 -0.2852
 6326SOL     OW30613   3.160   1.431   5.739 -0.4459  0.0580 -0.5597
 6326SOL    HW130614   3.140   1.520   5.770 -1.9964 -0.6696  0.5649
 6326SOL    HW230615   3.084   1.408   5.685 -1.0267 -0.5693  0.5148
 6327SOL     OW30616   3.152   4.421   9.621 -0.0137  0.0046  0.5784
 6327SOL    HW130617   3.074   4.387   9.576  1.4083 -0.5728 -1.4272
 6327SOL    HW230618   3.213   4.426   9.548 -0.5116  0.7886  0.2246
 6328SOL     OW30619   3.374   1.107   8.218 -0.3759  0.6723 -0.1603
 6328SOL    HW130620   3.407   1.173   8.158 -1.0682 -1.8617 -3.2923
 6328SOL    HW230621   3.288   1.100   8.177  0.1340 -1.9933 -0.7684
 6329SOL     OW30622   0.927   0.362   1.642 -0.3624 -0.0030 -0.5744
 6329SOL    HW130623   1.018   0.378   1.667 -0.1238 -2.7866  0.3067
 6329SOL    HW230624   0.915   0.433   1.579 -1.0225  1.2550  0.9538
 6330SOL     OW30625   2.552   1.864   5.266 -0.0518 -0.0646 -0.2810
 6330SOL    HW130626   2.517   1.953   5.255 -1.2482 -0.5992 -0.7554
 6330SOL    HW230627   2.640   1.887   5.296  0.0076 -0.7722  0.0676
 6331SOL     OW30628   0.047   0.318   8.426  0.3115 -0.7782  0.2626
 6331SOL    HW130629   0.105   0.331   8.350 -0.1626 -1.7954 -0.2804
 6331SOL    HW230630   0.058   0.225   8.443  1.6709 -1.0209 -1.8909
 6332SOL     OW30631   4.088   2.661   9.291  0.0843 -0.1233 -0.7752
 6332SOL    HW130632   3.999   2.664   9.254  0.0853 -0.9543 -0.8434
 6332SOL    HW230633   4.123   2.734   9.240 -0.8811  0.4655 -0.6027
 6333SOL     OW30634   2.073   3.403  10.307  0.2633 -0.2500 -0.2808
 6333SOL    HW130635   2.143   3.420  10.245  0.4238  1.5279  0.3701
 6333SOL    HW230636   2.056   3.494  10.332 -0.7570 -0.3519 -0.5828
 6334SOL     OW30637   4.714   2.866   3.939  0.2950 -0.2566  0.5573
 6334SOL    HW130638   4.650   2.829   3.878  0.4450  2.1204 -1.0337
 6334SOL    HW230639   0.044   2.802   3.920  1.0147  0.2382  1.5337
 6335SOL     OW30640   1.981   0.054  11.722 -0.6818 -0.9817  0.2886
 6335SOL    HW130641   1.970   0.049  11.817 -2.6804  0.6358  0.1511
 6335SOL    HW230642   1.988   0.148  11.702  2.2474 -1.1995  0.2996
 6336SOL     OW30643   4.419   0.309  10.627 -0.4441  0.1615  0.3033
 6336SOL    HW130644   4.488   0.284  10.565 -1.9635 -0.7671 -1.0167
 6336SOL    HW230645   4.422   0.227  10.677 -1.3496 -1.3310 -2.0913
 6337SOL     OW30646   1.877   3.079  16.591  0.2199  0.6839  0.6245
 6337SOL    HW130647   1.889   3.099  16.684  0.4392  0.0975  0.7281
 6337SOL    HW230648   1.941   3.008  16.586 -1.5328 -0.6445 -2.9135
 6338SOL     OW30649   4.294   2.129  16.937  0.2190  0.2924  0.0627
 6338SOL    HW130650   4.204   2.161  16.935  0.3153  0.5136 -1.0321
 6338SOL    HW230651   4.304   2.097  16.847 -0.9574 -0.9241  0.3645
 6339SOL     OW30652   4.694   0.787  12.237 -0.6746  0.1847  0.2814
 6339SOL    HW130653   4.709   0.708  12.288 -0.0570  1.6729  2.4196
 6339SOL    HW230654   0.042   0.806  12.200 -1.6401  2.0700 -1.0205
 6340SOL     OW30655   4.637   0.439   8.718 -0.2645  0.2899 -0.7085
 6340SOL    HW130656   4.702   0.494   8.762  1.7062 -2.5083 -0.1595
 6340SOL    HW230657   4.692   0.369   8.683 -2.0211 -0.9648 -0.9723
 6341SOL     OW30658   1.319   3.449   6.803  0.2792 -0.1272 -0.3747
 6341SOL    HW130659   1.344   3.536   6.834 -4.1177  1.6663 -1.9358
 6341SOL    HW230660   1.366   3.436   6.720 -1.4704 -0.1056 -1.3601
 6342SOL     OW30661   4.500   4.514   3.988 -0.1157  0.1809  0.2563
 6342SOL    HW130662   4.522   4.430   3.948 -4.5813 -0.0629 -1.6568
 6342SOL    HW230663   4.405   4.516   3.991 -0.1457  1.2810 -1.4182
 6343SOL     OW30664   3.384   2.389   8.732 -0.0907 -0.0563  0.3511
 6343SOL    HW130665   3.394   2.399   8.826  1.0461  0.4441  0.1818
 6343SOL    HW230666   3.437   2.463   8.702 -0.0470  0.0331  0.6525
 6344SOL     OW30667   2.612   2.957   6.907 -0.6353 -1.0244  0.3622
 6344SOL    HW130668   2.614   2.880   6.850  1.2204  0.8838 -2.1407
 6344SOL    HW230669   2.566   2.922   6.983  0.5248 -0.9285  1.1162
 6345SOL     OW30670   1.772   1.495  13.768  0.6020  0.7939 -0.3636
 6345SOL    HW130671   1.691   1.530  13.804  1.1019  1.0396  0.5228
 6345SOL    HW230672   1.779   1.420  13.827  0.4745 -1.6602 -3.4075
 6346SOL     OW30673   4.384   0.111  13.566 -0.2811  0.2134 -0.0378
 6346SOL    HW130674   4.311   0.150  13.613 -1.2045 -0.4115 -0.9484
 6346SOL    HW230675   4.408   0.032  13.614 -1.0000 -1.7020 -2.7922
 6347SOL     OW30676   1.819   2.057   5.946  0.5757  0.1307  0.9490
 6347SOL    HW130677   1.762   1.980   5.952 -0.5772  0.8924 -0.4021
 6347SOL    HW230678   1.906   2.020   5.928  0.4459  0.5263 -0.4596
 6348SOL     OW30679   3.013   0.855   4.171  0.1576  0.1031 -0.7940
 6348SOL    HW130680   3.105   0.834   4.191  1.1145  1.1370 -4.1154
 6348SOL    HW230681   3.000   0.939   4.214 -0.0554 -0.5630  0.4281
 6349SOL     OW30682   3.227   3.080   3.061 -0.3250 -0.9172 -0.6278
 6349SOL    HW130683   3.273   3.160   3.088  0.3794 -1.0441 -1.4412
 6349SOL    HW230684   3.294   3.045   3.002  0.1972  0.4319 -0.8357
 6350SOL     OW30685   1.061   1.020  11.258  0.2526 -0.6569 -0.1454
 6350SOL    HW130686   1.084   1.110  11.281  1.6379 -1.0718  0.1014
 6350SOL    HW230687   1.052   0.990  11.349 -0.6366 -2.2754 -0.7847
 6351SOL     OW30688   1.996   2.674   7.134 -0.3205 -0.5710 -0.5249
 6351SOL    HW130689   2.006   2.643   7.044 -2.8352 -0.1582 -0.9391
 6351SOL    HW230690   1.931   2.743   7.126  1.3910  1.0676 -0.2885
 6352SOL     OW30691   2.848   3.549  15.261 -0.7956  0.7296  0.1515
 6352SOL    HW130692   2.797   3.582  15.187  0.4120  0.1622 -0.9219
 6352SOL    HW230693   2.932   3.593  15.248  0.0946 -0.9204  0.3680
 6353SOL     OW30694   2.358   2.302   0.557  0.3627 -0.2434 -0.3942
 6353SOL    HW130695   2.364   2.245   0.633  2.3906  1.6372  0.8651
 6353SOL    HW230696   2.443   2.344   0.570  0.3517 -0.7220  1.1996
 6354SOL     OW30697   2.169   4.220   3.142  0.2857  0.1480  0.3287
 6354SOL    HW130698   2.242   4.209   3.203  1.4478  0.8340 -0.9327
 6354SOL    HW230699   2.187   4.167   3.064  2.4820  0.1083  0.8394
 6355SOL     OW30700   0.577   0.306   2.995 -0.1663 -0.3061 -0.4984
 6355SOL    HW130701   0.666   0.270   2.997 -1.1011 -2.5635  0.6602
 6355SOL    HW230702   0.593   0.398   2.974  1.3900 -0.3237  0.5296
 6356SOL     OW30703   3.056   4.158   7.332  0.1627 -0.3661  0.0697
 6356SOL    HW130704   2.984   4.180   7.274  1.6183  1.9420 -0.8604
 6356SOL    HW230705   3.005   4.117   7.402 -0.3917  2.1228  1.1204
 6357SOL     OW30706   0.214   3.213   8.411  0.7593 -0.2953 -0.0623
 6357SOL    HW130707   0.247   3.124   8.400  0.1793 -0.5752  0.5063
 6357SOL    HW230708   0.245   3.246   8.327 -3.2274  2.1718 -0.5773
 6358SOL     OW30709   1.568   4.282   7.662  0.0146  0.1307 -0.3843
 6358SOL    HW130710   1.492   4.313   7.712 -0.2735  2.2016 -2.0748
 6358SOL    HW230711   1.545   4.198   7.622  2.6979 -0.1460 -1.3237
 6359SOL     OW30712   3.757   3.587   6.832  0.5984 -0.1680 -0.1965
 6359SOL    HW130713   3.767   3.502   6.873 -2.1394 -0.8273 -0.8890
 6359SOL    HW230714   3.834   3.634   6.864 -0.4107  0.3897  1.4288
 6360SOL     OW30715   1.933   4.590  16.726  0.1622 -0.8478 -0.5315
 6360SOL    HW130716   1.871   4.534  16.680 -0.5267 -0.9867  0.5782
 6360SOL    HW230717   1.972   4.646  16.658  1.5047  0.3565  1.2278
 6361SOL     OW30718   4.454   0.418  16.311  0.4761  0.2796 -0.0648
 6361SOL    HW130719   4.492   0.469  16.240 -2.1361 -0.8707 -2.3128
 6361SOL    HW230720   4.361   0.434  16.295  0.6341 -0.6860 -1.9970
 6362SOL     OW30721   1.433   2.742   1.641 -0.3865  0.0269 -0.6628
 6362SOL    HW130722   1.398   2.662   1.679  0.5829 -0.6522 -1.2221
 6362SOL    HW230723   1.409   2.807   1.707  0.8802 -1.2126  0.9992
 6363SOL     OW30724   0.030   0.309   3.321 -0.1296 -0.2822 -0.1815
 6363SOL    HW130725   0.062   0.259   3.396  2.6403 -0.2323 -1.3068
 6363SOL    HW230726   4.707   0.367   3.365 -0.7095 -1.1973  0.2010
 6364SOL     OW30727   4.411   2.572   4.550 -0.4204 -0.1236 -0.5772
 6364SOL    HW130728   4.483   2.535   4.601  1.1711  3.2625 -0.3233
 6364SOL    HW230729   4.453   2.572   4.464  1.4970 -1.1074  0.3461
 6365SOL     OW30730   3.900   1.097   0.071 -0.5512  0.3177  0.1794
 6365SOL    HW130731   3.910   1.144   0.154  1.0226 -1.1589  0.8150
 6365SOL    HW230732   3.812   1.058   0.072 -0.0720 -0.7982 -1.0165
 6366SOL     OW30733   0.301   3.102   7.772 -0.5574 -0.7867 -0.2992
 6366SOL    HW130734   0.206   3.101   7.761 -0.3658  0.9769 -2.0439
 6366SOL    HW230735   0.334   3.139   7.690 -0.1132 -0.6745 -0.0674
 6367SOL     OW30736   3.591   2.474  17.524  0.2970 -0.4543  0.3903
 6367SOL    HW130737   3.567   2.420  17.449  0.3876  0.8013 -0.5482
 6367SOL    HW230738   3.547   2.422  17.591 -1.9943  1.2245  0.2296
 6368SOL     OW30739   0.732   2.704   7.571 -0.1699 -0.3612  0.0918
 6368SOL    HW130740   0.698   2.733   7.656  0.4907  1.5101 -0.2782
 6368SOL    HW230741   0.785   2.625   7.583  0.3703 -0.0966 -0.5564
 6369SOL     OW30742   2.824   1.458   7.616 -0.2977 -0.1601  0.4457
 6369SOL    HW130743   2.893   1.516   7.583  1.6642 -1.6864  1.8222
 6369SOL    HW230744   2.755   1.477   7.552  1.0301 -0.3971 -1.0481
 6370SOL     OW30745   2.824   2.342   3.964 -0.0758 -0.3427 -1.0118
 6370SOL    HW130746   2.739   2.361   3.923 -0.5946  0.8153  0.6104
 6370SOL    HW230747   2.868   2.425   3.980 -2.3098  0.1866  2.3533
 6371SOL     OW30748   2.891   1.416   1.718 -0.6697  0.7665 -0.8252
 6371SOL    HW130749   2.967   1.398   1.774 -1.9647  0.9650  1.0040
 6371SOL    HW230750   2.881   1.333   1.672  1.2588 -0.2627  0.5989
 6372SOL     OW30751   3.995   2.707   6.624  0.5993  0.5965 -0.2452
 6372SOL    HW130752   4.086   2.696   6.595  0.2243 -0.6297 -0.9558
 6372SOL    HW230753   4.016   2.678   6.713  1.8993 -0.5226 -0.9170
 6373SOL     OW30754   2.503   0.926   8.760 -0.0102  0.3627 -0.3425
 6373SOL    HW130755   2.486   1.019   8.746  1.6616  0.9039  1.2111
 6373SOL    HW230756   2.434   0.885   8.707 -0.1093  0.1163 -0.0284
 6374SOL     OW30757   1.821   0.206  12.981 -0.1915 -0.2318 -0.2660
 6374SOL    HW130758   1.887   0.188  13.048  0.0567 -2.5132 -1.1429
 6374SOL    HW230759   1.857   0.148  12.914 -0.2154 -0.8219  0.2328
 6375SOL     OW30760   2.763   3.831   4.650  0.4422 -0.5280 -0.2771
 6375SOL    HW130761   2.758   3.791   4.737  0.0718  1.6617  0.7017
 6375SOL    HW230762   2.793   3.920   4.670  0.3689 -0.3670 -0.8797
 6376SOL     OW30763   0.003   1.619   1.185  0.2925  0.3080  0.4233
 6376SOL    HW130764   0.039   1.575   1.108 -1.3827  0.0839 -0.2300
 6376SOL    HW230765   0.028   1.706   1.151 -1.9054  0.3767 -1.0068
 6377SOL     OW30766   4.538   3.663   5.352  0.2648  0.5870 -0.3969
 6377SOL    HW130767   4.561   3.749   5.317  3.4832  0.2297  0.8301
 6377SOL    HW230768   4.550   3.616   5.269  1.0233 -0.0168  0.0460
 6378SOL     OW30769   3.214   1.263  17.664 -0.0875 -0.5425  0.1229
 6378SOL    HW130770   3.297   1.242  17.705 -0.7350 -0.3920  1.5053
 6378SOL    HW230771   3.176   1.175  17.674  1.3754 -1.3798 -1.6981
 6379SOL     OW30772   0.711   2.887   4.895  0.1275 -0.5178 -0.3541
 6379SOL    HW130773   0.645   2.853   4.833 -1.1386 -0.2454  0.8482
 6379SOL    HW230774   0.780   2.899   4.830 -2.9727  1.2819 -3.3526
 6380SOL     OW30775   0.121   3.684   6.498  0.3310  0.2647 -0.3321
 6380SOL    HW130776   0.143   3.707   6.588  1.5154 -0.1026 -0.5323
 6380SOL    HW230777   0.143   3.764   6.450 -1.9479 -0.2883 -2.3306
 6381SOL     OW30778   0.371   3.750  13.814  0.0327 -1.0904  0.2489
 6381SOL    HW130779   0.408   3.806  13.882  2.4141 -0.6194 -1.4492
 6381SOL    HW230780   0.364   3.662  13.850  1.7281 -1.7128 -0.9477
 6382SOL     OW30781   4.138   0.590   4.578  0.0004 -0.4739  0.2218
 6382SOL    HW130782   4.064   0.648   4.561  0.7315  0.4565  0.1640
 6382SOL    HW230783   4.199   0.603   4.505 -1.6446 -1.5732 -1.3492
 6383SOL     OW30784   0.691   3.200   8.050  0.3988  0.4083  0.5935
 6383SOL    HW130785   0.718   3.253   8.125  0.0721  3.4261 -1.4353
 6383SOL    HW230786   0.596   3.193   8.061  0.5068  0.3212  1.4608
 6384SOL     OW30787   3.655   3.008   7.772 -0.0623 -0.4566 -0.2839
 6384SOL    HW130788   3.585   3.002   7.837  0.4844  1.6049  0.5071
 6384SOL    HW230789   3.711   3.072   7.816 -0.5662 -0.5674  0.5148
 6385SOL     OW30790   2.995   0.886   4.539 -0.0777  0.2198  0.6383
 6385SOL    HW130791   2.973   0.956   4.601  0.9141  0.9410  0.1874
 6385SOL    HW230792   3.011   0.935   4.459 -1.3409 -1.0235 -0.3677
 6386SOL     OW30793   3.549   4.677   9.209  0.6033 -0.1724  0.6845
 6386SOL    HW130794   3.612   0.011   9.204  0.5719 -0.0588  1.9059
 6386SOL    HW230795   3.587   4.619   9.275  2.9911 -1.5384 -1.8641
 6387SOL     OW30796   2.799   3.960  17.708  0.9000 -0.3251 -0.1772
 6387SOL    HW130797   2.814   3.868  17.689 -0.1564 -0.3291 -0.9615
 6387SOL    HW230798   2.712   3.959  17.668  0.2468  1.8554  1.1668
 6388SOL     OW30799   3.124   2.448  10.988 -0.3006  0.5905  0.8442
 6388SOL    HW130800   3.145   2.374  11.044  2.6374  1.0888  0.4087
 6388SOL    HW230801   3.062   2.498  11.042  0.3079  2.8016 -0.4729
 6389SOL     OW30802   2.459   2.795  17.581 -0.5482 -0.8758  0.3423
 6389SOL    HW130803   2.461   2.720  17.521  0.6363  0.1722 -0.9355
 6389SOL    HW230804   2.370   2.831  17.576  0.4768  1.6868  0.5969
 6390SOL     OW30805   2.050   4.676   8.224 -0.4350 -0.1899  0.6196
 6390SOL    HW130806   2.092   0.023   8.225 -2.3523  0.7406  0.1333
 6390SOL    HW230807   1.960   4.708   8.228 -0.0354  1.2625 -1.9222
 6391SOL     OW30808   3.685   4.528  11.102  0.2095 -0.4217  0.8539
 6391SOL    HW130809   3.676   4.436  11.076 -0.1848 -0.4116  0.9558
 6391SOL    HW230810   3.764   4.542  11.049 -1.2613  1.3157 -0.8753
 6392SOL     OW30811   2.349   2.050   7.004  0.3343  0.3787  0.0368
 6392SOL    HW130812   2.351   2.024   7.096 -0.0411 -0.3603 -0.1692
 6392SOL    HW230813   2.442   2.042   6.985  0.3714 -0.1739  0.4543
 6393SOL     OW30814   1.110   2.670   7.329  0.1109  0.0766  0.1404
 6393SOL    HW130815   1.094   2.764   7.321  0.9941  0.2734  0.7525
 6393SOL    HW230816   1.202   2.671   7.303  1.0478  0.1122  3.3903
 6394SOL     OW30817   2.582   3.175   5.444  0.0755  0.2881 -0.2243
 6394SOL    HW130818   2.591   3.092   5.490 -1.3579  0.9938  1.3026
 6394SOL    HW230819   2.511   3.149   5.385  0.7114 -2.1713  0.1323
 6395SOL     OW30820   4.319   3.132  12.945 -0.3109 -0.1768 -0.4009
 6395SOL    HW130821   4.326   3.102  12.855 -0.0891 -0.4863 -0.2803
 6395SOL    HW230822   4.410   3.153  12.967 -0.8642  1.3190  0.4534
 6396SOL     OW30823   4.014   0.910   7.997 -0.6216  0.1698 -0.1626
 6396SOL    HW130824   4.069   0.970   8.047 -1.1212  0.9003 -0.4940
 6396SOL    HW230825   4.055   0.887   7.914  0.3426  1.9015 -0.1565
 6397SOL     OW30826   1.564   1.407   0.534  0.3095 -0.2420  0.2443
 6397SOL    HW130827   1.511   1.481   0.504  0.0593  0.9326  3.5902
 6397SOL    HW230828   1.591   1.428   0.624  0.2044 -0.0760  0.2377
 6398SOL     OW30829   1.900   3.061   7.517  0.1350 -0.4666 -0.0710
 6398SOL    HW130830   1.964   3.016   7.572  1.1527  0.3524 -0.5735
 6398SOL    HW230831   1.916   3.019   7.433 -0.4902  3.0691 -1.9693
 6399SOL     OW30832   2.922   4.136   1.235 -0.9963  0.3275  0.4944
 6399SOL    HW130833   2.949   4.168   1.148  0.6522  0.8848  1.2142
 6399SOL    HW230834   2.870   4.209   1.270  1.8219  2.9074 -0.6373
 6400SOL     OW30835   4.586   0.844   8.841 -0.0421 -0.2544 -0.5571
 6400SOL    HW130836   4.671   0.833   8.798  0.5791 -1.5351  0.9710
 6400SOL    HW230837   4.539   0.762   8.833  1.0143 -1.0774  1.4910
 6401SOL     OW30838   3.219   3.546   6.571 -0.3538 -0.1248  0.2727
 6401SOL    HW130839   3.152   3.539   6.503  0.5850 -0.2104 -0.6412
 6401SOL    HW230840   3.157   3.545   6.644  0.4132 -0.6973  0.9107
 6402SOL     OW30841   3.671   2.665   3.181 -0.1381  0.5543 -0.0176
 6402SOL    HW130842   3.708   2.578   3.166  2.7624  1.5538  1.4336
 6402SOL    HW230843   3.693   2.712   3.101  1.6315  0.8346  0.6463
 6403SOL     OW30844   1.667   1.021   5.840 -0.3878 -0.4357 -0.2704
 6403SOL    HW130845   1.688   0.959   5.910 -1.9709  0.6539  1.1576
 6403SOL    HW230846   1.572   1.027   5.845 -0.2975  1.1780 -0.8142
 6404SOL     OW30847   2.383   0.250   4.446 -0.3381  0.3247 -0.2520
 6404SOL    HW130848   2.477   0.247   4.431 -0.6466  0.0497 -2.0578
 6404SOL    HW230849   2.376   0.215   4.535  1.1812 -2.4832 -1.2284
 6405SOL     OW30850   0.460   0.820   8.977  0.7860  0.0554 -0.3030
 6405SOL    HW130851   0.459   0.886   8.907 -0.2769 -0.8397 -1.1302
 6405SOL    HW230852   0.501   0.747   8.930  1.2039  0.7621 -1.0350
 6406SOL     OW30853   0.693   1.823   8.959 -0.1099 -0.3208  0.0649
 6406SOL    HW130854   0.702   1.917   8.976  0.9140 -0.1477 -1.4108
 6406SOL    HW230855   0.776   1.800   9.000  0.0654 -1.0250 -0.6735
 6407SOL     OW30856   3.695   2.044   3.968  0.3043  0.3107 -0.5780
 6407SOL    HW130857   3.781   2.003   3.974 -1.4524 -3.5680 -2.1554
 6407SOL    HW230858   3.671   2.082   4.053 -1.5505 -0.6507 -0.6692
 6408SOL     OW30859   2.683   1.999  17.625  0.3791  0.3582 -0.3581
 6408SOL    HW130860   2.773   2.030  17.630  0.8566 -0.9448 -0.8111
 6408SOL    HW230861   2.636   2.074  17.588 -0.5457 -0.0856 -0.0636
 6409SOL     OW30862   2.962   2.322  12.096  0.2092 -0.4226 -0.3021
 6409SOL    HW130863   2.901   2.371  12.040  0.3070 -1.5900 -1.4243
 6409SOL    HW230864   2.918   2.237  12.099 -0.1769 -0.1628  1.5698
 6410SOL     OW30865   1.610   3.231   7.881  0.0765 -0.1969 -0.2513
 6410SOL    HW130866   1.694   3.226   7.927  0.5457  3.2690 -0.7420
 6410SOL    HW230867   1.562   3.270   7.954  0.2362  0.8703 -0.7166
 6411SOL     OW30868   3.197   3.609   2.685  0.0737 -0.4205 -0.1155
 6411SOL    HW130869   3.146   3.560   2.749 -1.2789  0.6915 -0.3478
 6411SOL    HW230870   3.272   3.550   2.679  0.6543  0.1401  1.7828
 6412SOL     OW30871   4.531   2.104   9.240  0.3413  0.3584  0.1503
 6412SOL    HW130872   4.539   2.054   9.321 -4.7737 -2.4390 -1.0235
 6412SOL    HW230873   4.441   2.134   9.251  0.2659 -0.0325  0.6057
 6413SOL     OW30874   4.240   2.940   7.529  0.6365 -0.0241 -0.5939
 6413SOL    HW130875   4.272   2.898   7.609  0.9021 -0.8125 -1.1152
 6413SOL    HW230876   4.314   2.934   7.469  0.3377 -1.2792 -0.8423
 6414SOL     OW30877   0.329   4.678   2.162 -0.7521  0.3068 -0.9159
 6414SOL    HW130878   0.317   4.739   2.235  2.3945  1.2169 -1.1735
 6414SOL    HW230879   0.344   4.732   2.085 -1.0971  0.8102 -0.6324
 6415SOL     OW30880   2.793   1.285   9.816  0.9673  0.0210  0.1320
 6415SOL    HW130881   2.804   1.380   9.822  0.8768  0.1281 -1.3479
 6415SOL    HW230882   2.703   1.283   9.783  1.1920 -0.0467 -0.4810
 6416SOL     OW30883   3.177   2.690   8.131 -0.6255 -0.0888 -0.0465
 6416SOL    HW130884   3.169   2.667   8.224  2.3792  0.8790  0.4470
 6416SOL    HW230885   3.150   2.605   8.096  2.3640 -2.2865  2.9003
 6417SOL     OW30886   1.791   1.056   0.416 -0.1985  0.1643  0.4742
 6417SOL    HW130887   1.789   1.139   0.464  0.0729  0.2862  0.2749
 6417SOL    HW230888   1.858   1.081   0.353 -1.4047  0.6203 -0.6358
 6418SOL     OW30889   0.796   2.607   0.742 -1.0074  0.5926 -0.1561
 6418SOL    HW130890   0.809   2.514   0.723  1.6089  1.3458 -1.9722
 6418SOL    HW230891   0.844   2.655   0.675  0.2944 -1.3715 -0.6426
 6419SOL     OW30892   1.160   4.373  10.873  0.1883  0.5849  0.1916
 6419SOL    HW130893   1.178   4.298  10.930 -1.6155  0.4472  0.5746
 6419SOL    HW230894   1.084   4.408  10.920 -0.6741 -1.1677  0.0869
 6420SOL     OW30895   1.095   3.133   3.360  0.4865  0.7314  0.1155
 6420SOL    HW130896   1.014   3.179   3.341 -0.9347 -0.8829  2.2575
 6420SOL    HW230897   1.131   3.127   3.272 -0.9559  2.4917 -0.5694
 6421SOL     OW30898   1.524   1.186   6.935  0.1784  0.7360 -0.5008
 6421SOL    HW130899   1.514   1.227   6.849 -0.9106  1.6247  0.0388
 6421SOL    HW230900   1.432   1.174   6.958  0.2992  1.6349  0.4793
 6422SOL     OW30901   1.102   1.810   5.692 -0.2372 -0.0773  0.2587
 6422SOL    HW130902   1.106   1.770   5.606  0.3879  0.7019 -0.0801
 6422SOL    HW230903   1.148   1.748   5.749 -2.7754 -2.5604 -0.4124
 6423SOL     OW30904   2.118   0.410   8.686  0.1141 -0.1319  0.8236
 6423SOL    HW130905   2.180   0.446   8.622 -2.3968  1.6546 -0.5716
 6423SOL    HW230906   2.076   0.341   8.634 -0.3869 -0.3410  1.5059
 6424SOL     OW30907   2.725   2.234   0.099  0.1877 -0.2112  0.0437
 6424SOL    HW130908   2.722   2.322   0.060  0.4404  0.7178  2.0948
 6424SOL    HW230909   2.639   2.195   0.082  0.9566 -0.6369 -2.9830
 6425SOL     OW30910   3.307   4.305   2.055  0.2135 -0.4575  0.4857
 6425SOL    HW130911   3.372   4.274   2.118  0.6141 -0.0961  0.2477
 6425SOL    HW230912   3.257   4.228   2.030  0.4193 -0.4830  0.1461
 6426SOL     OW30913   3.384   0.230   5.821 -0.4152 -0.2698  0.4223
 6426SOL    HW130914   3.306   0.278   5.796 -0.6531 -0.7293  0.2768
 6426SOL    HW230915   3.408   0.177   5.745  2.5711  0.9664  0.4948
 6427SOL     OW30916   1.330   0.893   9.070 -0.3702 -0.1765 -0.3972
 6427SOL    HW130917   1.246   0.850   9.083 -0.3490 -0.9437 -2.8123
 6427SOL    HW230918   1.382   0.853   9.139 -0.3145  3.0241  1.4427
 6428SOL     OW30919   2.581   0.079   9.913  0.2158 -0.4865  0.0759
 6428SOL    HW130920   2.673   0.054   9.912  0.3606  0.0048  0.8630
 6428SOL    HW230921   2.583   0.169   9.879  0.2811 -0.8991 -1.0121
 6429SOL     OW30922   0.102   3.428   0.656  0.3321 -0.3138  0.2779
 6429SOL    HW130923   0.040   3.413   0.584 -0.2935 -0.4238  0.8409
 6429SOL    HW230924   0.186   3.395   0.626  0.8013  0.7314  0.4505
 6430SOL     OW30925   0.527   4.013   3.634  0.1679  0.1085  0.0261
 6430SOL    HW130926   0.442   4.056   3.641  0.0645 -0.1586  0.3991
 6430SOL    HW230927   0.569   4.076   3.694  0.9702 -1.0311  0.6582
 6431SOL     OW30928   0.272   3.375   2.018  0.8936  0.5860  0.2536
 6431SOL    HW130929   0.275   3.463   2.058  1.1273  0.9414 -0.5539
 6431SOL    HW230930   0.316   3.384   1.934  1.2968  1.5629  0.5600
 6432SOL     OW30931   1.229   2.942   3.535 -0.4199 -0.2092 -0.5091
 6432SOL    HW130932   1.271   2.866   3.495  1.1622  0.5555 -0.3007
 6432SOL    HW230933   1.189   2.968   3.452 -1.9233 -1.4477 -0.1723
 6433SOL     OW30934   0.861   2.305  16.298  0.2807 -0.1842  0.0742
 6433SOL    HW130935   0.906   2.315  16.382  0.1402 -0.3505  0.1682
 6433SOL    HW230936   0.787   2.363  16.316  0.8673  0.2681  1.0401
 6434SOL     OW30937   3.907   4.557   9.800  0.1545 -0.0353  0.1207
 6434SOL    HW130938   3.906   4.652   9.788 -1.2179 -0.2010 -1.1440
 6434SOL    HW230939   3.917   4.553   9.895  0.9160 -1.6791 -0.0142
 6435SOL     OW30940   0.023   2.403   2.581  0.0434 -0.5811 -0.3272
 6435SOL    HW130941   4.675   2.363   2.572  0.0489 -0.4841 -0.8229
 6435SOL    HW230942   0.034   2.405   2.676  2.8187 -2.6222 -0.5752
 6436SOL     OW30943   2.794   4.512   8.706  0.4280  0.0892 -0.1467
 6436SOL    HW130944   2.801   4.542   8.797  2.6980 -0.2595 -0.2108
 6436SOL    HW230945   2.711   4.550   8.680  0.5192 -0.1247 -0.7516
 6437SOL     OW30946   3.893   3.233   1.723  0.3858  0.0712 -0.0838
 6437SOL    HW130947   3.953   3.159   1.717  0.7014  0.3159  0.0525
 6437SOL    HW230948   3.953   3.290   1.772  1.7850 -0.2475 -1.4397
 6438SOL     OW30949   4.061   2.263   7.655 -0.0228  0.4473 -0.1413
 6438SOL    HW130950   3.967   2.283   7.660  0.0854  1.4340 -2.5442
 6438SOL    HW230951   4.083   2.248   7.747  3.3294  2.1117 -0.6896
 6439SOL     OW30952   4.709   2.725   2.689 -0.0316 -0.0516 -0.2461
 6439SOL    HW130953   4.683   2.790   2.756 -1.3502  0.5327 -1.3269
 6439SOL    HW230954   4.678   2.643   2.728  1.7756  0.3895  2.1399
 6440SOL     OW30955   1.582   1.581   3.388 -0.5297  0.4014 -0.2628
 6440SOL    HW130956   1.657   1.638   3.403  0.0286 -0.4942  0.3358
 6440SOL    HW230957   1.574   1.542   3.475  0.6140  0.6685 -0.0419
 6441SOL     OW30958   1.510   0.236  16.672 -0.6846  0.8673 -0.1359
 6441SOL    HW130959   1.576   0.166  16.673 -0.2947  1.2543  0.5570
 6441SOL    HW230960   1.547   0.297  16.735 -0.7197 -1.1625  1.8564
 6442SOL     OW30961   1.658   3.507   6.231  0.1388 -0.4581  0.3772
 6442SOL    HW130962   1.685   3.440   6.294 -0.9625  1.4468  2.8848
 6442SOL    HW230963   1.601   3.548   6.297 -1.0103 -1.5765  0.0963
 6443SOL     OW30964   2.729   0.303   7.392 -0.3458 -0.1199 -0.0305
 6443SOL    HW130965   2.767   0.268   7.312 -1.6171 -0.2102 -0.5993
 6443SOL    HW230966   2.636   0.287   7.375  0.0289 -0.4231 -1.7611
 6444SOL     OW30967   2.543   2.652   1.916  0.5013 -0.2661  0.1640
 6444SOL    HW130968   2.459   2.640   1.872  1.2605 -1.9783 -0.8200
 6444SOL    HW230969   2.596   2.586   1.871 -0.3537 -1.5245  1.0474
 6445SOL     OW30970   3.508   4.562  14.950 -0.0282  0.6331  0.2476
 6445SOL    HW130971   3.423   4.519  14.949 -0.7985  2.1664 -0.5941
 6445SOL    HW230972   3.519   4.570  14.855 -2.3828 -2.8850 -0.3011
 6446SOL     OW30973   0.435   4.261   4.265 -0.3543  0.5343  0.6076
 6446SOL    HW130974   0.523   4.296   4.275 -0.5664  1.0927  0.5733
 6446SOL    HW230975   0.401   4.341   4.223 -1.0883 -0.8917 -1.5447
 6447SOL     OW30976   0.249   3.579   5.064  0.1860  0.2329 -0.2020
 6447SOL    HW130977   0.278   3.508   5.007  2.4079 -0.7212  2.1729
 6447SOL    HW230978   0.187   3.529   5.118 -0.2196  0.8607 -0.0814
 6448SOL     OW30979   3.291   2.366   6.248 -0.1971  0.0006  0.7065
 6448SOL    HW130980   3.363   2.428   6.261 -0.6640  0.6583  0.1439
 6448SOL    HW230981   3.213   2.421   6.245 -0.2343 -0.1954 -1.6390
 6449SOL     OW30982   2.458   4.502   5.740 -0.0556 -0.5061 -0.1125
 6449SOL    HW130983   2.486   4.421   5.783 -0.9428 -1.5473 -1.5170
 6449SOL    HW230984   2.502   4.566   5.796  1.5383 -0.0470 -1.9055
 6450SOL     OW30985   2.302   2.321   6.958  0.8291 -0.0414  0.0648
 6450SOL    HW130986   2.306   2.228   6.936 -0.3920  0.0725 -0.6327
 6450SOL    HW230987   2.389   2.359   6.944 -0.4967  2.5591 -1.2177
 6451SOL     OW30988   4.447   0.350   9.144  0.1232  0.7281 -0.1900
 6451SOL    HW130989   4.479   0.269   9.183 -4.7135  0.0955  2.5169
 6451SOL    HW230990   4.442   0.311   9.057 -0.1085 -0.5652  0.4104
 6452SOL     OW30991   1.865   4.046   9.010  0.7456  0.1650 -0.0493
 6452SOL    HW130992   1.843   3.959   8.976  1.5099 -0.0187 -0.0755
 6452SOL    HW230993   1.776   4.082   9.007  2.0737  3.5232  1.1336
 6453SOL     OW30994   0.912   1.924   2.584 -0.2973  0.6092  0.1466
 6453SOL    HW130995   0.844   1.957   2.643 -0.1770  2.3663 -0.7001
 6453SOL    HW230996   0.933   1.834   2.610 -0.6311  0.2182 -0.8983
 6454SOL     OW30997   2.779   0.454   4.806  0.2166  0.2332 -0.2544
 6454SOL    HW130998   2.813   0.365   4.818 -2.0060 -0.6364 -0.3682
 6454SOL    HW230999   2.771   0.460   4.711  0.2660 -0.4683 -0.3070
 6455SOL     OW31000   3.516   2.546   4.224 -0.3864 -0.1565 -0.1839
 6455SOL    HW131001   3.553   2.598   4.296 -1.0064 -1.9107  1.3784
 6455SOL    HW231002   3.533   2.461   4.263 -0.0580 -0.1332 -0.2735
 6456SOL     OW31003   0.623   3.759   5.681 -0.4337 -0.0144 -0.0728
 6456SOL    HW131004   0.640   3.804   5.764  1.6573  1.7156 -1.4519
 6456SOL    HW231005   0.611   3.674   5.724 -1.2241 -0.4497 -1.1374
 6457SOL     OW31006   1.503   4.342  13.230  0.1661 -0.7229 -0.2679
 6457SOL    HW131007   1.597   4.332  13.213  0.2307 -0.4118 -0.0987
 6457SOL    HW231008   1.484   4.431  13.198  1.4011 -0.5889 -0.6498
 6458SOL     OW31009   3.274   1.005  14.997  0.2276 -0.2210  0.1900
 6458SOL    HW131010   3.260   0.985  14.904  0.7315 -0.7706  0.2322
 6458SOL    HW231011   3.194   0.964  15.031  0.9906 -0.7613  1.3326
 6459SOL     OW31012   1.264   3.260   2.870 -0.3869 -0.4053  0.1579
 6459SOL    HW131013   1.308   3.337   2.835 -1.7076  0.0429 -0.5556
 6459SOL    HW231014   1.249   3.205   2.792  3.8788 -0.1428 -0.8539
 6460SOL     OW31015   0.468   4.412   2.252  0.2555  0.4852 -0.1775
 6460SOL    HW131016   0.401   4.477   2.232 -1.5726 -1.9759 -2.0433
 6460SOL    HW231017   0.504   4.406   2.164  0.5483  3.0181 -0.2406
 6461SOL     OW31018   2.620   1.057   2.146 -0.2077 -0.2005 -0.0713
 6461SOL    HW131019   2.552   0.993   2.166 -0.5803 -0.2416 -1.4487
 6461SOL    HW231020   2.663   1.067   2.231  0.9786  0.4158 -0.7344
 6462SOL     OW31021   3.615   2.734   2.603  0.1509 -0.1086  0.3277
 6462SOL    HW131022   3.519   2.727   2.600  0.0993  1.9539 -1.9586
 6462SOL    HW231023   3.638   2.651   2.562 -1.9844  0.3523 -1.8077
 6463SOL     OW31024   2.978   3.176   7.800 -0.2607 -0.0093 -0.0331
 6463SOL    HW131025   2.981   3.248   7.863 -1.7736  0.5657 -0.6193
 6463SOL    HW231026   2.928   3.211   7.727  1.2042  2.2962  0.0549
 6464SOL     OW31027   0.079   2.473   2.247 -0.3559 -0.2673 -0.1196
 6464SOL    HW131028   0.127   2.410   2.300  2.1050  0.2487 -1.7609
 6464SOL    HW231029   0.027   2.522   2.311  0.2459 -0.0751  0.2158
 6465SOL     OW31030   1.044   4.361   4.313  0.0577 -0.1265  0.3015
 6465SOL    HW131031   1.031   4.419   4.237 -2.6351  0.1167  0.9615
 6465SOL    HW231032   0.967   4.306   4.302 -0.6147  0.8110  0.2852
 6466SOL     OW31033   0.674   4.581   4.774 -0.3620 -0.1582  0.0936
 6466SOL    HW131034   0.730   4.656   4.793 -0.6755  0.0123  0.3265
 6466SOL    HW231035   0.748   4.519   4.766  0.3652  0.5947  1.0375
 6467SOL     OW31036   0.474   0.746   6.882 -0.4905 -0.0834 -0.2720
 6467SOL    HW131037   0.522   0.702   6.811 -0.3906 -0.4299  0.0091
 6467SOL    HW231038   0.433   0.677   6.934 -0.2592 -0.3559 -0.4493
 6468SOL     OW31039   1.566   2.101   8.996 -0.3861  0.2304 -0.2221
 6468SOL    HW131040   1.578   2.006   9.001 -2.5823 -0.1467 -1.8641
 6468SOL    HW231041   1.647   2.132   8.955 -0.5643 -1.2069 -1.6696
 6469SOL     OW31042   1.989   2.824  12.702 -0.2584 -0.3388 -0.5155
 6469SOL    HW131043   1.948   2.775  12.774 -0.3309 -0.6507 -0.7721
 6469SOL    HW231044   2.018   2.749  12.650  2.4709 -0.3073  0.9370
 6470SOL     OW31045   1.420   3.094   3.091 -0.0093  0.3373 -0.1604
 6470SOL    HW131046   1.369   3.149   3.031 -0.8905 -0.5251 -0.2069
 6470SOL    HW231047   1.494   3.150   3.115 -0.1013  0.5645 -0.4001
 6471SOL     OW31048   1.416   3.845   8.145 -0.4991  0.9816 -0.2772
 6471SOL    HW131049   1.492   3.851   8.203  0.3721  0.6259 -1.4011
 6471SOL    HW231050   1.341   3.882   8.192 -1.0165  1.8316 -1.7781
 6472SOL     OW31051   2.946   4.440   2.680 -0.4066  0.4555  0.1449
 6472SOL    HW131052   2.853   4.442   2.704 -0.7028 -1.1110 -0.8562
 6472SOL    HW231053   2.950   4.522   2.631  0.1122 -0.3528 -1.1714
 6473SOL     OW31054   2.499   3.121   3.366 -0.4981 -0.1342 -0.0252
 6473SOL    HW131055   2.492   3.216   3.375  3.5807  0.1839 -0.4775
 6473SOL    HW231056   2.433   3.100   3.432  0.2989  0.7178  1.0417
 6474SOL     OW31057   0.233   1.632  12.808 -0.2947  0.0461 -0.0069
 6474SOL    HW131058   0.295   1.596  12.871 -0.3288  0.4794  0.2736
 6474SOL    HW231059   0.246   1.727  12.810  0.5791 -0.0197 -2.2235
 6475SOL     OW31060   0.148   1.087   8.490 -0.5739  0.4847  0.1924
 6475SOL    HW131061   0.135   1.156   8.425 -0.8673 -0.2184 -0.4944
 6475SOL    HW231062   0.062   1.078   8.532  0.2715 -3.7676  1.0278
 6476SOL     OW31063   4.601   0.593   5.205  0.8297 -0.1485  0.0298
 6476SOL    HW131064   4.605   0.504   5.170 -0.9789 -0.5412  0.8414
 6476SOL    HW231065   4.654   0.633   5.136 -1.3486  1.7356 -0.5358
 6477SOL     OW31066   1.448   4.265  11.498 -0.1395 -0.8479  0.3109
 6477SOL    HW131067   1.410   4.311  11.573 -0.5863 -1.8798  0.7240
 6477SOL    HW231068   1.541   4.280  11.514 -0.3504 -1.4388  2.2034
 6478SOL     OW31069   3.256   3.335   1.303 -0.7878  0.3390 -1.1405
 6478SOL    HW131070   3.247   3.428   1.321 -0.7879  0.0765  0.2271
 6478SOL    HW231071   3.168   3.306   1.324 -1.0098  1.7763 -0.1294
 6479SOL     OW31072   2.218   3.032   4.077 -0.4283  0.5363 -0.0961
 6479SOL    HW131073   2.188   3.106   4.130 -0.2131 -1.2967  2.5891
 6479SOL    HW231074   2.307   3.062   4.058 -0.0574 -0.1415  0.5848
 6480SOL     OW31075   1.141   0.617   5.203 -0.0722 -0.1258 -0.0550
 6480SOL    HW131076   1.225   0.662   5.203 -0.6992  1.0395 -1.7999
 6480SOL    HW231077   1.156   0.524   5.186  0.4526  0.5533 -3.3735
 6481SOL     OW31078   0.406   3.789   9.762 -0.0164  0.3402  0.2621
 6481SOL    HW131079   0.466   3.715   9.773 -1.4393 -0.7613  0.6225
 6481SOL    HW231080   0.459   3.867   9.776  0.7415  0.0304 -0.9258
 6482SOL     OW31081   0.502   3.587   2.613  0.0886  0.2122 -0.0271
 6482SOL    HW131082   0.563   3.657   2.634 -3.1567  2.0293  3.4896
 6482SOL    HW231083   0.547   3.505   2.636 -1.3770 -0.5568  0.1232
 6483SOL     OW31084   0.329   0.718   8.670  0.1575  0.1102  0.0641
 6483SOL    HW131085   0.421   0.731   8.692  0.3841  2.2807 -2.0760
 6483SOL    HW231086   0.313   0.632   8.708  2.2091 -0.8117 -1.1104
 6484SOL     OW31087   0.276   4.020   2.202 -0.3014  0.7394 -0.0232
 6484SOL    HW131088   0.312   3.977   2.280 -0.7746 -0.6244 -0.5709
 6484SOL    HW231089   0.355   4.057   2.162  0.1500 -0.2378 -0.0302
 6485SOL     OW31090   1.315   1.671   8.659  0.9911  0.1076  0.1079
 6485SOL    HW131091   1.394   1.685   8.607 -0.4604 -0.7815 -2.3727
 6485SOL    HW231092   1.343   1.630   8.741  1.2153  1.9098  0.9337
 6486SOL     OW31093   0.553   4.188  14.231  0.8562  0.0768 -0.2448
 6486SOL    HW131094   0.548   4.117  14.295  0.2336 -2.3572 -2.9839
 6486SOL    HW231095   0.533   4.272  14.273  0.5308  0.3411 -0.9365
 6487SOL     OW31096   2.442   3.478  17.609 -0.5135 -0.4484  0.0724
 6487SOL    HW131097   2.417   3.548  17.669  0.2942 -0.9273  0.9668
 6487SOL    HW231098   2.388   3.410  17.650 -0.0919  0.0599  1.4965
 6488SOL     OW31099   3.903   4.095   9.141  0.3368 -0.0741  0.0198
 6488SOL    HW131100   3.868   4.163   9.198 -1.1830 -0.7824 -0.0506
 6488SOL    HW231101   3.829   4.088   9.081  1.6194 -4.7254 -1.0238
 6489SOL     OW31102   2.270   4.264   7.818 -0.7527 -0.0630 -0.3132
 6489SOL    HW131103   2.253   4.358   7.814  0.4259  0.0664 -2.1471
 6489SOL    HW231104   2.326   4.257   7.741 -2.1330  1.5947 -1.4683
 6490SOL     OW31105   3.391   0.519   7.583  0.2441  0.4381 -0.5558
 6490SOL    HW131106   3.378   0.428   7.611 -2.5323  1.1976  0.6100
 6490SOL    HW231107   3.327   0.546   7.517  0.8041 -0.7532 -1.5833
 6491SOL     OW31108   4.291   3.792   8.979  0.2131 -0.1478  0.5352
 6491SOL    HW131109   4.346   3.721   8.948 -0.0726 -1.0183  2.0160
 6491SOL    HW231110   4.338   3.873   8.959  0.4782 -0.3601  0.3050
 6492SOL     OW31111   3.311   4.176  16.859 -0.3494 -0.1509  0.1674
 6492SOL    HW131112   3.234   4.121  16.868  0.8397 -1.5194  1.9991
 6492SOL    HW231113   3.326   4.180  16.765  0.5658 -0.6914  0.2864
 6493SOL     OW31114   3.976   4.134   3.007  0.2409 -0.2264  0.0390
 6493SOL    HW131115   3.890   4.102   3.034  0.6893 -1.5730 -0.1722
 6493SOL    HW231116   4.033   4.064   3.038 -0.1167 -1.3983 -1.9502
 6494SOL     OW31117   4.248   0.597  14.240  0.2411 -0.5028  0.9029
 6494SOL    HW131118   4.194   0.568  14.314 -0.7421  0.1813  0.4606
 6494SOL    HW231119   4.258   0.691  14.252  0.7371 -0.6643  1.7122
 6495SOL     OW31120   2.794   3.115  15.836 -0.1487  0.0034  0.2298
 6495SOL    HW131121   2.884   3.102  15.806 -1.9271 -0.1638 -5.0345
 6495SOL    HW231122   2.751   3.033  15.813 -0.9869  1.3161 -2.8766
 6496SOL     OW31123   0.899   2.531   8.613 -0.0398 -0.6434  0.4868
 6496SOL    HW131124   0.882   2.440   8.637 -2.7183 -0.5839 -1.1122
 6496SOL    HW231125   0.844   2.580   8.674  0.7859 -0.2203  0.8907
 6497SOL     OW31126   4.206   2.677   7.276 -0.2443  0.1484  0.3552
 6497SOL    HW131127   4.187   2.640   7.362  0.9376 -0.5150  0.3306
 6497SOL    HW231128   4.292   2.714   7.296 -0.2225 -0.5771  1.6118
 6498SOL     OW31129   2.610   1.296   1.810 -0.2236  0.3076  0.2537
 6498SOL    HW131130   2.637   1.372   1.862  0.4898 -1.3877  2.3070
 6498SOL    HW231131   2.615   1.333   1.721 -0.3065  0.1412  0.1806
 6499SOL     OW31132   3.461   3.456   4.872 -1.1980 -0.8933  0.1784
 6499SOL    HW131133   3.465   3.504   4.789  0.9238  0.3568  1.0198
 6499SOL    HW231134   3.489   3.523   4.933 -0.0523 -1.7845  0.6326
 6500SOL     OW31135   0.265   0.079   2.879  0.5589 -0.2671 -0.1711
 6500SOL    HW131136   0.252   0.154   2.938 -1.8123 -3.0769  2.8692
 6500SOL    HW231137   0.180   0.036   2.867  2.1647 -3.2798 -0.5190
 6501SOL     OW31138   3.145   4.602   9.801  0.0861 -0.0497 -0.0697
 6501SOL    HW131139   3.154   4.537   9.732 -0.1568 -0.5659  0.3825
 6501SOL    HW231140   3.232   4.618   9.838 -0.9482  1.6198  1.6632
 6502SOL     OW31141   2.182   0.649   5.100  0.2260 -0.3987 -0.4497
 6502SOL    HW131142   2.201   0.729   5.051 -0.8671  0.8609  1.2215
 6502SOL    HW231143   2.134   0.676   5.178  1.5984  0.1899  0.1947
 6503SOL     OW31144   0.542   2.286  13.478 -0.2780 -0.7540 -0.4148
 6503SOL    HW131145   0.455   2.270  13.442 -0.1619  0.2530 -1.1178
 6503SOL    HW231146   0.589   2.291  13.394  0.8449 -0.2978  0.2396
 6504SOL     OW31147   2.894   3.893   1.125 -0.5308 -0.5936 -0.0919
 6504SOL    HW131148   2.897   3.973   1.179  2.8292  0.5700 -2.0367
 6504SOL    HW231149   2.833   3.843   1.179 -0.2399 -0.5054  0.3197
 6505SOL     OW31150   0.356   0.973   4.218  0.0859 -0.2504  1.0827
 6505SOL    HW131151   0.401   1.033   4.278 -1.8602  1.0776  1.2165
 6505SOL    HW231152   0.410   0.895   4.233  0.9367  0.0666 -0.2835
 6506SOL     OW31153   3.269   0.894   9.099 -0.0237 -0.4071  0.6239
 6506SOL    HW131154   3.208   0.848   9.041  1.6990 -0.2681 -1.2687
 6506SOL    HW231155   3.334   0.824   9.095  0.7339  0.4513 -1.7433
 6507SOL     OW31156   4.426   3.409   8.212  0.6697  0.0201 -0.2644
 6507SOL    HW131157   4.486   3.481   8.195  0.8942 -0.2996 -0.8227
 6507SOL    HW231158   4.469   3.359   8.282 -0.5431 -1.0646 -0.2932
 6508SOL     OW31159   0.843   4.642   3.610  0.0244 -0.6865  0.5376
 6508SOL    HW131160   0.814   4.562   3.566 -1.4661  0.3131 -0.2970
 6508SOL    HW231161   0.823   4.716   3.554  1.1796  0.0741  1.1275
 6509SOL     OW31162   3.142   0.311  12.675 -0.0580  0.4798 -0.4006
 6509SOL    HW131163   3.143   0.244  12.606 -3.4011 -0.3008  0.3145
 6509SOL    HW231164   3.105   0.258  12.745 -0.9288 -1.0305 -2.0066
 6510SOL     OW31165   0.811   4.076   5.271  0.2052 -0.2069  0.2550
 6510SOL    HW131166   0.907   4.068   5.263 -0.0013 -1.2127 -1.1933
 6510SOL    HW231167   0.799   3.997   5.324 -2.8396 -0.8298 -1.4034
 6511SOL     OW31168   2.076   1.400   0.224  0.0913  0.0909  0.0094
 6511SOL    HW131169   2.051   1.405   0.316 -0.3145  1.7874 -0.1942
 6511SOL    HW231170   2.148   1.463   0.218  1.0682 -1.1095 -0.6763
 6512SOL     OW31171   4.560   4.606  11.072  0.1022  0.0152 -0.0409
 6512SOL    HW131172   4.598   4.572  10.990 -0.1184 -1.4779  0.4851
 6512SOL    HW231173   4.573   4.530  11.129  1.1363 -1.3381 -2.0661
 6513SOL     OW31174   3.424   0.207  10.287  0.2556  0.0689  0.3111
 6513SOL    HW131175   3.445   0.299  10.299 -0.9054  0.7554 -2.8683
 6513SOL    HW231176   3.506   0.168  10.258  1.3255  0.1377  3.2119
 6514SOL     OW31177   1.324   4.319  13.707 -0.2019 -0.4240  0.2524
 6514SOL    HW131178   1.279   4.399  13.732 -1.5841 -1.6033  1.5054
 6514SOL    HW231179   1.290   4.295  13.620 -0.0300 -0.5303  0.2135
 6515SOL     OW31180   4.033   1.630  10.268  0.1841 -0.1182  0.0640
 6515SOL    HW131181   3.952   1.580  10.258 -0.0650  0.6976 -1.8806
 6515SOL    HW231182   4.068   1.608  10.182 -0.4958  0.1571 -0.2890
 6516SOL     OW31183   2.015   0.142   5.561 -0.2233  0.4229  0.0488
 6516SOL    HW131184   1.937   0.192   5.583 -1.1876 -0.9269 -0.2867
 6516SOL    HW231185   2.076   0.214   5.549 -1.6397  1.4919 -0.7206
 6517SOL     OW31186   0.453   0.025  15.278 -0.3237  0.1676  0.2896
 6517SOL    HW131187   0.374   0.032  15.223 -0.5680 -0.0585  0.6119
 6517SOL    HW231188   0.438   4.675  15.309 -1.5297  0.2357 -0.0959
 6518SOL     OW31189   1.878   0.045   3.848  0.0039 -0.2283  0.3598
 6518SOL    HW131190   1.840   0.103   3.913 -0.4992  1.5899 -1.5388
 6518SOL    HW231191   1.799   0.000   3.819  0.5999 -0.3653 -1.0833
 6519SOL     OW31192   2.652   0.843   0.827  0.1335  0.1036  0.4606
 6519SOL    HW131193   2.678   0.919   0.774  0.1695 -1.0211 -1.1585
 6519SOL    HW231194   2.603   0.878   0.901  2.0182  0.7855  1.3931
 6520SOL     OW31195   1.584   1.059   9.663  0.5510  0.5064  0.3589
 6520SOL    HW131196   1.632   1.130   9.621 -1.2374  2.4890  1.6804
 6520SOL    HW231197   1.593   0.991   9.597 -1.6622  0.1937  0.3778
 6521SOL     OW31198   1.012   4.600   5.097 -0.1008  0.2717 -0.0390
 6521SOL    HW131199   1.064   4.570   5.022 -2.4682  3.6237 -2.9917
 6521SOL    HW231200   0.947   4.532   5.117 -1.2806  1.6351  0.7409
 6522SOL     OW31201   4.289   0.621   2.879 -0.5916 -0.3402  0.3212
 6522SOL    HW131202   4.244   0.705   2.888  0.1993  0.2868 -1.4781
 6522SOL    HW231203   4.222   0.554   2.893  0.3980 -0.8416  2.5649
 6523SOL     OW31204   1.901   0.067   4.272 -0.4046 -0.0905  0.7402
 6523SOL    HW131205   1.944   0.029   4.348 -2.4530  0.2056  2.0675
 6523SOL    HW231206   1.852   0.144   4.302 -1.7024 -0.0177 -1.5647
 6524SOL     OW31207   4.417   0.584   5.497 -0.1383 -0.3733  0.5354
 6524SOL    HW131208   4.409   0.667   5.449  0.9433  0.2003  1.3562
 6524SOL    HW231209   4.426   0.620   5.585 -1.4271  1.8448 -0.2370
 6525SOL     OW31210   2.250   1.457   5.605 -0.0804  0.4606 -0.3025
 6525SOL    HW131211   2.307   1.507   5.547 -1.6915  1.4284 -1.0554
 6525SOL    HW231212   2.217   1.394   5.540  2.3552 -1.0740 -0.0475
 6526SOL     OW31213   3.080   4.336   9.923  0.1614 -0.0893 -0.0737
 6526SOL    HW131214   2.986   4.348   9.909 -0.2068 -1.4025  1.2900
 6526SOL    HW231215   3.119   4.422   9.909  2.6971 -1.0749  1.0237
 6527SOL     OW31216   0.624   1.026  15.710  0.1387  0.1465 -0.0319
 6527SOL    HW131217   0.540   0.984  15.694  0.1162  0.9055 -1.8698
 6527SOL    HW231218   0.607   1.087  15.781  2.5505 -0.2312  0.8676
 6528SOL     OW31219   3.029   3.781  10.331 -0.1039 -0.7784  0.7564
 6528SOL    HW131220   2.996   3.778  10.241  0.9288  3.5270  0.2489
 6528SOL    HW231221   3.007   3.696  10.369  3.8306 -1.6230  1.1129
 6529SOL     OW31222   4.205   1.565   3.858  0.0849 -0.3211  0.2714
 6529SOL    HW131223   4.173   1.651   3.887  1.5888 -0.3025  1.8529
 6529SOL    HW231224   4.295   1.552   3.888  0.6545 -0.2858 -1.4240
 6530SOL     OW31225   3.628   1.237  10.820  0.0433 -0.0024  0.2393
 6530SOL    HW131226   3.720   1.222  10.800 -0.5530 -1.2829 -1.5283
 6530SOL    HW231227   3.623   1.176  10.894  0.4214  0.0333  0.2951
 6531SOL     OW31228   0.285   4.567   3.900 -0.1743  0.4201 -0.5093
 6531SOL    HW131229   0.293   4.501   3.830 -0.3524  0.2113 -0.3334
 6531SOL    HW231230   0.352   4.627   3.869  2.0887 -1.3614  0.8992
 6532SOL     OW31231   4.320   1.599   1.196  0.7291  0.2446  0.1665
 6532SOL    HW131232   4.262   1.596   1.272  0.4862 -0.8452 -0.0599
 6532SOL    HW231233   4.372   1.676   1.218 -1.7622  2.0625 -0.2056
 6533SOL     OW31234   3.157   4.464   8.723 -0.0126  0.7924 -0.4583
 6533SOL    HW131235   3.124   4.389   8.772 -0.4784 -0.1563 -2.2436
 6533SOL    HW231236   3.213   4.425   8.656 -0.9362  2.2609 -2.0880
 6534SOL     OW31237   4.611   2.985   6.227 -1.0826  0.2082 -0.7731
 6534SOL    HW131238   4.536   2.926   6.237 -0.0723 -1.3230 -2.2038
 6534SOL    HW231239   4.576   3.065   6.265 -1.2427 -0.5985  0.7923
 6535SOL     OW31240   1.233   0.552   3.567  0.4774  0.0233 -0.7142
 6535SOL    HW131241   1.195   0.626   3.614  2.0526  0.7025 -0.5124
 6535SOL    HW231242   1.259   0.488   3.634 -0.9025  0.5921  0.3364
 6536SOL     OW31243   0.028   1.710   0.297 -0.8501  0.6198 -0.0187
 6536SOL    HW131244   0.111   1.662   0.294 -1.8106 -1.0662  0.4086
 6536SOL    HW231245   4.718   1.681   0.219 -0.1855 -0.4871 -0.0363
 6537SOL     OW31246   3.341   0.095   4.543 -0.5118  0.1598  0.1866
 6537SOL    HW131247   3.327   0.075   4.451 -0.0944 -0.4212  0.2485
 6537SOL    HW231248   3.382   0.182   4.542 -0.7157  0.2565  0.2970
 6538SOL     OW31249   1.557   0.332  17.306 -0.5291 -0.2463  0.7192
 6538SOL    HW131250   1.538   0.319  17.399  0.2387 -3.6852  0.3951
 6538SOL    HW231251   1.613   0.409  17.311 -0.9463  0.0831  0.2873
 6539SOL     OW31252   0.704   3.579   3.859  0.3315  0.7713 -0.7932
 6539SOL    HW131253   0.658   3.662   3.873  1.3653  0.7551  2.6278
 6539SOL    HW231254   0.719   3.590   3.765  0.4184  1.3541 -0.7059
 6540SOL     OW31255   4.454   3.630   5.898 -0.1258 -0.0489 -1.0570
 6540SOL    HW131256   4.366   3.644   5.932  1.3981  1.3542  2.2451
 6540SOL    HW231257   4.463   3.535   5.888  0.3620  0.1129 -2.1055
 6541SOL     OW31258   0.505   1.308   0.934  0.1981  0.4170  0.5223
 6541SOL    HW131259   0.559   1.264   0.999  1.0408  0.5343 -0.1010
 6541SOL    HW231260   0.490   1.233   0.876  3.3475 -0.5133  0.9110
 6542SOL     OW31261   4.539   0.855   3.871  0.1110 -0.0060  0.0592
 6542SOL    HW131262   4.634   0.846   3.864  0.1265  0.7656 -0.7216
 6542SOL    HW231263   4.540   0.900   3.956  0.3284  2.3153 -1.1558
 6543SOL     OW31264   2.043   1.133  17.672 -0.2156 -0.5984  0.0065
 6543SOL    HW131265   2.110   1.068  17.694  0.3273  0.0982  0.4053
 6543SOL    HW231266   2.104   1.203  17.649  1.1781 -1.8743 -0.1803
 6544SOL     OW31267   1.381   3.890   3.895  0.0919  0.0771  0.1652
 6544SOL    HW131268   1.408   3.823   3.958  0.3256  2.1389  2.3024
 6544SOL    HW231269   1.380   3.840   3.814  2.0192  0.0941  0.1442
 6545SOL     OW31270   3.488   0.284   6.408 -0.8295 -0.1902  0.0711
 6545SOL    HW131271   3.468   0.209   6.465  1.6773  0.4341  1.8048
 6545SOL    HW231272   3.414   0.344   6.419 -0.3279  0.9204 -2.6329
 6546SOL     OW31273   2.250   4.053   5.154 -0.2352  0.0941  0.1636
 6546SOL    HW131274   2.245   4.025   5.245 -0.6828  0.3195  0.2071
 6546SOL    HW231275   2.336   4.096   5.151 -0.6879  0.9291 -1.0829
 6547SOL     OW31276   1.211   4.103   1.300  0.0642 -0.2648  0.6164
 6547SOL    HW131277   1.217   4.058   1.215 -0.7903  1.1739 -0.2049
 6547SOL    HW231278   1.299   4.142   1.303 -0.0759 -0.1373  2.9704
 6548SOL     OW31279   4.309   1.936  12.508  0.2413 -0.7621  0.2181
 6548SOL    HW131280   4.266   1.888  12.579  2.2707 -1.0818  1.2365
 6548SOL    HW231281   4.265   2.021  12.500  0.9214 -0.4992 -0.7782
 6549SOL     OW31282   2.867   2.946  15.517  0.6135 -0.2885  0.4382
 6549SOL    HW131283   2.789   2.960  15.571  0.7320 -0.3483  0.6259
 6549SOL    HW231284   2.826   2.925  15.434 -0.2008 -1.5225  1.1564
 6550SOL     OW31285   3.647   4.613  10.060  0.5053 -0.0981 -0.1889
 6550SOL    HW131286   3.668   4.672   9.987  0.4726  0.3587  0.1654
 6550SOL    HW231287   3.729   4.575  10.090  2.2316  2.3748 -1.7486
 6551SOL     OW31288   3.029   3.546   6.789 -0.1894 -0.2034 -0.0487
 6551SOL    HW131289   2.940   3.572   6.764  0.6138  2.0849 -0.5560
 6551SOL    HW231290   3.057   3.603   6.861 -0.4965 -0.5700  0.3578
 6552SOL     OW31291   3.069   2.807   2.390  0.3306 -0.4841 -0.3060
 6552SOL    HW131292   3.134   2.762   2.335  0.3318 -1.6053  0.6173
 6552SOL    HW231293   3.097   2.898   2.382 -1.6957  0.1735  0.2014
 6553SOL     OW31294   2.106   4.512   3.201 -0.0700  0.2887  0.1065
 6553SOL    HW131295   2.146   4.508   3.288 -2.3537 -0.2509  1.1185
 6553SOL    HW231296   2.115   4.419   3.179  1.5959  0.9204 -1.9078
 6554SOL     OW31297   3.265   1.425   2.951 -0.2863  0.3380 -0.8358
 6554SOL    HW131298   3.230   1.513   2.966 -0.0623  0.4033 -0.6968
 6554SOL    HW231299   3.355   1.439   2.978 -0.4996 -1.1060  0.6512
 6555SOL     OW31300   1.464   1.231   3.243  0.3990 -0.1472  0.5213
 6555SOL    HW131301   1.497   1.233   3.333  0.9480 -0.4936  0.3289
 6555SOL    HW231302   1.529   1.170   3.208 -0.1407  0.4043 -1.4502
 6556SOL     OW31303   4.031   4.697   2.881  0.0341 -0.4686  0.4153
 6556SOL    HW131304   4.003   4.611   2.911 -0.2639 -0.8524 -0.9630
 6556SOL    HW231305   3.952   4.723   2.834  1.0938 -0.6898 -1.4837
 6557SOL     OW31306   2.539   0.308   2.754 -0.2249  0.4147  0.6909
 6557SOL    HW131307   2.494   0.388   2.727  2.4326  0.8997 -2.2377
 6557SOL    HW231308   2.534   0.325   2.848 -2.2647  0.5213  0.5715
 6558SOL     OW31309   2.295   4.693   5.072  0.2179  0.2033 -0.1668
 6558SOL    HW131310   2.375   4.695   5.019 -0.4622  0.8220 -1.1663
 6558SOL    HW231311   2.280   4.599   5.076  1.0319  0.1048  0.5356
 6559SOL     OW31312   1.000   1.248   5.762  0.6658  0.5894 -0.3691
 6559SOL    HW131313   1.012   1.290   5.677  0.7579  1.0130 -0.1416
 6559SOL    HW231314   0.931   1.300   5.804  1.1637  1.0258 -0.1050
 6560SOL     OW31315   3.534   0.581   5.826  0.3742 -0.3296 -0.3857
 6560SOL    HW131316   3.469   0.588   5.896  0.4534  2.4619 -0.6045
 6560SOL    HW231317   3.539   0.672   5.797 -0.4668 -0.5330 -1.1838
 6561SOL     OW31318   1.187   0.373  14.754 -0.5202  0.2195  0.4812
 6561SOL    HW131319   1.125   0.440  14.727  0.0047  0.5220  0.0298
 6561SOL    HW231320   1.197   0.312  14.681  1.0795 -0.0122  0.8745
 6562SOL     OW31321   3.434   1.956  12.777  0.2693 -0.8723 -0.3016
 6562SOL    HW131322   3.509   1.903  12.807  0.1404 -0.5564  0.5919
 6562SOL    HW231323   3.366   1.891  12.792 -1.1134  0.8726  0.9805
 6563SOL     OW31324   2.534   0.397  14.484  0.7022 -0.4981  0.0410
 6563SOL    HW131325   2.485   0.341  14.424 -0.7234  0.3719  0.3826
 6563SOL    HW231326   2.611   0.342  14.497  0.4463 -1.2224 -1.5960
 6564SOL     OW31327   3.778   2.115  14.428 -0.5514 -0.1284 -0.3583
 6564SOL    HW131328   3.794   2.045  14.365 -0.5230 -1.2735  0.9209
 6564SOL    HW231329   3.682   2.110  14.430 -0.6986  2.7209 -0.7260
 6565SOL     OW31330   1.019   3.470   6.632 -0.2792  0.3659  0.0204
 6565SOL    HW131331   0.984   3.457   6.544 -1.6721  0.5703  0.5545
 6565SOL    HW231332   1.030   3.565   6.626 -0.5510  0.3898 -0.0845
 6566SOL     OW31333   3.826   4.621  16.555  0.2299 -0.5538 -0.3521
 6566SOL    HW131334   3.866   4.611  16.469 -0.2155  1.2848 -0.7645
 6566SOL    HW231335   3.853   4.708  16.585  0.0555 -0.7174  0.2811
 6567SOL     OW31336   3.941   3.594   4.829  0.0456  0.0121  0.5877
 6567SOL    HW131337   4.018   3.538   4.842  0.5744  0.8002  0.8313
 6567SOL    HW231338   3.882   3.570   4.901  0.8280 -0.5352  1.0487
 6568SOL     OW31339   3.979   1.416   6.326  0.2913 -0.2030 -0.1951
 6568SOL    HW131340   3.990   1.379   6.414 -1.5063 -1.4023 -0.4773
 6568SOL    HW231341   4.037   1.491   6.333  0.8751 -0.5854 -0.8612
 6569SOL     OW31342   3.575   3.176   6.935  0.4625 -0.2027 -0.1658
 6569SOL    HW131343   3.648   3.232   6.962  0.1408  0.2944 -0.3140
 6569SOL    HW231344   3.611   3.134   6.857 -0.1982  0.1172 -0.6488
 6570SOL     OW31345   1.649   3.973   2.425 -0.0729 -0.5696  0.5365
 6570SOL    HW131346   1.672   3.970   2.332  1.9315  4.4052  0.8435
 6570SOL    HW231347   1.710   4.037   2.464  1.6720 -1.9247  0.0574
 6571SOL     OW31348   0.371   1.211   8.992 -0.1211 -0.6077 -0.0400
 6571SOL    HW131349   0.420   1.280   9.037 -2.6226  1.1386 -0.0008
 6571SOL    HW231350   0.365   1.258   8.908  0.7672  1.4741  1.0624
 6572SOL     OW31351   2.971   4.240   6.534 -0.3290  0.0356 -0.1074
 6572SOL    HW131352   2.981   4.335   6.539 -1.1300  0.1903 -1.2845
 6572SOL    HW231353   3.058   4.208   6.508 -1.1633 -0.7568 -1.9267
 6573SOL     OW31354   0.072   2.427   6.919 -0.4559  0.0526  0.2302
 6573SOL    HW131355   4.726   2.392   6.893 -1.2850  3.7562 -2.0152
 6573SOL    HW231356   0.136   2.395   6.855 -1.4287  1.7448 -1.5819
 6574SOL     OW31357   4.431   2.932   2.239 -0.0115  0.3890 -0.0641
 6574SOL    HW131358   4.339   2.914   2.259  0.2013 -1.5456 -0.8653
 6574SOL    HW231359   4.463   2.842   2.242 -2.2342 -0.4508 -1.1600
 6575SOL     OW31360   0.169   0.857   6.072  0.0644 -0.4611  0.2523
 6575SOL    HW131361   0.263   0.865   6.059  0.2243 -2.2270  0.3264
 6575SOL    HW231362   0.148   0.765   6.062  1.7125 -1.1472  3.0731
 6576SOL     OW31363   0.824   0.886   1.979  0.0184 -0.1612 -0.2536
 6576SOL    HW131364   0.757   0.921   1.921 -2.0848 -0.4132  2.0337
 6576SOL    HW231365   0.835   0.795   1.950  0.1579 -0.1498 -0.2356
 6577SOL     OW31366   3.057   1.031   7.534  0.4653  0.6189  0.5708
 6577SOL    HW131367   3.112   1.076   7.470 -2.6748 -0.3273 -2.8058
 6577SOL    HW231368   2.984   1.094   7.536 -0.6664 -0.7525  2.1881
 6578SOL     OW31369   2.212   4.640   2.984 -0.1889  0.5307 -0.1339
 6578SOL    HW131370   2.304   4.615   2.971 -0.1890  0.7337 -0.5359
 6578SOL    HW231371   2.189   4.579   3.054 -1.2842  0.6159 -0.4229
 6579SOL     OW31372   1.407   3.880   5.830  0.1817  0.3111  0.3770
 6579SOL    HW131373   1.467   3.807   5.814 -0.3427 -0.3451  1.4235
 6579SOL    HW231374   1.473   3.949   5.837 -0.2118  0.7031  0.1926
 6580SOL     OW31375   3.144   4.722   6.789  0.0300  1.3306  0.2047
 6580SOL    HW131376   3.051   4.699   6.788  0.2218  0.6853 -1.8823
 6580SOL    HW231377   3.185   4.636   6.793 -1.8330  0.4772  1.0139
 6581SOL     OW31378   4.019   0.122  14.765  0.1235  0.1322 -0.1446
 6581SOL    HW131379   3.943   0.071  14.794 -0.7678  1.6415  0.1625
 6581SOL    HW231380   3.966   0.199  14.741  0.5128 -0.1424 -1.8708
 6582SOL     OW31381   2.941   4.736   9.381  0.2007 -0.4688 -0.0647
 6582SOL    HW131382   2.975   4.657   9.340 -0.9076 -0.7190 -0.5039
 6582SOL    HW231383   3.023   0.047   9.386  1.8771 -3.1348 -1.1340
 6583SOL     OW31384   1.953   1.158   0.215  0.7749 -0.0691 -0.4738
 6583SOL    HW131385   1.961   1.145   0.121  2.0091  2.8159 -0.7704
 6583SOL    HW231386   2.004   1.239   0.217  0.8152 -0.0559 -2.2428
 6584SOL     OW31387   1.401   2.452   3.151  0.3969 -0.1632  0.2100
 6584SOL    HW131388   1.430   2.430   3.239 -3.2051 -3.5223  0.5466
 6584SOL    HW231389   1.321   2.400   3.144 -0.0385  0.3594  1.4590
 6585SOL     OW31390   2.994   3.328   0.390  0.0100  0.5635 -0.6267
 6585SOL    HW131391   3.050   3.251   0.399  1.7992  2.0165  0.5535
 6585SOL    HW231392   2.935   3.322   0.465 -0.9151 -0.6849 -1.4542
 6586SOL     OW31393   0.469   4.405   6.706  0.5816  0.3530  0.4318
 6586SOL    HW131394   0.378   4.414   6.678 -0.7003 -0.2996  4.3306
 6586SOL    HW231395   0.477   4.331   6.766 -1.3878  0.2172  0.5229
 6587SOL     OW31396   0.349   0.205  17.649  0.0114 -0.0500  0.1478
 6587SOL    HW131397   0.326   0.298  17.646 -3.4249 -0.9265 -1.0546
 6587SOL    HW231398   0.352   0.188  17.743  1.5782  2.8550  0.6031
 6588SOL     OW31399   3.108   2.091   5.180  0.4888  0.2686 -0.3357
 6588SOL    HW131400   3.047   2.046   5.239  0.5940  0.9156  0.2614
 6588SOL    HW231401   3.077   2.060   5.094 -0.0875  0.6716 -0.2756
 6589SOL     OW31402   2.316   3.554  12.336 -0.2186 -0.1433 -0.0663
 6589SOL    HW131403   2.376   3.629  12.337  0.5087 -0.7421  0.4003
 6589SOL    HW231404   2.262   3.576  12.260  1.0841  0.9000 -0.6918
 6590SOL     OW31405   0.153   0.326   5.369  0.5932 -0.1184 -0.1470
 6590SOL    HW131406   0.107   0.397   5.415 -1.1382 -0.8340 -0.7755
 6590SOL    HW231407   0.095   0.254   5.395 -1.5600  1.1955 -1.2876
 6591SOL     OW31408   4.682   1.737   4.934  0.2971  0.1993  0.1441
 6591SOL    HW131409   4.731   1.655   4.935  0.2953  0.1699 -1.4347
 6591SOL    HW231410   4.646   1.724   4.847 -2.4778 -0.3004  1.3797
 6592SOL     OW31411   0.152   4.330   9.644 -0.2181 -0.3434 -0.2914
 6592SOL    HW131412   0.166   4.361   9.733  1.0583 -1.4807 -0.0947
 6592SOL    HW231413   0.083   4.264   9.656  2.1067 -2.6410  0.3821
 6593SOL     OW31414   1.271   3.745   2.388  0.2329  0.2525  0.2466
 6593SOL    HW131415   1.359   3.740   2.425  0.4294  2.8626  0.1499
 6593SOL    HW231416   1.223   3.757   2.470 -0.0894  2.4752 -0.2706
 6594SOL     OW31417   0.513   0.515   5.882  0.2355  0.3933  0.2770
 6594SOL    HW131418   0.515   0.582   5.813 -0.2412  1.9336  1.7515
 6594SOL    HW231419   0.578   0.450   5.856 -0.1840  0.4805 -1.0089
 6595SOL     OW31420   1.558   4.734  12.368  0.2095  0.3453  0.4371
 6595SOL    HW131421   1.538   4.640  12.374  1.9161 -0.0336  0.1558
 6595SOL    HW231422   1.497   0.028  12.303  2.6428 -0.2913 -2.1740
 6596SOL     OW31423   4.064   0.558  10.329 -0.3380 -0.1514 -0.6706
 6596SOL    HW131424   3.987   0.512  10.296  0.1070 -1.4087  0.0101
 6596SOL    HW231425   4.127   0.486  10.335 -1.9929 -1.6089 -0.8168
 6597SOL     OW31426   3.690   4.112   0.268 -0.7711  0.3027  0.4036
 6597SOL    HW131427   3.708   4.092   0.360 -2.6820  3.1079  1.3785
 6597SOL    HW231428   3.687   4.022   0.235  0.5818  0.6909 -0.7477
 6598SOL     OW31429   2.385   2.094   1.530  0.3228  0.0195 -0.3255
 6598SOL    HW131430   2.418   2.183   1.539 -1.1867  0.3742  1.6537
 6598SOL    HW231431   2.324   2.076   1.601 -0.1265 -0.4128 -0.8160
 6599SOL     OW31432   3.337   2.922   8.866  0.3381 -0.7826 -0.1411
 6599SOL    HW131433   3.393   2.979   8.814 -1.2098 -0.5722 -1.5620
 6599SOL    HW231434   3.276   2.890   8.800  1.8833 -1.4626 -1.2378
 6600SOL     OW31435   3.728   2.531   1.487 -0.3213  0.3141  0.2958
 6600SOL    HW131436   3.813   2.516   1.445 -0.4763  0.7172 -0.1601
 6600SOL    HW231437   3.734   2.626   1.495  1.3779  0.2249  0.0878
 6601SOL     OW31438   0.838   2.381  12.370 -0.4589  0.0707 -0.1556
 6601SOL    HW131439   0.845   2.322  12.445 -2.7858 -0.5318 -0.4159
 6601SOL    HW231440   0.878   2.462  12.402 -2.6064  2.0208 -2.4431
 6602SOL     OW31441   1.032   0.140   7.129  0.5609  0.1914  0.1597
 6602SOL    HW131442   1.118   0.100   7.115 -0.0041 -1.8517  2.4463
 6602SOL    HW231443   0.980   0.075   7.175 -0.9493  1.7060  0.5962
 6603SOL     OW31444   0.925   1.434   7.366 -0.1415  0.6689  0.9941
 6603SOL    HW131445   0.863   1.496   7.328  1.4828  0.2817 -2.2675
 6603SOL    HW231446   0.956   1.483   7.442 -1.3762  0.9002  1.3524
 6604SOL     OW31447   2.013   3.243   5.061  0.0966 -0.6167 -0.0272
 6604SOL    HW131448   2.012   3.156   5.100 -3.2380 -0.3715  0.4159
 6604SOL    HW231449   2.045   3.285   5.141 -1.7067  0.3820  0.1681
 6605SOL     OW31450   0.966   2.520   3.847 -0.4037 -0.0255  0.1290
 6605SOL    HW131451   0.948   2.446   3.788 -1.2236 -0.2065  0.6012
 6605SOL    HW231452   1.061   2.518   3.833 -0.5181  0.6245 -0.7894
 6606SOL     OW31453   1.033   2.096   8.868  0.1455  0.3593 -0.3562
 6606SOL    HW131454   0.962   2.055   8.917  0.1680  1.7897  0.8916
 6606SOL    HW231455   1.049   2.176   8.918  1.2868 -2.2235  3.4196
 6607SOL     OW31456   0.076   4.147   6.373 -0.6952  0.1110  0.1548
 6607SOL    HW131457   0.102   4.056   6.360 -2.4146 -0.1594 -1.4270
 6607SOL    HW231458   0.153   4.190   6.410 -0.8135 -0.1811  0.7367
 6608SOL     OW31459   2.418   1.025   2.622  0.7208  0.5397 -0.6651
 6608SOL    HW131460   2.463   1.088   2.566  0.7285  0.5900 -0.6022
 6608SOL    HW231461   2.329   1.062   2.620 -0.8086 -3.3648 -3.1362
 6609SOL     OW31462   3.009   4.635   8.564  0.0992 -0.2359  0.0698
 6609SOL    HW131463   3.067   4.600   8.631  1.0372  3.8291  1.3718
 6609SOL    HW231464   2.932   4.579   8.572  0.8684 -1.1859  0.8404
 6610SOL     OW31465   1.029   0.930   4.861  0.3656 -0.2486  0.4876
 6610SOL    HW131466   1.012   0.857   4.920 -1.0412  0.9854  1.6028
 6610SOL    HW231467   1.079   0.885   4.792  0.0484 -1.5175  1.0971
 6611SOL     OW31468   2.911   4.136   3.071  0.2523  0.0317  0.3209
 6611SOL    HW131469   2.974   4.067   3.051  1.7706  1.3647  0.5413
 6611SOL    HW231470   2.933   4.197   3.001 -0.0848  0.2558  0.4078
 6612SOL     OW31471   3.001   3.299   0.066  0.1115  0.2751 -0.3343
 6612SOL    HW131472   2.917   3.294   0.021 -0.0604 -1.7916  0.2547
 6612SOL    HW231473   2.987   3.315   0.159  1.7648  0.8042 -0.1647
 6613SOL     OW31474   1.427   3.256   9.189  0.0193  0.0112 -0.1704
 6613SOL    HW131475   1.363   3.284   9.123  0.2626  0.7840 -0.0735
 6613SOL    HW231476   1.440   3.162   9.175 -1.3520 -0.3180  0.6919
 6614SOL     OW31477   2.652   1.682  17.594 -0.1364  0.2038  0.0213
 6614SOL    HW131478   2.732   1.732  17.609  1.3196 -1.0904 -3.6587
 6614SOL    HW231479   2.606   1.746  17.539 -1.2252  0.0838  0.7819
 6615SOL     OW31480   1.609   2.533  13.796 -0.3070 -0.4442  0.2869
 6615SOL    HW131481   1.591   2.604  13.735 -1.0292 -0.5041  0.4377
 6615SOL    HW231482   1.657   2.588  13.857 -1.2071  0.4327  0.2012
 6616SOL     OW31483   1.434   2.833   7.058  0.3278 -0.6627  0.0942
 6616SOL    HW131484   1.351   2.811   7.016  0.0559  2.2252 -0.9019
 6616SOL    HW231485   1.491   2.838   6.982  3.1118 -0.6992  2.2013
 6617SOL     OW31486   4.040   2.604  13.294  0.0315 -0.4721  0.0126
 6617SOL    HW131487   4.077   2.692  13.289 -0.5159 -0.2177  0.5382
 6617SOL    HW231488   3.963   2.628  13.344  1.1955 -0.2021  1.6782
 6618SOL     OW31489   0.300   2.180  13.845 -0.0294  0.8991  0.1669
 6618SOL    HW131490   0.263   2.248  13.788 -4.7759 -3.0474 -1.4195
 6618SOL    HW231491   0.269   2.208  13.931 -1.0941 -0.3741  0.2078
 6619SOL     OW31492   2.025   1.756   6.486  0.5203  0.9704  0.2985
 6619SOL    HW131493   1.953   1.790   6.432  0.8918  1.7555  0.2913
 6619SOL    HW231494   1.976   1.721   6.561 -2.2176 -0.1447 -1.9873
 6620SOL     OW31495   0.795   0.609   6.808  0.3281  0.3431 -0.1852
 6620SOL    HW131496   0.774   0.516   6.819  1.0366  0.2405  0.3261
 6620SOL    HW231497   0.802   0.618   6.713 -2.8663  0.9791 -0.3347
 6621SOL     OW31498   3.755   3.531  17.352  0.0844 -0.0754  0.0941
 6621SOL    HW131499   3.710   3.521  17.268  0.5180 -2.8470  0.1872
 6621SOL    HW231500   3.784   3.441  17.361 -1.0049 -0.5895 -1.5145
 6622SOL     OW31501   1.153   4.044  11.765  0.4983 -0.0727 -0.2799
 6622SOL    HW131502   1.243   4.046  11.797  0.1345  0.8819  0.6872
 6622SOL    HW231503   1.138   3.950  11.773 -0.7744 -0.0424 -2.3511
 6623SOL     OW31504   1.475   2.134   7.409 -0.3502 -0.0394  0.3951
 6623SOL    HW131505   1.464   2.192   7.484 -0.0124  0.4294  0.0813
 6623SOL    HW231506   1.396   2.141   7.355 -0.9737  0.3248  1.3737
 6624SOL     OW31507   1.438   2.947  13.039 -0.0218 -0.3819  0.0024
 6624SOL    HW131508   1.518   2.908  13.076  1.4677  0.2575 -2.5398
 6624SOL    HW231509   1.389   2.952  13.121  0.1480 -0.1048  0.0875
 6625SOL     OW31510   4.547   3.001   3.147  0.1020 -0.3939 -0.4383
 6625SOL    HW131511   4.604   3.078   3.145  3.1385 -2.6323  0.3448
 6625SOL    HW231512   4.517   3.012   3.237  2.1521 -0.4813  0.2723
 6626SOL     OW31513   4.173   0.887   8.980 -0.2158 -0.0260 -0.2769
 6626SOL    HW131514   4.172   0.868   8.886  2.0786 -0.6756 -0.1796
 6626SOL    HW231515   4.220   0.969   8.989 -1.0171  0.8111 -3.5533
 6627SOL     OW31516   1.745   0.338  10.556 -0.1881  0.7229 -0.1230
 6627SOL    HW131517   1.731   0.296  10.471 -0.9796  0.2148  0.2609
 6627SOL    HW231518   1.828   0.384  10.542  0.9637 -0.7980  1.6648
 6628SOL     OW31519   1.624   3.333   7.175  0.6290  0.0237  0.0131
 6628SOL    HW131520   1.685   3.326   7.249 -1.0899 -1.4545  1.2749
 6628SOL    HW231521   1.628   3.242   7.145  1.0437  0.9656 -2.8011
 6629SOL     OW31522   3.307   2.311  15.175  0.4624 -0.4064 -0.0734
 6629SOL    HW131523   3.238   2.359  15.222  1.1859  0.5075  0.0355
 6629SOL    HW231524   3.335   2.242  15.235  0.6135 -0.4908 -0.2407
 6630SOL     OW31525   4.611   4.116   4.143  0.1349  0.5537  0.6419
 6630SOL    HW131526   4.619   4.063   4.222 -0.9621  1.0900  1.1123
 6630SOL    HW231527   4.526   4.160   4.150 -0.3355 -0.4539  1.2852
 6631SOL     OW31528   4.608   1.046   8.574 -0.1409  0.3273  0.2011
 6631SOL    HW131529   4.586   0.995   8.652  0.7983  0.3260  0.4637
 6631SOL    HW231530   4.556   1.125   8.584  1.2033  1.0069  1.7239
 6632SOL     OW31531   3.124   4.616   3.408 -0.2047  0.1094 -0.0669
 6632SOL    HW131532   3.215   4.623   3.380  0.5183  1.6567  2.6277
 6632SOL    HW231533   3.087   4.562   3.338  1.7610 -2.5328  0.9290
 6633SOL     OW31534   1.513   1.465   5.198  0.3908 -0.3334  0.1848
 6633SOL    HW131535   1.453   1.451   5.125  0.6672 -2.6876  0.3957
 6633SOL    HW231536   1.578   1.396   5.184 -0.1260 -1.3072  2.5760
 6634SOL     OW31537   4.480   3.903  17.314 -0.4154 -0.4679  0.4454
 6634SOL    HW131538   4.567   3.864  17.305 -0.7213 -0.5165 -2.2909
 6634SOL    HW231539   4.477   3.967  17.243 -1.5348  0.3165  1.2046
 6635SOL     OW31540   1.164   3.011  14.532  0.9543 -0.1308  0.5232
 6635SOL    HW131541   1.139   3.096  14.568  3.2539 -0.6210  3.2684
 6635SOL    HW231542   1.082   2.966  14.551  1.6928 -1.7581 -0.1468
 6636SOL     OW31543   1.281   0.654  17.310  0.1372  0.0396  0.2949
 6636SOL    HW131544   1.252   0.682  17.224  1.9284 -2.3089 -1.0803
 6636SOL    HW231545   1.208   0.605  17.348 -2.3674  1.7572 -2.3765
 6637SOL     OW31546   1.363   1.709   3.603  0.4186 -0.3616  0.3856
 6637SOL    HW131547   1.452   1.726   3.633 -0.2336 -1.1690  2.8205
 6637SOL    HW231548   1.358   1.616   3.581 -0.8484 -0.1210 -0.3545
 6638SOL     OW31549   1.756   0.494   6.271 -0.2944  0.1080  0.2403
 6638SOL    HW131550   1.672   0.536   6.248  0.0055 -0.3982 -1.8249
 6638SOL    HW231551   1.756   0.423   6.207  2.0167  0.4151 -0.0859
 6639SOL     OW31552   4.171   3.440   8.965  0.1567  0.5977  0.4522
 6639SOL    HW131553   4.265   3.457   8.962  0.2151 -0.0015 -1.6636
 6639SOL    HW231554   4.176   3.346   8.984 -1.3845  0.2350 -0.9075
 6640SOL     OW31555   1.030   0.678  12.269 -0.0648  0.5054 -0.1142
 6640SOL    HW131556   1.036   0.583  12.266  0.6048  0.5676 -0.7130
 6640SOL    HW231557   1.091   0.709  12.202 -1.0075  0.1173 -1.1302
 6641SOL     OW31558   3.826   2.586   8.114  0.5557  0.2083  0.0473
 6641SOL    HW131559   3.884   2.635   8.056  0.7387  0.1916  0.2196
 6641SOL    HW231560   3.807   2.506   8.064 -0.9987  0.0548  0.8887
 6642SOL     OW31561   2.334   0.943   8.551 -0.0134  0.3899  0.5626
 6642SOL    HW131562   2.361   0.977   8.466 -4.2349 -0.1836 -1.0146
 6642SOL    HW231563   2.241   0.962   8.539  0.1792  0.4959 -0.7786
 6643SOL     OW31564   1.478   0.401   3.569  0.3020  0.5683 -0.3022
 6643SOL    HW131565   1.507   0.392   3.478 -2.9377 -0.8267 -1.1808
 6643SOL    HW231566   1.410   0.336   3.556  2.1394 -1.3277 -0.3943
 6644SOL     OW31567   3.844   0.696   3.311 -0.0702 -0.2234  0.1347
 6644SOL    HW131568   3.890   0.687   3.395 -0.6351 -0.1440  0.4523
 6644SOL    HW231569   3.757   0.708   3.350  1.2759  0.6335  2.8951
 6645SOL     OW31570   0.424   0.208   5.367  0.1419 -0.2903  0.1803
 6645SOL    HW131571   0.407   0.158   5.287 -1.0554  1.3825 -0.6127
 6645SOL    HW231572   0.335   0.209   5.403 -0.5534 -1.9975 -1.4373
 6646SOL     OW31573   3.196   2.110   3.415  0.5167 -0.2971  0.7955
 6646SOL    HW131574   3.284   2.080   3.394  0.5664  1.2225 -1.1863
 6646SOL    HW231575   3.163   2.035   3.465  2.0879 -2.1116 -0.9065
 6647SOL     OW31576   2.600   0.300  16.522 -0.2462 -1.1229 -0.0321
 6647SOL    HW131577   2.635   0.389  16.522 -1.5444 -0.6198 -1.4372
 6647SOL    HW231578   2.518   0.323  16.477  1.0586  2.5704 -0.4901
 6648SOL     OW31579   0.716   1.048   7.922 -0.1488 -0.1492 -0.1194
 6648SOL    HW131580   0.781   1.094   7.869 -1.0112  1.3861  0.1390
 6648SOL    HW231581   0.759   1.049   8.008 -0.5462 -1.8229  0.0843
 6649SOL     OW31582   2.139   2.737   1.270  0.0340  0.1712  0.0742
 6649SOL    HW131583   2.113   2.771   1.356  0.2857  0.6366 -0.0340
 6649SOL    HW231584   2.234   2.736   1.282  0.1638  0.4553 -0.9445
 6650SOL     OW31585   4.159   3.440   0.626  0.3054  0.0428  0.4380
 6650SOL    HW131586   4.066   3.430   0.607  0.5862  0.4128 -1.1423
 6650SOL    HW231587   4.178   3.533   0.613 -0.7567  0.5746  2.6778
 6651SOL     OW31588   0.478   2.580   2.996 -0.5777  0.2303  0.0063
 6651SOL    HW131589   0.392   2.540   3.000 -0.7739  0.5363 -1.0687
 6651SOL    HW231590   0.484   2.614   2.906 -1.1485  1.9835  0.6187
 6652SOL     OW31591   3.437   2.671   6.986  0.5354  0.5699  0.3102
 6652SOL    HW131592   3.430   2.638   6.896  1.9748 -0.4196  0.5628
 6652SOL    HW231593   3.347   2.667   7.020  0.9453  1.2103  1.4720
 6653SOL     OW31594   0.152   0.773   8.449  0.4325 -0.2077  0.1051
 6653SOL    HW131595   0.129   0.866   8.456 -2.8040 -1.2044  2.4769
 6653SOL    HW231596   0.224   0.768   8.513  1.5347 -3.4336 -1.4366
 6654SOL     OW31597   2.011   3.923   5.757 -0.5280  0.0027 -0.7692
 6654SOL    HW131598   2.054   3.857   5.811 -0.3944 -0.0110 -0.8949
 6654SOL    HW231599   2.052   4.005   5.784  0.8182 -0.6629 -0.7880
 6655SOL     OW31600   1.775   1.258   8.137  0.4909  0.4095 -0.1907
 6655SOL    HW131601   1.696   1.294   8.094  0.2929 -0.0448 -0.2071
 6655SOL    HW231602   1.770   1.169   8.101 -0.7087 -0.0797  1.1972
 6656SOL     OW31603   2.460   3.852   4.611 -0.3932 -0.2653 -0.1651
 6656SOL    HW131604   2.555   3.852   4.624 -0.6630  1.9491  1.7500
 6656SOL    HW231605   2.428   3.776   4.658 -1.2015 -1.4676 -2.6482
 6657SOL     OW31606   1.521   2.579   7.559 -0.2891 -0.4785 -0.1991
 6657SOL    HW131607   1.517   2.648   7.624 -1.1355 -1.6589  0.9993
 6657SOL    HW231608   1.441   2.527   7.570 -0.4528  0.1103  1.3404
 6658SOL     OW31609   1.913   4.457   7.889 -0.0693  0.2524  0.3558
 6658SOL    HW131610   1.896   4.405   7.967 -0.9478  0.2230  0.1406
 6658SOL    HW231611   1.968   4.402   7.833 -2.0642 -1.9273  0.5695
 6659SOL     OW31612   0.246   1.490   6.291  0.4337  0.1995 -0.2950
 6659SOL    HW131613   0.326   1.476   6.342  1.3967  0.1847 -1.7932
 6659SOL    HW231614   0.202   1.550   6.351 -0.5496  0.7707 -1.5999
 6660SOL     OW31615   1.664   3.754   9.793 -0.1426 -0.7648 -0.3411
 6660SOL    HW131616   1.604   3.680   9.782 -0.7993  0.0780 -2.3906
 6660SOL    HW231617   1.752   3.718   9.798  0.2619  0.0320 -1.8810
 6661SOL     OW31618   4.634   1.211   4.966 -0.2742 -0.1936  0.1507
 6661SOL    HW131619   4.670   1.151   4.901  1.0700  0.5374  0.2230
 6661SOL    HW231620   4.637   1.157   5.045 -0.8701 -1.1563 -0.4824
 6662SOL     OW31621   4.606   4.629   3.120  0.0287  0.6592 -0.3828
 6662SOL    HW131622   4.585   4.719   3.142 -0.4269  0.7343 -1.1163
 6662SOL    HW231623   4.591   4.584   3.203  0.1164  1.0588 -0.1512
 6663SOL     OW31624   2.130   1.174   1.929 -0.0717 -0.4050  0.1141
 6663SOL    HW131625   2.099   1.095   1.974 -0.1769 -1.5736 -2.0148
 6663SOL    HW231626   2.210   1.137   1.893 -0.5762  0.2498 -1.6574
 6664SOL     OW31627   0.418   0.859   7.513  0.8802 -0.6451  0.0391
 6664SOL    HW131628   0.463   0.896   7.589 -0.8092  1.1914  0.1386
 6664SOL    HW231629   0.423   0.764   7.527 -2.2397 -0.7988  0.1361
 6665SOL     OW31630   3.217   3.040  13.459 -0.1643  0.4408  0.8105
 6665SOL    HW131631   3.170   2.966  13.421 -0.6532  0.4680  1.3550
 6665SOL    HW231632   3.302   3.027  13.418 -1.1190 -2.1498 -0.3440
 6666SOL     OW31633   0.985   4.062   2.344  0.4949  0.8566  0.0392
 6666SOL    HW131634   0.896   4.080   2.313 -0.9558 -2.1787  2.3702
 6666SOL    HW231635   0.955   4.035   2.431 -0.8369  0.5050 -0.5349
 6667SOL     OW31636   4.059   2.435  10.127  0.0386  0.2377 -0.3829
 6667SOL    HW131637   4.111   2.510  10.097  0.3251  0.4528  0.6507
 6667SOL    HW231638   3.995   2.476  10.185  2.4481 -0.1021  2.5434
 6668SOL     OW31639   3.171   1.280   6.151  0.1387 -0.0952  0.1545
 6668SOL    HW131640   3.192   1.370   6.126 -0.5365 -0.2003 -0.8300
 6668SOL    HW231641   3.224   1.234   6.085  1.8787 -0.1597  1.6058
 6669SOL     OW31642   0.875   3.989   7.514  0.1753  0.8001 -0.1642
 6669SOL    HW131643   0.825   3.922   7.468 -0.8470 -0.0324  2.1562
 6669SOL    HW231644   0.927   3.924   7.562 -2.1432 -0.2745  0.9257
 6670SOL     OW31645   3.738   1.108   4.233  0.6267  0.1612 -0.6183
 6670SOL    HW131646   3.703   1.049   4.166  2.7218 -0.8027 -0.8674
 6670SOL    HW231647   3.826   1.113   4.196  1.2527 -0.5885  0.7677
 6671SOL     OW31648   4.656   3.037  13.761  0.1548  0.4520 -0.4968
 6671SOL    HW131649   4.712   3.061  13.835  0.4088 -0.2395 -0.4673
 6671SOL    HW231650   4.603   2.968  13.802  0.4715  1.0097  0.8766
 6672SOL     OW31651   0.525   2.099   4.914 -0.7420  0.0090  0.3938
 6672SOL    HW131652   0.543   2.127   5.004  0.8456  0.3968 -0.0471
 6672SOL    HW231653   0.614   2.079   4.887 -0.4449 -0.4322  1.6834
 6673SOL     OW31654   4.652   3.245  11.112 -0.0938  0.2606 -0.6392
 6673SOL    HW131655   4.668   3.173  11.051 -1.1437 -0.5724  0.0667
 6673SOL    HW231656   4.614   3.313  11.057  1.1969  0.3256 -1.4501
 6674SOL     OW31657   2.876   3.272  15.490 -0.2473  0.2463  0.3510
 6674SOL    HW131658   2.905   3.277  15.399 -0.9203  1.2000  0.1896
 6674SOL    HW231659   2.954   3.228  15.524  0.3119  3.4970  3.2639
 6675SOL     OW31660   2.395   2.937   5.631 -0.3037 -0.1717  0.0500
 6675SOL    HW131661   2.381   2.842   5.627  1.7052 -0.4080 -1.3424
 6675SOL    HW231662   2.489   2.935   5.614 -0.7680 -3.6385 -2.3212
 6676SOL     OW31663   1.362   2.156   4.428 -0.1689 -0.0977  0.8763
 6676SOL    HW131664   1.348   2.083   4.489 -2.6044  0.0203  0.4606
 6676SOL    HW231665   1.270   2.173   4.407  0.1087 -0.0145 -0.2696
 6677SOL     OW31666   2.223   3.979   7.518 -0.0846 -0.4057  0.0668
 6677SOL    HW131667   2.315   3.956   7.505  0.0212  0.2263 -0.3202
 6677SOL    HW231668   2.235   4.062   7.564 -2.8237 -0.2623  0.5493
 6678SOL     OW31669   3.142   0.147   0.902  0.4614  0.2196  0.1160
 6678SOL    HW131670   3.158   0.174   0.993  3.5518  0.0661 -0.3840
 6678SOL    HW231671   3.230   0.142   0.866  1.3387 -2.1013  2.6153
 6679SOL     OW31672   3.827   3.123  11.431 -0.6334  0.5877  0.0805
 6679SOL    HW131673   3.732   3.127  11.423 -0.6962 -0.1777  0.3964
 6679SOL    HW231674   3.821   3.037  11.472 -1.6902 -1.0378 -3.4922
 6680SOL     OW31675   0.491   3.156   6.713  0.4212  0.1069 -0.0742
 6680SOL    HW131676   0.516   3.229   6.770 -1.7140 -0.0837  1.0985
 6680SOL    HW231677   0.404   3.181   6.684  1.1222  2.5339 -0.0875
 6681SOL     OW31678   1.831   4.644   0.949 -0.7531 -0.0038  0.1477
 6681SOL    HW131679   1.822   4.703   1.025 -0.4485 -3.5658  2.9336
 6681SOL    HW231680   1.765   4.681   0.890 -1.9835  0.7742  1.9693
 6682SOL     OW31681   0.721   4.189   2.377  0.1036 -0.0800  0.4684
 6682SOL    HW131682   0.640   4.167   2.331  0.7888 -0.0064 -0.7886
 6682SOL    HW231683   0.701   4.159   2.465  2.6469  2.5729  1.9494
 6683SOL     OW31684   0.025   3.356   5.433 -0.6328 -0.0311  0.2062
 6683SOL    HW131685   4.701   3.418   5.469  0.0324  0.1696  1.0196
 6683SOL    HW231686   4.702   3.284   5.423 -0.3336 -0.1834 -0.5277
 6684SOL     OW31687   3.531   4.385  15.826  0.1928  0.1947  0.2648
 6684SOL    HW131688   3.583   4.327  15.770 -0.3943  1.1753 -1.3264
 6684SOL    HW231689   3.461   4.412  15.767 -1.7573 -1.6711  1.7562
 6685SOL     OW31690   4.468   4.308  10.699 -0.1370 -0.4345  0.2302
 6685SOL    HW131691   4.479   4.386  10.644  1.7144 -0.7408  0.1665
 6685SOL    HW231692   4.462   4.238  10.634 -3.5305  1.5694 -1.5893
 6686SOL     OW31693   4.196   0.802  10.335  0.4118  0.3253  0.5731
 6686SOL    HW131694   4.171   0.710  10.328  1.0479  0.2645 -0.7511
 6686SOL    HW231695   4.196   0.840  10.248  1.3126 -2.0320 -0.4427
 6687SOL     OW31696   3.897   4.298  14.871 -0.5780 -0.5902 -0.7657
 6687SOL    HW131697   3.862   4.327  14.955 -1.1273 -0.4948 -1.0257
 6687SOL    HW231698   3.816   4.269  14.829  1.6343 -0.3977 -5.0710
 6688SOL     OW31699   3.223   3.415   7.071  0.4654  0.1234 -0.5122
 6688SOL    HW131700   3.275   3.335   7.085  0.3426  0.3451  1.1395
 6688SOL    HW231701   3.251   3.461   7.150 -2.5913 -0.7752  1.0735
 6689SOL     OW31702   2.110   2.978   7.696  0.3423  0.0370 -0.7257
 6689SOL    HW131703   2.144   2.892   7.718  0.8073 -0.1098 -2.0058
 6689SOL    HW231704   2.191   3.016   7.660 -0.1672  1.0998 -0.7745
 6690SOL     OW31705   0.921   4.650   3.254  0.0097 -0.0086 -0.1368
 6690SOL    HW131706   0.923   4.615   3.165  1.6507  2.0602 -0.9027
 6690SOL    HW231707   0.829   4.669   3.270  0.0304  0.9927 -1.1518
 6691SOL     OW31708   1.858   2.746   8.556 -0.3068 -0.1699 -0.3397
 6691SOL    HW131709   1.786   2.740   8.493 -1.9450  1.8740  1.3267
 6691SOL    HW231710   1.809   2.802   8.617 -0.5209 -1.7031  0.8944
 6692SOL     OW31711   1.123   2.428  17.492 -0.1129  0.3812 -0.0077
 6692SOL    HW131712   1.141   2.362  17.559  0.1095  3.0224  2.5413
 6692SOL    HW231713   1.147   2.506  17.543  1.0470  1.0369 -1.5384
 6693SOL     OW31714   0.489   4.156   7.697  0.1614  0.0436 -0.2732
 6693SOL    HW131715   0.552   4.222   7.671 -0.3982  0.9041  0.5578
 6693SOL    HW231716   0.459   4.195   7.779 -1.8057  1.3673 -1.6143
 6694SOL     OW31717   0.695   2.366  11.074 -0.1909  0.3888  0.6048
 6694SOL    HW131718   0.698   2.455  11.109 -1.0608 -0.2128  2.2023
 6694SOL    HW231719   0.734   2.316  11.146  0.7514 -0.3288 -0.4114
 6695SOL     OW31720   2.962   2.164   8.456  0.2362  0.0159 -0.3558
 6695SOL    HW131721   3.043   2.134   8.496  0.0735  0.5365  0.3683
 6695SOL    HW231722   2.929   2.084   8.416 -1.2774  1.5246 -2.1682
 6696SOL     OW31723   4.315   2.494  11.392  0.3159  0.3620  0.3330
 6696SOL    HW131724   4.337   2.407  11.424 -1.9752 -0.1530  0.5137
 6696SOL    HW231725   4.267   2.469  11.313 -0.6430  0.2917  0.9282
 6697SOL     OW31726   1.329   1.545   7.524  0.2529 -0.8470  0.0453
 6697SOL    HW131727   1.328   1.624   7.469  0.6339 -1.0041 -0.1883
 6697SOL    HW231728   1.237   1.554   7.546  0.6723  2.2951  0.4923
 6698SOL     OW31729   2.094   3.831   6.814 -0.4963  0.6157 -0.4194
 6698SOL    HW131730   2.123   3.742   6.832 -2.1112  0.5663  1.9247
 6698SOL    HW231731   2.050   3.807   6.732 -1.5683  0.2699  0.2660
 6699SOL     OW31732   1.027   2.814   9.943  0.3520  0.2420 -0.1876
 6699SOL    HW131733   0.971   2.800  10.019 -0.3629 -0.1235 -0.7802
 6699SOL    HW231734   1.084   2.883   9.976  0.8493  0.6064 -1.8037
 6700SOL     OW31735   3.481   2.818  11.720  0.4086 -0.1359  0.0452
 6700SOL    HW131736   3.535   2.879  11.770  0.2190  0.8842 -0.9932
 6700SOL    HW231737   3.436   2.886  11.670  3.2242 -0.4056 -2.8448
 6701SOL     OW31738   3.320   3.554   3.272 -0.0335  0.1432  0.5765
 6701SOL    HW131739   3.394   3.551   3.333 -0.6618 -1.8389  1.2494
 6701SOL    HW231740   3.276   3.471   3.292  1.1335 -1.0988 -1.9878
 6702SOL     OW31741   2.217   2.312  15.449  0.5488 -0.1568  0.1038
 6702SOL    HW131742   2.225   2.388  15.507  1.5264  0.2252 -0.5221
 6702SOL    HW231743   2.294   2.265  15.481  1.5738  1.4702  0.0601
 6703SOL     OW31744   1.185   4.700  14.221 -0.4961  0.2562 -0.7768
 6703SOL    HW131745   1.143   0.028  14.169 -1.1697 -0.5304 -1.2357
 6703SOL    HW231746   1.235   0.005  14.290 -0.5881 -1.6482  0.5187
 6704SOL     OW31747   1.595   2.128   6.930  0.8731  0.8046 -0.0665
 6704SOL    HW131748   1.588   2.194   6.999  1.4339  1.1004 -0.2930
 6704SOL    HW231749   1.526   2.158   6.871  0.6172 -1.1859 -0.7772
 6705SOL     OW31750   2.241   4.248   4.352 -0.3308 -0.0265  0.5667
 6705SOL    HW131751   2.333   4.272   4.349 -0.1370 -1.2155 -2.7711
 6705SOL    HW231752   2.244   4.152   4.347  1.9306  0.1770 -1.7673
 6706SOL     OW31753   0.837   1.467   3.740  0.2651  0.1325  0.0286
 6706SOL    HW131754   0.765   1.457   3.678  0.8606  1.2434 -0.8308
 6706SOL    HW231755   0.893   1.393   3.718  0.9384  0.6561 -0.0126
 6707SOL     OW31756   2.234   4.568   9.025 -0.2048 -0.0357  0.1595
 6707SOL    HW131757   2.149   4.608   9.007 -0.5108 -0.6107  0.3202
 6707SOL    HW231758   2.291   4.627   8.976  1.1769 -1.8467 -0.3696
 6708SOL     OW31759   0.260   2.683  15.093  0.3401 -0.2867 -0.1700
 6708SOL    HW131760   0.287   2.606  15.043 -0.8222 -1.0803  0.4399
 6708SOL    HW231761   0.311   2.660  15.171  0.2857 -2.3721 -0.7488
 6709SOL     OW31762   4.705   2.810   4.785 -0.7086  0.3844  0.2098
 6709SOL    HW131763   4.718   2.735   4.727 -2.3208  0.5124 -0.3177
 6709SOL    HW231764   0.025   2.873   4.743 -1.1688  3.0074  3.5252
 6710SOL     OW31765   1.703   1.392   8.918  0.3790  0.0045 -0.0211
 6710SOL    HW131766   1.676   1.481   8.894 -1.6080 -0.2967  1.1163
 6710SOL    HW231767   1.787   1.416   8.957 -0.0044 -2.5488  2.3433
 6711SOL     OW31768   4.301   2.934  13.714  0.2724  0.8758  0.3925
 6711SOL    HW131769   4.388   2.900  13.737 -0.8945 -2.1214  0.3418
 6711SOL    HW231770   4.246   2.896  13.782  0.6574  1.2796  0.9337
 6712SOL     OW31771   3.883   2.278  12.864  0.1192 -0.3776 -0.2419
 6712SOL    HW131772   3.888   2.286  12.959  1.4885 -1.0087 -0.2569
 6712SOL    HW231773   3.807   2.333  12.847  1.0578  0.5818 -1.3064
 6713SOL     OW31774   2.152   1.691   8.493 -0.1285 -0.3836 -0.1736
 6713SOL    HW131775   2.234   1.651   8.462 -0.8234 -0.0161 -2.4953
 6713SOL    HW231776   2.165   1.683   8.587  0.0641  0.3289 -0.1452
 6714SOL     OW31777   0.895   1.137   4.775  0.5678 -0.0931  0.0311
 6714SOL    HW131778   0.933   1.161   4.690  1.4283 -1.5390  0.0088
 6714SOL    HW231779   0.957   1.066   4.793  1.4952  0.3991 -1.2293
 6715SOL     OW31780   3.412   3.874   6.088  0.0195  0.5055  0.0908
 6715SOL    HW131781   3.347   3.918   6.143 -0.0866 -0.0017  0.3708
 6715SOL    HW231782   3.459   3.819   6.150 -2.2483 -2.4253 -0.7796
 6716SOL     OW31783   2.161   1.320   5.398  0.2744  0.2990 -0.0917
 6716SOL    HW131784   2.172   1.367   5.315  0.1816 -1.2841 -1.0107
 6716SOL    HW231785   2.075   1.280   5.383  0.8689 -1.1243  0.2797
 6717SOL     OW31786   3.859   1.293   4.692  0.6074 -0.2430  0.0902
 6717SOL    HW131787   3.902   1.312   4.609 -1.5546 -0.1470 -0.9875
 6717SOL    HW231788   3.855   1.198   4.690 -0.5441 -0.1904  0.0922
 6718SOL     OW31789   0.350   2.195  12.572 -0.0116  0.0884 -0.0347
 6718SOL    HW131790   0.422   2.159  12.623 -0.2989 -0.2667  0.1276
 6718SOL    HW231791   0.366   2.156  12.486 -0.0615  0.2027 -0.0957
 6719SOL     OW31792   3.406   1.424   2.611  0.3812  0.2220  0.2061
 6719SOL    HW131793   3.436   1.513   2.588 -4.1807  2.0436  1.3316
 6719SOL    HW231794   3.345   1.409   2.539  0.0812  1.0723  0.2758
 6720SOL     OW31795   1.738   1.428   4.732 -0.1002  0.5903  0.6046
 6720SOL    HW131796   1.797   1.373   4.783 -0.2065 -1.3634 -1.3929
 6720SOL    HW231797   1.699   1.362   4.674 -0.7259 -1.8020  3.7234
 6721SOL     OW31798   4.015   1.828   5.899 -0.2329  0.0560 -0.4738
 6721SOL    HW131799   4.108   1.812   5.887 -0.6970 -3.1562  0.3727
 6721SOL    HW231800   3.985   1.770   5.829  0.7143  0.8575 -1.5467
 6722SOL     OW31801   2.582   0.178   5.475 -0.3961  0.0455  0.2663
 6722SOL    HW131802   2.534   0.149   5.397 -2.1518  1.1955  0.9421
 6722SOL    HW231803   2.565   0.271   5.462 -2.0777 -0.6313 -2.4777
 6723SOL     OW31804   1.902   4.637  14.540  0.1784  0.0818  0.5844
 6723SOL    HW131805   1.961   4.587  14.597  1.2440  1.3623  0.5890
 6723SOL    HW231806   1.878   4.703  14.606  1.0929  0.4745  0.5278
 6724SOL     OW31807   4.066   1.114   6.263  0.0145 -0.9462  0.6698
 6724SOL    HW131808   4.031   1.202   6.248 -0.0366 -1.0325  0.2928
 6724SOL    HW231809   4.010   1.060   6.207  0.0979 -2.0837  1.7015
 6725SOL     OW31810   3.309   0.859   7.164 -0.1822 -0.4110 -0.0376
 6725SOL    HW131811   3.353   0.774   7.169  1.1086  0.3891  2.4769
 6725SOL    HW231812   3.219   0.829   7.149  0.6622 -3.2236  0.5340
 6726SOL     OW31813   0.347   2.187   7.553 -0.4554  0.2070  0.4824
 6726SOL    HW131814   0.426   2.233   7.525 -0.1333 -0.4402  0.3207
 6726SOL    HW231815   0.355   2.178   7.647 -0.9651  2.3436  0.7375
 6727SOL     OW31816   1.604   0.609   4.070  0.3974 -0.1698  0.4567
 6727SOL    HW131817   1.685   0.649   4.038  1.0474 -2.8261 -1.1634
 6727SOL    HW231818   1.569   0.590   3.983 -1.3045 -0.7884  1.2828
 6728SOL     OW31819   3.494   0.770  15.684  0.0272  0.2444  0.1315
 6728SOL    HW131820   3.471   0.684  15.719 -2.5713  0.3680 -1.2532
 6728SOL    HW231821   3.527   0.816  15.760 -1.0139 -0.1611  0.8321
 6729SOL     OW31822   3.892   3.137   7.849 -0.9786  0.4313 -0.2266
 6729SOL    HW131823   3.907   3.230   7.835 -0.5509 -0.0805 -3.2248
 6729SOL    HW231824   3.948   3.105   7.779 -1.0540 -1.2819  0.4908
 6730SOL     OW31825   1.253   4.594   2.924 -0.1935  0.5885  0.0640
 6730SOL    HW131826   1.275   4.515   2.975 -0.6042  0.8229  0.6061
 6730SOL    HW231827   1.277   4.663   2.986  1.0399 -0.9638  1.3259
 6731SOL     OW31828   2.920   1.119  17.376 -0.1243 -0.3341  0.3552
 6731SOL    HW131829   2.970   1.197  17.350  0.5031 -0.8062  0.1406
 6731SOL    HW231830   2.850   1.155  17.431 -0.1963  0.5692 -0.3257
 6732SOL     OW31831   2.846   2.270   7.080  0.0233 -0.6692 -0.1600
 6732SOL    HW131832   2.886   2.352   7.050  0.1634 -0.6471  0.0860
 6732SOL    HW231833   2.769   2.305   7.125  0.5984 -0.9675  1.0468
 6733SOL     OW31834   3.209   3.862  16.443 -0.3815 -0.4691  0.1681
 6733SOL    HW131835   3.226   3.878  16.351 -0.1991 -1.4913  0.0174
 6733SOL    HW231836   3.126   3.907  16.455 -0.5076 -0.9355  1.1016
 6734SOL     OW31837   0.918   3.736   2.601 -0.2595  0.2606 -0.6362
 6734SOL    HW131838   0.910   3.688   2.519  1.1544 -3.1185  1.1922
 6734SOL    HW231839   1.013   3.747   2.601  0.0420 -2.2954  0.0859
 6735SOL     OW31840   1.546   1.883  10.072 -0.6231 -0.0168 -0.1983
 6735SOL    HW131841   1.589   1.804  10.104 -0.8245 -0.2976 -0.6037
 6735SOL    HW231842   1.472   1.887  10.132  0.6400  2.0213  1.1998
 6736SOL     OW31843   0.343   2.437   8.592  0.0864 -0.2246 -0.2228
 6736SOL    HW131844   0.306   2.448   8.680 -0.3965 -3.3984 -0.0187
 6736SOL    HW231845   0.414   2.374   8.604 -0.0234 -0.1938  0.5591
 6737SOL     OW31846   4.561   3.568   4.435 -0.1140  0.6245  0.4551
 6737SOL    HW131847   4.574   3.586   4.342  0.2566 -0.8054  0.2368
 6737SOL    HW231848   4.577   3.654   4.474  3.6524  0.5488 -0.9426
 6738SOL     OW31849   0.918   2.344   2.524 -0.2683 -0.1636  0.2011
 6738SOL    HW131850   0.932   2.252   2.504  0.6469 -0.1551  0.8275
 6738SOL    HW231851   0.997   2.360   2.575  0.7841  2.1934 -2.1567
 6739SOL     OW31852   1.488   2.068   2.899  0.0575  0.1465  0.1010
 6739SOL    HW131853   1.471   2.079   2.805  0.5715  0.4763  0.0528
 6739SOL    HW231854   1.521   2.152   2.930  2.6717 -1.2709  1.1211
 6740SOL     OW31855   4.058   0.370   6.068  0.5812 -0.3338 -0.0669
 6740SOL    HW131856   3.980   0.364   6.122  0.5226  1.1755  0.0266
 6740SOL    HW231857   4.096   0.282   6.067  1.8441  0.2091 -0.5081
 6741SOL     OW31858   4.267   0.922   7.557 -0.1784 -0.0169  0.1623
 6741SOL    HW131859   4.245   1.015   7.560  1.0727  0.3121 -0.7047
 6741SOL    HW231860   4.346   0.909   7.505 -0.9946 -1.0860 -0.8213
 6742SOL     OW31861   1.521   4.157   3.846 -0.5356  0.0259 -0.1631
 6742SOL    HW131862   1.522   4.187   3.937  0.4876 -0.8769  0.1145
 6742SOL    HW231863   1.505   4.064   3.858  1.1888 -0.6046 -3.0044
 6743SOL     OW31864   3.901   2.260   7.341  0.2438  0.3876 -0.2314
 6743SOL    HW131865   3.895   2.352   7.368  0.4172  0.4274 -0.3293
 6743SOL    HW231866   3.882   2.215   7.423 -2.9438  0.1396 -1.1243
 6744SOL     OW31867   1.405   2.156  16.234 -0.2410  0.3691  0.3139
 6744SOL    HW131868   1.411   2.198  16.148  0.3782 -2.3790 -1.0066
 6744SOL    HW231869   1.318   2.181  16.263 -1.5890 -1.9839 -1.6413
 6745SOL     OW31870   0.872   3.205   2.987  0.3850 -0.2933  0.6216
 6745SOL    HW131871   0.880   3.159   2.904 -1.7563  2.9193 -1.3596
 6745SOL    HW231872   0.869   3.294   2.951 -0.5029  0.1484  1.7809
 6746SOL     OW31873   4.526   1.990   5.259 -0.1234 -0.1031  0.4910
 6746SOL    HW131874   4.438   1.957   5.272 -0.5184  1.1242  0.9580
 6746SOL    HW231875   4.512   2.047   5.183 -0.8416 -0.5092  0.3219
 6747SOL     OW31876   3.304   4.197  14.371 -0.1448  0.9966 -0.4141
 6747SOL    HW131877   3.234   4.261  14.361 -0.1586  0.8915 -0.9478
 6747SOL    HW231878   3.368   4.227  14.306 -0.1056 -0.2047 -0.9190
 6748SOL     OW31879   2.131   3.033   1.213 -0.5023  0.2028  0.1719
 6748SOL    HW131880   2.207   2.975   1.200 -0.1293  0.0068  3.0320
 6748SOL    HW231881   2.167   3.121   1.216 -0.8485  0.3301  0.5152
 6749SOL     OW31882   0.334   0.674  16.432  0.0090  0.1770 -0.1305
 6749SOL    HW131883   0.267   0.686  16.500 -0.9324  0.4999 -1.1209
 6749SOL    HW231884   0.310   0.748  16.376 -0.7980  0.7844  1.0039
 6750SOL     OW31885   2.167   3.645   8.348 -0.3449 -0.1355  0.2105
 6750SOL    HW131886   2.075   3.668   8.337 -0.1360 -0.4839 -2.2905
 6750SOL    HW231887   2.210   3.725   8.316 -1.5952  0.1505 -0.7295
 6751SOL     OW31888   4.365   0.708   3.280  0.0189 -0.1623 -0.6156
 6751SOL    HW131889   4.417   0.786   3.300 -0.0389 -0.1824 -0.3795
 6751SOL    HW231890   4.293   0.741   3.227  0.6640  1.8697 -0.2155
 6752SOL     OW31891   3.452   3.897   4.727 -0.0760 -0.6548  0.1303
 6752SOL    HW131892   3.465   3.802   4.722  2.0658 -0.4796  2.5365
 6752SOL    HW231893   3.540   3.925   4.704 -0.6919  1.5549  0.4759
 6753SOL     OW31894   3.792   4.701   2.706  0.8511  0.1840  0.1008
 6753SOL    HW131895   3.754   0.049   2.697  2.1324  0.7037 -0.2802
 6753SOL    HW231896   3.789   4.675   2.613  0.4923  2.5183 -0.5242
 6754SOL     OW31897   3.024   2.779   3.714 -0.2678 -0.1289  0.0752
 6754SOL    HW131898   3.004   2.763   3.621  3.1190  0.0083 -0.6910
 6754SOL    HW231899   2.949   2.740   3.758 -0.9402  1.6966  0.5618
 6755SOL     OW31900   1.656   2.621   3.219  0.0677 -0.0265  0.0038
 6755SOL    HW131901   1.613   2.698   3.256 -0.3403  0.5938 -1.7724
 6755SOL    HW231902   1.721   2.601   3.287 -1.6176 -0.3611  1.5187
 6756SOL     OW31903   1.514   2.799  14.553 -0.6276 -0.4390  0.0582
 6756SOL    HW131904   1.586   2.828  14.497  0.4688 -0.3193  1.5646
 6756SOL    HW231905   1.549   2.710  14.554  1.2273  0.2989  0.0918
 6757SOL     OW31906   2.701   4.217   8.036  0.0771  0.1896  0.2368
 6757SOL    HW131907   2.698   4.293   8.094  1.1334  0.4368 -0.0249
 6757SOL    HW231908   2.621   4.176   8.070  0.0635 -0.5632 -0.6971
 6758SOL     OW31909   2.593   4.199  14.081 -0.2554 -0.1376 -0.5609
 6758SOL    HW131910   2.553   4.263  14.022  0.1147  1.1003  0.5294
 6758SOL    HW231911   2.520   4.161  14.129 -0.0468  0.9642  0.6104
 6759SOL     OW31912   3.581   0.960   7.395 -0.0161 -0.2281  0.2662
 6759SOL    HW131913   3.510   0.961   7.332  1.8111 -0.9810 -1.8152
 6759SOL    HW231914   3.550   0.919   7.476  0.8453  2.0407  1.7458
 6760SOL     OW31915   3.108   1.698  16.823 -0.2480 -0.5601  0.0722
 6760SOL    HW131916   3.201   1.715  16.836 -0.4084 -0.4108  1.0087
 6760SOL    HW231917   3.099   1.613  16.866 -1.6222 -0.2450  0.4173
 6761SOL     OW31918   4.422   2.846   7.357  0.2107 -0.5657 -0.0861
 6761SOL    HW131919   4.490   2.868   7.293 -0.2834 -1.5648 -0.9641
 6761SOL    HW231920   4.482   2.797   7.414  1.1125 -0.4514 -0.9228
 6762SOL     OW31921   2.024   2.492   5.823 -0.7340 -0.0775 -0.4799
 6762SOL    HW131922   2.016   2.458   5.912  0.3986 -0.7258 -0.6171
 6762SOL    HW231923   2.064   2.418   5.777 -1.2279 -0.8337  0.3081
 6763SOL     OW31924   2.111   1.688   7.684 -0.1225 -0.6311 -0.6191
 6763SOL    HW131925   2.020   1.703   7.661 -0.5292 -1.9436  0.1427
 6763SOL    HW231926   2.141   1.667   7.596  0.2967  0.3930 -0.7178
 6764SOL     OW31927   0.525   2.563   1.447  0.2724 -0.3175  0.0252
 6764SOL    HW131928   0.486   2.591   1.530  2.8988 -0.9895  1.4673
 6764SOL    HW231929   0.598   2.513   1.485  0.9341 -1.2880 -2.5650
 6765SOL     OW31930   0.354   0.748  15.086  0.2316 -0.0431 -0.7148
 6765SOL    HW131931   0.312   0.677  15.135  1.1685  1.1039  1.7100
 6765SOL    HW231932   0.293   0.821  15.091  2.2794  1.5566  0.6114
 6766SOL     OW31933   0.167   1.095   4.083  0.0841  0.1232 -0.1012
 6766SOL    HW131934   0.245   1.047   4.111 -1.6410 -2.3459  0.5040
 6766SOL    HW231935   0.184   1.185   4.111 -1.3894 -0.1494  1.6797
 6767SOL     OW31936   1.369   2.234   5.192 -0.4207  0.1676  0.2658
 6767SOL    HW131937   1.302   2.230   5.124 -1.4721  0.2553  1.3060
 6767SOL    HW231938   1.328   2.294   5.254  1.3318  0.0738  1.5413
 6768SOL     OW31939   3.845   0.119  13.146 -0.0444  0.5530 -0.0645
 6768SOL    HW131940   3.838   0.180  13.220  0.3021  0.2686  0.2028
 6768SOL    HW231941   3.762   0.122  13.099 -1.4258 -0.3583  2.3566
 6769SOL     OW31942   0.591   1.567   7.885 -0.0720 -0.1875  0.6238
 6769SOL    HW131943   0.581   1.596   7.976  0.9419 -0.1682  0.7230
 6769SOL    HW231944   0.539   1.487   7.884  0.1436 -0.3294  1.0722
 6770SOL     OW31945   2.914   3.825   9.171  0.0014 -0.1952  0.2528
 6770SOL    HW131946   2.881   3.752   9.119 -1.5404  0.4484  0.3138
 6770SOL    HW231947   2.930   3.881   9.095 -2.9950  0.3074 -0.0404
 6771SOL     OW31948   2.028   2.814   1.530 -0.3135 -0.2564 -0.1690
 6771SOL    HW131949   2.029   2.859   1.614  3.1084 -1.5189  0.5035
 6771SOL    HW231950   1.941   2.775   1.541 -0.5908  0.4281  0.0065
 6772SOL     OW31951   4.423   3.306   3.075 -0.7015 -0.1299  0.5206
 6772SOL    HW131952   4.404   3.273   2.987  0.6019  0.8307 -0.1085
 6772SOL    HW231953   4.409   3.229   3.129  3.2540 -1.3836 -0.2851
 6773SOL     OW31954   0.928   1.107  12.176  0.2685 -0.1989  0.3372
 6773SOL    HW131955   0.881   1.025  12.191 -1.1155  0.5058 -0.1669
 6773SOL    HW231956   1.009   1.114  12.227  0.3456 -1.0130  0.3257
 6774SOL     OW31957   2.827   1.179   6.768 -0.0659  0.1193 -0.9116
 6774SOL    HW131958   2.857   1.114   6.704 -0.1095 -0.5565 -0.2478
 6774SOL    HW231959   2.854   1.257   6.719  1.0736 -0.2431 -0.8676
 6775SOL     OW31960   3.208   3.546   8.189  0.6634 -0.1812 -0.3832
 6775SOL    HW131961   3.189   3.533   8.282  0.3310 -0.9321 -0.5558
 6775SOL    HW231962   3.203   3.455   8.162 -0.5059  0.0368 -0.9009
 6776SOL     OW31963   3.333   2.654   2.569  0.1840  0.1502 -0.3451
 6776SOL    HW131964   3.365   2.569   2.599  1.2554  1.2977  1.7217
 6776SOL    HW231965   3.239   2.648   2.588  0.4204  1.0694  1.1051
 6777SOL     OW31966   2.023   1.830   0.304 -0.2888  0.0476  1.0393
 6777SOL    HW131967   1.970   1.852   0.381 -0.7662 -2.2935  1.3844
 6777SOL    HW231968   1.971   1.763   0.259  1.2712  0.5965 -1.5563
 6778SOL     OW31969   0.863   2.360  17.457 -0.3481  0.5924  0.4376
 6778SOL    HW131970   0.862   2.343  17.363 -0.0515  1.0669  0.3498
 6778SOL    HW231971   0.949   2.402  17.463 -0.9056  1.8455 -0.4767
 6779SOL     OW31972   2.281   2.490   6.139  0.2436 -0.4536 -0.4095
 6779SOL    HW131973   2.342   2.435   6.188 -0.9169 -2.8893 -1.7107
 6779SOL    HW231974   2.208   2.428   6.141  0.6622 -0.9182  0.6704
 6780SOL     OW31975   1.733   0.477   0.325  0.2214  0.1888  0.0461
 6780SOL    HW131976   1.676   0.403   0.345 -0.9645  0.9654 -0.4778
 6780SOL    HW231977   1.698   0.539   0.389  0.1251  1.0674 -0.8565
 6781SOL     OW31978   1.108   4.556   7.860 -0.2256 -0.3724  0.0953
 6781SOL    HW131979   1.143   4.534   7.946  1.6206 -0.3922 -0.6582
 6781SOL    HW231980   1.077   4.469   7.835  0.3988 -0.5163 -0.1677
 6782SOL     OW31981   2.895   0.636   4.571  0.1259  0.2438 -0.1745
 6782SOL    HW131982   2.818   0.623   4.515  0.4374  0.5351 -0.6671
 6782SOL    HW231983   2.928   0.723   4.550  0.3761 -0.3366 -2.2429
 6783SOL     OW31984   1.557   0.053   3.064 -0.0229  0.1595 -0.2662
 6783SOL    HW131985   1.565   0.007   3.147 -1.9884  0.2054 -0.0350
 6783SOL    HW231986   1.467   0.088   3.065  0.6735  1.9897 -1.2186
 6784SOL     OW31987   4.671   2.411  13.180  0.4258  0.3541  0.2031
 6784SOL    HW131988   4.576   2.416  13.174  0.2861 -3.8109 -0.7592
 6784SOL    HW231989   4.704   2.428  13.091 -0.6258  0.6744 -0.1363
 6785SOL     OW31990   0.894   2.335   3.653  0.4059  0.5607 -0.0186
 6785SOL    HW131991   0.914   2.244   3.632  1.7390  0.6889  0.7060
 6785SOL    HW231992   0.939   2.376   3.580 -0.1888  0.4362 -0.4572
 6786SOL     OW31993   2.461   4.565   3.023 -0.2908  0.1403 -0.2270
 6786SOL    HW131994   2.488   4.601   3.108 -0.1729 -3.5374  1.2971
 6786SOL    HW231995   2.544   4.522   3.005 -1.1950 -2.2142  1.2669
 6787SOL     OW31996   0.423   3.044   0.498 -0.6352 -0.0940  0.1008
 6787SOL    HW131997   0.340   3.087   0.516  0.7206  2.9025 -0.8990
 6787SOL    HW231998   0.408   2.957   0.535  1.6798 -0.6819 -0.3170
 6788SOL     OW31999   2.543   4.642   8.719  0.2822  0.1358 -0.2880
 6788SOL    HW132000   2.497   4.682   8.792  2.4903  1.7587  0.1947
 6788SOL    HW232001   2.476   4.597   8.667  0.1993 -1.4862  1.2166
 6789SOL     OW32002   2.864   3.061   7.299  0.2404  0.2206  0.5341
 6789SOL    HW132003   2.933   3.077   7.236  0.8917 -0.2565  1.1267
 6789SOL    HW232004   2.916   3.046   7.378  1.8750 -0.5134 -0.6984
 6790SOL     OW32005   4.371   0.114   4.284 -0.5930 -0.2831 -0.1910
 6790SOL    HW132006   4.321   0.194   4.297  1.7706  0.9640  1.0884
 6790SOL    HW232007   4.377   0.074   4.371  1.6986  1.2935  0.3763
 6791SOL     OW32008   0.767   1.552   4.856  0.0880  0.2370  0.3116
 6791SOL    HW132009   0.822   1.535   4.779  0.9684 -0.2728  1.0603
 6791SOL    HW232010   0.713   1.474   4.864 -0.5700  0.5126 -1.4366
 6792SOL     OW32011   3.921   0.026  11.338 -0.2832  0.1146  0.0407
 6792SOL    HW132012   3.964   4.681  11.353 -0.2241  0.4896  1.8830
 6792SOL    HW232013   3.952   0.085  11.407  0.2943  0.2244 -0.3083
 6793SOL     OW32014   2.416   3.753   7.876 -0.0315  0.2865 -0.3874
 6793SOL    HW132015   2.388   3.722   7.789  0.1482 -1.1852  0.0836
 6793SOL    HW232016   2.416   3.848   7.861 -1.5634  0.3009 -0.3176
 6794SOL     OW32017   1.390   3.529  10.907 -0.0544  0.5166  0.3498
 6794SOL    HW132018   1.329   3.456  10.899 -0.3584  0.8049  0.0483
 6794SOL    HW232019   1.427   3.520  10.995 -1.4192  0.6545  0.9384
 6795SOL     OW32020   4.358   2.124  17.514 -0.4900  0.1404 -0.1580
 6795SOL    HW132021   4.311   2.142  17.432 -1.4083  1.7230  0.7192
 6795SOL    HW232022   4.436   2.076  17.487  0.9035  1.0165  2.3374
 6796SOL     OW32023   4.631   0.748  15.442  0.3009 -0.0136 -0.1933
 6796SOL    HW132024   4.679   0.831  15.439 -1.6540  1.1030 -0.9490
 6796SOL    HW232025   4.572   0.771  15.514  2.2506 -0.9862  1.6955
 6797SOL     OW32026   3.678   3.271   3.363  0.5950 -0.6041 -0.2001
 6797SOL    HW132027   3.659   3.239   3.275  1.3698  0.4906 -0.7494
 6797SOL    HW232028   3.595   3.241   3.402 -0.5213  0.9935 -1.3548
 6798SOL     OW32029   0.161   2.620   3.537  0.3811 -0.0008 -0.2242
 6798SOL    HW132030   0.210   2.634   3.618 -0.1501  1.2147 -0.1262
 6798SOL    HW232031   0.234   2.583   3.486  1.6013  0.7009  0.9941
 6799SOL     OW32032   3.348   2.324   4.341 -0.3971  0.3869  0.3501
 6799SOL    HW132033   3.361   2.251   4.281  0.6589  1.6546 -0.9397
 6799SOL    HW232034   3.307   2.394   4.292 -3.6687 -2.0581 -0.4382
 6800SOL     OW32035   4.569   0.230  15.638  0.1022 -0.7757 -0.7281
 6800SOL    HW132036   4.622   0.211  15.560  1.1980  1.5408 -0.5621
 6800SOL    HW232037   4.484   0.204  15.603 -0.5874  0.1911  0.2408
 6801SOL     OW32038   1.291   2.199   6.829  0.0988  0.1418 -0.0126
 6801SOL    HW132039   1.260   2.133   6.891  2.7755 -1.0893  0.0178
 6801SOL    HW232040   1.218   2.260   6.827 -0.2735 -0.2889  0.4606
 6802SOL     OW32041   0.778   3.422   6.971  0.9268  0.2884  0.3012
 6802SOL    HW132042   0.849   3.394   7.028  0.0217  0.6191  1.5758
 6802SOL    HW232043   0.774   3.513   6.998  1.3937  0.7471 -1.1475
 6803SOL     OW32044   2.922   0.531   5.582 -0.5109 -0.2718  0.0851
 6803SOL    HW132045   2.881   0.463   5.529 -2.5348  2.3838 -1.7152
 6803SOL    HW232046   2.865   0.530   5.659 -1.9460 -0.0015 -0.9921
 6804SOL     OW32047   1.143   3.703  14.873  0.3563  0.2434  0.1086
 6804SOL    HW132048   1.115   3.772  14.933  3.1064  0.9217  0.6263
 6804SOL    HW232049   1.155   3.622  14.922  0.5088 -0.0458 -0.4000
 6805SOL     OW32050   1.991   4.023   9.445 -0.1745 -0.2503 -0.6006
 6805SOL    HW132051   2.014   4.015   9.352  2.2578 -0.9046  0.0613
 6805SOL    HW232052   1.903   4.060   9.439  0.0697  0.4447  0.2022
 6806SOL     OW32053   3.078   4.495   6.519  0.0898 -0.5620 -0.3402
 6806SOL    HW132054   3.128   4.564   6.475 -0.5449 -1.2005 -2.0451
 6806SOL    HW232055   3.136   4.486   6.595  0.3567  0.2353 -0.4471
 6807SOL     OW32056   2.449   3.279   0.492  0.2484 -0.5104 -0.4784
 6807SOL    HW132057   2.394   3.354   0.467  1.1198 -0.4335 -2.1339
 6807SOL    HW232058   2.437   3.280   0.587  0.5239 -0.5272 -0.4444
 6808SOL     OW32059   3.022   0.206   2.438  0.1942 -0.1089 -0.0780
 6808SOL    HW132060   2.964   0.198   2.513  0.7198 -0.5013  0.2844
 6808SOL    HW232061   2.975   0.279   2.398  0.5820 -0.1507 -0.6099
 6809SOL     OW32062   1.929   0.774  14.569 -0.1157  0.4509 -0.7205
 6809SOL    HW132063   1.980   0.836  14.517  2.7800  0.2911  1.9338
 6809SOL    HW232064   1.974   0.787  14.652 -1.6166  0.9918  0.0169
 6810SOL     OW32065   0.324   1.896   7.478 -0.2728 -0.2959 -0.4528
 6810SOL    HW132066   0.415   1.880   7.502 -0.3915 -0.7527 -0.3201
 6810SOL    HW232067   0.302   1.983   7.513 -1.7800 -0.2478 -1.5008
 6811SOL     OW32068   0.623   4.259   9.475  0.0125 -0.1906 -0.4931
 6811SOL    HW132069   0.679   4.200   9.526 -0.0283  0.3965  0.2275
 6811SOL    HW232070   0.542   4.237   9.521 -0.5106  2.1859 -0.3160
 6812SOL     OW32071   4.632   1.267   0.543  0.0667 -0.1806 -0.3304
 6812SOL    HW132072   4.638   1.175   0.567 -1.8938  0.1605  1.5039
 6812SOL    HW232073   4.543   1.270   0.507  1.0503  0.6146 -2.7180
 6813SOL     OW32074   1.194   1.412   6.132  0.1910  0.1287 -0.1851
 6813SOL    HW132075   1.154   1.481   6.079  0.1334  0.8279  0.7593
 6813SOL    HW232076   1.197   1.341   6.067 -0.3065  0.1378 -0.2170
 6814SOL     OW32077   1.502   0.605  15.521 -0.1229  0.4218  0.4264
 6814SOL    HW132078   1.549   0.653  15.452 -1.0844 -2.3312 -2.1643
 6814SOL    HW232079   1.410   0.618  15.501 -0.1973  0.8284  1.0513
 6815SOL     OW32080   3.803   2.288   4.070 -0.3179  0.5394 -0.1909
 6815SOL    HW132081   3.820   2.376   4.036 -1.6976  0.3337 -1.4160
 6815SOL    HW232082   3.766   2.243   3.994  1.0337 -0.2129 -0.3942
 6816SOL     OW32083   2.028   2.870  16.365 -0.0307  0.5363 -0.0607
 6816SOL    HW132084   2.058   2.900  16.451  1.6014  1.5094 -0.9741
 6816SOL    HW232085   2.105   2.857  16.311  0.1844 -0.1990  0.4175
 6817SOL     OW32086   2.640   0.751  11.062  0.6786 -0.0161 -0.3034
 6817SOL    HW132087   2.583   0.687  11.103  2.8259 -1.5203  0.3580
 6817SOL    HW232088   2.689   0.774  11.141 -1.0798 -0.6650  0.9696
 6818SOL     OW32089   4.095   1.403   8.208 -0.2527 -0.2257  0.3417
 6818SOL    HW132090   4.179   1.449   8.201 -0.8885  0.8488 -0.1728
 6818SOL    HW232091   4.123   1.349   8.282  0.2828 -1.4057 -0.7265
 6819SOL     OW32092   2.712   4.635   8.088  0.3915 -0.7945  0.4634
 6819SOL    HW132093   2.791   4.597   8.050  0.1518 -1.2486  0.4178
 6819SOL    HW232094   2.660   4.566   8.048  0.4457  0.2608 -1.4499
 6820SOL     OW32095   1.995   0.473   9.670 -0.3419 -0.1899  0.1570
 6820SOL    HW132096   2.046   0.459   9.590 -1.1572  0.4267 -0.4738
 6820SOL    HW232097   1.953   0.556   9.647  1.2734  0.9785  1.3431
 6821SOL     OW32098   3.901   1.669   6.528 -0.1916 -0.1893 -0.1428
 6821SOL    HW132099   3.955   1.680   6.606 -1.3585  1.0705  0.4916
 6821SOL    HW232100   3.975   1.655   6.469  0.2581  1.3369  0.0478
 6822SOL     OW32101   0.790   0.889   3.918  0.1400  0.5034 -0.1396
 6822SOL    HW132102   0.766   0.973   3.880 -1.4358  0.8564  1.6109
 6822SOL    HW232103   0.767   0.916   4.007 -1.8604  0.2859 -0.5954
 6823SOL     OW32104   1.641   0.264   6.515  0.3830  0.3572  0.1106
 6823SOL    HW132105   1.629   0.354   6.546 -1.2272  0.6717 -1.4314
 6823SOL    HW232106   1.631   0.290   6.424  0.0015  1.9424  0.6035
 6824SOL     OW32107   3.477   2.359   7.735  0.1851  0.0704  0.1230
 6824SOL    HW132108   3.427   2.434   7.704  0.0650 -0.1179 -0.1394
 6824SOL    HW232109   3.501   2.315   7.653 -1.0338  0.5345 -0.4810
 6825SOL     OW32110   4.255   0.870   5.178 -0.2119  0.2194 -0.1762
 6825SOL    HW132111   4.171   0.857   5.133 -0.2854  1.9197 -0.5326
 6825SOL    HW232112   4.312   0.854   5.103  0.1160 -1.0247  0.3369
 6826SOL     OW32113   3.133   3.192  15.567  0.2733  0.4793 -0.2967
 6826SOL    HW132114   3.182   3.110  15.571 -0.7302 -0.0951  0.0867
 6826SOL    HW232115   3.160   3.243  15.643 -0.1915 -0.3838  0.4475
 6827SOL     OW32116   2.839   3.432  13.395  0.3812 -0.0307  0.7577
 6827SOL    HW132117   2.897   3.484  13.451  2.1844 -2.9005  1.5666
 6827SOL    HW232118   2.900   3.364  13.367 -1.9331 -2.0333  0.6079
 6828SOL     OW32119   0.254   2.858   7.900  0.1855 -0.2885  0.1435
 6828SOL    HW132120   0.277   2.787   7.841  0.0232 -0.7068  0.5861
 6828SOL    HW232121   0.280   2.938   7.854 -1.0540 -1.0746 -1.8950
 6829SOL     OW32122   0.354   1.863  12.560 -0.5756 -0.0756  0.7710
 6829SOL    HW132123   0.269   1.869  12.604 -0.8842 -1.5363  0.3693
 6829SOL    HW232124   0.358   1.768  12.549  3.8806  0.3717 -1.3086
 6830SOL     OW32125   2.273   1.181   4.005 -0.1752 -0.1512  0.4694
 6830SOL    HW132126   2.356   1.133   4.010 -1.2868 -2.2629 -1.1462
 6830SOL    HW232127   2.292   1.247   4.072 -0.4326  1.0356 -0.6379
 6831SOL     OW32128   2.573   4.390   0.630  0.1096 -0.1629  0.3775
 6831SOL    HW132129   2.487   4.405   0.670 -1.4814  0.4729 -3.2880
 6831SOL    HW232130   2.566   4.310   0.578  3.6965 -0.1236 -0.1540
 6832SOL     OW32131   0.207   3.111   2.023  0.0851  0.2678  0.0015
 6832SOL    HW132132   0.250   3.194   2.000  0.0444  1.1333  2.8987
 6832SOL    HW232133   0.118   3.147   2.029 -0.3464 -0.8263  0.0448
 6833SOL     OW32134   3.124   3.557   1.379  0.4086 -0.7893 -0.3678
 6833SOL    HW132135   3.179   3.555   1.458 -1.8917 -0.6553  1.2244
 6833SOL    HW232136   3.042   3.543   1.427  1.1968  1.8599  1.7422
 6834SOL     OW32137   3.998   1.173   4.142 -0.0148  0.0428 -0.3073
 6834SOL    HW132138   4.077   1.148   4.093  0.6726  1.2336  0.1974
 6834SOL    HW232139   4.027   1.263   4.156  0.1661 -0.0201 -0.2821
 6835SOL     OW32140   3.382   2.701  13.091  0.2475 -0.4677 -0.3993
 6835SOL    HW132141   3.453   2.764  13.098  0.3762 -0.9626  2.5937
 6835SOL    HW232142   3.360   2.709  12.998 -3.5787 -0.7704  0.4862
 6836SOL     OW32143   3.895   3.999   8.429  0.4353 -0.1645 -0.1070
 6836SOL    HW132144   3.841   3.923   8.449 -1.5489  0.9317 -1.3232
 6836SOL    HW232145   3.881   4.008   8.335  0.3905  0.7433 -0.0192
 6837SOL     OW32146   0.656   1.243   3.379 -0.7783 -0.0242 -0.0732
 6837SOL    HW132147   0.744   1.234   3.342  0.4495 -0.0234  2.8395
 6837SOL    HW232148   0.612   1.158   3.376  0.2900 -0.5303 -1.7109
 6838SOL     OW32149   2.681   2.802   6.329 -0.0399  0.6179  0.2649
 6838SOL    HW132150   2.756   2.803   6.270  0.0162  0.9040  0.3422
 6838SOL    HW232151   2.626   2.865   6.282 -1.0291  0.6318  1.4225
 6839SOL     OW32152   3.534   4.488  15.209 -0.4203 -0.2201  0.2386
 6839SOL    HW132153   3.532   4.516  15.118  0.8000 -0.2632  0.1973
 6839SOL    HW232154   3.450   4.443  15.219 -1.0378  0.9403  0.3664
 6840SOL     OW32155   2.226   0.185  16.245 -0.0127  0.1801 -0.6449
 6840SOL    HW132156   2.201   0.099  16.212  1.4472  1.0238 -4.0378
 6840SOL    HW232157   2.138   0.218  16.261 -0.9551 -2.3262 -0.6490
 6841SOL     OW32158   1.564   3.553  12.823  0.2436  0.4572 -0.0131
 6841SOL    HW132159   1.525   3.559  12.736  0.1069  0.6179  0.0597
 6841SOL    HW232160   1.615   3.472  12.812 -0.4177 -0.2457  2.0862
 6842SOL     OW32161   0.245   1.929  12.866  0.3133 -0.3157 -0.7089
 6842SOL    HW132162   0.180   1.995  12.885 -0.2675 -1.0909  0.0089
 6842SOL    HW232163   0.322   1.985  12.857  1.2508 -1.5895 -0.7785
 6843SOL     OW32164   4.441   0.919  11.176  0.0814  0.0315  0.4101
 6843SOL    HW132165   4.463   0.997  11.125 -2.0271  0.5436  0.3138
 6843SOL    HW232166   4.405   0.945  11.261  1.8242  2.8479  0.2838
 6844SOL     OW32167   3.969   4.209   1.489  0.1307  0.3022  0.3101
 6844SOL    HW132168   4.049   4.261   1.478  0.1406 -0.1821 -1.7706
 6844SOL    HW232169   3.970   4.163   1.405 -1.9153 -1.9091  1.5107
 6845SOL     OW32170   1.948   1.051   3.703 -0.2003 -0.2839 -0.2141
 6845SOL    HW132171   1.994   1.062   3.786  0.6420 -2.4250 -0.3822
 6845SOL    HW232172   2.015   1.070   3.638  1.0603 -1.2374  0.8186
 6846SOL     OW32173   4.231   4.636   6.454  0.1060 -0.2195 -0.2711
 6846SOL    HW132174   4.182   4.718   6.457  0.1703 -0.2973  3.2144
 6846SOL    HW232175   4.218   4.608   6.545 -1.5490 -0.1182 -0.4921
 6847SOL     OW32176   3.578   4.379   5.590 -0.3146 -0.1085  0.5865
 6847SOL    HW132177   3.606   4.364   5.500  0.9272 -0.9470  1.1061
 6847SOL    HW232178   3.657   4.365   5.642  0.6732 -0.5308 -1.0316
 6848SOL     OW32179   2.293   4.548   8.640 -0.5145  0.9960 -0.2825
 6848SOL    HW132180   2.239   4.602   8.698 -0.7161  0.5313 -0.0288
 6848SOL    HW232181   2.259   4.463   8.670 -1.0760  0.4020 -2.5799
 6849SOL     OW32182   4.229   0.046   2.239 -0.0541 -0.6742  0.0850
 6849SOL    HW132183   4.233   4.732   2.160 -0.1813 -0.9651  0.2701
 6849SOL    HW232184   4.220   0.136   2.209 -1.1614 -0.4378  1.1123
 6850SOL     OW32185   4.046   0.414   4.117 -0.1158 -0.1258  0.8071
 6850SOL    HW132186   4.083   0.497   4.085 -0.8816 -0.1209 -0.0812
 6850SOL    HW232187   3.961   0.416   4.072  0.6041  0.8705 -0.5009
 6851SOL     OW32188   1.123   1.926   4.066  0.0254  0.2624 -0.1052
 6851SOL    HW132189   1.051   1.968   4.018 -1.0512  0.0860  1.3327
 6851SOL    HW232190   1.154   1.855   4.010  1.3405  2.3428 -2.0218
 6852SOL     OW32191   2.105   0.910   2.980  0.1053 -0.2724  0.0548
 6852SOL    HW132192   2.081   0.914   2.887 -1.9381 -2.4401  0.4996
 6852SOL    HW232193   2.190   0.952   2.992  1.0227 -2.1706  0.0799
 6853SOL     OW32194   3.546   2.637   5.760  0.2316 -0.4366 -0.2661
 6853SOL    HW132195   3.486   2.641   5.835  0.8489  0.2904  0.1882
 6853SOL    HW232196   3.496   2.670   5.685 -0.2574 -0.7894 -0.0921
 6854SOL     OW32197   0.884   3.709  12.556 -0.2958  0.6304 -0.0788
 6854SOL    HW132198   0.873   3.681  12.465 -1.0994  1.3216 -0.1940
 6854SOL    HW232199   0.858   3.800  12.543  0.3097  1.2530  2.9265
 6855SOL     OW32200   1.856   1.976   1.978 -0.5394  0.5203 -0.4141
 6855SOL    HW132201   1.927   1.968   2.042 -0.5462  3.0553 -0.0745
 6855SOL    HW232202   1.786   2.006   2.036  1.0804  2.3584  0.6070
 6856SOL     OW32203   1.089   0.374   2.462 -0.2530  0.5507 -0.1851
 6856SOL    HW132204   1.147   0.312   2.506  1.3311  2.7375  0.8214
 6856SOL    HW232205   1.004   0.344   2.494  0.1639 -1.3415 -0.8680
 6857SOL     OW32206   2.639   1.638   3.033  0.1702  0.4788 -0.1092
 6857SOL    HW132207   2.613   1.637   3.125  0.1378  2.3891 -0.0926
 6857SOL    HW232208   2.619   1.554   2.993  0.2090 -0.2324  1.3858
 6858SOL     OW32209   0.266   2.958  14.981  0.5870  0.2746  0.4821
 6858SOL    HW132210   0.237   2.898  15.050 -2.4988  2.1338  0.7874
 6858SOL    HW232211   0.357   2.930  14.974  1.2881  2.8153 -0.4153
 6859SOL     OW32212   3.220   4.392   2.743  0.3717 -0.0399 -0.2965
 6859SOL    HW132213   3.141   4.445   2.736  1.9189  2.2572 -0.3436
 6859SOL    HW232214   3.281   4.454   2.782 -1.0605  2.7316 -2.5173
 6860SOL     OW32215   2.907   2.501   1.953  0.1589 -0.4683  0.0037
 6860SOL    HW132216   2.836   2.545   2.001  0.3605  1.0432 -1.0650
 6860SOL    HW232217   2.879   2.530   1.866 -1.8061 -0.4159  0.6458
 6861SOL     OW32218   4.045   3.305  15.628  0.0242  0.0081  0.4509
 6861SOL    HW132219   3.988   3.365  15.580 -0.4697  0.3533  1.4692
 6861SOL    HW232220   4.097   3.371  15.675  0.0147  1.0113 -0.9288
 6862SOL     OW32221   2.902   2.836   6.159 -0.0721 -0.3467  0.1566
 6862SOL    HW132222   2.989   2.829   6.199 -1.4697 -0.0701  3.2960
 6862SOL    HW232223   2.925   2.908   6.101  2.4673 -0.0421  1.5522
 6863SOL     OW32224   0.639   0.267   3.279 -0.1652  0.2531 -0.2469
 6863SOL    HW132225   0.724   0.311   3.270 -1.7321  3.3606 -0.0552
 6863SOL    HW232226   0.610   0.266   3.188  0.3704 -1.6593 -0.3921
 6864SOL     OW32227   0.717   3.243   6.563 -0.7055  0.8827 -0.0569
 6864SOL    HW132228   0.779   3.214   6.630  0.5881  1.0373 -1.2204
 6864SOL    HW232229   0.636   3.225   6.611 -0.9715  3.0732  0.3186
 6865SOL     OW32230   2.732   0.804   7.825  0.6389 -0.4560 -0.1391
 6865SOL    HW132231   2.770   0.821   7.739  2.0808  1.3876  0.8704
 6865SOL    HW232232   2.669   0.740   7.791  0.7964 -1.3598  1.2702
 6866SOL     OW32233   2.979   1.358   6.941  0.2604  0.0565 -0.3190
 6866SOL    HW132234   2.960   1.380   6.850 -0.5638 -1.2981 -0.4722
 6866SOL    HW232235   2.980   1.447   6.978  2.9685 -1.0010  2.1888
 6867SOL     OW32236   4.059   2.655   2.385  0.6293  0.7532 -0.1046
 6867SOL    HW132237   4.102   2.619   2.307  0.7868  3.3083 -1.1978
 6867SOL    HW232238   4.096   2.598   2.453  1.4401  0.7494 -0.5497
 6868SOL     OW32239   2.501   2.081   6.455 -0.2269  0.0362  0.2104
 6868SOL    HW132240   2.509   1.990   6.485  0.3548 -0.3346 -1.0877
 6868SOL    HW232241   2.534   2.066   6.367  0.7258 -0.3222  0.6280
 6869SOL     OW32242   2.989   0.681  11.768 -0.4149 -0.3840  0.3314
 6869SOL    HW132243   3.068   0.638  11.800 -0.2855  0.5101  1.2033
 6869SOL    HW232244   2.990   0.645  11.679 -1.2211  0.3029  0.0501
 6870SOL     OW32245   2.707   2.097  16.581 -0.6272  0.0410  0.3635
 6870SOL    HW132246   2.620   2.062  16.563 -0.8224  1.7056 -1.9383
 6870SOL    HW232247   2.749   2.091  16.495 -0.0891 -1.9755  0.7789
 6871SOL     OW32248   3.113   3.661   4.642 -0.2213 -0.3566 -0.5459
 6871SOL    HW132249   3.127   3.723   4.713  0.0017  1.0764 -1.8195
 6871SOL    HW232250   3.147   3.577   4.671  1.0709 -0.1655 -1.4715
 6872SOL     OW32251   2.886   0.154   2.672  0.1372 -0.4347  0.0638
 6872SOL    HW132252   2.849   0.095   2.738 -2.5563  0.7516 -0.3746
 6872SOL    HW232253   2.947   0.198   2.731  1.0880 -1.7934  0.0908
 6873SOL     OW32254   0.936   2.190   8.263 -0.2683  0.7415  0.6224
 6873SOL    HW132255   0.841   2.186   8.247 -0.0248 -0.6663 -0.4927
 6873SOL    HW232256   0.967   2.135   8.191 -3.8671 -1.1691  0.5228
 6874SOL     OW32257   4.083   3.394   3.383  0.2051 -0.1353  0.4346
 6874SOL    HW132258   4.122   3.333   3.320 -2.6095 -1.1933 -0.2694
 6874SOL    HW232259   4.013   3.342   3.422  0.7555  0.1328  1.7918
 6875SOL     OW32260   3.401   3.543  16.713  0.1936  0.4312 -0.0253
 6875SOL    HW132261   3.309   3.562  16.726  0.5837  2.1397  0.2519
 6875SOL    HW232262   3.418   3.581  16.626 -2.6008  2.2435  0.2359
 6876SOL     OW32263   1.089   0.643   6.420 -0.0113 -0.1240 -0.4050
 6876SOL    HW132264   1.131   0.711   6.473  2.0320 -0.4246 -1.6549
 6876SOL    HW232265   1.098   0.694   6.340  2.4678 -0.4514 -0.3342
 6877SOL     OW32266   2.871   1.831  13.979  0.0181  0.5555  0.3610
 6877SOL    HW132267   2.941   1.886  14.014  0.7112 -0.5896  0.8047
 6877SOL    HW232268   2.866   1.758  14.041  0.3686  1.2394  1.1920
 6878SOL     OW32269   3.754   3.543  11.010  0.4672 -0.2254  0.7018
 6878SOL    HW132270   3.670   3.565  11.051  0.6741 -1.1105  1.6144
 6878SOL    HW232271   3.805   3.564  11.088  1.4466  2.6507 -0.7064
 6879SOL     OW32272   1.847   2.985   4.642 -0.2554  0.2830  0.2389
 6879SOL    HW132273   1.942   2.993   4.640 -0.1605 -1.0620 -0.0864
 6879SOL    HW232274   1.833   2.917   4.707 -1.6341  0.4827  0.1624
 6880SOL     OW32275   1.506   3.826  12.822 -0.1218 -0.1640  0.0986
 6880SOL    HW132276   1.497   3.840  12.916  1.4767 -1.6735  0.4644
 6880SOL    HW232277   1.544   3.739  12.829  0.0953  0.0367  1.3570
 6881SOL     OW32278   2.953   0.475   7.208 -0.3855 -0.3828  0.6449
 6881SOL    HW132279   2.901   0.467   7.287 -0.9436 -3.2921 -0.0416
 6881SOL    HW232280   3.023   0.413   7.228  1.1986  1.7372  1.6856
 6882SOL     OW32281   1.522   3.845   7.131 -0.0767 -0.1715 -0.1207
 6882SOL    HW132282   1.608   3.803   7.123  0.3188  0.7502 -0.7034
 6882SOL    HW232283   1.524   3.922   7.074  1.4878  0.1177  0.3236
 6883SOL     OW32284   3.585   4.620   2.224 -0.6767  0.1958  0.2449
 6883SOL    HW132285   3.536   4.621   2.141 -1.5101 -0.3950  0.7320
 6883SOL    HW232286   3.537   4.549   2.266 -0.4567  0.1516  0.4198
 6884SOL     OW32287   0.966   0.603  13.663 -0.4379  0.3941 -0.1986
 6884SOL    HW132288   1.047   0.618  13.615 -0.2516  1.3773  0.4354
 6884SOL    HW232289   0.917   0.682  13.642  1.2287  1.3939 -0.2503
 6885SOL     OW32290   2.349   4.581  13.976 -0.1335  0.4919 -0.1923
 6885SOL    HW132291   2.355   4.486  13.982 -2.3575  0.2411 -1.8638
 6885SOL    HW232292   2.363   4.614  14.065  0.2758  0.5010 -0.2581
 6886SOL     OW32293   3.450   0.339   4.485 -0.5195  0.5712  0.2742
 6886SOL    HW132294   3.421   0.429   4.472 -2.2031 -0.1964 -1.4342
 6886SOL    HW232295   3.479   0.312   4.398 -0.6518 -0.6487  0.6101
 6887SOL     OW32296   4.519   3.727   3.005  0.2648 -0.1153  0.2685
 6887SOL    HW132297   4.596   3.708   3.059  1.6029  1.1232 -1.2107
 6887SOL    HW232298   4.552   3.688   2.924  1.4050 -0.1073  0.7296
 6888SOL     OW32299   1.687   1.274   5.092  0.1099 -0.7810 -0.0077
 6888SOL    HW132300   1.744   1.312   5.026 -1.9674 -0.8172 -1.8096
 6888SOL    HW232301   1.727   1.188   5.102  2.5666  0.6396  2.6077
 6889SOL     OW32302   4.115   2.069   3.486  0.3569  0.1602  0.0031
 6889SOL    HW132303   4.137   2.091   3.395 -1.6286 -0.5840 -0.6652
 6889SOL    HW232304   4.035   2.017   3.479 -0.2082  1.1251 -0.7898
 6890SOL     OW32305   0.855   4.536   8.221  0.9385  0.4624 -0.0813
 6890SOL    HW132306   0.869   4.627   8.248  1.6317  0.0142  1.0702
 6890SOL    HW232307   0.834   4.542   8.128 -1.0719 -1.8020  0.2221
 6891SOL     OW32308   4.695   4.066   7.965 -0.0395 -0.0948  0.0350
 6891SOL    HW132309   4.695   4.014   8.045  0.0084 -0.5238 -0.2440
 6891SOL    HW232310   4.670   4.006   7.895  2.4712 -1.4206  0.2557
 6892SOL     OW32311   3.803   2.959   4.658 -0.8038  0.3361 -0.4066
 6892SOL    HW132312   3.727   2.977   4.603 -1.6853  2.7392  1.5948
 6892SOL    HW232313   3.864   3.027   4.631 -1.7119  0.8688 -1.1085
 6893SOL     OW32314   1.774   1.063  15.899 -0.5568  0.5979  0.1183
 6893SOL    HW132315   1.768   1.157  15.915  1.3058  0.4305  1.7586
 6893SOL    HW232316   1.780   1.065  15.803 -0.8778  0.6130  0.0998
 6894SOL     OW32317   1.296   3.886   5.570  0.2439 -0.1691  0.3864
 6894SOL    HW132318   1.343   3.876   5.652 -2.1099 -3.1679  1.3532
 6894SOL    HW232319   1.360   3.850   5.508  1.9382  2.4457  0.6274
 6895SOL     OW32320   2.933   1.404   2.162 -0.7202  0.7074  0.5729
 6895SOL    HW132321   2.943   1.419   2.256  1.9859 -2.4029  0.8166
 6895SOL    HW232322   2.988   1.325   2.163 -0.7768  0.6268 -3.0507
 6896SOL     OW32323   3.950   3.346  11.019  0.3738  0.5725 -0.0460
 6896SOL    HW132324   3.924   3.358  11.110  2.5331 -0.9881  0.7672
 6896SOL    HW232325   3.889   3.406  10.975  0.6387  0.5143 -0.4902
 6897SOL     OW32326   0.971   2.136   3.172 -0.5214 -0.3529  0.0776
 6897SOL    HW132327   0.887   2.166   3.137 -0.9610 -1.1836  0.4153
 6897SOL    HW232328   0.994   2.055   3.126 -0.3749  0.3050 -0.9998
 6898SOL     OW32329   4.171   1.454   6.629 -0.1790 -0.0744  0.2839
 6898SOL    HW132330   4.194   1.441   6.721  1.1724  2.0942  0.2584
 6898SOL    HW232331   4.085   1.411   6.624  0.7950 -1.6945 -2.4682
 6899SOL     OW32332   4.370   0.382  10.059  0.7255  0.1380 -0.3729
 6899SOL    HW132333   4.454   0.355  10.022  1.0341 -0.1613  0.5437
 6899SOL    HW232334   4.387   0.396  10.152 -1.7665 -0.5525  0.1948
 6900SOL     OW32335   2.895   0.203   6.127 -0.2922 -0.1188  0.6773
 6900SOL    HW132336   2.800   0.199   6.135 -0.2366  3.4347  2.9749
 6900SOL    HW232337   2.890   0.228   6.035 -2.0974  1.3190  1.1781
 6901SOL     OW32338   0.385   3.462   7.352 -0.4250 -0.6771 -0.3884
 6901SOL    HW132339   0.413   3.554   7.360  1.0106 -1.2101  0.6944
 6901SOL    HW232340   0.462   3.424   7.310 -0.1948 -0.1641 -0.4317
 6902SOL     OW32341   0.132   4.223   7.810  0.0240  0.0247  0.3165
 6902SOL    HW132342   0.172   4.151   7.760  1.5613  0.5137  0.8382
 6902SOL    HW232343   0.109   4.173   7.888  2.6862 -0.9706  0.4638
 6903SOL     OW32344   4.531   1.479  16.689 -0.1185 -0.6767  0.2575
 6903SOL    HW132345   4.539   1.455  16.597 -0.4512  2.4525 -0.6038
 6903SOL    HW232346   4.506   1.398  16.732 -1.5750 -1.5145 -2.1989
 6904SOL     OW32347   3.166   2.673   3.457  0.3066  0.3044  0.3018
 6904SOL    HW132348   3.179   2.581   3.479  0.8848 -0.0687 -1.5626
 6904SOL    HW232349   3.095   2.660   3.393 -0.8852  1.0588  1.4793
 6905SOL     OW32350   1.889   4.206  13.801  0.5360 -0.8460  0.4244
 6905SOL    HW132351   1.974   4.247  13.822  0.2106  1.2832 -2.4423
 6905SOL    HW232352   1.888   4.193  13.706  0.7376 -1.7354  0.5443
 6906SOL     OW32353   2.395   1.944   0.003  0.6290  0.0080  0.8519
 6906SOL    HW132354   2.315   1.899   0.030  1.2155 -1.4157  0.2174
 6906SOL    HW232355   2.408   1.902  17.671 -0.9889 -2.4273  1.8271
 6907SOL     OW32356   2.553   4.240   5.802 -0.0573 -0.1412  0.5784
 6907SOL    HW132357   2.591   4.175   5.861  0.8683 -0.7783 -0.7062
 6907SOL    HW232358   2.563   4.189   5.721 -1.0316 -1.7333  1.4648
 6908SOL     OW32359   3.290   3.551  10.105  0.4402 -0.5012  0.2862
 6908SOL    HW132360   3.346   3.609  10.156 -0.4105 -0.0439  0.7098
 6908SOL    HW232361   3.342   3.472  10.113  0.9974 -0.1287  0.3241
 6909SOL     OW32362   1.510   4.135   3.519  0.0145  0.4001 -0.8608
 6909SOL    HW132363   1.604   4.124   3.533  0.2972  0.5445 -2.5672
 6909SOL    HW232364   1.485   4.199   3.586  1.7762 -0.1646  0.3301
 6910SOL     OW32365   4.444   4.343   0.170  0.0214 -0.1017  0.2133
 6910SOL    HW132366   4.478   4.266   0.214  1.3998  0.7730  0.6509
 6910SOL    HW232367   4.439   4.311   0.080 -0.1554  0.9868 -0.1652
 6911SOL     OW32368   1.725   4.724  10.834  0.3386 -0.6333  0.0668
 6911SOL    HW132369   1.809   4.679  10.842  1.4440  1.1614 -1.4207
 6911SOL    HW232370   1.670   4.657  10.794 -0.4933 -0.6498  1.2553
 6912SOL     OW32371   4.146   2.298   6.872 -0.0882  0.8220  0.3916
 6912SOL    HW132372   4.188   2.316   6.956  1.8546 -0.5081 -0.2828
 6912SOL    HW232373   4.101   2.214   6.881  1.0862  0.2155  0.7241
 6913SOL     OW32374   0.792   0.897   6.846 -0.0704 -0.0380  0.7179
 6913SOL    HW132375   0.886   0.916   6.848  0.3781 -2.0301 -1.4664
 6913SOL    HW232376   0.797   0.802   6.861 -0.1197 -0.0459  0.6817
 6914SOL     OW32377   1.414   4.711   4.373 -0.1432  0.5402  0.2563
 6914SOL    HW132378   1.390   4.618   4.362  0.2519  0.6798 -1.7565
 6914SOL    HW232379   1.489   4.712   4.313 -0.0343 -0.9651  0.3612
 6915SOL     OW32380   2.409   2.645   5.327 -0.0033 -0.2007  0.3083
 6915SOL    HW132381   2.357   2.691   5.261 -0.3343 -1.0641 -0.0243
 6915SOL    HW232382   2.352   2.571   5.343  0.3127 -0.4893  0.1150
 6916SOL     OW32383   0.512   0.516   6.149 -0.0524  0.1538  0.0589
 6916SOL    HW132384   0.523   0.422   6.161 -0.5156 -0.0093 -0.8177
 6916SOL    HW232385   0.519   0.508   6.054  0.2059 -0.5456  0.1418
 6917SOL     OW32386   4.383   4.696   9.051  0.4010 -0.0702 -0.8210
 6917SOL    HW132387   4.306   0.011   9.034  0.9536  1.2379  0.7991
 6917SOL    HW232388   4.362   4.625   8.990  0.9551  0.6660 -1.8713
 6918SOL     OW32389   3.646   0.755  10.110  0.1743 -0.0442  0.5005
 6918SOL    HW132390   3.703   0.735  10.184  3.0730  1.2183 -1.3772
 6918SOL    HW232391   3.653   0.851  10.107  0.3600 -0.0589  0.4558
 6919SOL     OW32392   2.843   0.283   9.517 -0.6320  0.2217  0.4678
 6919SOL    HW132393   2.882   0.271   9.431 -3.4741 -2.0770 -0.4820
 6919SOL    HW232394   2.891   0.213   9.560  0.6434  0.9115  0.1603
 6920SOL     OW32395   2.509   3.027   1.672  0.2317  0.3910 -0.1324
 6920SOL    HW132396   2.589   3.006   1.624  0.8745  0.5997  0.8437
 6920SOL    HW232397   2.509   3.122   1.662 -0.3563  0.4355  0.3207
 6921SOL     OW32398   3.155   4.648   4.605 -0.0934 -0.0848 -0.0320
 6921SOL    HW132399   3.219   4.718   4.597  0.2518 -0.7168 -2.7070
 6921SOL    HW232400   3.187   4.597   4.531  2.4651 -0.3815  1.2718
 6922SOL     OW32401   0.088   1.921  12.612  0.2948  0.4042 -0.0275
 6922SOL    HW132402   4.734   1.897  12.614  0.7982 -1.4525  1.0762
 6922SOL    HW232403   0.103   1.955  12.700  0.7586 -0.9314  0.4122
 6923SOL     OW32404   2.846   0.831   5.599  0.4925  0.1621 -0.0951
 6923SOL    HW132405   2.901   0.875   5.534  1.2951 -2.0728 -0.9339
 6923SOL    HW232406   2.865   0.739   5.579  1.4866  0.8106 -2.1247
 6924SOL     OW32407   1.260   3.428   8.978  0.6335  0.0164 -0.0276
 6924SOL    HW132408   1.354   3.446   8.973  0.9867 -0.9572  3.2333
 6924SOL    HW232409   1.226   3.480   8.905  2.4775 -0.0841 -0.9538
 6925SOL     OW32410   2.392   2.035   5.008 -0.3389  0.3537  0.2689
 6925SOL    HW132411   2.488   2.040   5.009 -0.2202 -2.2345  1.4463
 6925SOL    HW232412   2.370   2.071   4.922  1.1102  1.2181  0.2579
 6926SOL     OW32413   3.295   1.803   0.835 -0.0246  0.2014  0.3055
 6926SOL    HW132414   3.283   1.710   0.815 -0.5638  0.4330 -0.4577
 6926SOL    HW232415   3.265   1.801   0.925 -0.4490 -2.9942  0.1092
 6927SOL     OW32416   0.446   2.279   6.923 -0.1438  0.1744  0.4157
 6927SOL    HW132417   0.394   2.318   6.853  1.4308  0.3751 -0.6521
 6927SOL    HW232418   0.465   2.189   6.895  0.6118  0.0882  1.1949
 6928SOL     OW32419   2.923   4.519   7.944  0.3162 -0.5725  0.1923
 6928SOL    HW132420   2.939   4.535   7.851  0.6599 -0.5135  0.2645
 6928SOL    HW232421   2.902   4.426   7.931 -0.3189 -0.2028 -1.4001
 6929SOL     OW32422   4.128   1.483   7.177 -0.2294 -0.7440 -0.3336
 6929SOL    HW132423   4.207   1.429   7.182  1.4423  1.5876 -1.1594
 6929SOL    HW232424   4.085   1.419   7.234 -1.6894 -0.5538 -1.2196
 6930SOL     OW32425   3.165   1.955  17.224  0.3916  0.0484 -0.1639
 6930SOL    HW132426   3.102   1.963  17.296 -1.2498 -0.6660 -1.5396
 6930SOL    HW232427   3.105   1.914  17.162  0.3667  0.4543 -0.4057
 6931SOL     OW32428   0.721   1.247   5.939  0.0934 -0.1228 -0.4120
 6931SOL    HW132429   0.732   1.222   6.031 -0.3440 -1.0030 -0.5944
 6931SOL    HW232430   0.782   1.190   5.892  0.4603  0.9810 -1.2617
 6932SOL     OW32431   3.715   0.123   4.575 -0.5578 -0.9433 -0.0607
 6932SOL    HW132432   3.777   0.142   4.505 -0.4243 -0.0204  0.3037
 6932SOL    HW232433   3.663   0.051   4.537  0.6900 -2.4896  1.1458
 6933SOL     OW32434   4.530   1.784   2.247 -0.2328  0.4877  0.5957
 6933SOL    HW132435   4.509   1.784   2.340 -0.0214  0.1198  0.6425
 6933SOL    HW232436   4.505   1.871   2.215 -1.6223 -0.7026 -1.5503
 6934SOL     OW32437   2.818   0.955   7.304 -0.1007  0.4313  0.0645
 6934SOL    HW132438   2.854   1.022   7.245  0.7436  1.7122  1.9931
 6934SOL    HW232439   2.799   1.014   7.377 -0.2513 -0.9207  1.1204
 6935SOL     OW32440   0.816   1.139  16.278  0.1709  0.4999 -0.2618
 6935SOL    HW132441   0.740   1.197  16.272  0.1196  0.4527 -0.0363
 6935SOL    HW232442   0.881   1.194  16.232  0.6945 -0.0065 -0.1217
 6936SOL     OW32443   1.841   2.588   9.963 -0.9930  0.5638  0.3758
 6936SOL    HW132444   1.874   2.591  10.053  1.5306  0.4145 -0.5724
 6936SOL    HW232445   1.766   2.530   9.978 -0.7926 -0.1706 -1.4640
 6937SOL     OW32446   2.856   2.144   7.414  0.0524 -0.0792 -0.4554
 6937SOL    HW132447   2.817   2.225   7.383 -2.1375 -1.3284 -0.9639
 6937SOL    HW232448   2.814   2.080   7.356 -2.3745 -1.1541  2.4681
 6938SOL     OW32449   3.759   1.128  12.772 -0.2690  0.1012 -0.4355
 6938SOL    HW132450   3.830   1.191  12.758 -1.0275  0.3722 -2.9513
 6938SOL    HW232451   3.732   1.154  12.860 -0.2261 -0.8414 -0.1481
 6939SOL     OW32452   1.732   1.444   2.355  0.3657 -0.0513  0.5707
 6939SOL    HW132453   1.812   1.415   2.399  1.4987  1.4843 -0.4722
 6939SOL    HW232454   1.724   1.535   2.385 -0.9111  0.0559 -0.0892
 6940SOL     OW32455   4.665   4.409   0.491 -0.2836 -0.7165 -0.0005
 6940SOL    HW132456   0.019   4.411   0.513  0.5564 -1.6636 -3.5369
 6940SOL    HW232457   4.646   4.316   0.507 -1.2833 -0.4338  0.4993
 6941SOL     OW32458   2.441   3.793   7.218  0.5681 -0.0616 -0.2062
 6941SOL    HW132459   2.465   3.702   7.236 -0.1446 -0.1132  0.4669
 6941SOL    HW232460   2.362   3.795   7.272  0.4149 -0.5725 -0.4041
 6942SOL     OW32461   3.599   4.284   7.319 -0.0684 -0.0135 -0.3266
 6942SOL    HW132462   3.652   4.223   7.268 -1.9207 -0.2621 -1.9502
 6942SOL    HW232463   3.599   4.243   7.406 -1.5309  1.3600  0.3298
 6943SOL     OW32464   0.627   0.407   7.703 -0.4128 -0.0009  0.2633
 6943SOL    HW132465   0.691   0.374   7.641  0.6113 -1.5104  2.1082
 6943SOL    HW232466   0.599   0.321   7.737  1.4772 -1.6574 -2.4250
 6944SOL     OW32467   4.440   2.384  11.119  0.0557  0.6448 -0.3226
 6944SOL    HW132468   4.479   2.370  11.205 -0.6906  0.2609 -0.0423
 6944SOL    HW232469   4.471   2.471  11.097 -0.7196  0.5560 -1.7886
 6945SOL     OW32470   1.599   0.050   3.342  0.0522  0.5339  0.4982
 6945SOL    HW132471   1.688   0.021   3.363  0.7379  1.2355 -1.4289
 6945SOL    HW232472   1.529   0.006   3.390 -0.0368  0.9502  0.7444
 6946SOL     OW32473   1.534   0.528   5.863 -0.6653  0.0909  0.3731
 6946SOL    HW132474   1.520   0.565   5.776 -1.5170  1.0092  0.8987
 6946SOL    HW232475   1.529   0.605   5.920 -0.0083  1.5571 -1.5598
 6947SOL     OW32476   3.474   1.222   9.405 -0.0203  0.1870  0.0547
 6947SOL    HW132477   3.495   1.268   9.486  0.5074  1.0373 -0.5657
 6947SOL    HW232478   3.548   1.255   9.354  0.9335  1.2268  2.1447
 6948SOL     OW32479   4.647   0.618   8.475 -0.5671 -0.3033 -0.1260
 6948SOL    HW132480   4.703   0.540   8.484 -3.0845 -2.0497  0.5070
 6948SOL    HW232481   4.704   0.691   8.499 -1.1322  0.4982 -1.2533
 6949SOL     OW32482   0.826   2.073  17.487  0.7687 -0.6504 -1.0738
 6949SOL    HW132483   0.795   2.085  17.397 -1.1954 -1.8775 -0.5406
 6949SOL    HW232484   0.859   2.162  17.503  1.1511 -0.8152 -0.9482
 6950SOL     OW32485   0.744   3.908   3.470 -0.0975 -0.3937 -0.3594
 6950SOL    HW132486   0.658   3.934   3.502  0.0655 -1.6565  1.1124
 6950SOL    HW232487   0.739   3.814   3.450  1.4737 -0.0235 -2.5221
 6951SOL     OW32488   2.873   0.825   6.898 -0.4345 -0.0244  0.2999
 6951SOL    HW132489   2.954   0.847   6.853 -0.5498  2.8188  1.4601
 6951SOL    HW232490   2.860   0.897   6.960  3.0870 -0.6163  1.7100
 6952SOL     OW32491   4.261   0.804   5.447 -0.0038  0.4138  0.1944
 6952SOL    HW132492   4.175   0.772   5.475 -0.7309  1.7714 -0.4525
 6952SOL    HW232493   4.246   0.826   5.355  0.8217 -0.6169 -0.1886
 6953SOL     OW32494   1.222   4.195  13.488  0.4037  0.8105 -0.5130
 6953SOL    HW132495   1.140   4.238  13.509  0.0674  0.2065 -0.5934
 6953SOL    HW232496   1.218   4.192  13.392 -0.3867 -3.6656 -0.3743
 6954SOL     OW32497   3.851   2.360   3.669  0.2834  0.4496 -0.1111
 6954SOL    HW132498   3.946   2.372   3.680  0.6978 -0.4302 -2.8188
 6954SOL    HW232499   3.858   2.342   3.576  0.5817 -0.4659  0.0808
 6955SOL     OW32500   2.924   1.026   1.386  0.1870 -0.1932 -0.4624
 6955SOL    HW132501   2.977   0.963   1.435  0.4882  2.0826  2.1383
 6955SOL    HW232502   2.914   0.966   1.313 -0.9749 -0.8236  0.2013
 6956SOL     OW32503   2.468   3.395   8.627  0.1757  0.3274  0.0060
 6956SOL    HW132504   2.444   3.306   8.652  0.7076 -0.2292 -1.4311
 6956SOL    HW232505   2.452   3.394   8.532  0.0902 -0.1480  0.0254
 6957SOL     OW32506   4.493   2.897   5.860 -0.0732 -0.3460  0.6352
 6957SOL    HW132507   4.514   2.813   5.820  1.3074  0.2892  0.0049
 6957SOL    HW232508   4.571   2.942   5.827 -0.3850  1.8482  2.8652
 6958SOL     OW32509   2.747   2.440  10.357 -0.8117  0.2315 -0.2119
 6958SOL    HW132510   2.740   2.381  10.433 -1.9232  1.3114  0.5207
 6958SOL    HW232511   2.804   2.397  10.293 -0.5445 -1.5943  1.2338
 6959SOL     OW32512   3.205   2.572   6.556 -0.4156  0.1140  0.0502
 6959SOL    HW132513   3.237   2.517   6.627 -1.0792 -1.2335 -0.6990
 6959SOL    HW232514   3.255   2.539   6.482  0.5089 -0.5158  0.9520
 6960SOL     OW32515   1.526   3.270   5.315 -0.0773 -0.3730 -0.0771
 6960SOL    HW132516   1.496   3.198   5.370 -0.0480 -1.1167 -1.0363
 6960SOL    HW232517   1.532   3.236   5.226  1.0981 -1.2122  0.3318
 6961SOL     OW32518   0.509   0.898   5.070 -0.6468  0.0965 -0.0263
 6961SOL    HW132519   0.562   0.829   5.030 -1.1683 -0.8786  0.9679
 6961SOL    HW232520   0.456   0.841   5.126 -1.6465 -0.5538 -1.6463
 6962SOL     OW32521   1.256   3.560   8.744 -0.3202 -0.1990 -0.0988
 6962SOL    HW132522   1.240   3.643   8.790 -2.4143  0.3911 -1.8885
 6962SOL    HW232523   1.202   3.561   8.665 -0.9456 -2.9099  0.2903
 6963SOL     OW32524   1.022   2.542   4.960  0.2944 -0.3650 -0.1558
 6963SOL    HW132525   0.944   2.592   4.986  0.3407 -0.0999 -0.5260
 6963SOL    HW232526   1.006   2.534   4.866 -0.6110 -0.8337  0.0332
 6964SOL     OW32527   1.246   4.447  14.265 -0.0634  0.0595 -0.0871
 6964SOL    HW132528   1.237   4.410  14.176  1.7867 -1.2362  0.2565
 6964SOL    HW232529   1.242   4.541  14.250  0.4132  0.0527 -0.2502
 6965SOL     OW32530   2.534   1.558   6.030  0.3623  0.0671 -0.2615
 6965SOL    HW132531   2.523   1.626   5.963 -2.7994 -0.6403 -0.4502
 6965SOL    HW232532   2.507   1.601   6.111 -1.3569 -1.4903 -0.0144
 6966SOL     OW32533   2.746   3.866   7.857  0.2410 -0.0435 -0.3916
 6966SOL    HW132534   2.699   3.851   7.939  1.1127 -1.3030 -0.1260
 6966SOL    HW232535   2.832   3.825   7.871 -1.1242 -2.0022  2.2187
 6967SOL     OW32536   4.268   2.731  10.545  0.3543 -0.0627  0.3957
 6967SOL    HW132537   4.290   2.657  10.488  1.1046  0.9317 -0.5831
 6967SOL    HW232538   4.173   2.719  10.542  0.2263  1.3247 -0.7345
 6968SOL     OW32539   2.853   2.384  16.641  0.2919 -0.2214 -0.6975
 6968SOL    HW132540   2.843   2.311  16.580  0.4858 -1.0277  0.2254
 6968SOL    HW232541   2.762   2.399  16.664 -0.1264  1.2207 -3.3155
 6969SOL     OW32542   3.186   0.990  16.557  0.7346  0.0175 -0.0055
 6969SOL    HW132543   3.237   1.036  16.624 -0.0474  0.6307  0.1605
 6969SOL    HW232544   3.203   0.901  16.591 -0.5519 -1.0857 -2.2700
 6970SOL     OW32545   2.528   1.571  13.383 -0.0244 -0.1261 -0.3345
 6970SOL    HW132546   2.473   1.509  13.336 -0.0560  1.0732 -1.8576
 6970SOL    HW232547   2.615   1.539  13.359 -0.9987 -0.6508 -3.0640
 6971SOL     OW32548   4.023   4.696  13.619 -0.7729  0.3930 -0.1377
 6971SOL    HW132549   4.000   4.606  13.643  1.4381 -0.1054  0.0981
 6971SOL    HW232550   4.108   4.703  13.663 -0.6459  1.5129 -0.5477
 6972SOL     OW32551   1.023   3.505   1.038  0.0549  0.6642 -0.0557
 6972SOL    HW132552   1.023   3.502   1.134  1.0264 -0.8523 -0.0917
 6972SOL    HW232553   1.088   3.570   1.012  1.0283  0.5579  2.0890
 6973SOL     OW32554   3.702   3.193   0.265  0.3423  0.8078 -0.4649
 6973SOL    HW132555   3.657   3.266   0.221 -0.1121  1.2504  0.7425
 6973SOL    HW232556   3.675   3.206   0.356 -1.4088 -0.7922 -0.7649
 6974SOL     OW32557   0.407   2.871   8.758 -0.2843  0.2103  0.5092
 6974SOL    HW132558   0.440   2.811   8.825 -1.1095  0.0520  0.7669
 6974SOL    HW232559   0.324   2.836   8.728  0.0551  0.2134 -0.4470
 6975SOL     OW32560   4.102   3.341   3.017 -0.1370 -0.4849 -0.3486
 6975SOL    HW132561   4.138   3.285   3.087  0.5959 -1.5420 -1.5657
 6975SOL    HW232562   4.180   3.389   2.991 -1.0070  0.1978 -1.6621
 6976SOL     OW32563   3.212   0.905   6.020 -0.1310  0.5302  0.5172
 6976SOL    HW132564   3.248   0.833   5.969  0.3684 -0.1208  1.7942
 6976SOL    HW232565   3.129   0.913   5.973 -0.4894 -1.8694  0.7537
 6977SOL     OW32566   2.942   3.690   7.965  0.2971  0.2321  0.2700
 6977SOL    HW132567   3.028   3.681   7.924 -0.2887  1.8152 -1.3502
 6977SOL    HW232568   2.908   3.601   7.966 -0.0723  0.3666 -0.3720
 6978SOL     OW32569   1.526   1.443  13.000  0.2497  0.2823 -0.0175
 6978SOL    HW132570   1.523   1.362  13.051  3.3769 -0.3978 -0.8887
 6978SOL    HW232571   1.618   1.470  12.998 -0.1327  1.8917  3.6960
 6979SOL     OW32572   2.942   0.727  15.924 -0.1278  0.1430 -0.3889
 6979SOL    HW132573   2.855   0.711  15.960 -0.5437  1.2712 -0.8965
 6979SOL    HW232574   2.940   0.822  15.909  2.3117 -0.1539 -2.5955
 6980SOL     OW32575   3.198   1.607  15.079  0.2693  0.3024 -0.1782
 6980SOL    HW132576   3.225   1.577  14.993  0.8903  2.8200 -0.8542
 6980SOL    HW232577   3.181   1.698  15.057 -0.9818 -0.2825 -1.6094
 6981SOL     OW32578   4.693   0.213   7.858  0.0308  0.0003  0.4261
 6981SOL    HW132579   4.687   0.219   7.763 -2.9917  0.7440  0.6588
 6981SOL    HW232580   0.031   0.156   7.860  0.6950  0.8830  0.1364
 6982SOL     OW32581   2.190   1.689   6.864 -0.2749  0.8232  0.2075
 6982SOL    HW132582   2.111   1.642   6.891  0.1182  0.3785  0.5734
 6982SOL    HW232583   2.239   1.628   6.808  1.0625 -0.1415  2.4585
 6983SOL     OW32584   3.049   0.374  16.445 -0.0710 -0.1847  0.2097
 6983SOL    HW132585   2.982   0.310  16.468 -0.6457 -0.0882 -1.2589
 6983SOL    HW232586   3.011   0.441  16.502  1.8697  1.4285 -0.3963
 6984SOL     OW32587   2.577   3.354   0.155  0.6654  0.0896 -1.0755
 6984SOL    HW132588   2.641   3.418   0.184 -0.8353  1.5685 -1.0124
 6984SOL    HW232589   2.617   3.330   0.072  0.8835  0.4543 -1.0727
 6985SOL     OW32590   4.209   2.299   1.193  0.5889 -0.2201  0.7556
 6985SOL    HW132591   4.230   2.374   1.138 -1.2163  0.7911  1.4596
 6985SOL    HW232592   4.118   2.281   1.171  1.2532 -2.4436 -0.2051
 6986SOL     OW32593   0.801   4.594   2.903 -0.2055  0.1882 -0.3577
 6986SOL    HW132594   0.780   4.508   2.939 -1.6199  0.7495  0.1728
 6986SOL    HW232595   0.712   4.627   2.890  0.0996  0.1744 -2.4656
 6987SOL     OW32596   0.485   1.735  16.101 -0.3657 -0.3673  0.9932
 6987SOL    HW132597   0.418   1.802  16.085 -1.6530 -2.3662 -2.1628
 6987SOL    HW232598   0.521   1.712  16.015 -1.3086 -1.6232  0.9392
 6988SOL     OW32599   4.288   3.534   5.561 -0.2454 -0.5897  0.4138
 6988SOL    HW132600   4.269   3.440   5.563 -2.9668 -0.0604  0.5965
 6988SOL    HW232601   4.206   3.568   5.525  0.5843  1.4605  0.4422
 6989SOL     OW32602   1.569   3.697   0.883  0.2868 -0.0747  0.1084
 6989SOL    HW132603   1.647   3.642   0.869 -0.4986 -1.2343  0.2287
 6989SOL    HW232604   1.520   3.676   0.804 -0.8413  2.3484  0.1928
 6990SOL     OW32605   0.398   2.076   1.963  0.3619 -0.0443  0.7742
 6990SOL    HW132606   0.413   1.983   1.949 -1.9988 -0.6107  1.9705
 6990SOL    HW232607   0.305   2.078   1.987  0.8231  1.8113  2.3752
 6991SOL     OW32608   1.213   3.945   2.230 -0.0764 -0.4212 -0.3018
 6991SOL    HW132609   1.232   3.868   2.283 -2.1866 -2.2598 -2.2351
 6991SOL    HW232610   1.124   3.963   2.261  0.0102  1.1535 -0.9379
 6992SOL     OW32611   3.972   2.144   5.488  0.1665 -0.0404 -0.7650
 6992SOL    HW132612   3.913   2.209   5.527  1.1205  1.2797 -1.5343
 6992SOL    HW232613   3.983   2.085   5.563 -2.2566 -0.2773 -0.5945
 6993SOL     OW32614   2.577   0.150   8.093 -0.3511 -0.1797 -0.1926
 6993SOL    HW132615   2.517   0.149   8.168  1.0095  1.3734  0.8992
 6993SOL    HW232616   2.621   0.065   8.088  0.8386  0.5337 -1.8782
 6994SOL     OW32617   0.578   3.223   3.331  0.6869  0.3351  0.1117
 6994SOL    HW132618   0.485   3.217   3.311  0.9492 -0.4180 -0.8731
 6994SOL    HW232619   0.584   3.290   3.399 -1.2105  0.9118 -0.2755
 6995SOL     OW32620   0.265   0.274   5.118 -0.3159 -0.8036 -0.3214
 6995SOL    HW132621   0.221   0.278   5.203  0.1720 -0.3394 -0.0868
 6995SOL    HW232622   0.200   0.231   5.063 -1.5769  0.5824  0.0918
 6996SOL     OW32623   0.658   0.245  10.267  0.1703  0.3183 -0.3453
 6996SOL    HW132624   0.688   0.232  10.177 -2.5938 -4.1349 -0.6046
 6996SOL    HW232625   0.566   0.219  10.262  0.6941 -1.4116 -1.1994
 6997SOL     OW32626   1.138   1.028   3.675  0.0664  0.4723  0.3676
 6997SOL    HW132627   1.107   0.951   3.721 -1.2452  0.4398 -0.5544
 6997SOL    HW232628   1.196   0.999   3.603  0.1988 -0.1421  0.7219
 6998SOL     OW32629   3.362   2.863   8.096  0.3523  0.2527 -0.4648
 6998SOL    HW132630   3.282   2.818   8.123  0.4174  0.7121  0.4846
 6998SOL    HW232631   3.402   2.779   8.070  0.6774  0.0683  0.6266
 6999SOL     OW32632   3.096   4.110   9.772 -0.3915  0.5454 -0.1041
 6999SOL    HW132633   3.030   4.141   9.710 -1.6795 -2.3576 -0.2005
 6999SOL    HW232634   3.087   4.175   9.842 -0.1587  0.1738  0.2694
 7000SOL     OW32635   4.479   4.054  11.022 -0.3153 -0.0122  0.8189
 7000SOL    HW132636   4.461   3.988  10.955 -0.0397 -1.6987  2.3876
 7000SOL    HW232637   4.399   4.105  11.028  1.1218  2.3916 -0.8730
 7001SOL     OW32638   3.723   4.281  10.044 -0.0314  0.2759  0.1135
 7001SOL    HW132639   3.663   4.214  10.077 -0.6394 -0.0774 -1.6923
 7001SOL    HW232640   3.671   4.349  10.087 -1.5712 -0.8772  0.0523
 7002SOL     OW32641   3.603   0.524   4.030  0.7962  0.6625  0.1371
 7002SOL    HW132642   3.693   0.490   4.028  0.3668 -0.5147  0.8592
 7002SOL    HW232643   3.610   0.595   3.966 -0.6382  2.1661  1.6950
 7003SOL     OW32644   3.551   1.001  14.992 -0.2280 -0.2831 -0.5439
 7003SOL    HW132645   3.575   1.079  15.042  1.6440 -1.4416  0.3734
 7003SOL    HW232646   3.456   1.008  14.989 -0.3339 -1.7455 -0.4082
 7004SOL     OW32647   2.789   3.782   4.185 -0.1804 -0.4104  0.0127
 7004SOL    HW132648   2.811   3.736   4.265  0.5465 -1.8520 -1.0170
 7004SOL    HW232649   2.720   3.729   4.145  0.1413 -0.9143  0.1180
 7005SOL     OW32650   3.733   2.738   2.886  0.1645 -0.6393 -0.6079
 7005SOL    HW132651   3.731   2.644   2.902 -0.3210 -0.1454  2.1035
 7005SOL    HW232652   3.669   2.749   2.816  0.1910 -5.5060 -1.3871
 7006SOL     OW32653   1.039   0.261   7.542 -0.5666 -0.2395 -0.1480
 7006SOL    HW132654   1.134   0.267   7.536 -0.1819 -3.3239  3.4392
 7006SOL    HW232655   1.019   0.260   7.635  0.4044  0.0353  0.0647
 7007SOL     OW32656   1.811   4.206   5.886 -0.0563  0.0886  0.4452
 7007SOL    HW132657   1.744   4.275   5.880  2.5271  2.4582 -1.4443
 7007SOL    HW232658   1.780   4.165   5.805  1.0922 -2.2936  1.2168
 7008SOL     OW32659   1.949   4.016   5.146  0.3734 -0.1465  0.4306
 7008SOL    HW132660   1.921   4.014   5.055  3.0783 -0.6759 -0.3755
 7008SOL    HW232661   2.043   4.005   5.138  0.5048  0.5086  1.0076
 7009SOL     OW32662   0.496   2.418   6.058  0.5437 -0.2583 -0.2237
 7009SOL    HW132663   0.529   2.399   5.970 -1.6698  1.1161 -1.3396
 7009SOL    HW232664   0.413   2.459   6.035 -1.0833 -3.0182  0.8029
 7010SOL     OW32665   4.159   0.800   3.092  0.2616  0.2096  0.0790
 7010SOL    HW132666   4.083   0.773   3.039 -0.8380  3.1188  0.1806
 7010SOL    HW232667   4.181   0.880   3.046  0.2027 -0.7126 -1.5734
 7011SOL     OW32668   3.259   2.927  10.673  0.4572 -0.5552  0.2621
 7011SOL    HW132669   3.191   2.928  10.741 -1.4503  1.1801 -1.6710
 7011SOL    HW232670   3.218   2.863  10.616  1.0373 -0.0302 -0.7339
 7012SOL     OW32671   3.374   1.125   7.133 -0.1960 -0.2695 -0.7984
 7012SOL    HW132672   3.300   1.170   7.091 -1.9295 -0.3073  2.2591
 7012SOL    HW232673   3.329   1.044   7.155 -1.3383  0.5977  0.0357
 7013SOL     OW32674   0.114   0.010   6.200  0.0422  0.2665 -0.3216
 7013SOL    HW132675   0.182   4.682   6.198 -1.0502 -0.8721  0.4093
 7013SOL    HW232676   0.085   4.730   6.289  0.6388  2.2325  0.2798
 7014SOL     OW32677   3.493   3.288   8.097  0.4122 -0.3806 -0.5118
 7014SOL    HW132678   3.532   3.374   8.116  3.4264 -2.1911  1.5222
 7014SOL    HW232679   3.556   3.229   8.139 -0.7331 -0.5642  0.9438
 7015SOL     OW32680   1.440   1.095   8.121 -0.8503 -0.0511  0.0833
 7015SOL    HW132681   1.460   1.148   8.198 -1.1733 -0.2243  0.2869
 7015SOL    HW232682   1.363   1.052   8.160 -1.6709 -1.1378 -2.7211
 7016SOL     OW32683   2.261   1.022  16.290 -0.5673  0.0256  0.1589
 7016SOL    HW132684   2.222   0.951  16.342  1.2899  0.9117  2.7360
 7016SOL    HW232685   2.193   1.032  16.222  0.1872 -1.4144 -0.8038
 7017SOL     OW32686   4.551   2.034   5.606  0.4202  0.1182  0.3197
 7017SOL    HW132687   4.535   1.951   5.561 -0.1172  0.1816  0.3943
 7017SOL    HW232688   4.639   2.059   5.576  0.6681 -1.1587 -0.0426
 7018SOL     OW32689   3.894   3.826   1.553  0.3863  0.0620  0.4762
 7018SOL    HW132690   3.813   3.854   1.509 -0.1406  0.9596  2.0127
 7018SOL    HW232691   3.858   3.780   1.629  0.1700  1.9759  1.5413
 7019SOL     OW32692   1.833   0.275   4.013 -0.6667 -0.0105  0.3330
 7019SOL    HW132693   1.811   0.359   4.052  0.5855 -0.1650  1.3701
 7019SOL    HW232694   1.751   0.253   3.968 -1.8213  1.8785  1.5283
 7020SOL     OW32695   0.732   3.300  16.954 -0.5094 -0.3925  0.3842
 7020SOL    HW132696   0.799   3.366  16.935 -0.3901 -1.0787 -1.5233
 7020SOL    HW232697   0.668   3.311  16.883 -1.0358 -0.7892  0.7956
 7021SOL     OW32698   2.441   4.202   7.613 -0.0812  0.5345  0.2503
 7021SOL    HW132699   2.510   4.172   7.673 -0.6163 -1.3594 -0.0855
 7021SOL    HW232700   2.466   4.152   7.535  1.6963  0.7667  0.6761
 7022SOL     OW32701   4.361   2.082   4.780 -0.5328 -0.1350  0.5857
 7022SOL    HW132702   4.348   2.169   4.743  0.8325 -0.8885 -1.6318
 7022SOL    HW232703   4.268   2.061   4.790 -1.1447  1.0644 -2.5465
 7023SOL     OW32704   3.869   1.027   4.662  0.3253 -0.3595 -0.2843
 7023SOL    HW132705   3.853   0.974   4.584 -0.9389 -0.0407 -0.2375
 7023SOL    HW232706   3.922   0.969   4.718  0.3103  0.5783  0.6989
 7024SOL     OW32707   2.141   4.461  14.186 -0.7328 -0.1923 -0.0772
 7024SOL    HW132708   2.077   4.444  14.254 -0.1107 -0.9609  0.3241
 7024SOL    HW232709   2.078   4.479  14.116  0.5254  1.5954 -0.7460
 7025SOL     OW32710   4.420   2.498  11.731 -0.7756 -0.2625 -0.0888
 7025SOL    HW132711   4.501   2.507  11.782 -2.8567  0.0429  3.1744
 7025SOL    HW232712   4.417   2.572  11.671  3.3562  0.2488  0.2933
 7026SOL     OW32713   3.845   2.055   7.978 -0.1688  0.0045  0.2615
 7026SOL    HW132714   3.811   1.969   8.005  0.4230 -1.0323 -2.3257
 7026SOL    HW232715   3.819   2.054   7.886  2.0335 -1.8018 -0.3233
 7027SOL     OW32716   4.623   4.614   4.858  0.7139  0.2520 -0.3295
 7027SOL    HW132717   4.711   4.651   4.848  1.2938 -1.3194 -1.1191
 7027SOL    HW232718   4.594   4.663   4.935  0.1225  1.0848 -1.0917
 7028SOL     OW32719   1.005   4.209   9.412  0.6214 -0.4629 -0.1789
 7028SOL    HW132720   1.030   4.124   9.376  2.4937  0.5656 -1.2996
 7028SOL    HW232721   1.052   4.269   9.354  1.4925 -0.3484  0.6633
 7029SOL     OW32722   2.685   2.298  17.276  0.2672  0.0456  0.3343
 7029SOL    HW132723   2.720   2.236  17.212  0.4310  1.1628 -0.6595
 7029SOL    HW232724   2.746   2.268  17.343  0.0718  1.5182  1.1857
 7030SOL     OW32725   2.863   3.132   1.965 -0.2708 -0.0455 -0.3233
 7030SOL    HW132726   2.909   3.155   2.046  2.2336  3.5585 -2.7532
 7030SOL    HW232727   2.772   3.148   1.991 -0.7266 -2.1048 -0.6943
 7031SOL     OW32728   3.168   0.707   6.593  0.3243  0.3435  0.4600
 7031SOL    HW132729   3.154   0.711   6.499  0.1772  1.8091  0.5319
 7031SOL    HW232730   3.108   0.639   6.623  1.1899 -0.4802  0.2940
 7032SOL     OW32731   1.412   0.413   0.439  1.0082 -0.4078 -0.2440
 7032SOL    HW132732   1.351   0.451   0.376 -0.7871 -0.6760  1.3115
 7032SOL    HW232733   1.405   0.475   0.512 -0.2356 -1.6621  0.7161
 7033SOL     OW32734   3.402   2.592   8.990 -0.2356 -0.0386 -0.3973
 7033SOL    HW132735   3.355   2.675   9.002  0.7758  0.4635  0.0737
 7033SOL    HW232736   3.493   2.619   8.976 -0.1139 -0.7292 -0.9098
 7034SOL     OW32737   3.070   3.801   4.885  0.3577  0.1208  0.0059
 7034SOL    HW132738   3.078   3.867   4.816  0.8381  0.4196  0.3470
 7034SOL    HW232739   3.127   3.832   4.955 -0.3537 -0.5093  0.8653
 7035SOL     OW32740   3.478   2.462   1.673 -0.3951  0.1235 -0.2317
 7035SOL    HW132741   3.566   2.488   1.644 -0.6840  0.0216 -1.2046
 7035SOL    HW232742   3.456   2.524   1.742 -1.0512 -0.6848  0.2846
 7036SOL     OW32743   2.805   1.462   3.541  0.3890  0.3384 -0.1731
 7036SOL    HW132744   2.713   1.453   3.518  0.4825 -0.8527 -0.1022
 7036SOL    HW232745   2.822   1.386   3.598 -1.1827 -0.7493 -1.1679
 7037SOL     OW32746   1.801   1.230   3.349 -0.5474  0.1918  0.1961
 7037SOL    HW132747   1.724   1.246   3.402 -0.4909 -0.8360  0.5785
 7037SOL    HW232748   1.783   1.172   3.276 -2.1261 -0.0166  0.7682
 7038SOL     OW32749   4.111   0.956  15.579  0.3792 -0.0899  1.2579
 7038SOL    HW132750   4.144   0.889  15.519 -1.5582 -0.5925  0.7469
 7038SOL    HW232751   4.018   0.932  15.576  0.5225 -0.0017 -3.0540
 7039SOL     OW32752   2.050   3.792  17.734  0.1026  0.1459  0.6590
 7039SOL    HW132753   2.089   3.877  17.710 -1.9607  0.6466 -0.9079
 7039SOL    HW232754   1.958   3.812  17.751 -0.2322 -1.1692  0.4159
 7040SOL     OW32755   1.009   0.022  17.749  1.0335 -0.4403 -0.7807
 7040SOL    HW132756   0.986   4.668  17.738  1.7987 -0.8172  0.8389
 7040SOL    HW232757   1.072   0.023   0.067  1.7003 -0.0755 -1.3778
 7041SOL     OW32758   3.861   3.333  11.267  0.6514 -0.4115  0.2242
 7041SOL    HW132759   3.846   3.256  11.323  0.7386 -0.8139 -0.3115
 7041SOL    HW232760   3.872   3.403  11.332 -1.4537 -1.4474  1.6838
 7042SOL     OW32761   0.828   1.757   2.280 -0.6280 -0.4607 -0.0813
 7042SOL    HW132762   0.888   1.829   2.261 -1.4997  0.4209  0.4899
 7042SOL    HW232763   0.885   1.706   2.337  0.1304 -0.1823 -0.5833
 7043SOL     OW32764   3.282   0.860   2.517 -0.0546  0.2274  0.5369
 7043SOL    HW132765   3.358   0.809   2.544  0.9656  2.4295  1.8226
 7043SOL    HW232766   3.312   0.945   2.550 -0.8033 -0.2349  2.3756
 7044SOL     OW32767   4.543   1.396   1.055 -0.1272 -0.5803 -0.6578
 7044SOL    HW132768   4.584   1.481   1.067  1.8698 -2.1013  3.2800
 7044SOL    HW232769   4.608   1.363   0.992  0.3129  0.6677 -0.8634
 7045SOL     OW32770   4.181   4.215   2.294 -0.1470  0.3556 -0.2999
 7045SOL    HW132771   4.182   4.222   2.199 -0.7622  2.9294 -0.0946
 7045SOL    HW232772   4.092   4.183   2.307 -0.7515  1.9938 -0.4368
 7046SOL     OW32773   2.771   1.876  15.755 -0.4665 -0.0595  0.2113
 7046SOL    HW132774   2.810   1.806  15.704  2.2328  0.5132  1.4714
 7046SOL    HW232775   2.754   1.835  15.840  2.4893 -0.5948  0.5555
 7047SOL     OW32776   3.156   3.644  12.380  0.2244 -0.0291 -0.7569
 7047SOL    HW132777   3.116   3.565  12.416 -1.3644  1.8620  1.6980
 7047SOL    HW232778   3.186   3.664  12.469 -2.2767 -1.4973  0.4197
 7048SOL     OW32779   0.284   4.508   3.528 -0.0517  0.3181 -0.3557
 7048SOL    HW132780   0.222   4.476   3.463  1.3370  0.3983 -1.7341
 7048SOL    HW232781   0.272   4.603   3.522 -2.2423  0.0371 -0.2732
 7049SOL     OW32782   4.216   1.642   0.755  0.0654  0.6081  0.2482
 7049SOL    HW132783   4.264   1.576   0.806  2.1663  1.0631 -1.1523
 7049SOL    HW232784   4.262   1.648   0.671 -0.8497 -1.5438 -0.4082
 7050SOL     OW32785   1.439   2.573   9.028  0.4403 -0.7397  0.4418
 7050SOL    HW132786   1.480   2.659   9.018  0.5225 -0.5537  2.4481
 7050SOL    HW232787   1.437   2.533   8.941 -0.5003  0.4019 -0.0601
 7051SOL     OW32788   1.462   1.542  12.700  0.1878 -0.3432  0.1031
 7051SOL    HW132789   1.504   1.465  12.663  0.6114 -0.4388  0.7975
 7051SOL    HW232790   1.506   1.567  12.781 -1.8164 -0.7107  1.3188
 7052SOL     OW32791   1.390   2.835   3.790 -0.1627 -0.3324 -0.5919
 7052SOL    HW132792   1.447   2.825   3.866 -1.7624 -3.0621  0.2378
 7052SOL    HW232793   1.439   2.818   3.710  1.2831 -1.9089  0.6292
 7053SOL     OW32794   1.543   2.268   8.624 -0.0385 -0.3369  0.0269
 7053SOL    HW132795   1.519   2.201   8.559 -0.3852 -0.5959  0.4185
 7053SOL    HW232796   1.630   2.286   8.590  0.4277  1.1150  2.0231
 7054SOL     OW32797   2.141   4.619   5.480 -0.5006  0.4751 -0.2285
 7054SOL    HW132798   2.075   4.683   5.506 -0.9500  0.4935 -1.4030
 7054SOL    HW232799   2.220   4.661   5.514 -0.8415  2.4728 -1.9126
 7055SOL     OW32800   3.020   3.786   0.896  0.8511  0.8235 -0.0398
 7055SOL    HW132801   2.956   3.807   0.965  0.9958  0.5682  0.1698
 7055SOL    HW232802   2.967   3.837   0.835  0.6646 -1.7787 -2.0322
 7056SOL     OW32803   2.012   1.000   5.302 -0.1933  0.4877  0.5480
 7056SOL    HW132804   1.925   1.039   5.315 -0.9049 -0.5480 -1.0951
 7056SOL    HW232805   2.011   0.954   5.385  1.4248 -0.8042 -0.1584
 7057SOL     OW32806   2.857   1.276  14.776  0.3411 -0.2352 -0.4061
 7057SOL    HW132807   2.795   1.231  14.833  2.1340 -0.1901  1.5874
 7057SOL    HW232808   2.922   1.208  14.793 -1.5458 -2.1610 -0.8812
 7058SOL     OW32809   1.034   1.841  10.422 -0.3806 -0.2468 -0.1549
 7058SOL    HW132810   0.988   1.829  10.338  0.2919 -1.0865 -0.4086
 7058SOL    HW232811   1.027   1.936  10.434  0.4251 -0.0542 -1.1727
 7059SOL     OW32812   4.598   1.139  13.736 -0.3447  0.5827 -0.0985
 7059SOL    HW132813   4.564   1.079  13.670 -0.7152  1.9321 -1.1392
 7059SOL    HW232814   4.679   1.170  13.694  0.0786  0.1905  0.4255
 7060SOL     OW32815   1.083   1.621   4.473 -0.2676 -0.4068  0.6224
 7060SOL    HW132816   1.102   1.695   4.415 -3.1048 -0.4406 -0.3045
 7060SOL    HW232817   1.042   1.570   4.403  0.2160  0.4899 -0.3256
 7061SOL     OW32818   1.980   1.134   7.165 -0.9170 -0.6755  0.0152
 7061SOL    HW132819   2.007   1.178   7.245 -0.9369  0.1166 -0.4205
 7061SOL    HW232820   1.948   1.204   7.109  0.1112  0.6835  1.1418
 7062SOL     OW32821   1.988   3.318   2.458 -0.6710  0.3854 -0.0454
 7062SOL    HW132822   2.022   3.351   2.375 -0.2927 -0.9706 -0.4358
 7062SOL    HW232823   1.949   3.242   2.415  0.2702  0.6182 -1.3127
 7063SOL     OW32824   1.260   3.851   4.731  0.3025 -0.0755  0.4494
 7063SOL    HW132825   1.305   3.931   4.702  1.1963 -0.4433  0.8134
 7063SOL    HW232826   1.249   3.868   4.825 -1.1408  0.4528  0.1763
 7064SOL     OW32827   2.013   1.355   7.727  0.5373 -0.3855 -0.4134
 7064SOL    HW132828   2.082   1.293   7.750  0.3115  0.4662  2.5864
 7064SOL    HW232829   2.059   1.438   7.737  0.8100 -0.6296  0.3618
 7065SOL     OW32830   0.034   1.474   3.634 -0.0859  0.0548 -0.8289
 7065SOL    HW132831   0.041   1.393   3.685  2.1587  0.7238 -0.0934
 7065SOL    HW232832   4.700   1.523   3.673 -1.2493 -3.5487  1.5653
 7066SOL     OW32833   4.623   0.144  12.948 -0.0465 -0.2526 -0.3265
 7066SOL    HW132834   4.563   0.165  12.876 -0.5029  0.3992  0.2424
 7066SOL    HW232835   4.714   0.162  12.927 -0.3145  2.8496  1.1208
 7067SOL     OW32836   1.406   1.371   7.319  0.1863  0.3074  0.4917
 7067SOL    HW132837   1.349   1.399   7.391  2.0024  2.2137  1.1742
 7067SOL    HW232838   1.463   1.308   7.363  0.4430  0.7249  0.7574
 7068SOL     OW32839   4.156   4.082  10.902 -0.5174  0.4926  0.1638
 7068SOL    HW132840   4.138   3.988  10.894  1.5774  0.2264 -1.3384
 7068SOL    HW232841   4.111   4.097  10.985 -0.6348  1.3090 -0.0477
 7069SOL     OW32842   1.136   1.637  14.783  0.5246  0.0649  0.1146
 7069SOL    HW132843   1.199   1.705  14.760 -0.4338  0.8281 -0.2541
 7069SOL    HW232844   1.052   1.682  14.793  1.4318  2.2778 -2.3398
 7070SOL     OW32845   3.171   3.345   3.283  0.3305  0.1027  0.4492
 7070SOL    HW132846   3.159   3.267   3.338 -0.4999  0.7521  1.1888
 7070SOL    HW232847   3.097   3.336   3.223  0.7893  1.0745 -0.2513
 7071SOL     OW32848   0.390   4.430   1.835  0.2212 -0.3221  0.4212
 7071SOL    HW132849   0.479   4.435   1.869  0.6639 -0.2014 -0.7464
 7071SOL    HW232850   0.368   4.345   1.874 -1.5211 -0.4694 -0.8549
 7072SOL     OW32851   4.259   3.366  10.972 -0.3605  0.2067 -0.4546
 7072SOL    HW132852   4.262   3.323  11.058  0.5324  0.8059 -0.1850
 7072SOL    HW232853   4.344   3.335  10.941 -0.7310  0.1529 -1.4285
 7073SOL     OW32854   3.731   2.594  13.074  0.3707 -0.6737 -0.5840
 7073SOL    HW132855   3.693   2.560  12.993  0.7167  0.5557 -1.2545
 7073SOL    HW232856   3.779   2.517  13.107  0.9094  0.3063  0.9223
 7074SOL     OW32857   1.521   1.312   6.671  0.3609  1.0388  0.3249
 7074SOL    HW132858   1.466   1.242   6.637  1.8307 -1.6945  3.6410
 7074SOL    HW232859   1.454   1.381   6.662 -1.3843 -1.0492 -2.7916
 7075SOL     OW32860   4.158   4.339  10.767 -0.7174 -0.2993  0.0101
 7075SOL    HW132861   4.201   4.387  10.837 -1.6611 -0.4571  0.6972
 7075SOL    HW232862   4.169   4.252  10.806 -0.0533 -0.5470 -0.7287
 7076SOL     OW32863   1.151   3.048   5.365 -0.4774 -0.0666 -0.1885
 7076SOL    HW132864   1.245   3.058   5.349 -0.5137  1.3214  0.4411
 7076SOL    HW232865   1.142   3.096   5.447  0.8772 -0.3089  0.0922
 7077SOL     OW32866   1.972   4.527  14.005 -0.0402 -0.3146 -0.1533
 7077SOL    HW132867   1.957   4.620  14.022  1.7712 -0.3524  1.7047
 7077SOL    HW232868   1.885   4.494  13.982  0.8947 -2.4863 -0.6130
 7078SOL     OW32869   4.032   3.347  16.475 -0.1221  0.2758  0.5130
 7078SOL    HW132870   4.001   3.268  16.518  0.2480  0.5174  1.2195
 7078SOL    HW232871   3.951   3.398  16.473 -1.5546 -1.9699  1.1638
 7079SOL     OW32872   1.581   2.939  10.715 -1.0652 -0.3185 -0.2203
 7079SOL    HW132873   1.592   2.960  10.623  1.1655 -0.3196  0.0567
 7079SOL    HW232874   1.636   3.010  10.749  0.8785 -0.5665 -2.9209
 7080SOL     OW32875   3.790   3.420   8.307 -0.0815 -0.8387 -0.1318
 7080SOL    HW132876   3.846   3.471   8.365 -0.2074 -2.7035  1.6495
 7080SOL    HW232877   3.746   3.363   8.370  0.5407 -0.2186  0.8548
 7081SOL     OW32878   3.428   1.669   4.682 -1.0770  0.4336  0.5604
 7081SOL    HW132879   3.455   1.760   4.684 -0.4636  0.1962  3.1529
 7081SOL    HW232880   3.376   1.661   4.601  1.0337 -1.5675 -0.6032
 7082SOL     OW32881   2.351   4.293  14.762 -0.3386 -0.2063  0.3939
 7082SOL    HW132882   2.357   4.385  14.736 -0.2562  0.5498  3.1182
 7082SOL    HW232883   2.293   4.253  14.697 -0.5891  2.5727 -1.1109
 7083SOL     OW32884   0.276   1.039  17.275  0.7735  0.0482 -0.2736
 7083SOL    HW132885   0.302   1.001  17.191  1.7919 -0.6493  0.3701
 7083SOL    HW232886   0.307   1.129  17.268  1.7941 -0.4402 -2.1557
 7084SOL     OW32887   4.665   1.057   5.188 -0.2740 -0.4209  0.0933
 7084SOL    HW132888   0.001   0.997   5.192 -1.0331 -1.3738 -0.0982
 7084SOL    HW232889   4.604   0.998   5.231 -0.5955  1.1231  1.7811
 7085SOL     OW32890   3.062   3.952   2.942  0.8223 -0.5064 -0.0936
 7085SOL    HW132891   3.079   3.862   2.968 -0.0488 -1.0272 -1.3298
 7085SOL    HW232892   3.035   3.955   2.850  0.0722 -5.1063 -0.0317
 7086SOL     OW32893   3.315   4.241  16.034 -0.0629 -0.2546 -0.0232
 7086SOL    HW132894   3.357   4.155  16.041 -1.0771 -0.7264  0.1813
 7086SOL    HW232895   3.255   4.234  15.959  1.4130  2.5958 -1.4542
 7087SOL     OW32896   2.830   0.109   8.272  0.4591 -0.3762  0.3149
 7087SOL    HW132897   2.751   0.137   8.317  1.0758  2.1843 -0.2188
 7087SOL    HW232898   2.832   0.013   8.270 -0.6943 -0.3796 -0.9246
 7088SOL     OW32899   1.847   4.471  14.920 -0.2666 -0.6364 -1.0771
 7088SOL    HW132900   1.930   4.501  14.882 -0.4153  0.0997 -0.8221
 7088SOL    HW232901   1.788   4.538  14.886  0.1791  0.4222  0.2440
 7089SOL     OW32902   1.913   0.047  14.035 -0.0312 -1.3555  0.5390
 7089SOL    HW132903   1.914   0.069  14.128  0.7706 -1.0515  0.4565
 7089SOL    HW232904   1.825   0.079  14.015  0.9468  0.3399 -1.0240
 7090SOL     OW32905   2.584   0.018   4.397  0.1052 -0.4255  0.2843
 7090SOL    HW132906   2.588   0.075   4.474 -3.5265  0.3263 -0.1105
 7090SOL    HW232907   2.655   0.049   4.341 -0.6791 -1.9327 -1.5493
 7091SOL     OW32908   4.162   0.787  11.806 -0.2921 -1.1853 -0.3741
 7091SOL    HW132909   4.182   0.716  11.745 -2.0258 -2.1746  0.1947
 7091SOL    HW232910   4.068   0.795  11.790 -0.2648 -2.7670 -1.3125
 7092SOL     OW32911   3.228   2.182   2.236  0.1719  0.1899  0.2626
 7092SOL    HW132912   3.317   2.186   2.202 -0.3770  0.4368 -1.1393
 7092SOL    HW232913   3.188   2.136   2.162  0.2784 -0.0599  0.3612
 7093SOL     OW32914   4.498   0.926   7.431  0.0374 -0.2911  0.0937
 7093SOL    HW132915   4.564   0.978   7.477  2.2190 -2.1914 -0.8474
 7093SOL    HW232916   4.540   0.840   7.423  0.0979 -0.3322  0.8653
 7094SOL     OW32917   0.677   1.529   4.493 -0.1349 -0.1205 -0.7774
 7094SOL    HW132918   0.735   1.600   4.464 -0.1276 -0.6375 -2.0422
 7094SOL    HW232919   0.731   1.457   4.526 -0.6339 -0.3613 -0.4928
 7095SOL     OW32920   2.965   2.168   4.125  0.3346 -0.1725 -0.4681
 7095SOL    HW132921   3.037   2.223   4.094  3.0957 -3.2994  0.3148
 7095SOL    HW232922   2.892   2.205   4.077 -0.1032 -1.4795 -0.8050
 7096SOL     OW32923   3.521   0.455  15.402  0.1426 -0.2136 -0.2197
 7096SOL    HW132924   3.476   0.534  15.432  0.1222 -0.1102 -0.5256
 7096SOL    HW232925   3.481   0.391  15.461 -1.9913  1.6084  0.3086
 7097SOL     OW32926   3.347   1.522  14.780 -0.0475 -0.1061  0.3287
 7097SOL    HW132927   3.340   1.515  14.684 -3.2207 -0.0288  0.5427
 7097SOL    HW232928   3.441   1.507  14.791  0.4058  1.3582 -1.4692
 7098SOL     OW32929   2.138   3.041   2.058 -0.4485 -0.2085  0.9129
 7098SOL    HW132930   2.233   3.049   2.048 -0.1773 -3.5861  0.6213
 7098SOL    HW232931   2.110   3.131   2.075 -3.8713 -1.0064 -0.4075
 7099SOL     OW32932   0.036   0.958   4.302  0.4299 -0.0588  0.0478
 7099SOL    HW132933   0.074   0.873   4.284  1.5570  0.7827 -1.5333
 7099SOL    HW232934   0.067   1.022   4.238  3.5529 -0.1100  1.5149
 7100SOL     OW32935   2.045   2.206   4.496  0.0209 -0.3649  0.3052
 7100SOL    HW132936   2.055   2.141   4.566  1.1380  0.9832  1.4108
 7100SOL    HW232937   1.973   2.258   4.533  0.6997  0.5379  0.3702
 7101SOL     OW32938   1.602   0.380  11.243 -0.2349  0.1852  0.2309
 7101SOL    HW132939   1.567   0.446  11.183  1.0591  0.5201 -0.1597
 7101SOL    HW232940   1.657   0.345  11.172 -0.0245 -1.0295  1.0008
 7102SOL     OW32941   3.058   0.545   1.287 -0.2339 -0.6197 -0.5732
 7102SOL    HW132942   3.053   0.452   1.269  1.6496 -0.4258 -2.0638
 7102SOL    HW232943   3.107   0.531   1.367  1.5551  0.6045 -1.4542
 7103SOL     OW32944   3.594   2.706   5.430 -0.3985 -0.0386  0.2241
 7103SOL    HW132945   3.539   2.769   5.383  0.6381  0.6232 -0.0949
 7103SOL    HW232946   3.555   2.621   5.411  0.9615 -0.3797 -0.9725
 7104SOL     OW32947   1.441   3.649   0.620  0.3481 -0.6214 -0.7139
 7104SOL    HW132948   1.364   3.673   0.568  0.5683  0.1439 -0.6874
 7104SOL    HW232949   1.417   3.557   0.629  1.1247 -0.6713  0.7559
 7105SOL     OW32950   4.083   1.547   9.036 -0.0531 -0.2640 -0.4169
 7105SOL    HW132951   4.175   1.524   9.049  0.0625  1.2135  1.3470
 7105SOL    HW232952   4.088   1.582   8.947  3.1413  0.9827  0.2292
 7106SOL     OW32953   2.214   3.121   6.954 -0.5360  0.7489  0.0736
 7106SOL    HW132954   2.303   3.156   6.953 -0.4080  0.4238  0.0195
 7106SOL    HW232955   2.166   3.187   7.005  0.8609  1.2498  0.7411
 7107SOL     OW32956   1.215   3.026   3.789  0.4622 -0.3920 -0.1509
 7107SOL    HW132957   1.226   3.026   3.694  1.5295 -0.2036 -0.0298
 7107SOL    HW232958   1.250   2.937   3.801 -0.9003 -0.8675  0.2732
 7108SOL     OW32959   0.324   1.209   9.662  0.1932 -0.0789 -0.1144
 7108SOL    HW132960   0.265   1.173   9.596  1.1128  0.8726 -1.4678
 7108SOL    HW232961   0.375   1.128   9.665  1.2373  0.5669 -0.0392
 7109SOL     OW32962   4.638   0.395  13.386  0.0112 -0.0829  0.2275
 7109SOL    HW132963   4.706   0.352  13.439  0.8008 -0.1291 -0.8236
 7109SOL    HW232964   4.611   0.472  13.436  2.3308  0.7085  0.2544
 7110SOL     OW32965   4.142   1.655  12.390  0.4813 -0.3254  0.2896
 7110SOL    HW132966   4.111   1.715  12.321 -0.8019 -0.7304  0.5095
 7110SOL    HW232967   4.158   1.722  12.456  1.9402  0.8669 -1.2728
 7111SOL     OW32968   0.370   3.097   7.311 -0.7841  0.1847 -0.2052
 7111SOL    HW132969   0.363   3.096   7.216 -0.8381  1.4997 -0.2074
 7111SOL    HW232970   0.411   3.011   7.319  1.0628  1.0587 -0.2442
 7112SOL     OW32971   3.290   4.268   3.599  0.4017 -0.1432 -0.0409
 7112SOL    HW132972   3.325   4.178   3.595 -1.1596 -0.7566  0.3781
 7112SOL    HW232973   3.319   4.305   3.516 -2.4059  0.9167 -0.5414
 7113SOL     OW32974   3.338   2.776   4.196  0.1516  0.2631 -0.0061
 7113SOL    HW132975   3.433   2.767   4.186 -0.0493  0.3480 -1.9338
 7113SOL    HW232976   3.312   2.824   4.117 -1.7729 -1.8530 -0.6403
 7114SOL     OW32977   2.092   4.528   3.507 -0.5166  0.0636  0.1900
 7114SOL    HW132978   2.101   4.590   3.580  1.3953  0.6139 -0.5206
 7114SOL    HW232979   1.996   4.520   3.503 -0.7315  1.5031  2.5577
 7115SOL     OW32980   1.776   2.497   7.629  0.3703  1.2209 -0.4577
 7115SOL    HW132981   1.779   2.568   7.565  2.7092  0.0121 -1.6903
 7115SOL    HW232982   1.682   2.492   7.647  0.4070 -0.4660 -0.6746
 7116SOL     OW32983   3.352   1.140   6.013 -0.3217 -0.8246 -0.1657
 7116SOL    HW132984   3.355   1.166   5.921  1.4162 -0.1596  0.0706
 7116SOL    HW232985   3.301   1.060   6.002 -1.9307  0.2457 -0.4715
 7117SOL     OW32986   4.532   4.508   2.716  0.6727 -0.3616 -0.4718
 7117SOL    HW132987   4.544   4.448   2.642 -1.5500 -2.0377  0.5364
 7117SOL    HW232988   4.600   4.574   2.698  1.5529 -1.6214 -1.7629
 7118SOL     OW32989   3.146   3.356   0.728  0.6621  0.6159 -0.0079
 7118SOL    HW132990   3.068   3.311   0.695  1.4840 -0.5289 -0.4100
 7118SOL    HW232991   3.104   3.398   0.803  0.2091  0.2783 -0.0739
 7119SOL     OW32992   0.525   4.566   6.341  0.1098 -0.3145 -0.7997
 7119SOL    HW132993   0.491   4.546   6.253  1.3448 -0.8765 -1.1533
 7119SOL    HW232994   0.545   4.479   6.374  0.5925  0.0432 -0.1676
 7120SOL     OW32995   0.437   2.746   1.974 -0.0440 -0.0691  0.3574
 7120SOL    HW132996   0.519   2.715   2.013  0.5105 -0.1876 -0.8851
 7120SOL    HW232997   0.382   2.757   2.051  1.4769 -2.1708  1.7595
 7121SOL     OW32998   2.500   3.971  14.930 -0.4371  0.6292  0.2440
 7121SOL    HW132999   2.455   4.052  14.954 -1.5709 -0.2034  0.9297
 7121SOL    HW233000   2.440   3.897  14.923  2.0101 -1.5951  2.7800
 7122SOL     OW33001   0.128   1.719   4.693 -0.5408 -0.1810 -0.0106
 7122SOL    HW133002   0.125   1.804   4.650 -2.1500 -0.2627 -0.0648
 7122SOL    HW233003   0.124   1.671   4.610 -0.9275  1.2252 -0.8026
 7123SOL     OW33004   4.732   1.637  14.178  0.0807  0.7575 -0.5047
 7123SOL    HW133005   0.066   1.605  14.125  0.0970 -1.0937  0.5877
 7123SOL    HW233006   4.662   1.576  14.155 -0.1543  0.2072  1.5937
 7124SOL     OW33007   2.818   3.174  14.721  0.3193 -0.4953 -0.8754
 7124SOL    HW133008   2.789   3.091  14.684  0.4123 -0.7044 -0.4854
 7124SOL    HW233009   2.829   3.222  14.639  0.4851 -0.2980 -0.7388
 7125SOL     OW33010   0.680   2.351   1.559  0.3882 -0.5809  0.0334
 7125SOL    HW133011   0.617   2.307   1.617 -1.5154  1.0517 -0.7795
 7125SOL    HW233012   0.749   2.285   1.549 -0.1791 -1.1526 -0.1269
 7126SOL     OW33013   1.108   0.629   8.743 -0.2017  0.4526 -0.2517
 7126SOL    HW133014   1.101   0.723   8.727  0.6630  0.5744  0.1044
 7126SOL    HW233015   1.141   0.604   8.656  1.4742 -0.5245  0.6642
 7127SOL     OW33016   3.637   0.623   8.845 -0.3551  0.1851 -0.6727
 7127SOL    HW133017   3.638   0.701   8.901 -2.4119 -0.2168 -0.0955
 7127SOL    HW233018   3.544   0.634   8.824  0.4400  0.9758 -3.6551
 7128SOL     OW33019   3.662   2.858   9.205 -0.1412 -0.1186  0.4822
 7128SOL    HW133020   3.740   2.910   9.183 -1.8232  1.9056 -0.7022
 7128SOL    HW233021   3.670   2.878   9.298 -0.2040 -0.1054  0.4846
 7129SOL     OW33022   2.809   0.926  15.268 -0.6755 -0.4964 -0.3611
 7129SOL    HW133023   2.899   0.943  15.294 -0.4126 -0.3795 -1.3543
 7129SOL    HW233024   2.812   0.836  15.235 -1.8152 -0.4399 -0.6154
 7130SOL     OW33025   2.321   1.333   8.531  0.5375  0.3594  0.0987
 7130SOL    HW133026   2.366   1.302   8.453 -1.8253  1.1077 -1.5755
 7130SOL    HW233027   2.350   1.425   8.537 -0.8730  0.7248  1.3402
 7131SOL     OW33028   0.944   1.152   1.511  0.1790 -0.1799  0.1331
 7131SOL    HW133029   0.931   1.061   1.483 -0.5916  0.0019 -0.0800
 7131SOL    HW233030   0.989   1.141   1.595 -2.6435 -0.4209  1.6074
 7132SOL     OW33031   2.038   2.187   3.969  0.0483 -0.0569  0.1671
 7132SOL    HW133032   2.117   2.219   4.012 -0.8889  1.2045  0.9866
 7132SOL    HW233033   2.078   2.159   3.887 -0.1526  1.0915 -0.3174
 7133SOL     OW33034   3.613   1.455  14.839 -0.7564 -0.1069  0.1829
 7133SOL    HW133035   3.617   1.370  14.795  2.7382  1.1305 -1.8401
 7133SOL    HW233036   3.605   1.431  14.931  2.2804  0.9714  0.7188
 7134SOL     OW33037   3.811   0.012   1.210  0.4506  0.0404  0.4375
 7134SOL    HW133038   3.866   4.713   1.142  0.7014  3.7659 -1.4150
 7134SOL    HW233039   3.806   0.108   1.201  0.3286 -0.0036  0.0559
 7135SOL     OW33040   1.704   4.409  12.371  0.4451 -0.6662 -0.1982
 7135SOL    HW133041   1.650   4.378  12.443 -1.7551 -0.5542 -1.7879
 7135SOL    HW233042   1.788   4.405  12.416 -0.4768  0.7205  1.6534
 7136SOL     OW33043   3.374   1.863   2.307  0.3235  0.2601  0.5845
 7136SOL    HW133044   3.303   1.835   2.249 -0.5296  1.3227  1.1247
 7136SOL    HW233045   3.383   1.952   2.274 -0.5439  0.2658  0.3779
 7137SOL     OW33046   4.395   0.457   2.628  0.2122  0.5072  0.9077
 7137SOL    HW133047   4.351   0.372   2.623  0.4722  0.5562 -2.2992
 7137SOL    HW233048   4.339   0.510   2.685  0.7673  1.6648  0.3704
 7138SOL     OW33049   2.587   0.640   9.925 -0.3352 -0.1783 -0.2237
 7138SOL    HW133050   2.494   0.647   9.903 -0.5960 -0.2036  0.9062
 7138SOL    HW233051   2.619   0.642   9.835 -1.8534 -0.4650 -0.7741
 7139SOL     OW33052   4.356   3.541   8.518  0.5807  0.2286 -0.6155
 7139SOL    HW133053   4.404   3.459   8.528  1.4750  0.7819 -0.3977
 7139SOL    HW233054   4.397   3.596   8.585  2.0780 -0.5890 -0.8711
 7140SOL     OW33055   0.040   4.624   2.520 -0.3862 -0.0176  0.6997
 7140SOL    HW133056   0.063   4.534   2.498  3.3114  1.3948 -1.1894
 7140SOL    HW233057   0.128   4.641   2.553  0.0971 -1.0289 -0.0730
 7141SOL     OW33058   0.797   2.683  12.953  0.4263  0.0507 -0.1073
 7141SOL    HW133059   0.880   2.642  12.929  0.6146  0.0424  0.5580
 7141SOL    HW233060   0.751   2.654  12.874 -0.3078 -2.3543  1.1936
 7142SOL     OW33061   2.855   4.455   2.302 -0.1624  1.1411  0.0507
 7142SOL    HW133062   2.775   4.490   2.342 -0.3832 -0.7468  1.2882
 7142SOL    HW233063   2.817   4.442   2.215  0.8057  1.0476 -0.3500
 7143SOL     OW33064   2.385   3.185   9.260 -0.5342  0.2585 -0.1690
 7143SOL    HW133065   2.318   3.243   9.224  0.1004  2.1427  1.6655
 7143SOL    HW233066   2.442   3.245   9.308 -0.3581  0.3565 -0.4993
 7144SOL     OW33067   3.909   0.440   5.233 -0.5801  0.4640  0.2732
 7144SOL    HW133068   3.915   0.526   5.276  2.2799  1.5586 -2.2572
 7144SOL    HW233069   3.818   0.433   5.205 -0.9577  0.2611  1.5628
 7145SOL     OW33070   3.670   3.153   4.878  0.0429 -0.0627 -0.3508
 7145SOL    HW133071   3.718   3.210   4.818 -0.5738  1.7554  0.9075
 7145SOL    HW233072   3.612   3.114   4.813 -1.1105 -0.6634  1.0646
 7146SOL     OW33073   3.245   1.755  12.854  0.1434 -0.3109 -0.1672
 7146SOL    HW133074   3.153   1.774  12.836  0.3757  1.1790  0.2194
 7146SOL    HW233075   3.265   1.696  12.781 -2.3310 -2.2118  0.6884
 7147SOL     OW33076   1.251   4.154   7.621 -0.4661 -0.0374 -0.0200
 7147SOL    HW133077   1.162   4.183   7.600  0.2651  1.1915 -1.3935
 7147SOL    HW233078   1.266   4.213   7.695 -0.2827 -1.1141  0.8129
 7148SOL     OW33079   2.939   0.926  13.893 -0.7239 -0.1185 -0.2834
 7148SOL    HW133080   2.928   0.916  13.987  1.3868 -4.1346 -0.4739
 7148SOL    HW233081   2.909   0.841  13.861 -0.8875 -0.3213  0.4204
 7149SOL     OW33082   3.842   4.698  14.900  0.3012 -0.7178 -0.4796
 7149SOL    HW133083   3.763   4.657  14.865 -1.2924  1.3963  0.5650
 7149SOL    HW233084   3.839   4.647  14.981  1.9195  0.5134  0.3716
 7150SOL     OW33085   4.717   1.283   8.788 -0.2902 -0.0730  0.1645
 7150SOL    HW133086   4.676   1.202   8.819 -0.9087 -0.9506 -2.9198
 7150SOL    HW233087   0.072   1.262   8.793  0.1392  1.5730 -0.7871
 7151SOL     OW33088   0.327   0.497   4.294  0.0464 -0.2119  0.0242
 7151SOL    HW133089   0.393   0.429   4.310 -0.5217 -0.2021  2.4204
 7151SOL    HW233090   0.357   0.568   4.352  0.0675 -0.6286  0.5255
 7152SOL     OW33091   4.333   4.077   7.892 -1.1639 -0.0746  0.1883
 7152SOL    HW133092   4.356   4.098   7.802 -0.7926  0.5058  0.4241
 7152SOL    HW233093   4.370   3.990   7.909  1.6894  0.6378 -2.5517
 7153SOL     OW33094   4.459   1.470   7.355  0.2318  0.7569 -0.4712
 7153SOL    HW133095   4.522   1.540   7.373 -0.2791  0.9538  0.5460
 7153SOL    HW233096   4.489   1.405   7.418  0.7476  1.6933  0.2517
 7154SOL     OW33097   1.723   3.482   1.626 -0.3988 -0.2520 -0.6694
 7154SOL    HW133098   1.776   3.463   1.549 -0.3658 -0.4147 -0.6060
 7154SOL    HW233099   1.654   3.535   1.585 -0.0936  1.5248  1.1343
 7155SOL     OW33100   2.888   4.310   0.607 -0.3004  0.2088 -0.4008
 7155SOL    HW133101   2.869   4.375   0.539  1.8347 -1.6010 -2.6748
 7155SOL    HW233102   2.882   4.361   0.688 -0.2931  0.3787 -0.5070
 7156SOL     OW33103   2.247   4.681   3.945 -0.0074  0.2192  0.1196
 7156SOL    HW133104   2.283   4.609   3.894 -1.0707  0.3995 -0.8906
 7156SOL    HW233105   2.174   4.647   3.996 -0.4552 -0.7294 -1.1366
 7157SOL     OW33106   1.733   3.471  14.679  0.5620  0.0368 -0.3156
 7157SOL    HW133107   1.641   3.492  14.670  0.3968 -0.3670  0.4090
 7157SOL    HW233108   1.763   3.553  14.718 -1.5633  1.0991 -0.9216
 7158SOL     OW33109   0.999   0.682   4.234  0.2328  0.4508  0.4164
 7158SOL    HW133110   0.982   0.590   4.213 -2.6337  0.8385  1.0207
 7158SOL    HW233111   1.041   0.663   4.318  0.2467  1.1140  0.5563
 7159SOL     OW33112   0.809   0.854  15.003 -0.3880  0.0742 -0.8458
 7159SOL    HW133113   0.866   0.781  14.981  0.0013 -0.7976  3.0945
 7159SOL    HW233114   0.773   0.832  15.089 -0.2005 -0.5296 -0.9187
 7160SOL     OW33115   0.367   0.283   8.058  0.4317  0.0742  0.1444
 7160SOL    HW133116   0.459   0.259   8.050  0.2883 -0.4031 -0.0234
 7160SOL    HW233117   0.324   0.268   7.974  0.2182  0.5505  0.1638
 7161SOL     OW33118   4.575   1.087  16.780 -0.0137  0.2284  0.1760
 7161SOL    HW133119   4.538   1.175  16.783 -0.4359  0.0845 -0.8097
 7161SOL    HW233120   4.648   1.096  16.841  0.5761 -2.6926 -0.0848
 7162SOL     OW33121   3.939   1.975   2.149  0.2823 -0.0807 -0.5005
 7162SOL    HW133122   3.966   1.886   2.128  1.8924  0.7654 -2.0854
 7162SOL    HW233123   3.851   1.961   2.182 -0.4591  0.5681 -2.2323
 7163SOL     OW33124   2.891   0.555   0.772 -0.5043 -0.3458  0.6568
 7163SOL    HW133125   2.903   0.622   0.704 -0.5463 -0.4796  0.5180
 7163SOL    HW233126   2.940   0.479   0.741 -0.2427 -0.0206  0.2735
 7164SOL     OW33127   3.895   4.245  10.768  0.5685 -0.4586  0.0366
 7164SOL    HW133128   3.982   4.278  10.749  0.5163 -1.1098 -1.3297
 7164SOL    HW233129   3.861   4.285  10.848  0.6862  0.8186 -0.5665
 7165SOL     OW33130   1.516   1.155   2.045  0.5719 -1.1088  0.2179
 7165SOL    HW133131   1.551   1.068   2.065  2.7789 -0.2779  0.0240
 7165SOL    HW233132   1.588   1.184   1.988  0.0949  1.4988  0.9416
 7166SOL     OW33133   0.373   2.142  17.031  0.2456 -0.3144  0.1720
 7166SOL    HW133134   0.458   2.119  17.068  0.5343  0.9981  0.2953
 7166SOL    HW233135   0.301   2.106  17.083  0.2439 -0.4594  0.0698
 7167SOL     OW33136   4.731   0.584   9.675  0.0691  0.1253 -0.3560
 7167SOL    HW133137   4.644   0.546   9.672  0.6330 -1.3215  2.1170
 7167SOL    HW233138   0.009   0.595   9.768 -1.2909 -1.0244  0.0143
 7168SOL     OW33139   1.905   3.741  10.048 -0.2492  0.1368 -0.3780
 7168SOL    HW133140   1.834   3.677  10.052  1.8753 -2.1436  1.2130
 7168SOL    HW233141   1.916   3.753  10.143  2.4063 -1.1247 -0.5473
 7169SOL     OW33142   3.108   3.549   9.900 -0.4428 -0.2559 -0.1434
 7169SOL    HW133143   3.180   3.530   9.961 -0.1925  0.8552 -0.0886
 7169SOL    HW233144   3.127   3.643   9.894  1.3311 -0.5245  1.2044
 7170SOL     OW33145   4.132   1.645   6.365 -0.0991 -0.5115  0.0966
 7170SOL    HW133146   4.227   1.648   6.378 -0.0237  0.1289 -0.6100
 7170SOL    HW233147   4.126   1.709   6.294  0.1400  0.2958  0.8118
 7171SOL     OW33148   2.788   3.003   4.576 -0.0958  0.3458  0.0072
 7171SOL    HW133149   2.710   3.055   4.559  0.2070  1.0341  0.7431
 7171SOL    HW233150   2.765   2.910   4.588  1.7488 -0.4672 -2.9032
 7172SOL     OW33151   4.562   4.356  11.225  0.4718 -0.3915  0.0358
 7172SOL    HW133152   4.529   4.279  11.271 -0.7015 -0.6448 -1.2146
 7172SOL    HW233153   4.611   4.395  11.298 -0.9497 -1.7129  1.6826
 7173SOL     OW33154   3.333   3.146   8.286 -0.0416 -0.3769  0.0092
 7173SOL    HW133155   3.420   3.107   8.285  0.6740  1.2407 -1.0536
 7173SOL    HW233156   3.353   3.233   8.250 -1.1270 -0.1581 -0.0694
 7174SOL     OW33157   2.399   1.636   5.437  0.3696  1.0830  0.5502
 7174SOL    HW133158   2.328   1.686   5.398 -1.5961 -1.1894  1.2648
 7174SOL    HW233159   2.467   1.618   5.372  1.3319  1.1697  1.5316
 7175SOL     OW33160   2.668   0.663  14.436  0.2665  0.5204 -0.0624
 7175SOL    HW133161   2.660   0.746  14.483 -1.3037 -0.5242  1.4615
 7175SOL    HW233162   2.654   0.593  14.499 -0.3936  0.8201  0.1121
 7176SOL     OW33163   2.426   2.954   1.937  0.7000  0.6474  0.3808
 7176SOL    HW133164   2.453   2.864   1.953 -2.5791  0.0547  2.6343
 7176SOL    HW233165   2.447   2.959   1.844  0.4315  0.1000  0.2903
 7177SOL     OW33166   1.804   1.017   7.959  0.3645 -0.6610  0.0615
 7177SOL    HW133167   1.735   0.955   7.936  0.1663 -0.3437 -0.1987
 7177SOL    HW233168   1.817   1.064   7.877 -4.3108  1.2081  0.3830
 7178SOL     OW33169   1.101   1.846   5.066 -0.3385  0.1345  0.5221
 7178SOL    HW133170   1.109   1.941   5.079 -0.2382  0.2006 -0.0143
 7178SOL    HW233171   1.054   1.839   4.983  0.0138  1.9161  0.1520
 7179SOL     OW33172   0.692   3.515   6.442 -0.3151  0.3217  0.4015
 7179SOL    HW133173   0.680   3.487   6.352  1.1828 -1.5816  0.8049
 7179SOL    HW233174   0.726   3.435   6.483  0.4588 -1.5984 -3.9531
 7180SOL     OW33175   0.652   3.628   3.319  0.0113  0.1803 -0.1900
 7180SOL    HW133176   0.575   3.577   3.292 -0.2224  0.9141 -0.9369
 7180SOL    HW233177   0.717   3.596   3.256 -1.6320 -3.9071  0.1559
 7181SOL     OW33178   2.079   3.315   7.136 -0.0864  0.3718 -0.3237
 7181SOL    HW133179   2.018   3.243   7.152 -0.1259 -0.1398 -2.7408
 7181SOL    HW233180   2.107   3.346   7.222 -0.9769  0.7834 -0.1818
 7182SOL     OW33181   1.243   3.401   3.674 -0.8553 -0.1782  0.1956
 7182SOL    HW133182   1.270   3.409   3.583 -2.2007  0.9133 -0.1112
 7182SOL    HW233183   1.297   3.327   3.703  0.2813  0.4099 -0.4439
 7183SOL     OW33184   4.687   0.795   5.677 -0.4798 -0.0789 -0.1458
 7183SOL    HW133185   0.031   0.748   5.676  1.2143  2.8761  0.7333
 7183SOL    HW233186   4.627   0.721   5.685 -0.2419 -0.3289 -0.6623
 7184SOL     OW33187   3.991   1.973  10.181  0.3009 -0.4176  0.7720
 7184SOL    HW133188   4.082   1.948  10.195 -0.1559 -1.8895  1.0655
 7184SOL    HW233189   3.990   2.014  10.094 -0.6228 -1.9626  0.0590
 7185SOL     OW33190   3.000   0.069   1.460 -0.3253  0.1371  0.1796
 7185SOL    HW133191   3.075   0.010   1.458 -1.1572 -0.9553  1.3601
 7185SOL    HW233192   3.022   0.128   1.533  1.5209  1.8843 -1.7820
 7186SOL     OW33193   2.874   1.751   6.775  0.7105 -0.3277  0.0585
 7186SOL    HW133194   2.820   1.812   6.724  2.0503  0.1761 -0.7626
 7186SOL    HW233195   2.863   1.672   6.722 -1.7197 -1.9247  2.9542
 7187SOL     OW33196   1.865   3.227  10.292 -0.2290 -0.3680  1.2461
 7187SOL    HW133197   1.946   3.275  10.274 -0.9400 -0.1249 -1.4195
 7187SOL    HW233198   1.901   3.141  10.315  0.1139 -0.5463  0.0511
 7188SOL     OW33199   4.183   0.843   7.785  0.2322  0.1962 -0.2431
 7188SOL    HW133200   4.213   0.858   7.695 -0.0140  1.0542 -0.1891
 7188SOL    HW233201   4.266   0.810   7.819 -0.8724  0.0777  2.2915
 7189SOL     OW33202   0.734   0.277  14.004  0.1873  0.2215 -0.1024
 7189SOL    HW133203   0.786   0.353  13.977 -3.4487  2.7350 -0.1022
 7189SOL    HW233204   0.755   0.271  14.097  0.9287  0.7729 -0.2268
 7190SOL     OW33205   0.525   1.098  11.845  0.2608 -0.3765  0.9616
 7190SOL    HW133206   0.607   1.137  11.876  0.8935 -2.6511  2.1861
 7190SOL    HW233207   0.464   1.168  11.866 -0.7925 -0.8779 -0.4909
 7191SOL     OW33208   0.387   3.962   2.428  0.3952 -0.7683 -0.1652
 7191SOL    HW133209   0.410   4.055   2.427  1.1093 -0.9524 -1.2485
 7191SOL    HW233210   0.434   3.945   2.509 -2.7649 -1.2958  1.5715
 7192SOL     OW33211   1.989   2.289   5.231  0.0308 -0.2993  0.3747
 7192SOL    HW133212   1.916   2.262   5.287  0.5816  0.6148  1.5115
 7192SOL    HW233213   2.040   2.209   5.234 -0.7070 -0.8377 -1.2504
 7193SOL     OW33214   1.136   4.514   6.785 -0.1583  0.4610  0.3783
 7193SOL    HW133215   1.140   4.446   6.852  1.0554 -2.0376 -2.2593
 7193SOL    HW233216   1.200   4.485   6.721  0.6991  1.9733  0.5421
 7194SOL     OW33217   1.625   2.130   6.400  0.7079 -0.0125  0.2433
 7194SOL    HW133218   1.553   2.108   6.459  0.6405  0.7871  0.4583
 7194SOL    HW233219   1.604   2.080   6.322  0.0900  0.8911 -0.1699
 7195SOL     OW33220   4.655   1.943   0.535  0.0060  0.0185 -0.4059
 7195SOL    HW133221   0.006   1.951   0.503  0.4819  0.0031  0.9351
 7195SOL    HW233222   4.660   2.022   0.588  0.8305  0.7487 -1.5796
 7196SOL     OW33223   4.206   1.517  16.277  0.4945 -0.4238 -0.3183
 7196SOL    HW133224   4.225   1.548  16.366 -0.7761  2.8524 -1.1897
 7196SOL    HW233225   4.259   1.438  16.274 -0.8807 -1.3954  0.8460
 7197SOL     OW33226   4.083   1.192   0.777  0.2475  0.1129 -0.3647
 7197SOL    HW133227   3.993   1.171   0.801 -0.4516  0.8509 -2.3325
 7197SOL    HW233228   4.074   1.285   0.758 -0.1423  0.0878 -0.3020
 7198SOL     OW33229   2.867   4.471   7.337  0.0043 -0.5640 -0.1378
 7198SOL    HW133230   2.856   4.381   7.308 -0.9553 -0.8366  1.0643
 7198SOL    HW233231   2.957   4.460   7.366  0.5641  0.8196 -1.3550
 7199SOL     OW33232   1.211   3.909   7.304  0.1099 -0.2227  0.4154
 7199SOL    HW133233   1.194   4.003   7.297 -1.0587 -0.4587  0.0474
 7199SOL    HW233234   1.230   3.897   7.211 -2.7954  0.1621 -0.2145
 7200SOL     OW33235   3.993   0.222   6.668  0.0035  0.2604 -0.2516
 7200SOL    HW133236   4.032   0.203   6.583 -1.6338 -0.7320 -0.7737
 7200SOL    HW233237   4.062   0.196   6.729 -0.7775  0.4581  0.7206
 7201SOL     OW33238   0.759   0.244  12.174 -0.0057 -0.3907  0.4031
 7201SOL    HW133239   0.773   0.204  12.089  1.2413 -2.4470  1.5801
 7201SOL    HW233240   0.666   0.227  12.193 -0.1583  0.1749  0.1813
 7202SOL     OW33241   0.831   2.565  10.869 -0.9191  0.1869  0.4084
 7202SOL    HW133242   0.798   2.485  10.828 -0.2897  0.9647 -1.6003
 7202SOL    HW233243   0.812   2.563  10.963 -0.3006 -1.0905  0.4938
 7203SOL     OW33244   3.987   3.814  12.183  0.1778 -0.2867 -0.3901
 7203SOL    HW133245   3.946   3.900  12.184  1.8943  0.5468 -1.4339
 7203SOL    HW233246   4.071   3.826  12.228 -0.0892  0.2980 -0.0539
 7204SOL     OW33247   4.677   4.530  13.610 -0.3861  0.3623  0.3058
 7204SOL    HW133248   4.690   4.595  13.541 -1.4935  2.6204  2.2279
 7204SOL    HW233249   4.611   4.477  13.565 -0.6236  0.8778  0.0534
 7205SOL     OW33250   1.375   1.057   8.850  0.3827  0.5820  0.2375
 7205SOL    HW133251   1.346   1.004   8.925 -2.1040  1.4356 -0.1232
 7205SOL    HW233252   1.468   1.062   8.869  0.4188 -0.4499  0.3694
 7206SOL     OW33253   3.689   4.233   4.535  0.0983 -0.0529 -0.4523
 7206SOL    HW133254   3.736   4.278   4.465  2.0975  1.4159  1.8933
 7206SOL    HW233255   3.639   4.307   4.569  0.9230  0.7168 -0.9381
 7207SOL     OW33256   0.427   1.816   7.824  0.0073 -0.3224  0.3677
 7207SOL    HW133257   0.511   1.783   7.791 -0.4303 -0.3805 -0.6661
 7207SOL    HW233258   0.451   1.826   7.916 -0.0271 -0.7003  0.4202
 7208SOL     OW33259   1.891   4.554   9.471  0.6210 -0.4439 -0.1955
 7208SOL    HW133260   1.873   4.541   9.564  3.4448  1.7055  0.6541
 7208SOL    HW233261   1.942   4.477   9.446  1.6181 -0.8549  3.1286
 7209SOL     OW33262   1.001   0.667  14.927 -0.1294 -0.2804  0.1798
 7209SOL    HW133263   1.043   0.612  14.993  1.1398  0.8460  0.3097
 7209SOL    HW233264   0.973   0.593  14.873 -1.8452  1.0594 -0.7857
 7210SOL     OW33265   2.746   3.934  13.565  0.2088  0.3909 -0.4087
 7210SOL    HW133266   2.804   4.002  13.533  0.7128 -0.5821 -1.5963
 7210SOL    HW233267   2.757   3.947  13.659  0.7201 -0.0566 -0.4069
 7211SOL     OW33268   3.295   3.942   8.323 -0.6707  0.0468 -0.0419
 7211SOL    HW133269   3.292   3.884   8.247  0.7383  0.4215 -0.3810
 7211SOL    HW233270   3.266   4.018   8.272  0.3260  0.6765  0.3123
 7212SOL     OW33271   1.374   2.447   7.921 -0.5541 -0.2913  0.2269
 7212SOL    HW133272   1.329   2.450   8.006  0.0926 -1.2581  0.5989
 7212SOL    HW233273   1.341   2.365   7.885 -0.7055 -1.3329  2.7097
 7213SOL     OW33274   4.659   3.219   7.490 -0.0919 -0.2090  0.0134
 7213SOL    HW133275   4.723   3.274   7.445 -1.0815 -0.1781 -1.3597
 7213SOL    HW233276   4.676   3.220   7.584  0.5653 -0.5278 -0.1017
 7214SOL     OW33277   3.733   4.333  16.054 -0.0900 -0.3104 -0.0365
 7214SOL    HW133278   3.679   4.311  16.129 -1.7257  0.9292 -0.8616
 7214SOL    HW233279   3.669   4.309  15.988 -2.6890  0.3550  2.2593
 7215SOL     OW33280   4.321   3.308   1.955 -0.3880 -0.3645  0.2140
 7215SOL    HW133281   4.305   3.305   1.861 -0.0393 -0.3414  0.1517
 7215SOL    HW233282   4.387   3.239   1.962 -0.9486 -0.8192  1.0593
 7216SOL     OW33283   1.850   2.691   5.361  0.5063 -0.4309 -0.6458
 7216SOL    HW133284   1.778   2.632   5.337  0.1191 -0.2985  0.1786
 7216SOL    HW233285   1.905   2.632   5.412 -0.7923 -0.5462  0.6282
 7217SOL     OW33286   0.645   3.975  10.484  1.1737 -0.0243  0.5769
 7217SOL    HW133287   0.661   3.882  10.468  0.3530 -0.2459  1.0955
 7217SOL    HW233288   0.726   4.020  10.457  0.9703 -0.7158 -1.1891
 7218SOL     OW33289   3.207   4.734  15.693 -0.1632  0.4879 -0.1025
 7218SOL    HW133290   3.229   4.678  15.619 -1.8183 -0.7385  0.3242
 7218SOL    HW233291   3.190   0.079  15.650  0.2059  0.2583 -0.6926
 7219SOL     OW33292   2.324   2.792   3.482 -0.1642 -0.1161  0.4039
 7219SOL    HW133293   2.397   2.760   3.535 -0.8990 -0.0396  1.4528
 7219SOL    HW233294   2.374   2.827   3.407 -1.8800 -0.3272 -0.8428
 7220SOL     OW33295   2.394   4.723   5.548 -0.3332  0.2711  0.4043
 7220SOL    HW133296   2.437   0.069   5.544 -0.9963  0.4954 -1.6252
 7220SOL    HW233297   2.438   4.677   5.620  2.2559  1.4848 -0.4184
 7221SOL     OW33298   2.396   3.022   7.275 -0.2419  0.1584  0.8907
 7221SOL    HW133299   2.367   2.934   7.298 -1.7165  0.4091  0.0309
 7221SOL    HW233300   2.323   3.045   7.217  0.4365 -2.4870 -1.0035
 7222SOL     OW33301   0.072   1.472   4.901 -1.4133  0.0062 -0.5186
 7222SOL    HW133302   0.146   1.422   4.937 -0.9406  0.0506 -1.4363
 7222SOL    HW233303   4.735   1.417   4.921 -1.7333  0.8988  0.7353
 7223SOL     OW33304   3.274   1.326  11.987  0.4340  0.0619  0.1714
 7223SOL    HW133305   3.264   1.412  12.027 -0.8090 -0.3833  0.8427
 7223SOL    HW233306   3.342   1.290  12.044  2.2332  3.8833  0.4451
 7224SOL     OW33307   0.254   4.645   6.825  0.4032  0.0329 -0.1658
 7224SOL    HW133308   0.171   4.677   6.860  1.5351 -0.8153  3.3183
 7224SOL    HW233309   0.236   4.643   6.731  1.1395  0.1514 -0.3062
 7225SOL     OW33310   4.137   1.592  12.794  0.7774 -0.1932 -0.3699
 7225SOL    HW133311   4.060   1.647  12.781  0.6788 -0.3805 -0.5854
 7225SOL    HW233312   4.127   1.562  12.884  0.8297 -0.2729 -0.3900
 7226SOL     OW33313   0.222   3.164  14.447  0.8625 -0.2355  0.1157
 7226SOL    HW133314   0.127   3.154  14.445  0.7129  0.9738  1.6883
 7226SOL    HW233315   0.262   3.080  14.472 -1.2027 -0.4581  2.5680
 7227SOL     OW33316   0.481   1.702   1.611 -0.5146  0.1683 -0.5340
 7227SOL    HW133317   0.574   1.695   1.631 -0.1639  1.8178 -1.6473
 7227SOL    HW233318   0.453   1.617   1.645  0.2158  0.9677  2.0426
 7228SOL     OW33319   0.222   1.754   8.436 -0.0833  0.0313  0.3821
 7228SOL    HW133320   0.236   1.661   8.422  2.5006  0.7119 -1.6182
 7228SOL    HW233321   0.166   1.755   8.514 -0.3756 -0.3326  0.1722
 7229SOL     OW33322   0.323   4.324  11.409  0.2881  0.2548  0.4465
 7229SOL    HW133323   0.388   4.311  11.478  1.3627  0.6077 -0.4777
 7229SOL    HW233324   0.243   4.291  11.449 -0.1497  1.6257  0.6835
 7230SOL     OW33325   0.685   0.545   2.965 -0.3523  0.1237 -0.6115
 7230SOL    HW133326   0.678   0.596   3.046  0.8534  1.9140 -1.6233
 7230SOL    HW233327   0.629   0.593   2.904  0.8716  1.4896 -0.6608
 7231SOL     OW33328   2.492   2.251   2.521 -0.1391 -0.5891  0.4595
 7231SOL    HW133329   2.430   2.179   2.503  1.0107 -1.5628  0.4128
 7231SOL    HW233330   2.433   2.327   2.520  0.2373 -0.3145 -1.7924
 7232SOL     OW33331   0.571   1.951   7.558 -0.4739 -0.5847 -0.2975
 7232SOL    HW133332   0.618   2.033   7.568  1.2744 -1.8174  1.5098
 7232SOL    HW233333   0.644   1.889   7.554  1.0305  1.1610  0.2208
 7233SOL     OW33334   2.557   0.037   4.051  0.1575 -0.1551  0.4177
 7233SOL    HW133335   2.621   0.011   4.117 -0.8970  0.0662  1.5364
 7233SOL    HW233336   2.493   4.707   4.038 -1.4817  1.6739 -1.2355
 7234SOL     OW33337   0.666   4.079   4.474  0.1699  0.7729  0.2450
 7234SOL    HW133338   0.597   4.021   4.443  1.0191 -0.4833  0.7495
 7234SOL    HW233339   0.621   4.138   4.535  2.9762  1.0715  1.9926
 7235SOL     OW33340   4.653   0.045  10.030 -0.1072  0.4046 -0.4034
 7235SOL    HW133341   4.688   0.026   9.943 -0.2347  0.9121 -0.5668
 7235SOL    HW233342   4.643   4.700  10.076 -0.1890  0.9227  0.5305
 7236SOL     OW33343   3.855   2.661   6.052 -0.3403  0.0125 -0.3298
 7236SOL    HW133344   3.858   2.757   6.051 -0.2195  0.0202  0.3834
 7236SOL    HW233345   3.902   2.639   5.972  0.1780 -1.0314  0.2586
 7237SOL     OW33346   0.618   3.369   7.217  0.0591 -0.2849 -0.4806
 7237SOL    HW133347   0.638   3.373   7.123 -2.8995  1.0641 -1.0648
 7237SOL    HW233348   0.634   3.278   7.241 -1.1973 -0.4702 -0.3045
 7238SOL     OW33349   2.407   3.359   6.714  0.4314  0.1668 -0.0480
 7238SOL    HW133350   2.394   3.445   6.753  1.6446 -0.0317  0.8136
 7238SOL    HW233351   2.471   3.323   6.776  0.4587 -2.8121 -1.8320
 7239SOL     OW33352   1.581   2.632  11.608  0.2611  0.4777 -0.3859
 7239SOL    HW133353   1.628   2.571  11.664  0.5571  2.3353  1.3609
 7239SOL    HW233354   1.569   2.706  11.668  0.3397 -1.7919  2.3691
 7240SOL     OW33355   0.044   4.737   2.217  0.2014 -0.0136 -0.1153
 7240SOL    HW133356   0.130   4.700   2.201  0.0226 -0.6087  0.2953
 7240SOL    HW233357   0.019   4.684   2.293  0.6056 -2.3302 -1.5999
 7241SOL     OW33358   1.168   1.563  10.390  0.3893  0.1694  0.2069
 7241SOL    HW133359   1.131   1.651  10.378 -0.8327  0.0433  3.1812
 7241SOL    HW233360   1.104   1.532  10.454 -1.0952 -0.8209 -1.7635
 7242SOL     OW33361   3.539   2.879   2.321  0.3297 -0.0370  0.3413
 7242SOL    HW133362   3.634   2.864   2.331  0.0407 -0.8254  1.9737
 7242SOL    HW233363   3.507   2.790   2.311  0.7426 -0.0198 -1.1130
 7243SOL     OW33364   1.965   0.394   2.559  0.0423 -0.5248 -0.6731
 7243SOL    HW133365   1.987   0.307   2.591 -0.2960 -0.9549 -1.6154
 7243SOL    HW233366   1.878   0.368   2.530 -0.5168 -0.9377  1.3982
 7244SOL     OW33367   4.504   0.081   0.378  0.1148  0.1535  0.5673
 7244SOL    HW133368   4.494   4.726   0.366 -0.5200  0.1626  1.0456
 7244SOL    HW233369   4.429   0.110   0.430  0.3862  0.6287  0.6992
 7245SOL     OW33370   1.306   4.507   8.358  0.2104  0.2735 -0.0451
 7245SOL    HW133371   1.249   4.522   8.433 -0.2628  1.0462 -0.5674
 7245SOL    HW233372   1.390   4.546   8.385  0.3047  0.1668 -0.1811
 7246SOL     OW33373   1.700   0.037   5.232 -0.0173 -0.0922 -0.6271
 7246SOL    HW133374   1.784   0.082   5.231 -0.3921  0.6427  1.5754
 7246SOL    HW233375   1.742   4.691   5.242  0.7662  0.2782 -0.7770
 7247SOL     OW33376   0.164   3.338   5.195  0.2350  0.1835  0.4844
 7247SOL    HW133377   0.127   3.356   5.282 -2.9803 -1.2444 -0.5635
 7247SOL    HW233378   0.221   3.263   5.208  1.0211  1.0795  2.2042
 7248SOL     OW33379   2.136   3.256  10.531 -0.2049  0.0631  0.6718
 7248SOL    HW133380   2.109   3.318  10.463  0.3045 -2.7933 -2.1490
 7248SOL    HW233381   2.160   3.171  10.493 -1.8737 -1.2412  2.5402
 7249SOL     OW33382   2.185   2.988   6.361  0.0344 -0.1097  0.1164
 7249SOL    HW133383   2.206   3.037   6.440 -1.3063 -0.9371  0.9734
 7249SOL    HW233384   2.180   3.054   6.292 -2.0375 -1.0792 -0.6539
 7250SOL     OW33385   2.360   1.262   8.241  0.2197  0.3749  0.4823
 7250SOL    HW133386   2.284   1.213   8.209  0.8328  0.6091 -1.3253
 7250SOL    HW233387   2.369   1.330   8.174  0.9814  1.4535  1.6882
 7251SOL     OW33388   0.870   3.208   4.206 -0.4696 -0.2398  0.2520
 7251SOL    HW133389   0.830   3.245   4.128 -0.0344  0.6845  0.4642
 7251SOL    HW233390   0.964   3.220   4.190 -0.3531  0.3410  1.2951
 7252SOL     OW33391   1.815   3.772   5.920  0.3735  0.2902 -0.7639
 7252SOL    HW133392   1.865   3.719   5.981 -1.4707  0.6842  1.0789
 7252SOL    HW233393   1.886   3.816   5.872  0.2682 -0.8212 -1.9406
 7253SOL     OW33394   1.756   3.898   2.809  0.0901  0.8218 -0.4859
 7253SOL    HW133395   1.783   3.815   2.849 -0.4612  0.9194  0.1008
 7253SOL    HW233396   1.840   3.943   2.816  2.4121 -3.2375 -2.6241
 7254SOL     OW33397   0.368   1.472   3.659  0.2839  0.1766 -0.6331
 7254SOL    HW133398   0.344   1.492   3.568  2.9981 -0.1460 -1.4094
 7254SOL    HW233399   0.340   1.555   3.699  2.2497  0.6158 -0.1809
 7255SOL     OW33400   0.538   3.451   0.454  0.0490  0.7568 -0.1644
 7255SOL    HW133401   0.473   3.426   0.388  1.5853 -1.4046 -0.8717
 7255SOL    HW233402   0.491   3.524   0.495  0.6939  1.5890 -0.8911
 7256SOL     OW33403   1.741   0.584  11.390 -0.0263 -0.5487 -0.1203
 7256SOL    HW133404   1.687   0.505  11.382  0.4659 -0.9786  0.8532
 7256SOL    HW233405   1.812   0.552  11.334 -0.8155  0.8272 -1.9304
 7257SOL     OW33406   4.723   1.740   8.594 -0.0448  0.0170  0.1001
 7257SOL    HW133407   4.673   1.660   8.607 -2.7264  1.6823  0.1296
 7257SOL    HW233408   4.727   1.778   8.681 -2.1822 -1.2740  0.7545
 7258SOL     OW33409   1.651   4.359  17.316  0.3963 -0.2299 -0.7748
 7258SOL    HW133410   1.604   4.441  17.330 -0.2539 -0.3600 -2.2477
 7258SOL    HW233411   1.580   4.297  17.328  0.1647  0.2589  0.3593
 7259SOL     OW33412   4.368   1.003  11.443 -0.0965  0.7885 -0.0010
 7259SOL    HW133413   4.426   1.002  11.518 -1.8415 -1.2617  1.3210
 7259SOL    HW233414   4.351   1.097  11.436 -1.7516  0.4821 -0.1195
 7260SOL     OW33415   4.212   3.347   2.666 -0.2075 -0.4145 -0.8403
 7260SOL    HW133416   4.180   3.432   2.697 -2.6372 -1.6879  0.1730
 7260SOL    HW233417   4.298   3.378   2.636  0.1868 -0.4725  0.2297
 7261SOL     OW33418   2.598   1.286  15.747  0.4581  0.1542  0.3658
 7261SOL    HW133419   2.557   1.332  15.821  1.0994 -0.3890  1.0631
 7261SOL    HW233420   2.673   1.344  15.735 -0.2664  0.8395 -0.7851
 7262SOL     OW33421   4.224   0.262   2.556 -0.1589  0.1179  0.3902
 7262SOL    HW133422   4.155   0.231   2.614  1.2288 -1.9516  0.9235
 7262SOL    HW233423   4.173   0.293   2.481 -1.3036 -1.7606  0.4287
 7263SOL     OW33424   1.828   0.929  15.182  0.4025  0.6739 -0.3106
 7263SOL    HW133425   1.890   0.939  15.110  3.2620 -0.5879  1.9711
 7263SOL    HW233426   1.879   0.883  15.249 -1.3489  2.3672  2.2081
 7264SOL     OW33427   3.253   2.665   5.282 -0.0854 -0.0694 -0.9256
 7264SOL    HW133428   3.246   2.757   5.258 -0.6665 -0.1910 -1.2286
 7264SOL    HW233429   3.289   2.631   5.200 -0.1387  0.1750 -1.0480
 7265SOL     OW33430   3.429   0.337   1.155  0.3962 -0.5366 -0.1124
 7265SOL    HW133431   3.344   0.292   1.149 -0.1492  0.3237  1.0776
 7265SOL    HW233432   3.402   0.428   1.167 -1.0321 -0.8034 -1.2479
 7266SOL     OW33433   3.356   1.733   6.181 -0.4192  0.0864  0.3064
 7266SOL    HW133434   3.361   1.686   6.264  0.8738  1.0218  0.7581
 7266SOL    HW233435   3.410   1.809   6.203  0.0582  0.4672 -2.2106
 7267SOL     OW33436   0.527   4.656   6.641  0.4152 -0.1984 -0.0715
 7267SOL    HW133437   0.569   4.647   6.556  0.4162 -1.3556  0.0529
 7267SOL    HW233438   0.515   4.563   6.658 -2.1751  0.0915 -0.4107
 7268SOL     OW33439   1.402   2.554   1.125  0.2758 -0.6546  0.0980
 7268SOL    HW133440   1.338   2.623   1.110 -1.8309 -2.9159 -1.3860
 7268SOL    HW233441   1.363   2.478   1.169  2.6177 -0.6681  2.1956
 7269SOL     OW33442   1.542   2.265   1.804 -0.0320  0.6132  0.4692
 7269SOL    HW133443   1.577   2.301   1.885 -1.4413  0.8700  0.9443
 7269SOL    HW233444   1.495   2.341   1.771 -2.1900 -1.2066 -0.6611
 7270SOL     OW33445   4.245   2.819  17.025  0.1431 -0.0224 -0.3245
 7270SOL    HW133446   4.326   2.844  16.981  0.9771 -1.8899  0.1203
 7270SOL    HW233447   4.263   2.821  17.119 -0.8627  0.4030 -0.1378
 7271SOL     OW33448   2.388   1.179   5.436  0.2112 -0.4607  0.0091
 7271SOL    HW133449   2.303   1.224   5.430  0.5141  0.3921  2.1646
 7271SOL    HW233450   2.388   1.123   5.358 -1.4466 -0.2470 -0.1477
 7272SOL     OW33451   0.237   2.858   2.923  0.4068  0.0466  0.3157
 7272SOL    HW133452   0.287   2.838   2.845  0.5889 -1.9834  0.9580
 7272SOL    HW233453   0.164   2.899   2.877 -0.6695 -1.1127  0.9853
 7273SOL     OW33454   4.631   3.663   9.052 -0.1255  0.5789 -0.7196
 7273SOL    HW133455   4.624   3.748   9.096  2.2732  0.1039  0.5726
 7273SOL    HW233456   4.726   3.667   9.054 -0.0880 -1.7437  2.4020
 7274SOL     OW33457   4.442   2.774   5.117  0.9259 -0.2499  0.3239
 7274SOL    HW133458   4.526   2.810   5.146  2.3201 -1.9736 -1.6074
 7274SOL    HW233459   4.450   2.749   5.025  0.0201  0.3875  0.0671
 7275SOL     OW33460   2.402   3.236  16.027 -0.1209 -0.2321 -0.2056
 7275SOL    HW133461   2.355   3.304  15.978 -0.7402 -0.0718  0.6201
 7275SOL    HW233462   2.489   3.249  15.989 -0.3238 -0.9781 -0.9365
 7276SOL     OW33463   4.679   2.032   6.860  0.1310 -0.0282 -0.0989
 7276SOL    HW133464   4.636   1.949   6.842 -1.4463  0.7115  0.2411
 7276SOL    HW233465   0.009   2.001   6.919  0.3033  1.7574  0.6525
 7277SOL     OW33466   0.047   0.051   0.359  0.8179 -0.0044 -0.0950
 7277SOL    HW133467   0.035   0.008   0.444  0.9286 -0.4407 -0.3042
 7277SOL    HW233468   4.697   0.086   0.350  0.3835 -1.2664 -0.7550
 7278SOL     OW33469   2.886   2.564  11.110  0.1149 -0.1531  0.3639
 7278SOL    HW133470   2.843   2.546  11.194 -0.6853  1.7773  0.3657
 7278SOL    HW233471   2.813   2.596  11.057  0.1251 -1.0307 -0.1805
 7279SOL     OW33472   4.366   0.448   0.544 -0.4720  0.0152  0.2152
 7279SOL    HW133473   4.357   0.445   0.639 -2.0748 -0.4594  0.0489
 7279SOL    HW233474   4.284   0.416   0.508  0.0551  1.2113 -2.0538
 7280SOL     OW33475   4.419   3.526   9.391  0.1189  0.4927  0.5056
 7280SOL    HW133476   4.444   3.594   9.329 -2.0264  1.5513  0.7849
 7280SOL    HW233477   4.474   3.557   9.462  0.1619  0.5763  0.4356
 7281SOL     OW33478   2.548   1.301   4.619 -0.3500  0.6361  0.2061
 7281SOL    HW133479   2.531   1.249   4.697  1.1872 -0.7326 -0.3627
 7281SOL    HW233480   2.644   1.299   4.630 -0.4337  0.3414  0.8780
 7282SOL     OW33481   1.084   3.241   9.054 -0.0482 -0.1119  0.3974
 7282SOL    HW133482   1.019   3.272   8.990 -0.6650  0.3950  1.2820
 7282SOL    HW233483   1.149   3.302   9.020 -0.1578 -0.8398 -1.1332
 7283SOL     OW33484   2.050   3.221   3.027 -0.5290  0.3705 -0.1140
 7283SOL    HW133485   2.067   3.180   2.943 -1.5549  1.7153 -0.9812
 7283SOL    HW233486   2.088   3.155   3.085  0.1656  0.4696 -0.4617
 7284SOL     OW33487   3.218   0.769   1.859 -0.6985 -0.1839  0.0583
 7284SOL    HW133488   3.300   0.765   1.810 -1.0380 -5.3658 -0.0718
 7284SOL    HW233489   3.190   0.678   1.861  1.4589 -0.8371  0.5920
 7285SOL     OW33490   3.378   2.123   2.581 -0.2951 -0.1181 -0.5064
 7285SOL    HW133491   3.437   2.074   2.523  0.6239  0.3892 -0.0151
 7285SOL    HW233492   3.294   2.085   2.556 -0.5168  0.6434 -0.9005
 7286SOL     OW33493   4.094   3.054   1.687 -0.3130  0.6138  0.3105
 7286SOL    HW133494   4.158   3.009   1.742 -0.5471  0.6987  0.6460
 7286SOL    HW233495   4.141   3.104   1.620 -0.7251 -0.0162 -0.4536
 7287SOL     OW33496   1.555   4.633   8.467  0.2609 -0.7077  0.7889
 7287SOL    HW133497   1.608   4.570   8.417 -0.9468 -1.1978  0.1097
 7287SOL    HW233498   1.614   4.652   8.540 -0.6891  1.3395  1.0116
 7288SOL     OW33499   4.248   4.643   5.819 -0.4075  0.9042 -0.0492
 7288SOL    HW133500   4.275   4.706   5.752  2.8050  2.1806  2.4059
 7288SOL    HW233501   4.298   4.663   5.899 -1.0736 -0.8018  0.7850
 7289SOL     OW33502   4.240   3.580   6.924  1.0381  0.4732 -0.3478
 7289SOL    HW133503   4.234   3.585   7.019 -2.8701 -0.8523 -0.5165
 7289SOL    HW233504   4.304   3.513   6.900  1.3339  1.1200 -1.3719
 7290SOL     OW33505   4.221   4.276   2.029  0.1231 -0.5783 -0.0633
 7290SOL    HW133506   4.200   4.249   1.940 -0.7814  2.1178 -0.6765
 7290SOL    HW233507   4.291   4.340   2.014 -0.6715  0.4722  0.6652
 7291SOL     OW33508   1.705   0.818   6.024 -0.2239  0.0016 -0.0193
 7291SOL    HW133509   1.731   0.877   6.095 -1.7303 -1.3631  1.6722
 7291SOL    HW233510   1.772   0.750   6.020  0.3413  0.8010 -3.9589
 7292SOL     OW33511   3.122   2.669   9.053 -0.3110  0.0166 -0.1062
 7292SOL    HW133512   3.182   2.740   9.031  0.3431 -0.0510  1.4590
 7292SOL    HW233513   3.056   2.712   9.109  0.9872 -2.7147  3.5259
 7293SOL     OW33514   2.264   1.128   6.574  0.5626 -0.5419  0.4099
 7293SOL    HW133515   2.282   1.053   6.517 -0.0433 -0.7522  0.4856
 7293SOL    HW233516   2.168   1.134   6.579  0.6930  1.2610  0.5412
 7294SOL     OW33517   3.746   0.843  12.768 -0.1837  0.6062  0.2190
 7294SOL    HW133518   3.759   0.936  12.749  1.5459  0.0641 -1.2912
 7294SOL    HW233519   3.836   0.816  12.787 -1.3391 -1.7444  2.2249
 7295SOL     OW33520   1.439   3.057  10.166 -0.5821  0.4901  0.2301
 7295SOL    HW133521   1.404   2.968  10.163 -0.8613  0.5615  1.1623
 7295SOL    HW233522   1.425   3.075  10.259 -1.8513  0.3034  0.0722
 7296SOL     OW33523   3.340   2.280   3.751  0.0136 -0.1738  0.0169
 7296SOL    HW133524   3.422   2.244   3.718 -1.3200 -3.5277  0.3870
 7296SOL    HW233525   3.304   2.307   3.666 -1.8957  0.1085  0.9100
 7297SOL     OW33526   1.001   4.288  13.594 -0.3303  0.3022  0.1389
 7297SOL    HW133527   0.929   4.347  13.574 -0.1946 -0.8826 -3.8990
 7297SOL    HW233528   0.973   4.260  13.681  0.0020 -1.7747 -0.4222
 7298SOL     OW33529   3.201   1.714   2.636 -0.3456  0.4323  0.3993
 7298SOL    HW133530   3.117   1.690   2.597 -0.6446 -0.3338  1.4962
 7298SOL    HW233531   3.252   1.712   2.555  0.6974 -0.6221  1.0766
 7299SOL     OW33532   0.933   0.954   4.361  0.2304  0.2844 -0.1400
 7299SOL    HW133533   0.996   0.883   4.353  0.7531  0.8478 -0.9858
 7299SOL    HW233534   0.948   0.977   4.453 -0.0126  2.7979 -0.7427
 7300SOL     OW33535   2.834   1.203   7.164 -0.2183 -0.0026  0.0779
 7300SOL    HW133536   2.865   1.243   7.084 -0.6990  0.2339  0.0118
 7300SOL    HW233537   2.829   1.279   7.222  1.1239  2.2394 -2.8057
 7301SOL     OW33538   1.997   2.858   8.136  0.4238  0.5711 -0.1065
 7301SOL    HW133539   2.017   2.908   8.057  0.2605 -1.8412 -1.6903
 7301SOL    HW233540   1.947   2.920   8.189 -0.2534 -1.4940  1.6697
 7302SOL     OW33541   2.361   2.105   4.740 -0.0579 -0.5068  0.0767
 7302SOL    HW133542   2.319   2.191   4.728 -0.4160 -0.8279 -0.9846
 7302SOL    HW233543   2.338   2.061   4.658 -0.4408  0.0405 -0.1156
 7303SOL     OW33544   3.760   0.672  12.558  0.8384 -0.1109 -0.2147
 7303SOL    HW133545   3.822   0.645  12.626  0.4850 -0.8885 -0.1935
 7303SOL    HW233546   3.700   0.732  12.601  0.7027 -0.8713  0.6716
 7304SOL     OW33547   1.598   2.870   6.837 -0.0142 -0.5384  0.1163
 7304SOL    HW133548   1.560   2.936   6.780  1.7351  3.2920  3.4089
 7304SOL    HW233549   1.691   2.863   6.816 -0.0998 -0.8380 -0.1672
 7305SOL     OW33550   3.816   3.338   5.397 -0.3129  0.1435  0.5774
 7305SOL    HW133551   3.810   3.335   5.492  2.5490  0.6903  0.7742
 7305SOL    HW233552   3.811   3.243   5.389  1.6241  0.1105 -0.2022
 7306SOL     OW33553   3.325   2.689   3.134  0.1487  0.3700  0.3315
 7306SOL    HW133554   3.270   2.767   3.129  1.0808  0.9811 -0.5013
 7306SOL    HW233555   3.363   2.694   3.221 -0.5867 -1.2025  0.7405
 7307SOL     OW33556   4.720   1.765  17.635  0.1190 -0.4172 -0.1937
 7307SOL    HW133557   4.641   1.755  17.582 -0.5129  1.2654  0.4238
 7307SOL    HW233558   4.687   1.712  17.708  0.9151 -0.9807 -0.2434
 7308SOL     OW33559   1.326   2.102   3.680 -0.4931  0.0475 -0.4088
 7308SOL    HW133560   1.235   2.089   3.708 -0.1496  1.0241  1.1088
 7308SOL    HW233561   1.345   2.190   3.713 -0.3604  0.0578 -0.5135
 7309SOL     OW33562   3.021   0.725   7.146  0.4836 -0.6367  0.5390
 7309SOL    HW133563   3.009   0.633   7.170 -3.6814 -0.2096  0.0092
 7309SOL    HW233564   2.935   0.756   7.120  1.1110  0.4084 -0.3025
 7310SOL     OW33565   3.113   4.170   2.618 -0.1405  0.1712  0.1195
 7310SOL    HW133566   3.185   4.134   2.671 -0.0774  1.2930  0.7919
 7310SOL    HW233567   3.122   4.263   2.638 -0.3157  0.3852 -0.7962
 7311SOL     OW33568   3.513   1.328   7.262 -0.0970 -0.1560  0.2420
 7311SOL    HW133569   3.516   1.385   7.185 -1.2658  1.3810  1.3358
 7311SOL    HW233570   3.447   1.264   7.238 -1.1866  2.7195 -4.4195
 7312SOL     OW33571   4.205   3.178   3.571 -0.3731  0.0855  0.3912
 7312SOL    HW133572   4.135   3.115   3.585 -2.0833  1.6421 -1.2544
 7312SOL    HW233573   4.149   3.244   3.531  0.9322  0.7693 -0.3157
 7313SOL     OW33574   1.871   1.365  12.235 -0.2522  0.3215  0.7178
 7313SOL    HW133575   1.779   1.390  12.240 -0.6159 -0.9976  0.4583
 7313SOL    HW233576   1.904   1.453  12.216 -1.4712  0.8742  1.1798
 7314SOL     OW33577   2.125   0.039  13.708 -0.0673 -0.2875  0.6305
 7314SOL    HW133578   2.130   0.042  13.612 -1.8910 -1.9081  0.4918
 7314SOL    HW233579   2.133   4.684  13.728  1.1409 -0.3368 -0.0826
 7315SOL     OW33580   3.402   3.627   9.376 -0.0878  0.5570 -0.2928
 7315SOL    HW133581   3.491   3.656   9.358  0.2584 -0.9193 -0.8748
 7315SOL    HW233582   3.362   3.704   9.418 -0.1542 -0.1461  0.9187
 7316SOL     OW33583   3.227   0.462   2.180  0.3013  0.5539  0.2197
 7316SOL    HW133584   3.223   0.379   2.132 -0.3085 -0.0952  1.4099
 7316SOL    HW233585   3.143   0.497   2.151  0.7512  0.6580 -0.9684
 7317SOL     OW33586   2.477   4.054   0.623  0.2417  0.2152  0.1439
 7317SOL    HW133587   2.512   3.968   0.598 -0.2509  0.6506 -1.9863
 7317SOL    HW233588   2.442   4.076   0.537  0.9894  2.2661  0.3783
 7318SOL     OW33589   1.811   1.092  12.186  0.2753 -0.4984 -0.5231
 7318SOL    HW133590   1.860   1.056  12.260 -2.8040 -1.7066  0.9284
 7318SOL    HW233591   1.824   1.185  12.207 -1.2344 -0.8112  1.7836
 7319SOL     OW33592   4.160   4.357  14.811  0.2861  0.3708  0.0201
 7319SOL    HW133593   4.073   4.324  14.835  0.1354  1.1912  0.6303
 7319SOL    HW233594   4.156   4.453  14.814  1.5095  0.3915  1.4846
 7320SOL     OW33595   3.531   2.343  15.431  0.0523  0.2249 -0.0461
 7320SOL    HW133596   3.568   2.256  15.444 -0.6785 -0.1466 -0.4147
 7320SOL    HW233597   3.548   2.360  15.338  0.2508  1.8573  0.2961
 7321SOL     OW33598   4.624   1.872  14.323 -0.0704 -0.0393 -0.3320
 7321SOL    HW133599   4.544   1.821  14.336 -0.3797  0.2254 -1.1909
 7321SOL    HW233600   4.678   1.806  14.281  1.0323 -0.4044  1.6869
 7322SOL     OW33601   0.449   2.407   7.789  0.9552  0.1580  0.3961
 7322SOL    HW133602   0.422   2.317   7.805 -0.0685  0.3996  0.0506
 7322SOL    HW233603   0.542   2.408   7.810  0.3544  0.2662  2.9850
 7323SOL     OW33604   1.838   2.079   6.775 -0.2337  0.3441  0.4671
 7323SOL    HW133605   1.915   2.038   6.815  0.2462 -0.2916 -1.0952
 7323SOL    HW233606   1.770   2.070   6.842  0.7365 -0.9315  1.2783
 7324SOL     OW33607   4.193   4.494   9.923 -0.0112 -0.2997  0.3155
 7324SOL    HW133608   4.152   4.527  10.003 -0.9774  0.0417 -0.3132
 7324SOL    HW233609   4.274   4.456   9.956  0.0539 -0.0998  0.3852
 7325SOL     OW33610   3.705   0.603   5.501  0.4101 -0.4284  0.4361
 7325SOL    HW133611   3.726   0.664   5.430  0.5058 -0.7403  0.2015
 7325SOL    HW233612   3.709   0.669   5.571  5.3640  0.0085 -0.2111
 7326SOL     OW33613   1.125   0.183  14.055 -0.2436  0.2306  0.4225
 7326SOL    HW133614   1.118   0.276  14.036 -2.9337 -0.4819 -1.9666
 7326SOL    HW233615   1.213   0.164  14.022 -0.3951 -1.8915  1.2172
 7327SOL     OW33616   2.189   2.707   7.658 -0.1038  0.4137 -0.2921
 7327SOL    HW133617   2.161   2.717   7.567  0.0820 -0.0966 -0.3996
 7327SOL    HW233618   2.132   2.638   7.692 -0.3383  0.2465 -1.0313
 7328SOL     OW33619   3.253   3.972   8.772 -0.1027 -0.5055 -0.4443
 7328SOL    HW133620   3.276   3.960   8.864  0.6482  0.3672 -0.5150
 7328SOL    HW233621   3.169   3.926   8.767 -0.2140 -0.2924 -0.5635
 7329SOL     OW33622   1.659   3.581  15.509 -0.1284  0.3134  0.2766
 7329SOL    HW133623   1.704   3.496  15.512 -1.1735 -0.2957 -1.8032
 7329SOL    HW233624   1.618   3.573  15.423  0.1159  2.9880 -0.0880
 7330SOL     OW33625   2.122   0.649   6.174 -0.2381  0.0326  0.0308
 7330SOL    HW133626   2.126   0.691   6.088 -0.5429 -1.1781 -0.5641
 7330SOL    HW233627   2.210   0.667   6.208  1.1955 -1.3060 -2.9626
 7331SOL     OW33628   1.030   1.428  11.673 -0.8898 -0.0569 -0.0405
 7331SOL    HW133629   0.977   1.508  11.677 -0.4996  0.2876 -1.9476
 7331SOL    HW233630   0.965   1.367  11.638 -1.0051  0.5721 -0.9384
 7332SOL     OW33631   2.865   0.194   3.082  0.4427 -0.2069  0.0073
 7332SOL    HW133632   2.946   0.172   3.128  1.0683 -0.9714 -1.4719
 7332SOL    HW233633   2.882   0.287   3.068  2.0156 -0.4515  0.2462
 7333SOL     OW33634   0.930   3.037   9.680 -0.8916  0.3833  0.0961
 7333SOL    HW133635   0.985   2.965   9.648 -2.6802 -0.8206 -0.2481
 7333SOL    HW233636   0.991   3.077   9.742 -3.3411  2.7940  0.9095
 7334SOL     OW33637   1.504   4.131  13.697  0.5515 -0.5267 -0.0370
 7334SOL    HW133638   1.431   4.073  13.718  1.3214 -1.3249  0.4324
 7334SOL    HW233639   1.469   4.220  13.711 -0.1436 -0.7713 -0.2031
 7335SOL     OW33640   4.234   3.882   5.773  0.0547  0.0296  0.1775
 7335SOL    HW133641   4.313   3.840   5.738  0.4698  1.0262 -0.0878
 7335SOL    HW233642   4.289   3.949   5.814 -1.2162  1.3365 -0.2821
 7336SOL     OW33643   1.540   1.618   7.250 -0.3576  0.1187  0.3000
 7336SOL    HW133644   1.511   1.537   7.293  1.8899 -2.2842 -2.6637
 7336SOL    HW233645   1.456   1.661   7.234 -0.9706 -0.6027  1.5524
 7337SOL     OW33646   1.269   4.315   3.790 -0.0405 -0.5066  0.5754
 7337SOL    HW133647   1.340   4.262   3.827 -0.9963 -1.5456  0.9100
 7337SOL    HW233648   1.317   4.366   3.724 -0.1894  0.2237  1.0242
 7338SOL     OW33649   0.252   4.222   6.116 -0.1867 -0.3390  0.5082
 7338SOL    HW133650   0.232   4.130   6.096 -1.4401  0.1793 -0.5726
 7338SOL    HW233651   0.255   4.256   6.027  1.5678 -1.4886  0.1093
 7339SOL     OW33652   4.274   0.859   4.429 -0.3392  0.5482 -0.3993
 7339SOL    HW133653   4.277   0.857   4.525  1.6422  0.0941 -0.4538
 7339SOL    HW233654   4.361   0.820   4.418 -0.4673  0.0045  0.5381
 7340SOL     OW33655   0.471   2.283   3.313 -0.4827 -0.0670 -0.2114
 7340SOL    HW133656   0.385   2.319   3.334  0.7249  2.7556 -0.1272
 7340SOL    HW233657   0.509   2.295   3.401 -0.6439 -0.0711 -0.1411
 7341SOL     OW33658   0.517   2.428   5.576 -0.0259 -0.2146 -0.0790
 7341SOL    HW133659   0.470   2.459   5.499 -2.3515 -0.7098  1.1631
 7341SOL    HW233660   0.479   2.470   5.653  1.4952  1.0629 -0.0116
 7342SOL     OW33661   0.307   3.425   6.125  1.0656 -0.0051  0.1511
 7342SOL    HW133662   0.328   3.479   6.049  1.3673  0.5272  0.6117
 7342SOL    HW233663   0.238   3.472   6.171 -0.4852  0.1968 -2.4036
 7343SOL     OW33664   0.291   1.995   2.936 -0.0472  0.5442 -0.2572
 7343SOL    HW133665   0.299   1.983   3.031 -0.5013 -0.7401 -0.3796
 7343SOL    HW233666   0.279   2.089   2.923 -0.1821  0.7315  1.2088
 7344SOL     OW33667   1.070   3.287   5.840  0.1001 -0.4612  0.1102
 7344SOL    HW133668   1.108   3.358   5.892  1.0614 -0.3713 -0.7140
 7344SOL    HW233669   1.105   3.209   5.885  2.2119 -0.0934 -0.9092
 7345SOL     OW33670   3.288   0.391   5.221  0.2852 -0.0434  0.1760
 7345SOL    HW133671   3.345   0.360   5.151  0.2258  0.8428 -0.2725
 7345SOL    HW233672   3.353   0.443   5.270 -0.3280 -1.1117  2.1224
 7346SOL     OW33673   0.674   2.880  12.098 -0.0895  0.1288 -0.4118
 7346SOL    HW133674   0.634   2.799  12.129 -1.6827  0.9346 -0.3159
 7346SOL    HW233675   0.611   2.952  12.110 -0.9113 -0.4981 -0.9744
 7347SOL     OW33676   1.373   2.886  12.799  0.0504 -0.6853  0.5074
 7347SOL    HW133677   1.394   2.922  12.885  0.7318 -2.0182  0.8969
 7347SOL    HW233678   1.433   2.812  12.797 -1.1714 -1.6674  0.1426
 7348SOL     OW33679   0.560   1.496   4.133 -0.4406 -0.5741 -0.7642
 7348SOL    HW133680   0.589   1.415   4.091 -0.6192 -0.7209 -0.6077
 7348SOL    HW233681   0.617   1.555   4.085  0.0614 -2.6212 -2.6947
 7349SOL     OW33682   1.329   1.917   0.746  0.9068 -0.2503  0.4338
 7349SOL    HW133683   1.353   1.988   0.806 -1.8356  1.4455 -0.4746
 7349SOL    HW233684   1.380   1.929   0.666 -0.1527  0.9774 -0.0590
 7350SOL     OW33685   0.624   0.669   1.849 -0.0644  0.8580 -0.6641
 7350SOL    HW133686   0.571   0.741   1.881  1.2007  1.3132  0.3833
 7350SOL    HW233687   0.582   0.599   1.899 -1.6039  1.6734 -0.8177
 7351SOL     OW33688   1.191   4.650   6.361  0.2934 -0.3642 -0.5033
 7351SOL    HW133689   1.181   4.556   6.349  2.0673 -0.9790  2.8559
 7351SOL    HW233690   1.192   4.665   6.456  0.8691  1.3854 -0.7910
 7352SOL     OW33691   4.266   4.371   9.384 -0.0047  0.0014 -0.5549
 7352SOL    HW133692   4.260   4.400   9.475  1.2712 -0.6063 -0.2824
 7352SOL    HW233693   4.216   4.289   9.379 -0.7769  0.3640  1.4794
 7353SOL     OW33694   2.431   0.790   1.979 -0.1455 -0.1513 -0.0621
 7353SOL    HW133695   2.382   0.765   1.901  0.5102 -1.9681  0.1224
 7353SOL    HW233696   2.423   0.883   1.956 -0.1298  0.1030  0.9303
 7354SOL     OW33697   3.367   3.476   6.849  0.2918 -0.4514  0.0760
 7354SOL    HW133698   3.292   3.465   6.907  0.7599 -0.3400  0.7006
 7354SOL    HW233699   3.434   3.461   6.915  0.2813  2.3217  0.7305
 7355SOL     OW33700   1.663   0.431   5.418 -0.1774  0.5018 -0.4573
 7355SOL    HW133701   1.570   0.424   5.441 -0.1047  2.0198  0.3156
 7355SOL    HW233702   1.652   0.371   5.344 -0.8543  1.8821 -1.4837
 7356SOL     OW33703   0.821   1.581   5.695  0.4347 -0.7795  0.6858
 7356SOL    HW133704   0.776   1.497   5.693 -2.1135  0.6028  0.9810
 7356SOL    HW233705   0.827   1.596   5.600 -1.7146 -0.6772  0.5767
 7357SOL     OW33706   4.466   0.178   6.976 -0.5622  0.1773  0.0745
 7357SOL    HW133707   4.490   0.212   7.063  1.9083 -0.0245 -0.5225
 7357SOL    HW233708   4.460   0.083   6.981 -0.0467  0.2358  1.8827
 7358SOL     OW33709   3.207   1.237   1.675  0.5048 -0.1435 -0.6092
 7358SOL    HW133710   3.135   1.192   1.719 -1.2725  0.2126 -3.1824
 7358SOL    HW233711   3.230   1.299   1.745  2.7756 -1.2725 -0.3650
 7359SOL     OW33712   1.180   1.242   7.968 -0.3746 -0.0624  0.0970
 7359SOL    HW133713   1.267   1.237   8.009 -0.8467 -3.5344  0.6568
 7359SOL    HW233714   1.150   1.152   7.980  1.0950 -0.6107 -0.3442
 7360SOL     OW33715   2.491   3.667  15.650  0.0027  0.4870  0.4565
 7360SOL    HW133716   2.463   3.580  15.622 -0.9985  0.7715  0.5421
 7360SOL    HW233717   2.578   3.645  15.683 -0.0237 -0.7269 -0.2912
 7361SOL     OW33718   0.754   0.594   4.438 -0.2244  0.1655  0.2563
 7361SOL    HW133719   0.767   0.532   4.366 -0.6978  0.1814  0.1557
 7361SOL    HW233720   0.705   0.662   4.392 -0.0958 -0.3459 -0.6378
 7362SOL     OW33721   3.440   2.524   9.607  0.5618  0.0202  0.1957
 7362SOL    HW133722   3.401   2.551   9.524  1.0731 -0.1978 -0.1107
 7362SOL    HW233723   3.367   2.530   9.669 -0.9142 -0.4354 -1.4818
 7363SOL     OW33724   2.910   4.639   4.334 -0.0161  0.8203 -0.1827
 7363SOL    HW133725   2.871   4.726   4.332  3.0210  2.1638 -0.6199
 7363SOL    HW233726   2.967   4.633   4.257  0.0246 -0.3689 -0.0616
 7364SOL     OW33727   4.308   2.044   3.850  0.6355  0.1930  0.3891
 7364SOL    HW133728   4.216   2.069   3.854  0.3669 -0.8842  1.0176
 7364SOL    HW233729   4.329   2.076   3.762  0.9790 -0.4882  0.2209
 7365SOL     OW33730   0.427   3.562  16.608 -0.4499 -0.2656  0.7559
 7365SOL    HW133731   0.345   3.605  16.583  0.0746  0.6528  0.5964
 7365SOL    HW233732   0.483   3.633  16.576 -0.6427  0.0213  1.0599
 7366SOL     OW33733   1.282   4.289   5.129 -0.0465 -0.0300  0.3071
 7366SOL    HW133734   1.285   4.263   5.221  0.1231 -0.0667  0.2898
 7366SOL    HW233735   1.276   4.199   5.096 -1.7780  0.3697 -0.5160
 7367SOL     OW33736   3.768   1.482   6.185 -0.1174 -0.0898  0.2651
 7367SOL    HW133737   3.706   1.443   6.246 -1.3272 -0.2528 -1.0782
 7367SOL    HW233738   3.850   1.479   6.234  2.0667 -0.5433 -3.4889
 7368SOL     OW33739   2.374   3.438   7.612 -0.1928  0.0939 -0.0980
 7368SOL    HW133740   2.320   3.381   7.667 -0.6468  0.8982  0.2791
 7368SOL    HW233741   2.450   3.379   7.608  0.0733  0.5675 -2.3154
 7369SOL     OW33742   1.016   0.546  11.915 -0.4894 -0.1994 -0.6358
 7369SOL    HW133743   0.962   0.512  11.844  1.6761 -2.1753 -1.3304
 7369SOL    HW233744   1.048   0.629  11.878  2.4454 -1.3904 -0.7524
 7370SOL     OW33745   1.441   1.876   6.717  0.3884  0.4975  0.1540
 7370SOL    HW133746   1.426   1.855   6.809 -1.4125  1.4790  0.0953
 7370SOL    HW233747   1.361   1.845   6.674  1.3824 -3.0440  0.9093
 7371SOL     OW33748   0.893   3.615   2.105 -0.3869 -0.1023 -0.1222
 7371SOL    HW133749   0.909   3.682   2.039  0.7095  1.1302  1.3954
 7371SOL    HW233750   0.827   3.558   2.065  0.0443 -0.7886  0.1500
 7372SOL     OW33751   4.387   2.857   7.726 -0.2029  0.0225 -0.1259
 7372SOL    HW133752   4.368   2.773   7.768 -0.3035  0.9994  1.7914
 7372SOL    HW233753   4.402   2.914   7.802  1.4022 -1.6208  0.7836
 7373SOL     OW33754   4.518   0.388   4.208 -0.1989  0.0816  0.0791
 7373SOL    HW133755   4.587   0.368   4.271  0.7700  0.5623 -0.8215
 7373SOL    HW233756   4.485   0.462   4.260  1.6416  0.9497  0.0110
 7374SOL     OW33757   1.509   1.145   0.544  0.0542  0.0641  0.1048
 7374SOL    HW133758   1.493   1.238   0.534 -2.0887 -0.5897 -2.4192
 7374SOL    HW233759   1.567   1.136   0.620 -0.1045  0.0969  0.2281
 7375SOL     OW33760   4.560   1.560   7.093  0.4418  0.1981  0.1846
 7375SOL    HW133761   4.578   1.479   7.046 -0.9931  1.1543 -2.0471
 7375SOL    HW233762   4.515   1.529   7.172  0.5414 -1.0546 -0.2517
 7376SOL     OW33763   0.140   2.745   5.728 -0.0397  0.1663  0.2068
 7376SOL    HW133764   0.082   2.686   5.681  2.3123 -0.1083 -2.3816
 7376SOL    HW233765   0.225   2.703   5.713 -0.1447 -0.6992  1.9993
 7377SOL     OW33766   0.039   1.627  12.459 -0.1898  0.1331 -0.6783
 7377SOL    HW133767   0.017   1.547  12.506  1.2257 -0.5299 -1.1347
 7377SOL    HW233768   0.006   1.695  12.517  2.4206 -1.9342  3.2323
 7378SOL     OW33769   3.570   2.426   9.174 -0.2256 -0.2514  0.3810
 7378SOL    HW133770   3.520   2.352   9.139 -0.4291  0.4397 -0.8018
 7378SOL    HW233771   3.581   2.477   9.094  0.5359  0.8601  1.1944
 7379SOL     OW33772   0.398   3.992   1.783  0.2115  0.2281 -0.2041
 7379SOL    HW133773   0.324   3.979   1.725 -0.6735 -1.5880  1.3511
 7379SOL    HW233774   0.470   4.022   1.727  1.5746 -0.8962  0.9254
 7380SOL     OW33775   1.569   4.074   5.662  0.3480  0.2194  0.4313
 7380SOL    HW133776   1.559   4.026   5.580 -2.3714  2.3084 -0.4210
 7380SOL    HW233777   1.631   4.144   5.640  0.7799 -0.6096 -1.0004
 7381SOL     OW33778   2.017   0.983   4.259 -0.5478  0.2817  0.7483
 7381SOL    HW133779   2.073   0.905   4.248  0.3944  1.0085  0.3490
 7381SOL    HW233780   1.937   0.948   4.219 -0.1678  2.0624 -1.5687
 7382SOL     OW33781   3.792   1.898   2.931 -0.0480 -0.2775  0.2340
 7382SOL    HW133782   3.734   1.924   3.003 -1.1055  1.4695 -1.2617
 7382SOL    HW233783   3.727   1.892   2.861 -0.2889  2.2581  0.2311
 7383SOL     OW33784   3.511   1.339  17.222  0.0475 -0.5812 -0.4076
 7383SOL    HW133785   3.437   1.390  17.190  0.6183  1.7642  1.9989
 7383SOL    HW233786   3.467   1.297  17.296  1.0671 -0.5547  0.2246
 7384SOL     OW33787   1.352   4.149   4.731  0.3212  0.2020 -0.1510
 7384SOL    HW133788   1.401   4.152   4.814  1.1187  1.5176 -0.6685
 7384SOL    HW233789   1.421   4.132   4.667 -1.2348  0.0114 -1.7756
 7385SOL     OW33790   2.230   4.370  10.577 -0.4037 -0.7382 -0.1172
 7385SOL    HW133791   2.261   4.322  10.653  1.8742  1.5789  0.3969
 7385SOL    HW233792   2.139   4.391  10.598  0.8704  0.6420  3.9669
 7386SOL     OW33793   3.184   0.187   1.167 -0.3504  0.2718 -0.8800
 7386SOL    HW133794   3.106   0.221   1.213  0.3109  1.1118 -0.3782
 7386SOL    HW233795   3.208   0.112   1.221  2.9892 -0.2278 -3.0776
 7387SOL     OW33796   0.222   4.580   5.528 -0.0128 -0.2636 -0.6252
 7387SOL    HW133797   0.127   4.585   5.518 -0.0933  0.8254  0.6355
 7387SOL    HW233798   0.230   4.490   5.560  1.5514  0.2505  0.4221
 7388SOL     OW33799   1.300   3.797   3.001 -0.2277  0.1612  0.0454
 7388SOL    HW133800   1.282   3.708   3.031  0.7842  0.3699  1.2807
 7388SOL    HW233801   1.232   3.848   3.046 -0.4115 -1.6992  1.8430
 7389SOL     OW33802   4.488   2.228   4.252 -1.4482  0.5395  0.5377
 7389SOL    HW133803   4.414   2.264   4.204 -1.1088 -0.4033 -0.6764
 7389SOL    HW233804   4.561   2.241   4.192 -2.7760  0.6584 -1.0273
 7390SOL     OW33805   0.597   3.487   5.710 -0.1617 -0.6251  0.3974
 7390SOL    HW133806   0.572   3.429   5.782  1.1641 -1.1096  0.4667
 7390SOL    HW233807   0.690   3.487   5.735 -0.4424  0.7246  1.4696
 7391SOL     OW33808   3.848   4.111  11.376  0.1073 -0.3494 -0.0020
 7391SOL    HW133809   3.838   4.065  11.292 -0.8674 -0.2358  0.0484
 7391SOL    HW233810   3.939   4.139  11.375  0.3440 -1.1416 -0.6852
 7392SOL     OW33811   3.909   2.948   6.559 -0.5205  0.8476 -0.1326
 7392SOL    HW133812   3.898   2.911   6.471  0.0144  0.7012 -0.1409
 7392SOL    HW233813   3.959   2.868   6.580 -0.6386  1.0631  0.9399
 7393SOL     OW33814   0.165   0.939   6.332 -0.6273 -0.0200 -0.2933
 7393SOL    HW133815   0.150   0.922   6.239  0.2084 -2.4047  0.0186
 7393SOL    HW233816   0.218   0.866   6.362 -2.3923 -0.2110  2.3316
 7394SOL     OW33817   0.134   4.734   0.642  0.3512  0.3242  0.1366
 7394SOL    HW133818   0.202   0.038   0.590  0.2168  0.0826 -0.2378
 7394SOL    HW233819   0.164   4.644   0.628 -2.6696  0.0007 -4.3787
 7395SOL     OW33820   0.779   0.018   7.486 -0.1498  0.3953 -0.2268
 7395SOL    HW133821   0.709   0.005   7.549 -0.5786  1.3895 -0.4983
 7395SOL    HW233822   0.756   0.107   7.460 -1.2709  0.1458 -0.0935
 7396SOL     OW33823   3.073   4.166   8.650 -0.8569 -0.2853  0.2490
 7396SOL    HW133824   3.104   4.145   8.738  0.6682 -2.1905 -0.7386
 7396SOL    HW233825   2.983   4.193   8.666 -0.4512  0.9828  0.3928
 7397SOL     OW33826   3.215   4.351   5.737  0.1890  0.0482 -0.5644
 7397SOL    HW133827   3.176   4.394   5.813  0.4879 -0.3464 -0.1916
 7397SOL    HW233828   3.205   4.257   5.749 -0.7159  0.2817  0.4833
 7398SOL     OW33829   3.202   2.633   5.690 -0.2056  0.6881  0.0801
 7398SOL    HW133830   3.246   2.701   5.639  2.7072 -0.3827  1.1721
 7398SOL    HW233831   3.115   2.624   5.650  0.1824  2.3454 -1.1298
 7399SOL     OW33832   1.865   0.070  14.333 -0.0922  0.1228 -0.0552
 7399SOL    HW133833   1.886   0.007  14.402 -1.2749  0.6006  0.7351
 7399SOL    HW233834   1.770   0.057  14.342 -0.1723  0.7199 -0.0612
 7400SOL     OW33835   4.673   1.213   6.355 -0.0451  0.4554  0.4461
 7400SOL    HW133836   0.023   1.180   6.340  0.1331  0.9868  0.3390
 7400SOL    HW233837   4.687   1.282   6.419 -1.4090  0.3336  0.8703
 7401SOL     OW33838   0.922   0.463   2.790 -0.0037 -0.7162 -0.9142
 7401SOL    HW133839   0.954   0.375   2.772  0.0390 -0.5114 -1.8607
 7401SOL    HW233840   0.869   0.447   2.867  1.2234  1.3067  0.3612
 7402SOL     OW33841   3.356   2.122   6.373  0.9275  0.4082  0.0348
 7402SOL    HW133842   3.334   2.212   6.350 -1.7966 -0.6540 -1.4451
 7402SOL    HW233843   3.409   2.086   6.302  0.0749 -0.5893 -0.0984
 7403SOL     OW33844   1.681   4.280   6.251  1.0757 -0.2048 -0.0665
 7403SOL    HW133845   1.616   4.336   6.294  1.1696  1.4962 -2.1868
 7403SOL    HW233846   1.660   4.293   6.159  0.6954  0.3206  0.0909
 7404SOL     OW33847   2.737   2.461  17.060 -0.4978 -0.5901  0.4035
 7404SOL    HW133848   2.711   2.428  17.146 -0.9243 -0.5071  0.3065
 7404SOL    HW233849   2.809   2.403  17.035 -0.7398 -1.1848  1.0714
 7405SOL     OW33850   2.766   3.313   3.826  0.4506  0.4873 -0.7239
 7405SOL    HW133851   2.774   3.231   3.777 -1.1301 -1.0263  1.5584
 7405SOL    HW233852   2.725   3.270   3.901  0.4419  1.3842 -0.2199
 7406SOL     OW33853   4.388   4.245   4.287 -0.5815 -0.2276 -0.0097
 7406SOL    HW133854   4.377   4.237   4.381  0.0997 -0.9635 -0.0004
 7406SOL    HW233855   4.297   4.268   4.266 -0.2114  1.9105  0.6570
 7407SOL     OW33856   1.475   0.100  16.285 -0.0239  0.1939  0.3085
 7407SOL    HW133857   1.491   0.192  16.306 -0.7449  0.8159 -1.8752
 7407SOL    HW233858   1.380   0.098  16.273  0.0575  2.4595 -0.6291
 7408SOL     OW33859   1.813   1.729   5.966  0.7375 -0.2439  0.2181
 7408SOL    HW133860   1.786   1.714   5.875  0.5181  3.7325 -0.3926
 7408SOL    HW233861   1.786   1.650   6.013  0.6018 -0.3399 -0.0188
 7409SOL     OW33862   4.489   1.360   5.936 -0.1079  0.2309 -0.2326
 7409SOL    HW133863   4.409   1.342   5.887 -0.8027  3.1386 -0.2019
 7409SOL    HW233864   4.543   1.302   5.884  0.3403 -0.0226  0.5200
 7410SOL     OW33865   1.616   3.279  13.159  0.2133  0.0182 -0.0257
 7410SOL    HW133866   1.672   3.207  13.129  2.0205  0.6155  1.9620
 7410SOL    HW233867   1.538   3.266  13.104 -0.7045  0.7540  1.1079
 7411SOL     OW33868   1.557   1.903   7.099  0.1926  0.3367 -0.4848
 7411SOL    HW133869   1.549   1.971   7.032  2.2322 -1.4151 -2.5146
 7411SOL    HW233870   1.511   1.827   7.061 -2.2890  1.4137  0.3507
 7412SOL     OW33871   2.623   4.399  17.388  0.2873 -0.5441 -0.1438
 7412SOL    HW133872   2.715   4.398  17.414 -0.0715  0.5249  1.1928
 7412SOL    HW233873   2.614   4.320  17.335 -0.0064 -0.4742 -0.1965
 7413SOL     OW33874   2.388   1.140  16.830 -0.1308  0.1492  0.3090
 7413SOL    HW133875   2.370   1.124  16.737  0.5353  2.7260 -0.2563
 7413SOL    HW233876   2.307   1.104  16.867 -0.2924 -2.1999 -2.2575
 7414SOL     OW33877   0.184   4.574   9.522  0.0501  0.0403 -0.1935
 7414SOL    HW133878   0.168   4.484   9.551  0.5715 -0.7532 -2.3635
 7414SOL    HW233879   0.103   4.613   9.555 -0.3611 -2.5542  1.8854
 7415SOL     OW33880   0.454   0.715   4.167  0.2743 -0.3771  1.0961
 7415SOL    HW133881   0.440   0.632   4.211 -1.9246 -1.0013 -0.7983
 7415SOL    HW233882   0.546   0.729   4.190  1.3157 -1.3297 -2.4673
 7416SOL     OW33883   3.140   1.737   1.823  0.2376 -0.1841 -0.4263
 7416SOL    HW133884   3.116   1.662   1.878  2.9600 -1.8782 -1.5039
 7416SOL    HW233885   3.086   1.720   1.746  0.2409  1.2790 -0.7349
 7417SOL     OW33886   3.251   2.911   3.421  0.2161 -0.2972 -0.7657
 7417SOL    HW133887   3.206   2.836   3.459  0.0396 -1.0949 -2.5541
 7417SOL    HW233888   3.316   2.860   3.373  0.3664 -0.0508 -0.8266
 7418SOL     OW33889   3.755   1.234   6.359 -0.2947 -0.2494  0.1238
 7418SOL    HW133890   3.829   1.234   6.420 -0.4322  0.3282  0.2903
 7418SOL    HW233891   3.697   1.302   6.394  1.5122  1.4184 -0.0841
 7419SOL     OW33892   0.851   1.770  10.246 -0.4370  0.3733  0.4445
 7419SOL    HW133893   0.859   1.765  10.151  1.9213 -1.7879  0.7587
 7419SOL    HW233894   0.825   1.679  10.256  1.0984  0.1958  2.8496
 7420SOL     OW33895   2.273   1.676  17.322 -0.4138 -0.5977 -0.2554
 7420SOL    HW133896   2.188   1.639  17.346  1.1345 -2.2736  2.5268
 7420SOL    HW233897   2.274   1.659  17.227 -0.7592 -0.1103 -0.3490
 7421SOL     OW33898   0.528   0.629   3.886  0.4068  0.3470 -0.0546
 7421SOL    HW133899   0.573   0.699   3.838 -0.3180  1.0112  0.2430
 7421SOL    HW233900   0.477   0.678   3.950 -0.6592 -1.3415  0.3892
 7422SOL     OW33901   1.243   4.729   7.382  0.4049 -0.7972 -0.0381
 7422SOL    HW133902   1.148   4.724   7.368  0.2324 -0.3382  0.9863
 7422SOL    HW233903   1.250   4.711   7.476 -0.5984 -1.6779 -0.1243
 7423SOL     OW33904   0.399   1.306  13.820 -0.2608 -0.5450  0.3679
 7423SOL    HW133905   0.485   1.303  13.779 -0.5106 -3.7651  0.1180
 7423SOL    HW233906   0.416   1.268  13.906 -1.2964 -1.4742  0.1587
 7424SOL     OW33907   3.804   2.360  11.074  0.5268  0.1054  0.6775
 7424SOL    HW133908   3.739   2.296  11.102  0.2908 -0.0301 -0.1762
 7424SOL    HW233909   3.775   2.429  11.133  1.2084  0.8760  0.1158
 7425SOL     OW33910   3.971   4.433   4.752 -0.2665 -0.4739  0.3442
 7425SOL    HW133911   3.949   4.355   4.802 -0.3300 -0.4025  0.4275
 7425SOL    HW233912   3.882   4.469   4.752 -0.0900 -0.0425 -1.9485
 7426SOL     OW33913   0.590   3.020   1.943 -0.1185 -0.1732 -0.1738
 7426SOL    HW133914   0.651   3.045   1.873  0.8116 -1.2822  0.2355
 7426SOL    HW233915   0.550   2.939   1.911 -0.7884  0.3480 -0.6480
 7427SOL     OW33916   0.329   4.340  10.385  0.4733  0.2118 -0.8410
 7427SOL    HW133917   0.406   4.286  10.372 -0.4923 -1.1492 -0.9547
 7427SOL    HW233918   0.362   4.413  10.438 -2.7715  0.4576  0.8770
 7428SOL     OW33919   4.729   2.738  15.038 -0.0904 -0.1855 -0.6183
 7428SOL    HW133920   0.081   2.726  15.067  0.0385  0.0671 -0.9142
 7428SOL    HW233921   4.739   2.698  14.952 -1.5330 -0.0440 -0.8474
 7429SOL     OW33922   3.549   0.780  16.002 -0.2646  0.1909  0.3500
 7429SOL    HW133923   3.564   0.747  16.091 -0.2708 -1.2457 -0.1860
 7429SOL    HW233924   3.637   0.799  15.972  0.3233 -0.0982  1.8849
 7430SOL     OW33925   1.299   3.585   3.343 -0.0425 -0.0285 -0.2685
 7430SOL    HW133926   1.386   3.613   3.374  1.2360 -2.2737 -1.8263
 7430SOL    HW233927   1.303   3.490   3.355  2.6848  0.3912  2.2164
 7431SOL     OW33928   1.658   3.040  11.073 -0.2606  0.0158  0.0752
 7431SOL    HW133929   1.701   3.121  11.045  0.8743 -0.6300 -0.0554
 7431SOL    HW233930   1.566   3.039  11.049  0.2722  0.1062 -1.9942
 7432SOL     OW33931   0.486   4.082  15.292  0.4305 -0.0969 -0.0014
 7432SOL    HW133932   0.550   4.015  15.314  0.3120  0.1818  1.2051
 7432SOL    HW233933   0.542   4.158  15.275 -0.1417  0.5544  1.0183
 7433SOL     OW33934   2.959   2.220   5.843  0.5092  0.1557  0.3605
 7433SOL    HW133935   3.048   2.225   5.807 -0.4425 -1.6295 -2.3181
 7433SOL    HW233936   2.954   2.303   5.890  1.0027 -0.6771  1.8786
 7434SOL     OW33937   2.285   1.307   6.856 -0.2178 -0.0139  0.4014
 7434SOL    HW133938   2.367   1.276   6.819 -0.1949  0.3445  0.1463
 7434SOL    HW233939   2.258   1.223   6.893  2.2118  0.5453  3.4564
 7435SOL     OW33940   3.428   4.617  11.097  0.2906  0.2953  0.4906
 7435SOL    HW133941   3.455   4.672  11.024  1.9754  1.3958  1.9493
 7435SOL    HW233942   3.512   4.584  11.129  0.6222 -0.1845 -0.8630
 7436SOL     OW33943   3.732   1.714   2.460  0.3521  0.1247 -0.9943
 7436SOL    HW133944   3.789   1.642   2.432 -1.6571 -1.5955 -0.6191
 7436SOL    HW233945   3.794   1.787   2.466 -0.6281  0.9656 -0.9411
 7437SOL     OW33946   2.841   3.549  14.381 -0.3720 -0.2640 -0.6806
 7437SOL    HW133947   2.798   3.532  14.464  2.3901 -0.5470  0.6780
 7437SOL    HW233948   2.802   3.479  14.328 -3.2688  0.1323  0.9125
 7438SOL     OW33949   4.470   4.607  17.688  0.2747  0.3055  0.1458
 7438SOL    HW133950   4.417   4.620   0.014 -0.3891 -0.2509 -0.2069
 7438SOL    HW233951   4.444   4.682  17.635  0.8720  0.0139 -0.5702
 7439SOL     OW33952   0.547   1.999   4.052 -0.3038  0.5304  0.1268
 7439SOL    HW133953   0.479   2.062   4.078 -1.6963 -0.9547  0.0553
 7439SOL    HW233954   0.575   2.062   3.985 -0.9378  1.6968  0.9513
 7440SOL     OW33955   2.092   1.231   9.048  0.5700 -0.6944 -0.6517
 7440SOL    HW133956   2.088   1.298   9.116  0.6055 -1.0730 -0.2714
 7440SOL    HW233957   2.185   1.243   9.026  1.3497 -0.6796  2.6258
 7441SOL     OW33958   3.296   3.659   7.551  0.3925  0.5051 -0.1110
 7441SOL    HW133959   3.380   3.631   7.587 -0.1784 -0.9848  0.0810
 7441SOL    HW233960   3.309   3.751   7.573  3.3267  0.0095  0.2584
 7442SOL     OW33961   1.496   0.516   3.094 -0.0648  0.3638  0.0599
 7442SOL    HW133962   1.557   0.445   3.073 -0.4381  1.1892 -3.8416
 7442SOL    HW233963   1.521   0.581   3.028 -0.6684  0.9348  0.3935
 7443SOL     OW33964   0.692   1.396   8.503 -0.1398  0.6129  0.3430
 7443SOL    HW133965   0.598   1.408   8.492 -0.0070 -0.9746 -2.3706
 7443SOL    HW233966   0.719   1.486   8.521  1.6841  0.1288 -0.0114
 7444SOL     OW33967   2.724   2.419   8.948  0.3947 -0.1851  0.3943
 7444SOL    HW133968   2.805   2.371   8.962  1.9176  2.4660  0.6960
 7444SOL    HW233969   2.660   2.370   9.000 -0.6225  0.9668  0.2401
 7445SOL     OW33970   4.723   1.378   9.186 -0.2427  0.4469 -0.1752
 7445SOL    HW133971   0.011   1.289   9.162 -0.2017  0.8538 -1.6365
 7445SOL    HW233972   4.633   1.366   9.217  0.2456  2.7962  2.1108
 7446SOL     OW33973   3.721   1.039   3.521 -0.2880 -0.1780 -0.6889
 7446SOL    HW133974   3.754   1.020   3.433 -1.3385  1.1841 -1.3559
 7446SOL    HW233975   3.707   1.133   3.515  0.2657 -0.1141 -0.9932
 7447SOL     OW33976   4.048   1.047   5.647  0.2285 -0.4520 -0.0867
 7447SOL    HW133977   4.144   1.055   5.643  0.1021  0.5916 -0.9396
 7447SOL    HW233978   4.032   1.083   5.734 -1.4234  0.8405 -0.9317
 7448SOL     OW33979   2.136   3.646  17.180  0.2379  0.2164 -0.2979
 7448SOL    HW133980   2.095   3.703  17.245  2.0726 -0.2561  1.2341
 7448SOL    HW233981   2.181   3.713  17.128  0.5849  1.3685  1.5056
 7449SOL     OW33982   0.160   3.090   0.565 -0.1943  0.1502  0.9297
 7449SOL    HW133983   0.087   3.151   0.570 -1.3832 -1.2306  0.5248
 7449SOL    HW233984   0.117   3.010   0.535 -0.7777  0.6264  0.4899
 7450SOL     OW33985   3.803   0.930   4.420  0.2735 -0.1133  0.1632
 7450SOL    HW133986   3.757   0.991   4.363 -0.8276 -1.3723 -0.2761
 7450SOL    HW233987   3.854   0.880   4.356 -0.9654 -1.5765  0.3351
 7451SOL     OW33988   3.871   1.342   3.414 -0.1217 -0.0644 -0.0417
 7451SOL    HW133989   3.782   1.318   3.387 -0.6036  0.0159  1.4927
 7451SOL    HW233990   3.871   1.350   3.509  2.3174  2.3075 -0.2659
 7452SOL     OW33991   1.779   3.987   3.138  0.6255  0.4030 -0.8470
 7452SOL    HW133992   1.707   3.926   3.119  0.1490  0.2663  1.4118
 7452SOL    HW233993   1.793   3.981   3.232  1.5671  0.8187 -0.9632
 7453SOL     OW33994   2.070   2.459   2.563 -1.0999 -0.2694  0.1744
 7453SOL    HW133995   2.045   2.544   2.599 -1.2021 -1.0740  2.0242
 7453SOL    HW233996   2.009   2.397   2.604 -0.6565 -1.7046 -1.3310
 7454SOL     OW33997   2.709   4.473   4.266  0.0746  0.2913 -0.0946
 7454SOL    HW133998   2.627   4.515   4.241 -0.3459 -0.4026  0.1195
 7454SOL    HW233999   2.769   4.547   4.278  1.5098 -0.8752 -0.0390
 7455SOL     OW34000   3.325   1.612   6.427 -0.2449  0.7452 -0.4283
 7455SOL    HW134001   3.255   1.666   6.464  0.7871  0.0790  2.4489
 7455SOL    HW234002   3.299   1.530   6.469 -0.3405 -0.2220 -2.3444
 7456SOL     OW34003   4.500   2.330   6.994 -0.2030  0.0346 -0.3023
 7456SOL    HW134004   4.582   2.302   7.035 -0.6453 -2.3461 -0.9951
 7456SOL    HW234005   4.446   2.365   7.065 -1.7510  1.0447 -1.9831
 7457SOL     OW34006   4.652   1.755   2.721 -0.4153  0.0370 -0.8010
 7457SOL    HW134007   4.606   1.695   2.780 -0.0414 -0.3234 -0.8802
 7457SOL    HW234008   4.623   1.842   2.748  1.5270 -0.5109  2.9954
 7458SOL     OW34009   4.659   1.601   6.295  0.0417  0.1426  0.3946
 7458SOL    HW134010   4.713   1.644   6.361 -0.0661 -0.1367  0.6633
 7458SOL    HW234011   4.642   1.682   6.247 -0.2183 -0.1504 -0.0136
 7459SOL     OW34012   1.020   1.284   2.724  0.2128  0.0286 -0.3839
 7459SOL    HW134013   1.027   1.189   2.713 -0.7933  0.2359 -2.8108
 7459SOL    HW234014   1.107   1.323   2.731 -0.6441  1.5972  1.4190
 7460SOL     OW34015   4.082   0.823   6.969 -0.4224 -0.6042 -0.2098
 7460SOL    HW134016   4.008   0.763   6.976  0.0466 -1.0309  1.1142
 7460SOL    HW234017   4.041   0.887   6.911 -1.5544  0.6390  1.9476
 7461SOL     OW34018   4.470   3.237   0.763 -0.2628 -0.5728  0.1878
 7461SOL    HW134019   4.545   3.295   0.778 -1.2996  0.9677 -0.6298
 7461SOL    HW234020   4.431   3.234   0.851  1.5762  1.3558  1.0914
 7462SOL     OW34021   2.705   4.287   0.847  0.1516  0.2167  0.3330
 7462SOL    HW134022   2.726   4.371   0.887  1.1177  1.3590 -2.5598
 7462SOL    HW234023   2.670   4.319   0.764  2.4971  1.2342 -0.2618
 7463SOL     OW34024   0.070   2.899   7.611 -0.4246 -0.1690  0.0898
 7463SOL    HW134025   0.145   2.839   7.614  0.8189  1.4303  0.6622
 7463SOL    HW234026   0.042   2.898   7.519  0.7333 -4.2570 -0.2118
 7464SOL     OW34027   3.264   4.295  17.412  0.1852  0.1251 -0.1306
 7464SOL    HW134028   3.331   4.230  17.388  1.3634  0.9347  0.9696
 7464SOL    HW234029   3.217   4.251  17.483  0.7954  0.4333  0.4581
 7465SOL     OW34030   2.477   0.408  10.553  0.6213 -0.0453 -0.4954
 7465SOL    HW134031   2.521   0.426  10.470  0.3243 -3.2059 -1.3478
 7465SOL    HW234032   2.549   0.377  10.608 -0.3554  0.4264  1.0538
 7466SOL     OW34033   4.612   3.472  16.654 -0.1137 -0.1730 -0.1285
 7466SOL    HW134034   4.525   3.484  16.618 -0.6659 -0.4585  1.1119
 7466SOL    HW234035   4.660   3.513  16.582 -2.1697  3.4578  0.5721
 7467SOL     OW34036   0.677   2.902   6.064  0.4971  0.3296 -0.1164
 7467SOL    HW134037   0.591   2.894   6.023  0.0940  1.6853  0.4613
 7467SOL    HW234038   0.657   2.843   6.136  0.4672  0.3223 -0.1307
 7468SOL     OW34039   1.080   3.942   3.230  0.1417 -0.4610 -0.0222
 7468SOL    HW134040   1.094   3.856   3.268 -1.3000 -0.5181  0.3668
 7468SOL    HW234041   1.129   3.997   3.292 -0.1466 -1.3267  0.9533
 7469SOL     OW34042   3.100   1.633   4.274 -0.0278  0.2156  0.0440
 7469SOL    HW134043   3.102   1.577   4.196 -2.4202  0.2258 -0.0230
 7469SOL    HW234044   3.041   1.705   4.253  1.3780  1.7091  1.3054
 7470SOL     OW34045   1.186   2.182  16.401  0.3437  0.2785 -0.2655
 7470SOL    HW134046   1.110   2.210  16.452  0.4606  0.7998 -0.3800
 7470SOL    HW234047   1.143   2.116  16.346  0.6286  2.1961 -2.7916
 7471SOL     OW34048   0.147   3.025   4.698  0.4675 -0.8431 -0.1478
 7471SOL    HW134049   0.212   3.069   4.643  1.7021  0.7484  2.5532
 7471SOL    HW234050   0.181   3.041   4.786  0.0092 -0.5183 -0.0256
 7472SOL     OW34051   0.708   2.095   3.404 -0.0226  0.1463 -0.1694
 7472SOL    HW134052   0.672   2.176   3.439  0.0498  0.3899 -0.6652
 7472SOL    HW234053   0.721   2.117   3.312 -1.4920  2.9638  0.3088
 7473SOL     OW34054   3.398   3.336   6.589  0.2153 -0.5276  0.7063
 7473SOL    HW134055   3.459   3.369   6.655  1.5504 -1.7854  0.1041
 7473SOL    HW234056   3.337   3.408   6.570  1.0976  0.5965  2.1105
 7474SOL     OW34057   3.186   1.797   2.133  0.2533  0.0168  0.6793
 7474SOL    HW134058   3.118   1.778   2.070  0.0821  0.6028  0.6868
 7474SOL    HW234059   3.241   1.846   2.072  0.0570  1.5391  1.7333
 7475SOL     OW34060   0.222   1.817   5.213 -0.2962 -0.5736 -0.6702
 7475SOL    HW134061   0.191   1.814   5.123  1.0814 -1.1709 -1.1113
 7475SOL    HW234062   0.305   1.770   5.220 -0.1392  0.0536  1.6764
 7476SOL     OW34063   1.205   2.810   4.753 -0.3846 -0.4973 -0.2570
 7476SOL    HW134064   1.242   2.842   4.671  0.5908  1.4866  0.9547
 7476SOL    HW234065   1.248   2.725   4.756  1.8767  0.6820  1.1749
 7477SOL     OW34066   1.161   1.189   5.970  0.5170  0.0221 -0.2855
 7477SOL    HW134067   1.107   1.198   5.891 -1.9706  1.5401  1.5869
 7477SOL    HW234068   1.126   1.104   5.997 -0.6969  0.2487 -1.1287
 7478SOL     OW34069   1.800   1.287   3.716 -0.2683 -0.1106  0.3667
 7478SOL    HW134070   1.848   1.342   3.654 -0.6017  2.5687  2.4839
 7478SOL    HW234071   1.839   1.201   3.704  0.1832  0.4389 -2.0471
 7479SOL     OW34072   3.589   0.094   7.731 -0.1415 -0.2375 -0.1055
 7479SOL    HW134073   3.542   0.099   7.814  0.3645 -1.5684  0.2683
 7479SOL    HW234074   3.609   0.185   7.710 -2.3104  0.1892 -0.3048
 7480SOL     OW34075   1.803   3.474   7.795  0.8066  0.3056  0.2722
 7480SOL    HW134076   1.850   3.417   7.734 -0.1276 -0.9819  0.7404
 7480SOL    HW234077   1.804   3.410   7.866 -0.1856 -0.5502 -0.4780
 7481SOL     OW34078   0.174   2.317   0.086 -0.5908 -0.1574 -0.0389
 7481SOL    HW134079   0.215   2.403   0.075  1.1954 -0.8091  1.6235
 7481SOL    HW234080   0.118   2.325   0.163  1.3120 -0.6339  1.4085
 7482SOL     OW34081   1.021   2.094  11.620  0.4216 -0.2403 -0.1202
 7482SOL    HW134082   1.042   2.179  11.581  1.3601  0.2539  1.4347
 7482SOL    HW234083   1.070   2.108  11.701 -0.8491 -0.8054  0.7386
 7483SOL     OW34084   0.828   2.178   5.557  0.0564 -0.2169  0.2672
 7483SOL    HW134085   0.831   2.159   5.651 -2.5916  1.8924  0.7910
 7483SOL    HW234086   0.741   2.143   5.541 -0.4832  1.6204 -0.8398
 7484SOL     OW34087   0.970   4.186   6.666 -0.0404 -0.3674  0.5248
 7484SOL    HW134088   0.966   4.119   6.599  0.3540  0.1593 -0.0204
 7484SOL    HW234089   0.968   4.265   6.613  1.4956 -0.6816 -0.0061
 7485SOL     OW34090   3.818   0.190   3.413  0.3607  0.5271  0.4853
 7485SOL    HW134091   3.828   0.274   3.369 -0.8500  0.4131  0.0084
 7485SOL    HW234092   3.783   0.130   3.348  2.1466  0.7030 -0.6585
 7486SOL     OW34093   2.773   1.501  15.784 -0.2089  0.0876 -0.1424
 7486SOL    HW134094   2.749   1.567  15.849  0.1313  0.9810 -0.9363
 7486SOL    HW234095   2.832   1.555  15.732 -0.2778 -0.5292 -0.8625
 7487SOL     OW34096   3.821   0.364   3.971 -0.7090 -0.2769  0.0688
 7487SOL    HW134097   3.769   0.288   3.996  0.9804 -1.5608 -0.3321
 7487SOL    HW234098   3.809   0.356   3.876  0.7314  0.5856 -0.1803
 7488SOL     OW34099   4.250   0.059  17.616 -0.0424  0.0654 -0.0932
 7488SOL    HW134100   4.168   0.068  17.664  0.5237 -2.3499  1.3277
 7488SOL    HW234101   4.275   0.150  17.605 -2.2494  0.0624 -5.0691
 7489SOL     OW34102   3.678   3.110  13.399  0.5899  0.0930 -0.2437
 7489SOL    HW134103   3.655   3.145  13.485 -0.2619  0.1920 -0.5094
 7489SOL    HW234104   3.770   3.133  13.402  1.0934 -1.8751 -0.3127
 7490SOL     OW34105   1.579   1.996   3.654  0.2118 -0.4308 -0.0372
 7490SOL    HW134106   1.589   2.070   3.714  0.1953  0.2937 -0.9249
 7490SOL    HW234107   1.489   2.018   3.630  0.3417 -0.3064 -0.4149
 7491SOL     OW34108   4.611   0.188   4.786 -0.3720  0.2386 -0.2980
 7491SOL    HW134109   4.516   0.178   4.793 -0.0788 -1.9080  0.4555
 7491SOL    HW234110   4.620   0.224   4.698  0.1589  0.5351 -0.1249
 7492SOL     OW34111   3.943   0.718   2.907 -0.5155  0.0941  0.2237
 7492SOL    HW134112   3.944   0.726   2.812  1.0617 -2.8384 -0.0041
 7492SOL    HW234113   3.970   0.627   2.912  0.0175  0.2233 -0.3685
 7493SOL     OW34114   4.109   3.438   8.480  0.7895 -0.1719 -0.6089
 7493SOL    HW134115   4.033   3.490   8.506  1.9328  1.2200 -0.0548
 7493SOL    HW234116   4.185   3.488   8.511  1.4489 -1.3220 -0.3290
 7494SOL     OW34117   3.667   0.695   2.394  0.1592 -0.6327  0.8734
 7494SOL    HW134118   3.696   0.767   2.338  0.3284  0.0452  1.8541
 7494SOL    HW234119   3.754   0.656   2.389  0.4343 -0.2144  2.4925
 7495SOL     OW34120   1.419   4.694   1.870 -0.4740  0.6812 -0.7717
 7495SOL    HW134121   1.341   0.007   1.889 -0.9066 -0.2816  0.0969
 7495SOL    HW234122   1.486   0.024   1.877  0.3622 -0.0514 -1.5799
 7496SOL     OW34123   1.898   4.670   3.223  0.4327  0.1848  0.1063
 7496SOL    HW134124   1.963   4.602   3.205 -1.1738 -2.0828  2.7768
 7496SOL    HW234125   1.818   4.617   3.221  0.7500 -0.3226  0.6794
 7497SOL     OW34126   0.239   2.463   2.015  0.2388 -0.0733 -0.2909
 7497SOL    HW134127   0.180   2.462   2.091  2.3873 -4.0266  1.3872
 7497SOL    HW234128   0.218   2.377   1.978 -1.0210 -0.8986  2.3314
 7498SOL     OW34129   4.446   1.876   0.889 -0.4343 -0.0484 -0.2753
 7498SOL    HW134130   4.360   1.838   0.909 -1.5380  1.1848 -2.6302
 7498SOL    HW234131   4.426   1.961   0.927 -0.0073  0.6582 -1.6319
 7499SOL     OW34132   3.082   1.240   1.443 -0.5606 -0.1063 -0.3053
 7499SOL    HW134133   3.136   1.239   1.522 -1.0027 -1.6545 -0.0216
 7499SOL    HW234134   3.041   1.154   1.444  1.0043 -0.8726 -2.2248
 7500SOL     OW34135   4.405   2.288   1.649 -0.6252 -0.2864  0.4452
 7500SOL    HW134136   4.473   2.311   1.585 -0.3470 -1.0576  0.4689
 7500SOL    HW234137   4.391   2.197   1.622  1.9236 -0.6635  0.3607
 7501SOL     OW34138   1.006   3.033  15.486  0.0127 -0.4253  0.1465
 7501SOL    HW134139   0.980   3.090  15.413 -2.3603 -2.0089 -0.2209
 7501SOL    HW234140   0.926   3.034  15.538  2.2119 -1.2799  3.5103
 7502SOL     OW34141   0.185   0.916   7.399  1.0290 -0.4299 -0.0864
 7502SOL    HW134142   0.210   0.990   7.343 -1.5932  0.1777 -0.4422
 7502SOL    HW234143   0.278   0.904   7.422  0.8574 -2.2596 -0.3504
 7503SOL     OW34144   1.166   3.225  15.666 -0.2856 -0.1142  0.1235
 7503SOL    HW134145   1.246   3.235  15.614 -0.3446  2.2631  0.4767
 7503SOL    HW234146   1.096   3.201  15.605  0.9171  1.3736 -1.8424
 7504SOL     OW34147   0.276   2.871  10.335  0.2099  0.6222 -0.0302
 7504SOL    HW134148   0.224   2.899  10.260  1.2002  1.8067 -0.2774
 7504SOL    HW234149   0.207   2.895  10.397 -0.7223  1.0082 -1.2084
 7505SOL     OW34150   4.664   3.903   7.746 -0.2016  0.8283  0.3810
 7505SOL    HW134151   4.650   3.982   7.694  1.3521  2.0427  1.7929
 7505SOL    HW234152   4.674   3.832   7.681 -0.3662  0.1216  1.1290
 7506SOL     OW34153   4.718   0.999  17.042  0.2186 -0.2214 -0.1566
 7506SOL    HW134154   4.711   1.094  17.053  2.7359  0.0050 -0.4168
 7506SOL    HW234155   4.629   0.963  17.035  0.3250 -0.5214  0.0312
 7507SOL     OW34156   3.766   2.775   7.332 -0.2649 -0.0687 -0.0724
 7507SOL    HW134157   3.842   2.763   7.276  0.8025  0.3014  1.2844
 7507SOL    HW234158   3.806   2.814   7.410 -1.8201 -0.4458  0.9178
 7508SOL     OW34159   4.365   4.016   2.397  0.0565 -0.1307  0.5757
 7508SOL    HW134160   4.318   4.096   2.373 -0.5059 -0.7104 -0.2498
 7508SOL    HW234161   4.333   4.003   2.486  0.3063  1.4670  0.8986
 7509SOL     OW34162   1.632   3.209   5.052 -0.4171  0.1409 -0.5732
 7509SOL    HW134163   1.694   3.276   5.022 -0.4035  0.4394  0.1117
 7509SOL    HW234164   1.691   3.134   5.054 -1.4694 -0.6958 -1.0110
 7510SOL     OW34165   4.686   0.117   4.511 -0.5986 -0.2478  0.1232
 7510SOL    HW134166   4.718   0.058   4.579 -0.1040  0.8152  0.8109
 7510SOL    HW234167   4.662   0.049   4.448 -0.3568 -0.7694  0.6002
 7511SOL     OW34168   0.972   1.998   6.804 -0.4411 -0.1437  0.1913
 7511SOL    HW134169   0.917   2.063   6.847  0.5143  0.2028  0.9076
 7511SOL    HW234170   0.930   1.914   6.820 -1.8939  0.4969 -0.2839
 7512SOL     OW34171   2.681   2.734  17.110 -0.0282  0.2182 -0.4636
 7512SOL    HW134172   2.737   2.777  17.045  0.9077  2.1342  1.6200
 7512SOL    HW234173   2.697   2.640  17.100  1.4012  0.0170  3.5287
 7513SOL     OW34174   1.374   2.967   4.609 -0.2560 -0.2585  0.0016
 7513SOL    HW134175   1.462   2.976   4.645 -1.4611  2.4448  2.3130
 7513SOL    HW234176   1.327   3.046   4.638  0.9301  0.2486  0.5233
 7514SOL     OW34177   4.119   4.287   4.208  0.1408  0.1903 -0.2489
 7514SOL    HW134178   4.065   4.208   4.211 -0.5675  0.7555  2.1671
 7514SOL    HW234179   4.066   4.365   4.222 -1.3014 -0.2041 -3.5152
 7515SOL     OW34180   3.611   2.656  15.788 -0.4683  0.4913  0.5259
 7515SOL    HW134181   3.647   2.570  15.770 -0.8374  0.3989  0.2130
 7515SOL    HW234182   3.643   2.722  15.726 -1.8757  1.8914  1.2718
 7516SOL     OW34183   2.328   2.098   3.998 -0.3082 -0.7533  0.2845
 7516SOL    HW134184   2.420   2.106   3.973 -0.3814 -0.3365  0.1519
 7516SOL    HW234185   2.332   2.134   4.087  1.4606  0.8444 -0.4526
 7517SOL     OW34186   0.184   1.181  13.728  0.3911  0.3668  0.0974
 7517SOL    HW134187   0.133   1.246  13.680  1.0352 -0.5910 -1.8911
 7517SOL    HW234188   0.266   1.226  13.748 -0.6169  1.9309  0.7122
 7518SOL     OW34189   4.731   0.580   6.889  0.0419 -0.1217  0.1469
 7518SOL    HW134190   0.001   0.643   6.959  0.3313  1.8413 -1.6552
 7518SOL    HW234191   4.644   0.547   6.913 -0.1549 -0.6762 -1.3117
 7519SOL     OW34192   0.191   1.661   1.400 -0.4615  0.1541  0.3210
 7519SOL    HW134193   0.223   1.573   1.418 -0.1989 -0.1273 -1.4698
 7519SOL    HW234194   0.125   1.642   1.333 -1.3756  1.1775  0.9318
 7520SOL     OW34195   0.809   1.874   6.073 -0.1090 -0.1352  0.2585
 7520SOL    HW134196   0.893   1.920   6.068 -0.1055 -0.3718 -1.8750
 7520SOL    HW234197   0.807   1.837   5.985 -2.3196 -1.0257  0.6665
 7521SOL     OW34198   3.514   0.657  14.858  0.3278 -0.0329  0.1288
 7521SOL    HW134199   3.552   0.600  14.925 -1.0346 -0.7606  0.2734
 7521SOL    HW234200   3.436   0.698  14.895  1.4855 -0.8995  3.5892
 7522SOL     OW34201   3.287   1.617   7.568  0.1224  0.5341  0.0263
 7522SOL    HW134202   3.193   1.633   7.578  0.1426  1.8514 -1.8522
 7522SOL    HW234203   3.277   1.554   7.497  2.8651  1.5251 -1.2640
 7523SOL     OW34204   0.282   2.579   4.719 -0.4954 -0.2917 -0.1725
 7523SOL    HW134205   0.237   2.568   4.803 -1.3121 -3.3785 -1.0416
 7523SOL    HW234206   0.210   2.608   4.664  1.4560  0.2963 -2.4085
 7524SOL     OW34207   1.305   3.020  14.931 -0.0387 -0.3783  0.1046
 7524SOL    HW134208   1.318   2.993  14.840  1.9117  3.7551 -0.8621
 7524SOL    HW234209   1.397   3.035  14.956 -0.4124  0.3256  1.0619
 7525SOL     OW34210   2.639   3.137   8.339  0.3308 -0.0428  0.6044
 7525SOL    HW134211   2.632   3.081   8.261  1.3362 -0.5122  0.8573
 7525SOL    HW234212   2.634   3.227   8.308 -0.5888 -1.5588 -3.7716
 7526SOL     OW34213   0.950   1.477   4.274  0.0128 -0.1195  0.2655
 7526SOL    HW134214   0.901   1.528   4.210 -0.7815  0.1769  1.1243
 7526SOL    HW234215   0.908   1.392   4.265  0.9287 -0.6161  0.7274
 7527SOL     OW34216   2.952   2.260   8.977 -0.7140 -0.8914  0.2202
 7527SOL    HW134217   2.991   2.316   9.044 -0.7269 -0.2096 -0.3493
 7527SOL    HW234218   3.027   2.231   8.924  1.3863  2.0517  1.5836
 7528SOL     OW34219   0.483   2.827   6.258 -0.1819  0.7761  0.4362
 7528SOL    HW134220   0.447   2.761   6.317  1.4963 -0.6577 -0.1465
 7528SOL    HW234221   0.429   2.812   6.181 -2.8866  1.5062  2.1773
 7529SOL     OW34222   2.388   0.896   8.256  0.3424  0.4133 -0.6812
 7529SOL    HW134223   2.337   0.898   8.175 -1.7931 -1.2077  0.6338
 7529SOL    HW234224   2.464   0.839   8.244  0.8224  1.3656 -2.2959
 7530SOL     OW34225   1.968   3.291   7.648  0.4358  0.2356 -0.4985
 7530SOL    HW134226   1.932   3.207   7.618  0.8337 -0.0824 -0.0970
 7530SOL    HW234227   1.965   3.341   7.567 -2.3586 -0.6816 -0.9617
 7531SOL     OW34228   1.660   0.822   1.734 -0.5941  0.1577 -0.2416
 7531SOL    HW134229   1.618   0.856   1.655 -1.6840 -1.6665 -0.4573
 7531SOL    HW234230   1.751   0.841   1.713 -1.1621  2.2174 -0.7954
 7532SOL     OW34231   2.231   2.356   7.848  0.5793 -0.2017 -0.4851
 7532SOL    HW134232   2.191   2.404   7.775 -0.1972  0.6997  0.5471
 7532SOL    HW234233   2.210   2.429   7.906 -1.4514 -0.5965 -0.7128
 7533SOL     OW34234   2.498   0.178  12.289  0.3092  0.1954 -0.1141
 7533SOL    HW134235   2.489   0.225  12.207  0.8103  2.1856  0.9650
 7533SOL    HW234236   2.434   0.231  12.337 -0.5088 -1.0216  0.1226
 7534SOL     OW34237   2.322   2.469   2.449 -0.2263 -0.0893 -0.3507
 7534SOL    HW134238   2.243   2.467   2.504  0.1029  1.2252  0.1803
 7534SOL    HW234239   2.379   2.530   2.495 -2.0091  1.6732 -0.4670
 7535SOL     OW34240   4.313   3.040  17.401 -0.1098 -0.5216 -0.4872
 7535SOL    HW134241   4.405   3.062  17.384  0.0186 -3.2201 -3.0863
 7535SOL    HW234242   4.321   2.953  17.363 -1.0853 -0.8044 -0.0438
 7536SOL     OW34243   4.224   0.557  11.674  0.0660  0.2231 -0.5081
 7536SOL    HW134244   4.302   0.600  11.638  0.3390  0.3495  0.2397
 7536SOL    HW234245   4.245   0.464  11.664  0.3206  0.1422  0.8118
 7537SOL     OW34246   2.688   1.553  10.621 -0.2335  0.4380  0.2353
 7537SOL    HW134247   2.750   1.598  10.677 -1.6384  1.3636  1.0453
 7537SOL    HW234248   2.640   1.627  10.584  1.1542 -0.2807 -3.0265
 7538SOL     OW34249   4.288   2.911   4.083  0.0775 -0.2283  0.5074
 7538SOL    HW134250   4.331   2.994   4.102  0.0532  0.0883 -0.7724
 7538SOL    HW234251   4.197   2.941   4.083 -0.6595 -2.4228 -2.1980
 7539SOL     OW34252   1.345   1.759   6.971 -0.1226 -0.2752 -0.1525
 7539SOL    HW134253   1.272   1.819   6.980 -0.9174 -1.3242  0.4757
 7539SOL    HW234254   1.314   1.681   7.017  0.0904 -0.5739 -0.5097
 7540SOL     OW34255   0.983   1.517   9.739 -0.2141 -0.5415  0.5866
 7540SOL    HW134256   0.988   1.426   9.708 -0.9886 -0.8836  1.4669
 7540SOL    HW234257   0.981   1.571   9.660  0.6411 -0.3153  0.7201
 7541SOL     OW34258   4.686   0.126   7.230  0.3751 -0.4985  0.2653
 7541SOL    HW134259   4.680   0.214   7.192  0.6521 -1.2441 -1.5214
 7541SOL    HW234260   0.042   0.112   7.222  0.7546  1.2852  1.6382
 7542SOL     OW34261   0.546   4.353   2.936  0.0377  0.2894  0.3892
 7542SOL    HW134262   0.465   4.383   2.976 -1.2882  0.3743 -2.3341
 7542SOL    HW234263   0.616   4.343   3.001 -0.9247 -0.4778  1.3079
 7543SOL     OW34264   2.137   3.353   2.691  0.0277  0.2867  0.0295
 7543SOL    HW134265   2.085   3.346   2.611 -1.0449  0.2093  0.7361
 7543SOL    HW234266   2.144   3.262   2.718  0.2979  0.5304  0.7803
 7544SOL     OW34267   0.647   2.644  11.123 -0.4852 -0.1913  0.5635
 7544SOL    HW134268   0.616   2.658  11.213 -1.3073 -0.1168  0.2697
 7544SOL    HW234269   0.568   2.671  11.077  0.7730  2.3227 -0.1546
 7545SOL     OW34270   2.572   1.147   7.643 -0.3441  0.6960 -0.2090
 7545SOL    HW134271   2.487   1.116   7.613 -0.6217 -0.2222  1.5431
 7545SOL    HW234272   2.546   1.185   7.727  0.3956 -1.1399  0.8489
 7546SOL     OW34273   2.693   4.241   3.596 -0.0572  0.5624 -0.1695
 7546SOL    HW134274   2.724   4.320   3.552 -0.6205  1.4212  0.9684
 7546SOL    HW234275   2.720   4.165   3.544 -0.4208  1.7761 -2.1391
 7547SOL     OW34276   4.436   0.249   8.207  0.5322 -0.3910 -0.0833
 7547SOL    HW134277   4.466   0.159   8.208 -2.5433 -1.4095  3.4056
 7547SOL    HW234278   4.365   0.240   8.144 -1.5450 -2.8268  2.5898
 7548SOL     OW34279   4.301   0.246   9.686  0.1981 -0.4230 -0.3971
 7548SOL    HW134280   4.275   0.307   9.617 -0.6933 -1.1111 -0.6656
 7548SOL    HW234281   4.308   0.164   9.638  1.5357 -1.0075  0.8045
 7549SOL     OW34282   3.944   4.445   6.529 -0.0418  0.5873  0.3131
 7549SOL    HW134283   3.951   4.351   6.548 -0.0936  0.6461  0.6244
 7549SOL    HW234284   3.940   4.478   6.619 -1.1959  0.4240  0.3225
 7550SOL     OW34285   0.562   4.359   2.678  0.1646  0.4470 -0.5859
 7550SOL    HW134286   0.652   4.326   2.673  0.9269  2.7486 -1.9094
 7550SOL    HW234287   0.553   4.357   2.773 -1.6175  0.7094 -0.7558
 7551SOL     OW34288   2.640   4.673   9.596  0.3156  0.4067  0.0679
 7551SOL    HW134289   2.730   4.668   9.626  1.4148  2.7927 -2.8106
 7551SOL    HW234290   2.615   4.582   9.608  1.5663 -0.0731 -0.9453
 7552SOL     OW34291   3.729   3.784   8.553 -0.3969 -0.3582  0.0290
 7552SOL    HW134292   3.667   3.791   8.625 -0.9636  1.8811 -0.6657
 7552SOL    HW234293   3.669   3.768   8.480  0.4855  1.6943 -1.1655
 7553SOL     OW34294   3.790   0.276   8.455 -0.2370 -0.5412  0.1878
 7553SOL    HW134295   3.707   0.280   8.502 -0.2692 -0.5079  0.1286
 7553SOL    HW234296   3.776   0.211   8.387  0.0723  0.2876 -0.6641
 7554SOL     OW34297   2.665   0.232   4.553 -0.0922 -0.4648 -0.2091
 7554SOL    HW134298   2.746   0.219   4.603  0.5479 -0.0546 -1.1482
 7554SOL    HW234299   2.605   0.208   4.623  1.9490 -0.9085  1.4134
 7555SOL     OW34300   3.379   0.313   3.587  0.1480 -0.1060  0.6969
 7555SOL    HW134301   3.329   0.233   3.600  0.1454  0.3578  3.4153
 7555SOL    HW234302   3.381   0.328   3.492  0.3799 -1.1136  0.5446
 7556SOL     OW34303   1.263   0.504   4.831 -0.6454 -0.2128  0.7604
 7556SOL    HW134304   1.286   0.501   4.924 -0.9456  1.1689  0.8799
 7556SOL    HW234305   1.236   0.413   4.825  2.9930 -1.4306  2.5680
 7557SOL     OW34306   4.405   4.485   4.713 -0.2026 -0.6858  0.1873
 7557SOL    HW134307   4.336   4.529   4.763 -0.4894 -2.4246  1.3135
 7557SOL    HW234308   4.477   4.480   4.776 -0.3847 -0.5502  0.4063
 7558SOL     OW34309   0.677   1.625  12.108  0.7816 -0.1772 -1.0683
 7558SOL    HW134310   0.589   1.631  12.144  0.5718 -2.6644 -1.1588
 7558SOL    HW234311   0.733   1.639  12.185 -1.0376  0.5033  0.1164
 7559SOL     OW34312   4.411   1.719  14.271 -0.2545 -0.0843 -0.0758
 7559SOL    HW134313   4.317   1.700  14.271 -0.6637  1.9813 -2.6535
 7559SOL    HW234314   4.441   1.635  14.236  2.6082  1.1441 -0.5636
 7560SOL     OW34315   1.482   0.438  17.046 -0.6773  0.4204 -0.8857
 7560SOL    HW134316   1.489   0.533  17.053 -0.1265  0.4773 -2.2092
 7560SOL    HW234317   1.476   0.402  17.135  1.9152 -0.7788 -1.2174
 7561SOL     OW34318   3.676   4.116   4.200  0.3847 -0.0842 -0.1876
 7561SOL    HW134319   3.629   4.196   4.226  1.0272  0.1818  0.1718
 7561SOL    HW234320   3.659   4.108   4.107 -1.7545 -2.1982  0.3968
 7562SOL     OW34321   0.271   1.278   4.856 -0.8202  0.2191 -0.2027
 7562SOL    HW134322   0.249   1.283   4.763  3.6677  0.9482 -1.2409
 7562SOL    HW234323   0.300   1.187   4.859 -0.3231  0.4714  2.6862
 7563SOL     OW34324   3.749   3.887   7.093  0.0709 -0.6940  0.2120
 7563SOL    HW134325   3.702   3.951   7.040  1.2818 -0.1398 -0.1983
 7563SOL    HW234326   3.829   3.863   7.045  1.2049 -0.4596  1.9804
 7564SOL     OW34327   1.125   3.910   4.401  0.2765 -0.2751  0.2124
 7564SOL    HW134328   1.035   3.900   4.370 -0.0904  1.1555  0.8003
 7564SOL    HW234329   1.109   3.906   4.496  2.8421 -1.5095  0.5834
 7565SOL     OW34330   4.408   3.426  11.320  0.0146  0.2707  0.5880
 7565SOL    HW134331   4.363   3.443  11.403 -0.8196 -0.6242  0.3106
 7565SOL    HW234332   4.344   3.370  11.277  1.0109 -2.3006  2.4396
 7566SOL     OW34333   3.255   4.093  15.418 -0.4482  0.2938 -0.3332
 7566SOL    HW134334   3.163   4.118  15.409 -0.9256 -0.9688  0.8224
 7566SOL    HW234335   3.251   4.015  15.474  1.4088  1.2088  1.0616
 7567SOL     OW34336   1.671   1.007   8.546 -0.3064  0.2704 -0.1143
 7567SOL    HW134337   1.750   1.026   8.496  0.5674 -0.3028  1.0668
 7567SOL    HW234338   1.678   1.083   8.603 -0.6792  0.0767  0.1888
 7568SOL     OW34339   1.098   4.444   2.060  0.3582  0.8772  0.4252
 7568SOL    HW134340   1.078   4.413   2.149 -0.5682  1.2621  0.3522
 7568SOL    HW234341   1.191   4.448   2.083  1.2350 -0.2914 -3.0565
 7569SOL     OW34342   1.615   4.037   4.666 -0.1899  0.3635 -0.0078
 7569SOL    HW134343   1.621   4.064   4.574  1.8827  0.3977  0.1324
 7569SOL    HW234344   1.644   3.946   4.661 -0.1456  0.3337  0.8434
 7570SOL     OW34345   1.154   4.272  13.250  0.0878  0.3445 -0.0641
 7570SOL    HW134346   1.201   4.259  13.168 -0.3258  0.0701 -0.2610
 7570SOL    HW234347   1.068   4.240  13.221 -0.1511  1.4029 -0.4996
 7571SOL     OW34348   2.755   3.052   3.694  0.4777 -0.5752  0.1722
 7571SOL    HW134349   2.813   2.977   3.704 -0.6788 -1.2147  2.0637
 7571SOL    HW234350   2.678   2.995   3.686 -0.7435  0.9624  0.8550
 7572SOL     OW34351   2.706   0.851   1.501  0.2478 -0.3450 -0.4902
 7572SOL    HW134352   2.759   0.856   1.422  0.7434  1.3259 -0.0593
 7572SOL    HW234353   2.774   0.837   1.568  2.8805  1.7648 -2.7391
 7573SOL     OW34354   3.183   0.978  17.498  0.1818  0.6935  0.7135
 7573SOL    HW134355   3.153   0.990  17.407  1.9546  0.3872  0.1002
 7573SOL    HW234356   3.223   0.891  17.500 -0.8372  0.1987 -0.0827
 7574SOL     OW34357   2.147   4.726   8.774  0.1144  0.2430  0.0786
 7574SOL    HW134358   2.057   0.009   8.799  0.5234  2.0723 -0.0540
 7574SOL    HW234359   2.189   0.071   8.791  0.6502 -0.2589  1.2518
 7575SOL     OW34360   0.247   1.125  16.748  0.2014 -0.0002  0.0556
 7575SOL    HW134361   0.318   1.128  16.683 -2.1006  0.3296 -2.4504
 7575SOL    HW234362   0.181   1.183  16.711 -1.5151 -1.4217  0.8997
 7576SOL     OW34363   3.168   2.772   1.758  0.0440  0.3250 -0.6099
 7576SOL    HW134364   3.079   2.763   1.793 -0.0422 -0.2668 -0.9916
 7576SOL    HW234365   3.209   2.812   1.835 -1.5225  2.7234 -1.0119
 7577SOL     OW34366   4.196   2.438   7.502 -0.3311  0.9898 -1.2145
 7577SOL    HW134367   4.145   2.513   7.534 -1.5489 -0.4718  0.2673
 7577SOL    HW234368   4.154   2.364   7.546 -1.6735 -0.1431 -4.3879
 7578SOL     OW34369   3.169   0.022   7.401 -0.2209  0.2140  0.0336
 7578SOL    HW134370   3.216   4.726   7.478  0.0033  1.0989  0.2927
 7578SOL    HW234371   3.140   4.680   7.359 -1.4750 -0.4681  2.1624
 7579SOL     OW34372   3.955   3.319   6.190 -0.1856  0.2031  0.2843
 7579SOL    HW134373   4.044   3.353   6.205 -0.0120  0.1640 -0.6804
 7579SOL    HW234374   3.952   3.245   6.250 -0.1202 -1.8122 -2.1840
 7580SOL     OW34375   1.817   1.559   0.512 -0.0315 -0.2449 -0.3875
 7580SOL    HW134376   1.791   1.530   0.600  3.1095  0.2103  0.7036
 7580SOL    HW234377   1.782   1.647   0.502 -0.4109 -0.4892 -1.2202
 7581SOL     OW34378   0.506   4.125  11.294  0.6306  0.0306  0.0833
 7581SOL    HW134379   0.594   4.097  11.269  0.8766 -0.6383  1.7037
 7581SOL    HW234380   0.519   4.153  11.384  0.6880  1.1907 -0.2814
 7582SOL     OW34381   3.224   2.256  17.103 -0.1846  0.1110  0.2434
 7582SOL    HW134382   3.175   2.248  17.185 -0.1408  1.7762  0.4491
 7582SOL    HW234383   3.183   2.182  17.059 -0.2323  0.7268 -0.7684
 7583SOL     OW34384   0.073   1.679  16.159  0.3863 -0.1154  0.7259
 7583SOL    HW134385   0.073   1.634  16.075  0.2466  2.8420 -0.8454
 7583SOL    HW234386   0.151   1.734  16.151  0.0019  0.3682  0.3931
 7584SOL     OW34387   3.550   1.369  11.275  0.4710 -0.1457 -0.0655
 7584SOL    HW134388   3.539   1.274  11.276 -0.9269  0.0316  1.3725
 7584SOL    HW234389   3.627   1.381  11.330  0.1470  1.3412  0.0539
 7585SOL     OW34390   1.964   4.263   8.802  0.4876  0.3586  0.1577
 7585SOL    HW134391   1.931   4.196   8.862  2.1933 -0.7555 -0.1620
 7585SOL    HW234392   2.050   4.290   8.832  0.7930 -0.7507  0.2772
 7586SOL     OW34393   4.450   2.890  16.884  0.4665 -0.2574  0.5779
 7586SOL    HW134394   4.523   2.868  16.942 -2.3840 -0.5846  4.0050
 7586SOL    HW234395   4.485   2.972  16.851  1.5070 -0.2452  1.7068
 7587SOL     OW34396   1.440   0.943   5.023  0.4557 -0.3257 -0.1394
 7587SOL    HW134397   1.374   0.903   4.967  0.9348 -0.9746 -0.2447
 7587SOL    HW234398   1.416   1.034   5.003 -1.3784 -0.7615  0.1475
 7588SOL     OW34399   2.152   2.950   7.190  0.8567 -0.8668  0.3860
 7588SOL    HW134400   2.181   2.951   7.099  0.9045  0.1990  0.4046
 7588SOL    HW234401   2.061   2.979   7.180  0.5091 -2.1081  0.0635
 7589SOL     OW34402   2.072   2.946   8.468  0.4761  0.1523 -0.4048
 7589SOL    HW134403   2.009   2.882   8.436  0.1846 -0.3789  1.2467
 7589SOL    HW234404   2.146   2.889   8.489  0.7546  0.3252 -0.9196
 7590SOL     OW34405   3.535   0.606  15.174  0.6328 -0.4028 -1.2014
 7590SOL    HW134406   3.458   0.633  15.125  1.3271 -0.5908 -2.3905
 7590SOL    HW234407   3.493   0.553  15.242  1.7579  0.8206  0.4611
 7591SOL     OW34408   1.963   2.381   6.057 -0.0828 -0.1546 -0.2140
 7591SOL    HW134409   1.984   2.354   6.146 -0.9439  2.1917  0.7027
 7591SOL    HW234410   1.885   2.329   6.039  1.1965 -1.7992 -1.0053
 7592SOL     OW34411   1.408   3.871   1.521  0.1892 -0.1598  0.0040
 7592SOL    HW134412   1.431   3.799   1.463  0.6601 -0.3087  0.3711
 7592SOL    HW234413   1.460   3.942   1.482 -0.3935  0.0946 -0.3140
 7593SOL     OW34414   2.204   2.720   6.012  0.1642  0.2267  0.4519
 7593SOL    HW134415   2.135   2.753   6.069  0.8138 -0.4147  1.6182
 7593SOL    HW234416   2.221   2.630   6.041 -1.5642 -0.1775  0.1698
 7594SOL     OW34417   2.177   2.295   6.492 -0.0916 -0.6574 -1.0604
 7594SOL    HW134418   2.241   2.319   6.559 -2.0835  1.4758  0.0631
 7594SOL    HW234419   2.138   2.220   6.536 -1.1301  1.3175  1.3724
 7595SOL     OW34420   1.391   1.707  11.899 -0.4818 -0.8566 -0.6101
 7595SOL    HW134421   1.334   1.633  11.879 -0.7462 -1.2093  1.4178
 7595SOL    HW234422   1.324   1.776  11.898  0.7650  0.3645 -0.3391
 7596SOL     OW34423   0.422   0.878  16.251  0.2167 -0.2683 -0.8505
 7596SOL    HW134424   0.379   0.838  16.176 -0.4674  0.2119 -0.7130
 7596SOL    HW234425   0.511   0.899  16.224  0.5485 -1.1610 -0.4596
 7597SOL     OW34426   3.127   3.351   6.269  0.2469 -0.0739  0.0403
 7597SOL    HW134427   3.140   3.446   6.269 -0.6811  0.0483 -1.0400
 7597SOL    HW234428   3.049   3.351   6.324  1.1974 -1.8625  1.3949
 7598SOL     OW34429   1.218   1.126   2.323  0.1461  0.1717  0.5097
 7598SOL    HW134430   1.253   1.090   2.241 -0.5502  2.3000 -0.7297
 7598SOL    HW234431   1.149   1.062   2.338 -0.6905  1.3282  1.6007
 7599SOL     OW34432   2.333   1.381   7.960 -0.7641 -0.2922 -0.3971
 7599SOL    HW134433   2.239   1.390   7.941 -1.3772 -1.0551  2.1490
 7599SOL    HW234434   2.368   1.469   7.960  0.2629 -0.7072 -0.1972
 7600SOL     OW34435   3.908   3.102  16.836 -0.2339  0.6510  0.8910
 7600SOL    HW134436   3.996   3.077  16.865 -1.0789 -1.0672  1.9788
 7600SOL    HW234437   3.918   3.196  16.847 -1.5129  0.7790  0.9625
 7601SOL     OW34438   1.831   2.132   2.921 -0.0199  0.1653 -0.2708
 7601SOL    HW134439   1.746   2.146   2.962  0.8097  0.0022  1.5218
 7601SOL    HW234440   1.852   2.044   2.954  0.1051  0.3974  0.2657
 7602SOL     OW34441   1.759   2.057  15.602 -0.3412 -0.3574 -0.2655
 7602SOL    HW134442   1.770   2.088  15.692  1.1939 -0.0304 -0.5735
 7602SOL    HW234443   1.851   2.040  15.580  0.4812 -0.4066  3.1974
 7603SOL     OW34444   2.978   3.026   7.564 -0.4339 -0.0831  0.2670
 7603SOL    HW134445   2.946   3.045   7.652 -1.8902 -0.4596 -0.1905
 7603SOL    HW234446   3.060   2.977   7.570  0.2873  1.0354 -0.4437
 7604SOL     OW34447   3.907   3.231   8.732 -0.1280 -0.0188 -0.2761
 7604SOL    HW134448   3.955   3.314   8.726 -0.6014  0.3632  1.3930
 7604SOL    HW234449   3.823   3.263   8.763 -0.8269 -0.3754 -1.8173
 7605SOL     OW34450   0.681   2.823  17.674  0.0778 -0.5598  0.4077
 7605SOL    HW134451   0.738   2.753  17.704  1.3423  0.1971 -0.2264
 7605SOL    HW234452   0.702   2.807  17.582  1.4368  0.6266  0.5086
 7606SOL     OW34453   2.252   0.263   1.512 -0.4720  0.0592 -0.1500
 7606SOL    HW134454   2.157   0.270   1.506 -0.3709  1.0454 -0.6302
 7606SOL    HW234455   2.281   0.222   1.430  1.7403  0.7881  0.2684
 7607SOL     OW34456   0.298   1.467   5.064  0.4581 -0.2305  0.1209
 7607SOL    HW134457   0.301   1.397   4.998 -2.9892  0.7384 -1.0764
 7607SOL    HW234458   0.367   1.443   5.125  2.9772  2.7927 -1.5397
 7608SOL     OW34459   2.334   3.592   6.521  0.3540 -0.3303  0.0461
 7608SOL    HW134460   2.354   3.579   6.614  1.2074 -0.4446 -0.1547
 7608SOL    HW234461   2.303   3.507   6.492 -1.0677  0.0271  0.5340
 7609SOL     OW34462   4.605   2.034   8.989  0.4819 -0.6994  0.4609
 7609SOL    HW134463   4.592   2.029   9.084  1.7528 -1.3554  0.5892
 7609SOL    HW234464   4.512   2.032   8.964  0.1207 -0.2280  1.7712
 7610SOL     OW34465   0.095   2.530   7.458  0.1059  0.5179 -0.2687
 7610SOL    HW134466   0.172   2.547   7.404  1.1164 -1.2798  0.5908
 7610SOL    HW234467   0.131   2.482   7.532 -0.6581  1.6443  0.8224
 7611SOL     OW34468   3.750   1.382  11.450 -1.1318 -0.4607 -0.9044
 7611SOL    HW134469   3.741   1.474  11.474 -3.7248 -0.7586 -0.7498
 7611SOL    HW234470   3.758   1.364  11.544 -0.7898  1.3668 -0.5864
 7612SOL     OW34471   0.881   0.726   7.866  0.1412 -0.2153 -0.8544
 7612SOL    HW134472   0.867   0.695   7.777 -0.1459 -1.9493 -0.2129
 7612SOL    HW234473   0.805   0.690   7.911 -0.5346  3.7233  1.1757
 7613SOL     OW34474   0.243   1.698   3.039  0.2134 -0.3801 -0.0230
 7613SOL    HW134475   0.167   1.676   3.093 -0.0722  0.1446 -0.2062
 7613SOL    HW234476   0.226   1.777   2.987  0.4889  0.9556  1.9250
 7614SOL     OW34477   4.233   2.840   0.677  0.4812  1.0129  0.1582
 7614SOL    HW134478   4.316   2.888   0.682  1.3300 -0.5678  1.4070
 7614SOL    HW234479   4.168   2.904   0.649 -1.1632 -0.8279 -0.2201
 7615SOL     OW34480   3.473   2.553   3.561 -0.0133 -0.2994 -0.2354
 7615SOL    HW134481   3.431   2.604   3.631  1.3676 -0.1533  0.4862
 7615SOL    HW234482   3.472   2.466   3.600 -0.7623  0.3761  1.2946
 7616SOL     OW34483   4.706   1.231   7.388 -0.3132  0.5007  0.0366
 7616SOL    HW134484   0.049   1.279   7.373 -0.4048  0.3305 -1.0580
 7616SOL    HW234485   4.687   1.247   7.480 -1.4790 -0.2572 -0.0692
 7617SOL     OW34486   0.267   0.383   3.921  0.3319 -0.6947  0.1381
 7617SOL    HW134487   0.208   0.313   3.895 -0.6224 -0.1109  0.7233
 7617SOL    HW234488   0.206   0.456   3.937 -1.0215 -1.4450 -1.6439
 7618SOL     OW34489   4.148   4.267   9.040 -0.1108  0.0429 -0.3198
 7618SOL    HW134490   4.229   4.216   9.030 -0.0085  0.6975 -2.8073
 7618SOL    HW234491   4.086   4.203   9.007 -0.9337  0.3524  0.6068
 7619SOL     OW34492   3.563   3.054   2.665  0.1846  0.3679 -0.1867
 7619SOL    HW134493   3.594   2.979   2.614  2.5306 -0.0527  1.8517
 7619SOL    HW234494   3.491   3.085   2.610 -0.7121  0.7963  1.2220
 7620SOL     OW34495   3.433   4.232   4.253  0.7459  0.4190 -0.3549
 7620SOL    HW134496   3.455   4.149   4.295 -1.5317  0.5167  1.0470
 7620SOL    HW234497   3.339   4.215   4.245  1.2970 -2.9435  0.6012
 7621SOL     OW34498   4.737   2.208   9.495 -0.1109 -0.0827 -0.0011
 7621SOL    HW134499   0.054   2.286   9.492  1.1395 -1.1332 -3.7324
 7621SOL    HW234500   0.021   2.175   9.582  2.0356 -0.8689 -0.8449
 7622SOL     OW34501   3.840   2.544   5.718  0.5639 -0.0038  0.4326
 7622SOL    HW134502   3.758   2.559   5.765  0.0453  0.2216 -0.5457
 7622SOL    HW234503   3.815   2.494   5.640  1.5441 -1.7747  1.2554
 7623SOL     OW34504   2.805   3.461   8.374 -0.4519  0.4730  0.0362
 7623SOL    HW134505   2.817   3.548   8.336 -1.2788  0.4420 -0.3103
 7623SOL    HW234506   2.732   3.430   8.320 -1.1973 -0.0071  1.3250
 7624SOL     OW34507   3.543   4.119  10.415  0.5696 -0.4649  0.1295
 7624SOL    HW134508   3.626   4.072  10.405  1.3806  0.6649  1.6367
 7624SOL    HW234509   3.569   4.183  10.481 -1.0307 -0.6849  0.9674
 7625SOL     OW34510   2.946   3.982   8.158  0.5450  0.6215  0.6013
 7625SOL    HW134511   2.881   4.052   8.169  1.7436  2.4665 -3.7981
 7625SOL    HW234512   2.920   3.921   8.226 -0.4815  1.3138  0.8234
 7626SOL     OW34513   1.056   2.675   3.533 -0.0839 -0.3473  0.0003
 7626SOL    HW134514   1.038   2.604   3.472 -0.7628 -1.0993  1.0685
 7626SOL    HW234515   0.972   2.721   3.541  0.5659  0.5263  1.7977
 7627SOL     OW34516   2.677   3.484  13.181  0.6561 -0.1640  0.0232
 7627SOL    HW134517   2.634   3.549  13.238  0.0552  0.2670 -0.9260
 7627SOL    HW234518   2.730   3.447  13.252  1.9329  0.9620 -0.3428
 7628SOL     OW34519   1.376   4.292   0.976  0.0355  0.4226 -0.2644
 7628SOL    HW134520   1.304   4.353   0.994  1.6257  1.6402  2.0149
 7628SOL    HW234521   1.357   4.207   1.016  0.9806 -0.2674 -1.2873
 7629SOL     OW34522   3.019   0.127   5.455  0.1819  0.3012  0.5499
 7629SOL    HW134523   2.960   0.091   5.522  0.1014 -0.1227  0.2524
 7629SOL    HW234524   3.100   0.076   5.459  0.1229  0.2295  0.8483
 7630SOL     OW34525   2.571   4.415   5.034  0.2763 -0.1937  0.3044
 7630SOL    HW134526   2.482   4.427   5.001 -0.1576  0.9798  1.8999
 7630SOL    HW234527   2.583   4.483   5.100 -0.3945  1.0772 -0.8793
 7631SOL     OW34528   3.271   2.754   2.216 -0.1185 -0.1495  0.3220
 7631SOL    HW134529   3.350   2.711   2.247 -0.8848  0.4561  3.1740
 7631SOL    HW234530   3.229   2.680   2.173 -1.1012 -0.3543  1.6069
 7632SOL     OW34531   4.596   3.405   5.149  0.0341  0.0379 -0.4620
 7632SOL    HW134532   4.679   3.358   5.151  0.4592  0.6398 -3.4306
 7632SOL    HW234533   4.536   3.331   5.143  0.2314 -0.1455 -0.1736
 7633SOL     OW34534   1.854   3.401  14.935  0.0773 -0.0657  0.0394
 7633SOL    HW134535   1.911   3.324  14.930  0.1148 -0.0680  0.5041
 7633SOL    HW234536   1.819   3.409  14.846  3.8049 -0.0222 -1.4286
 7634SOL     OW34537   3.009   2.879   5.857  0.2461  0.5551  0.1599
 7634SOL    HW134538   2.978   2.893   5.767 -0.5805 -0.2120  0.3193
 7634SOL    HW234539   2.999   2.784   5.870 -1.1985  1.0715  2.7506
 7635SOL     OW34540   4.184   1.569   6.054 -0.0510 -0.5067  0.1694
 7635SOL    HW134541   4.196   1.628   5.979 -1.9859 -1.9193 -1.2478
 7635SOL    HW234542   4.258   1.601   6.106 -0.3020  0.0812  0.1672
 7636SOL     OW34543   0.433   1.524   7.392  0.2856  0.2388  0.0260
 7636SOL    HW134544   0.392   1.537   7.307  1.4252 -1.2791 -0.7549
 7636SOL    HW234545   0.379   1.576   7.451  0.7122  0.6831  0.0194
 7637SOL     OW34546   3.889   2.755   1.572  0.3184  0.1811 -0.4608
 7637SOL    HW134547   3.853   2.707   1.646  0.7457 -0.5974 -0.7660
 7637SOL    HW234548   3.979   2.756   1.604  0.5443 -1.0545 -1.0550
 7638SOL     OW34549   3.182   1.612  12.059 -0.0123  0.5602 -0.7680
 7638SOL    HW134550   3.107   1.553  12.072 -0.0241  0.4893 -1.1526
 7638SOL    HW234551   3.133   1.692  12.043 -1.0136  0.1697  0.3388
 7639SOL     OW34552   0.355   3.610  17.676  0.2446 -0.5137 -0.0467
 7639SOL    HW134553   0.298   3.615  17.753 -1.2351  0.7734 -1.2173
 7639SOL    HW234554   0.419   3.679  17.696  0.1805 -0.4122 -0.1871
 7640SOL     OW34555   3.330   1.453   6.963 -0.1844 -0.1912  0.5846
 7640SOL    HW134556   3.345   1.479   6.872 -0.4399 -2.1031  0.0096
 7640SOL    HW234557   3.416   1.450   7.003 -0.2019 -1.5661  0.5105
 7641SOL     OW34558   4.115   0.180   2.982  0.2211 -0.0726 -0.1369
 7641SOL    HW134559   4.083   0.096   2.948 -0.4282  0.3206 -0.4826
 7641SOL    HW234560   4.208   0.155   2.980 -0.6608 -3.3153 -0.7460
 7642SOL     OW34561   2.048   2.589   5.538 -0.3133  0.3232 -0.3563
 7642SOL    HW134562   2.085   2.676   5.530 -0.2191  0.0476 -3.1293
 7642SOL    HW234563   2.013   2.597   5.627  1.4563 -3.4479  0.6656
 7643SOL     OW34564   0.171   0.637   5.610  0.0978  0.1772 -0.2795
 7643SOL    HW134565   0.113   0.587   5.553 -1.0679  1.4192 -0.1826
 7643SOL    HW234566   0.195   0.579   5.682  3.0948  0.0347 -1.3716
 7644SOL     OW34567   0.626   4.699   8.174 -0.2507  0.3553  0.4347
 7644SOL    HW134568   0.643   0.026   8.242 -1.6496  3.0432 -1.8819
 7644SOL    HW234569   0.536   4.678   8.200 -0.4806 -2.1355 -2.4049
 7645SOL     OW34570   4.106   3.030   5.914  0.1914 -0.1592 -0.0158
 7645SOL    HW134571   4.092   3.124   5.908 -0.0887 -0.1371  1.0501
 7645SOL    HW234572   4.196   3.035   5.948 -0.9705  0.1648  3.0035
 7646SOL     OW34573   2.238   1.217   3.150  0.3324 -0.5320 -0.3240
 7646SOL    HW134574   2.167   1.160   3.178 -0.2016 -0.9009 -2.4266
 7646SOL    HW234575   2.270   1.168   3.074 -1.1283 -0.8462 -0.7210
 7647SOL     OW34576   4.032   0.023  11.920 -0.0368 -0.3932 -0.4029
 7647SOL    HW134577   4.066   0.000  11.833 -1.8947 -1.3084 -0.8986
 7647SOL    HW234578   4.074   0.107  11.937 -0.9929 -0.1978  0.9825
 7648SOL     OW34579   0.756   2.098   9.349 -0.4965 -0.0805 -0.3383
 7648SOL    HW134580   0.781   2.179   9.393  0.7138 -1.5968  1.7365
 7648SOL    HW234581   0.841   2.054   9.343 -0.7861 -1.0246  2.9757
 7649SOL     OW34582   4.083   1.988   6.409 -0.1278 -0.4208  0.1549
 7649SOL    HW134583   4.172   2.010   6.435 -0.0874 -0.6011  0.1692
 7649SOL    HW234584   4.093   1.932   6.332 -0.4956  1.0749 -0.9868
 7650SOL     OW34585   2.053   3.003   6.772 -0.3564  0.2096  0.4462
 7650SOL    HW134586   2.139   2.977   6.739  0.6984  1.6731  2.0829
 7650SOL    HW234587   2.093   3.042   6.849  1.6163 -0.0305 -0.4499
 7651SOL     OW34588   1.035   3.044   7.837 -0.2364  0.1836  0.2861
 7651SOL    HW134589   0.990   3.116   7.879  0.3362 -0.5080  2.0935
 7651SOL    HW234590   1.126   3.064   7.858  0.3644 -0.0996 -1.9622
 7652SOL     OW34591   0.177   0.588  13.982 -0.2393 -0.1120 -0.2895
 7652SOL    HW134592   0.148   0.675  14.009 -1.3178 -0.5569 -0.0315
 7652SOL    HW234593   0.094   0.549  13.958  0.4025 -1.8771  0.4037
 7653SOL     OW34594   3.000   0.530  10.936 -0.2589 -0.1874 -0.6571
 7653SOL    HW134595   3.027   0.444  10.903  2.7835  0.7257 -0.5359
 7653SOL    HW234596   2.942   0.511  11.011  0.0212  1.9366  0.0929
 7654SOL     OW34597   4.006   3.166   4.539 -0.3052  0.4606 -0.3924
 7654SOL    HW134598   4.099   3.188   4.533 -0.3999  1.2692  1.1453
 7654SOL    HW234599   4.009   3.099   4.471 -1.1664 -0.8823  0.8914
 7655SOL     OW34600   1.199   1.732   6.669  0.0806 -0.3829 -0.1591
 7655SOL    HW134601   1.126   1.695   6.719  0.4611 -0.3258  0.4339
 7655SOL    HW234602   1.140   1.757   6.597 -0.6707  0.3628  0.7086
 7656SOL     OW34603   3.416   3.317  14.614 -0.0237  0.5114 -0.2071
 7656SOL    HW134604   3.420   3.225  14.589 -2.6692  0.9300 -2.0756
 7656SOL    HW234605   3.497   3.321  14.666  0.3017  0.6583 -0.7282
 7657SOL     OW34606   1.569   2.767   6.282 -0.0344  0.0554 -0.4412
 7657SOL    HW134607   1.655   2.779   6.322 -0.3213 -0.1305  0.2304
 7657SOL    HW234608   1.600   2.717   6.206  1.1607 -0.3912  0.3413
 7658SOL     OW34609   1.568   3.040   2.000  0.6037 -0.1613  0.1568
 7658SOL    HW134610   1.502   2.970   1.999  0.2949  0.1400 -1.3216
 7658SOL    HW234611   1.648   2.987   1.998  1.2612  0.8185  0.5783
 7659SOL     OW34612   3.658   1.811   9.805 -0.3224 -0.4090 -0.0334
 7659SOL    HW134613   3.600   1.838   9.875 -1.8417  0.8298 -1.7857
 7659SOL    HW234614   3.655   1.879   9.738 -0.7652 -1.4232 -1.0341
 7660SOL     OW34615   3.781   0.001  10.653  0.8100 -0.4891  0.1764
 7660SOL    HW134616   3.719   4.667  10.666 -2.8124  2.4763 -0.5370
 7660SOL    HW234617   3.796   4.738  10.558  2.2260 -1.9671  0.4219
 7661SOL     OW34618   0.058   3.033   6.448  0.3745  0.2351 -0.1355
 7661SOL    HW134619   0.055   3.088   6.370 -1.7719  0.5856  0.1824
 7661SOL    HW234620   4.715   2.986   6.431 -0.4827  1.7169 -0.1558
 7662SOL     OW34621   3.225   3.775  12.602 -0.2044 -0.4951 -0.5080
 7662SOL    HW134622   3.177   3.825  12.668 -0.4605 -2.6641  0.9496
 7662SOL    HW234623   3.251   3.845  12.542 -0.2562  2.4985  3.0000
 7663SOL     OW34624   4.304   4.255  15.309  0.2603 -0.6869  0.3869
 7663SOL    HW134625   4.264   4.246  15.222  1.2642 -1.3968  0.0074
 7663SOL    HW234626   4.367   4.323  15.286  1.4230 -1.3320  1.6881
 7664SOL     OW34627   4.354   4.501   5.289  0.7857  0.5152 -0.2721
 7664SOL    HW134628   4.298   4.425   5.271  1.1954  0.2987 -0.6433
 7664SOL    HW234629   4.309   4.540   5.363 -1.1190 -0.6482 -0.8118
 7665SOL     OW34630   3.946   3.722  17.351 -0.3148 -0.2362 -0.1528
 7665SOL    HW134631   3.864   3.680  17.380 -0.5216 -0.4153 -0.9773
 7665SOL    HW234632   3.927   3.747  17.260  0.0845  1.1613  0.1547
 7666SOL     OW34633   1.852   0.958  17.575 -0.3206  0.2002  0.0615
 7666SOL    HW134634   1.817   1.004  17.499  0.0423  0.8502  0.2857
 7666SOL    HW234635   1.922   1.021  17.592  0.2307 -0.1527 -0.8793
 7667SOL     OW34636   3.427   1.511  13.262 -0.4283  0.2740  0.3130
 7667SOL    HW134637   3.469   1.481  13.182  0.5611  1.6505  0.3113
 7667SOL    HW234638   3.390   1.597  13.238 -0.0413  0.0239 -1.1790
 7668SOL     OW34639   3.091   0.427   4.478  0.5912  0.3227  0.2774
 7668SOL    HW134640   3.036   0.490   4.525 -0.9168  0.2986 -1.4764
 7668SOL    HW234641   3.154   0.400   4.545  1.0609 -0.8746 -0.6341
 7669SOL     OW34642   3.762   0.699  10.938  0.4494 -0.0745 -0.3557
 7669SOL    HW134643   3.807   0.723  10.857  1.8135 -0.5361  0.2755
 7669SOL    HW234644   3.670   0.687  10.912  0.4192  0.5105 -0.5155
 7670SOL     OW34645   1.982   0.684   1.051  0.6696 -0.0832  0.0011
 7670SOL    HW134646   1.997   0.704   1.143 -1.3940 -1.6470  0.6668
 7670SOL    HW234647   2.057   0.733   1.017 -0.0392 -0.5788 -2.3261
 7671SOL     OW34648   3.671   0.298  10.462  0.5549 -0.2550 -0.1824
 7671SOL    HW134649   3.730   0.223  10.468 -1.4697 -1.9092 -0.8601
 7671SOL    HW234650   3.601   0.250  10.508  1.6202  0.5536  2.3118
 7672SOL     OW34651   1.359   3.502   7.477  0.2537  0.0195  0.3148
 7672SOL    HW134652   1.443   3.472   7.512  1.8833  2.6130 -1.3512
 7672SOL    HW234653   1.390   3.572   7.420  0.9346  0.6432  1.4647
 7673SOL     OW34654   0.739   0.241  11.018  0.2902 -0.4381  0.1170
 7673SOL    HW134655   0.753   0.280  11.104 -0.0177 -1.1631  0.4931
 7673SOL    HW234656   0.657   0.278  10.987  1.7772  2.0306 -0.9288
 7674SOL     OW34657   0.159   1.440   8.379 -0.1527  0.3846  0.5567
 7674SOL    HW134658   0.078   1.405   8.417  0.1168 -1.5743 -0.6949
 7674SOL    HW234659   0.156   1.389   8.298  1.1758  1.5159 -0.1997
 7675SOL     OW34660   2.024   4.170   8.534  0.0321 -0.4918 -0.2609
 7675SOL    HW134661   2.004   4.208   8.620 -0.4208 -0.1912 -0.5034
 7675SOL    HW234662   1.944   4.122   8.511  0.3895 -0.7528 -0.9612
 7676SOL     OW34663   2.582   2.224   4.254 -0.1386  0.4795  0.2894
 7676SOL    HW134664   2.540   2.290   4.309 -2.1873 -0.4140 -0.2000
 7676SOL    HW234665   2.675   2.239   4.271 -0.0751 -1.0276  1.2778
 7677SOL     OW34666   2.861   0.900  17.240 -0.1001  0.7959 -0.7993
 7677SOL    HW134667   2.909   0.972  17.282  0.5417 -0.0451 -0.0707
 7677SOL    HW234668   2.779   0.940  17.212 -0.1642  1.2099 -0.0293
 7678SOL     OW34669   3.101   2.904  11.269 -0.1517 -0.1815  0.3769
 7678SOL    HW134670   3.192   2.875  11.271  0.4939  1.6469 -2.3737
 7678SOL    HW234671   3.072   2.866  11.186  1.4602 -0.1731 -0.1772
 7679SOL     OW34672   3.162   1.998   8.561  0.2408  0.6798  0.4683
 7679SOL    HW134673   3.170   1.935   8.632 -0.2411 -0.4686 -0.4823
 7679SOL    HW234674   3.237   1.966   8.511  0.5230 -0.3830  1.5703
 7680SOL     OW34675   2.704   3.427   9.146  0.9893 -0.5697 -0.9510
 7680SOL    HW134676   2.706   3.444   9.052 -1.0344  0.0452 -0.8786
 7680SOL    HW234677   2.797   3.439   9.162  0.4982 -0.0015  1.4043
 7681SOL     OW34678   0.005   3.513   5.734 -0.0312  0.2211  0.3613
 7681SOL    HW134679   4.677   3.535   5.669  0.2627  1.5348  0.5037
 7681SOL    HW234680   4.694   3.453   5.789 -1.3288  0.2994 -0.7113
 7682SOL     OW34681   1.863   4.367   5.184 -0.2014 -0.5449  0.4430
 7682SOL    HW134682   1.873   4.434   5.252  2.7358  0.2879 -0.8110
 7682SOL    HW234683   1.772   4.339   5.195  0.4961 -2.8219  0.3332
 7683SOL     OW34684   3.058   2.790  10.302 -0.1824  0.5041  0.2255
 7683SOL    HW134685   3.049   2.701  10.336 -0.0695  0.7136  0.8134
 7683SOL    HW234686   3.012   2.839  10.370  3.1840  1.6161  1.7288
 7684SOL     OW34687   0.801   2.351   9.438 -0.4848 -0.2911  0.4780
 7684SOL    HW134688   0.834   2.383   9.522 -0.6180  1.4946 -0.1355
 7684SOL    HW234689   0.881   2.359   9.386 -0.8255 -0.7447 -0.1260
 7685SOL     OW34690   2.676   3.506   7.768  0.1604  0.1612  0.2957
 7685SOL    HW134691   2.751   3.474   7.818 -0.0911  1.5356  1.5487
 7685SOL    HW234692   2.612   3.540   7.830  0.8583  2.2456 -0.1393
 7686SOL     OW34693   3.626   4.123   2.464  0.1124 -0.4816  0.2236
 7686SOL    HW134694   3.583   4.180   2.401 -0.2962  0.8547  1.7126
 7686SOL    HW234695   3.609   4.170   2.546 -0.2017 -1.8728  0.9419
 7687SOL     OW34696   2.936   0.791   1.226 -0.3614  0.2062 -0.7755
 7687SOL    HW134697   2.910   0.753   1.143  2.2112  3.2533 -2.9633
 7687SOL    HW234698   2.991   0.719   1.257  0.8631  1.1798 -0.6774
 7688SOL     OW34699   3.075   1.518   4.035 -0.3198 -0.5667  0.0727
 7688SOL    HW134700   2.995   1.498   3.986 -0.0730 -0.6235 -0.2963
 7688SOL    HW234701   3.113   1.434   4.059  0.7222  0.0055  0.4225
 7689SOL     OW34702   0.636   4.082  13.880 -0.1498  0.4549  0.3701
 7689SOL    HW134703   0.720   4.108  13.918 -0.5274  0.8181  0.9493
 7689SOL    HW234704   0.644   4.111  13.789  1.1884  2.0540  1.0087
 7690SOL     OW34705   2.744   2.002   5.501  0.0084  0.5475  0.2224
 7690SOL    HW134706   2.731   1.930   5.562 -4.4701  1.2852  0.1164
 7690SOL    HW234707   2.733   2.071   5.566 -3.4197  0.4718 -0.2940
 7691SOL     OW34708   1.205   2.612   2.439  0.3947  0.2923  0.0881
 7691SOL    HW134709   1.223   2.533   2.388  1.9153  1.9772 -1.9566
 7691SOL    HW234710   1.112   2.621   2.417  0.0276  1.8940  2.2579
 7692SOL     OW34711   0.134   3.897   3.105  0.6348  0.0055 -0.4446
 7692SOL    HW134712   0.116   3.942   3.022  1.5942 -0.1014 -0.7131
 7692SOL    HW234713   0.229   3.902   3.114  0.6422  0.5817 -0.8160
 7693SOL     OW34714   0.143   1.552   6.879  0.0140 -0.3434 -0.4253
 7693SOL    HW134715   0.176   1.520   6.795  1.9121  1.7557 -0.4776
 7693SOL    HW234716   0.051   1.547   6.852  0.4060 -0.1606 -1.8077
 7694SOL     OW34717   2.070   1.989   1.392  0.1852 -0.5987  0.3627
 7694SOL    HW134718   1.983   1.971   1.429 -0.4037  0.4112 -0.5390
 7694SOL    HW234719   2.083   2.083   1.382  1.9838 -0.8428  0.3528
 7695SOL     OW34720   2.338   4.432   4.906  0.1367 -0.1198  0.3292
 7695SOL    HW134721   2.244   4.450   4.913 -0.2786 -1.7949 -0.8196
 7695SOL    HW234722   2.325   4.341   4.879 -0.0266 -0.4640  1.5686
 7696SOL     OW34723   1.220   1.262  12.547 -0.4775 -0.1938 -0.0364
 7696SOL    HW134724   1.164   1.186  12.530 -0.3564 -0.6466  1.5292
 7696SOL    HW234725   1.205   1.308  12.465  1.4808  0.6876  0.1242
 7697SOL     OW34726   3.304   0.862   3.897  0.7573  0.2879  0.0365
 7697SOL    HW134727   3.223   0.837   3.851 -0.2730  0.1642  1.9100
 7697SOL    HW234728   3.311   0.788   3.957  2.7307 -1.3440 -2.1756
 7698SOL     OW34729   2.614   2.010   4.096  0.9421 -0.5075  0.3067
 7698SOL    HW134730   2.613   2.095   4.141 -0.7454 -0.6625  0.5700
 7698SOL    HW234731   2.604   1.954   4.173 -0.6448  1.5531  1.6091
 7699SOL     OW34732   3.082   0.625   9.202 -0.0196  0.1696 -0.0248
 7699SOL    HW134733   3.082   0.547   9.146 -0.9003  0.7625 -0.8713
 7699SOL    HW234734   3.084   0.691   9.132  2.0534 -0.9570 -1.0336
 7700SOL     OW34735   0.066   3.758  13.785  0.1637  0.0579  0.8966
 7700SOL    HW134736   0.050   3.847  13.817  0.0812  0.1292  0.6541
 7700SOL    HW234737   0.162   3.752  13.786  0.0269 -2.2157 -0.1404
 7701SOL     OW34738   4.377   0.245   6.576  0.3708  0.1138 -0.1021
 7701SOL    HW134739   4.416   0.160   6.554  1.5183  0.3772  0.8948
 7701SOL    HW234740   4.328   0.263   6.496 -0.5758 -0.2348  0.4001
 7702SOL     OW34741   2.898   1.667   7.309 -0.2127 -0.3698 -0.5091
 7702SOL    HW134742   2.947   1.748   7.324 -1.0023 -0.0108  0.1497
 7702SOL    HW234743   2.879   1.669   7.216  4.4578  1.6794 -1.4566
 7703SOL     OW34744   2.056   0.897   0.514 -0.6190  0.5204  0.2286
 7703SOL    HW134745   2.011   0.849   0.444  1.6653 -0.9879 -0.1853
 7703SOL    HW234746   2.099   0.822   0.555 -1.6255  0.5405  1.3262
 7704SOL     OW34747   2.583   0.597  11.997 -0.0284 -0.3295 -0.3174
 7704SOL    HW134748   2.675   0.599  12.023 -0.1143 -2.0761  0.0938
 7704SOL    HW234749   2.562   0.508  12.024 -2.1215  0.1486 -0.3767
 7705SOL     OW34750   3.125   2.937  15.392  0.4390  0.4018  0.2903
 7705SOL    HW134751   3.158   2.932  15.482  0.9364 -1.3212  0.0058
 7705SOL    HW234752   3.033   2.913  15.406  0.6228 -0.0701  0.6710
 7706SOL     OW34753   1.043   2.358   9.308  0.3707 -0.2057  0.5917
 7706SOL    HW134754   1.100   2.432   9.287  1.6309 -1.1290  0.7477
 7706SOL    HW234755   1.018   2.332   9.219  0.1597  3.6946 -0.4879
 7707SOL     OW34756   1.425   0.504   9.218  0.8009  0.0959  0.5541
 7707SOL    HW134757   1.372   0.567   9.267  0.0917  1.3557 -1.8349
 7707SOL    HW234758   1.408   0.419   9.259  0.9147  0.4265  1.2742
 7708SOL     OW34759   2.687   1.494   5.474  0.1045  0.6336 -0.2184
 7708SOL    HW134760   2.623   1.523   5.539  0.1899  0.1413  0.0844
 7708SOL    HW234761   2.662   1.533   5.390  0.0318  0.5010 -0.2578
 7709SOL     OW34762   3.524   2.662   8.036  0.2405 -0.3208 -0.1366
 7709SOL    HW134763   3.612   2.642   8.068  0.5470 -0.4730 -1.0619
 7709SOL    HW234764   3.481   2.579   8.058  0.5000 -0.3409  0.3004
 7710SOL     OW34765   3.852   4.535  15.765 -0.1130  0.8581 -0.1023
 7710SOL    HW134766   3.930   4.481  15.769 -1.1362 -0.7014 -1.1728
 7710SOL    HW234767   3.789   4.481  15.814  0.1085  1.3421  0.7259
 7711SOL     OW34768   3.104   0.968   8.159  0.0262  0.2061 -0.6105
 7711SOL    HW134769   3.013   0.994   8.144  0.0611 -0.2205 -1.5840
 7711SOL    HW234770   3.106   0.967   8.254  0.4288 -0.3585 -0.6298
 7712SOL     OW34771   4.153   4.272   2.769 -0.3522 -0.6227 -0.7943
 7712SOL    HW134772   4.148   4.336   2.697  1.5797 -0.2610 -0.6135
 7712SOL    HW234773   4.149   4.187   2.725  1.2444 -0.5645 -1.0395
 7713SOL     OW34774   2.318   1.886  13.497 -0.5589 -0.1525  0.2806
 7713SOL    HW134775   2.258   1.952  13.463  0.7425  0.5866 -0.6110
 7713SOL    HW234776   2.398   1.938  13.512  1.1272 -2.9533  0.9429
 7714SOL     OW34777   0.105   4.337   6.718  0.3133  0.3429  0.2255
 7714SOL    HW134778   0.128   4.410   6.662  2.4244 -1.0451 -0.6945
 7714SOL    HW234779   0.017   4.322   6.682  0.9516 -0.7420 -0.8911
 7715SOL     OW34780   2.282   3.553   4.125 -0.1630 -0.2551 -0.5996
 7715SOL    HW134781   2.239   3.595   4.051 -1.6296  1.7002  1.3306
 7715SOL    HW234782   2.245   3.599   4.201  0.3359  0.5284 -0.8228
 7716SOL     OW34783   2.227   4.302   8.757  0.4183 -0.9614 -0.4163
 7716SOL    HW134784   2.261   4.214   8.740  3.3994  0.0972  0.0068
 7716SOL    HW234785   2.263   4.313   8.845 -2.5317  2.8262  0.3288
 7717SOL     OW34786   2.986   0.246   4.016  0.6367  0.2919 -0.0538
 7717SOL    HW134787   2.966   0.312   3.949 -1.3229  2.4353  2.6250
 7717SOL    HW234788   2.974   0.293   4.098  0.1220  2.1182 -1.1690
 7718SOL     OW34789   3.855   4.440   2.501 -0.5876 -0.1060  0.1901
 7718SOL    HW134790   3.839   4.482   2.417 -0.5825  0.8458  0.6688
 7718SOL    HW234791   3.768   4.450   2.539 -0.0652 -1.1696  1.6667
 7719SOL     OW34792   1.148   3.055   5.946 -0.0819 -0.0329 -0.6357
 7719SOL    HW134793   1.193   3.060   6.031  1.2737  1.5809 -1.4525
 7719SOL    HW234794   1.072   2.998   5.962 -1.2554  2.1009  1.3519
 7720SOL     OW34795   3.807   2.930   7.546 -0.4086 -0.1842 -0.2382
 7720SOL    HW134796   3.737   2.931   7.611 -0.8936 -2.9962 -0.7047
 7720SOL    HW234797   3.879   2.964   7.599 -1.4714  0.8660  0.5219
 7721SOL     OW34798   1.176   0.474   1.441 -0.4780  0.3906 -0.0423
 7721SOL    HW134799   1.211   0.400   1.491  0.6782 -0.5009 -2.1571
 7721SOL    HW234800   1.083   0.456   1.435 -0.5065  0.4448  0.2272
 7722SOL     OW34801   3.184   2.239   3.992  0.4499 -0.2998  0.3744
 7722SOL    HW134802   3.257   2.242   3.931 -1.2431 -1.4942 -1.7253
 7722SOL    HW234803   3.108   2.208   3.942 -0.0953  0.8522  0.4940
 7723SOL     OW34804   3.220   0.412   9.090 -0.4233  0.1931 -0.0056
 7723SOL    HW134805   3.164   0.364   9.029  0.8097 -1.3582  0.0849
 7723SOL    HW234806   3.257   0.340   9.141  2.9378  3.1183  1.6860
 7724SOL     OW34807   3.393   4.269  15.588 -0.0783  0.0533  0.0397
 7724SOL    HW134808   3.415   4.320  15.510  0.6659  1.4929  1.1895
 7724SOL    HW234809   3.330   4.215  15.541  0.7036 -0.2934 -0.6149
 7725SOL     OW34810   4.291   2.862   3.563  0.2199 -0.0455 -0.0258
 7725SOL    HW134811   4.301   2.843   3.656 -0.4000 -0.2704 -0.0067
 7725SOL    HW234812   4.376   2.907   3.556  0.7449 -1.3128 -1.6988
 7726SOL     OW34813   0.855   1.334   2.519 -0.0308  0.1193  0.6698
 7726SOL    HW134814   0.793   1.267   2.549  0.4932 -0.6024  0.1365
 7726SOL    HW234815   0.914   1.335   2.595  1.4811  1.3402 -0.5448
 7727SOL     OW34816   2.321   4.648   4.710  0.4144  0.0900  0.3637
 7727SOL    HW134817   2.345   4.582   4.776  0.5182 -1.3891 -1.1436
 7727SOL    HW234818   2.390   4.638   4.645  0.2835 -0.0998  0.2526
 7728SOL     OW34819   4.699   1.266   3.171  0.0410  0.0116  0.1802
 7728SOL    HW134820   4.685   1.226   3.257  1.3193  0.1935  0.4712
 7728SOL    HW234821   0.010   1.342   3.200  2.5899 -1.5489 -0.0528
 7729SOL     OW34822   0.884   2.562   6.412  0.2263 -0.0360  0.0680
 7729SOL    HW134823   0.828   2.562   6.335 -0.6828  0.8676  0.7343
 7729SOL    HW234824   0.919   2.473   6.407 -1.4183 -0.6753 -0.0923
 7730SOL     OW34825   3.364   1.003   6.486  0.7770 -0.3529 -0.2753
 7730SOL    HW134826   3.314   0.970   6.411  0.7225 -2.8962  0.8842
 7730SOL    HW234827   3.454   0.988   6.457  0.9422  0.3237 -0.1038
 7731SOL     OW34828   0.278   1.820   1.765 -0.0037  0.3991 -0.1765
 7731SOL    HW134829   0.214   1.752   1.744 -0.2834  0.2084  1.3511
 7731SOL    HW234830   0.356   1.796   1.713  0.3108  1.5700 -0.2587
 7732SOL     OW34831   3.870   2.162   3.034  0.4830 -0.0489 -0.3169
 7732SOL    HW134832   3.789   2.123   3.065 -0.8659  1.5900 -1.7719
 7732SOL    HW234833   3.895   2.118   2.953  2.4349  1.5760 -0.6082
 7733SOL     OW34834   2.511   1.757   6.750 -1.0234  0.1550  0.1851
 7733SOL    HW134835   2.426   1.743   6.710 -0.7350  0.1883 -0.4339
 7733SOL    HW234836   2.525   1.679   6.805  2.6754  0.7817  0.1280
 7734SOL     OW34837   1.221   2.141   7.333  0.0058 -0.0791  0.4803
 7734SOL    HW134838   1.154   2.097   7.385  0.0016 -1.0503 -0.3433
 7734SOL    HW234839   1.178   2.163   7.251 -1.3434 -2.5682  0.5233
 7735SOL     OW34840   1.875   3.176   6.600 -0.2139 -0.6039  0.2787
 7735SOL    HW134841   1.862   3.227   6.680  1.3748  1.1082 -0.5320
 7735SOL    HW234842   1.939   3.111   6.631  0.1770  0.3217  1.4162
 7736SOL     OW34843   1.902   1.909  11.394  0.7072  0.4241 -0.0355
 7736SOL    HW134844   1.873   1.857  11.469  0.4961 -0.5309 -0.7876
 7736SOL    HW234845   1.891   1.846  11.323  0.2534 -1.3448  1.6086
 7737SOL     OW34846   4.159   1.221   3.756  0.1111 -0.1806 -0.2141
 7737SOL    HW134847   4.077   1.211   3.708  1.5125  3.5920 -3.3810
 7737SOL    HW234848   4.182   1.313   3.762  0.4634 -0.0941 -2.9421
 7738SOL     OW34849   0.616   4.382   8.721 -0.3993  0.6063 -0.0994
 7738SOL    HW134850   0.606   4.419   8.809  2.8013  1.7518 -0.2068
 7738SOL    HW234851   0.688   4.431   8.680 -1.6860  1.7683 -0.9799
 7739SOL     OW34852   1.438   4.243  14.390  0.0246 -0.2148 -0.2354
 7739SOL    HW134853   1.390   4.299  14.329 -0.7933  1.8289  2.2949
 7739SOL    HW234854   1.442   4.161  14.340  2.1293 -1.1928  1.5193
 7740SOL     OW34855   0.469   3.046   3.814  0.0449 -0.4084  0.1067
 7740SOL    HW134856   0.541   3.050   3.751 -0.1955  1.1839 -0.0768
 7740SOL    HW234857   0.417   3.124   3.794  0.1299 -0.4130 -0.1434
 7741SOL     OW34858   3.723   0.791   5.746 -0.4769 -0.2044  0.2721
 7741SOL    HW134859   3.717   0.777   5.841 -1.4198 -0.9304  0.1164
 7741SOL    HW234860   3.722   0.886   5.735 -1.0914 -0.1779  0.5225
 7742SOL     OW34861   1.374   2.349  12.031 -0.1981  0.2360  0.6917
 7742SOL    HW134862   1.455   2.319  12.073  0.1826  0.0634 -0.1640
 7742SOL    HW234863   1.322   2.368  12.109 -1.7342  2.2003 -0.8183
 7743SOL     OW34864   3.330   1.547  14.512  0.4705 -0.4748 -0.4144
 7743SOL    HW134865   3.356   1.637  14.533 -0.7785 -0.7464  2.3775
 7743SOL    HW234866   3.393   1.521  14.445  0.2818  0.7772 -1.0858
 7744SOL     OW34867   2.106   1.784   5.167  0.1923 -0.3170  0.0875
 7744SOL    HW134868   2.041   1.855   5.167  0.5056 -0.0347 -0.2869
 7744SOL    HW234869   2.135   1.800   5.257  0.8543 -0.6280 -0.0727
 7745SOL     OW34870   0.837   4.070  10.099 -0.3206 -1.1663 -0.4065
 7745SOL    HW134871   0.796   4.156  10.098 -0.7931 -1.3868  0.5175
 7745SOL    HW234872   0.856   4.053  10.191  1.2242 -1.1249 -0.7106
 7746SOL     OW34873   1.294   2.567   4.731  0.1220  0.4886 -0.0466
 7746SOL    HW134874   1.243   2.512   4.673  0.0351  0.0649  0.4307
 7746SOL    HW234875   1.293   2.519   4.814 -1.8649 -1.5726 -1.2844
 7747SOL     OW34876   1.046   0.793   3.794 -0.0889  0.0968  0.0131
 7747SOL    HW134877   1.020   0.704   3.770 -1.0696  0.3207  0.2415
 7747SOL    HW234878   0.967   0.814   3.843  1.5960  2.7300  1.6150
 7748SOL     OW34879   3.542   1.411   5.978 -0.0979 -1.0059  0.5906
 7748SOL    HW134880   3.610   1.437   6.040 -0.1782  2.3367 -0.7403
 7748SOL    HW234881   3.574   1.326   5.949  0.9560  0.0448 -1.2860
 7749SOL     OW34882   0.190   0.378   6.850  0.1045 -0.2657  0.2646
 7749SOL    HW134883   0.254   0.332   6.904  0.5960  1.1879  0.9026
 7749SOL    HW234884   0.131   0.419   6.913  1.2359 -1.0109  1.7974
 7750SOL     OW34885   2.984   0.555   9.727  0.0007  0.0998 -0.0591
 7750SOL    HW134886   2.995   0.550   9.632 -0.1001 -0.3138 -0.0480
 7750SOL    HW234887   2.896   0.593   9.731  0.3205  1.2923 -3.5972
 7751SOL     OW34888   3.437   4.383   6.130  0.4315  0.0481  0.3303
 7751SOL    HW134889   3.511   4.407   6.074 -1.6144  2.3746 -1.3643
 7751SOL    HW234890   3.477   4.377   6.217  1.3130 -2.3117 -0.2214
 7752SOL     OW34891   0.371   0.831   1.146 -0.3246  0.7265 -0.0825
 7752SOL    HW134892   0.447   0.859   1.095 -0.4945  1.4474  0.0551
 7752SOL    HW234893   0.411   0.839   1.233 -1.1698  4.1123 -0.0275
 7753SOL     OW34894   4.278   3.835  15.013 -0.7763 -0.0958  0.4040
 7753SOL    HW134895   4.320   3.919  14.994 -0.0947  0.0837  2.7576
 7753SOL    HW234896   4.193   3.877  15.020 -0.1904  1.2528 -0.6459
 7754SOL     OW34897   0.180   2.820   4.381 -0.1037 -0.5767  0.4348
 7754SOL    HW134898   0.226   2.884   4.328 -0.4323  0.5242  1.4656
 7754SOL    HW234899   0.163   2.745   4.324 -0.7552  1.3358 -1.8685
 7755SOL     OW34900   4.530   0.291  11.500 -0.3518 -0.1834 -0.0839
 7755SOL    HW134901   4.495   0.324  11.417 -0.5359 -1.0100 -0.3373
 7755SOL    HW234902   4.621   0.283  11.473 -0.4839  0.4154 -0.7110
 7756SOL     OW34903   4.549   3.661   8.231  0.4221 -0.0199  0.1607
 7756SOL    HW134904   4.613   3.729   8.255 -0.3369  1.5767 -2.3085
 7756SOL    HW234905   4.493   3.654   8.308 -1.3454  1.3708 -0.9923
 7757SOL     OW34906   3.053   0.009   1.854  0.2088 -0.2121  0.1876
 7757SOL    HW134907   3.134   4.712   1.889 -0.5688 -1.7226  0.4399
 7757SOL    HW234908   2.990   4.721   1.920 -2.0256  1.4306 -1.2622
 7758SOL     OW34909   3.815   4.529   6.310 -0.4801  0.3051  0.0527
 7758SOL    HW134910   3.853   4.515   6.397 -1.4820  2.6375  0.8685
 7758SOL    HW234911   3.894   4.554   6.262 -0.2899  0.1986  0.3069
 7759SOL     OW34912   4.356   1.486  15.360 -0.8432  0.6186 -0.7819
 7759SOL    HW134913   4.437   1.484  15.411 -2.2706 -0.6641  1.4149
 7759SOL    HW234914   4.376   1.449  15.274 -0.2845 -1.0523  0.0599
 7760SOL     OW34915   0.552   3.307   4.950 -0.3543  0.7971 -0.4815
 7760SOL    HW134916   0.485   3.337   4.888  1.2338  2.9352 -1.1518
 7760SOL    HW234917   0.501   3.239   4.994 -0.5494  0.8875 -0.5657
 7761SOL     OW34918   1.371   1.743   6.078  0.4398 -0.3193  0.0941
 7761SOL    HW134919   1.409   1.745   6.166 -1.7219 -1.5828  1.0434
 7761SOL    HW234920   1.431   1.694   6.022 -0.0953 -2.0063  0.9906
 7762SOL     OW34921   2.464   0.968   4.071 -0.0574  0.0637  0.5388
 7762SOL    HW134922   2.407   0.905   4.027 -0.8694  1.4871 -0.4629
 7762SOL    HW234923   2.512   0.907   4.126 -2.0724  0.3209  2.5554
 7763SOL     OW34924   2.033   0.278   9.191  0.4942 -0.8446 -0.1026
 7763SOL    HW134925   2.110   0.307   9.240 -0.2843 -1.1138  1.2832
 7763SOL    HW234926   1.986   0.212   9.242 -0.9107  0.3731  0.1731
 7764SOL     OW34927   3.343   3.313   7.583  0.1160  0.1460 -0.1660
 7764SOL    HW134928   3.330   3.225   7.618 -3.6456  1.2078  1.1137
 7764SOL    HW234929   3.340   3.359   7.667  0.3557 -1.2478  0.5899
 7765SOL     OW34930   3.387   0.021  12.574  0.5979  0.0405 -0.2416
 7765SOL    HW134931   3.330   0.077  12.522  0.5259 -0.4846 -0.7348
 7765SOL    HW234932   3.384   0.068  12.657 -1.8467 -0.5790  0.0274
 7766SOL     OW34933   1.404   0.230   2.279 -0.0258  0.0023  0.5326
 7766SOL    HW134934   1.472   0.168   2.251  1.5611  1.1949  1.7570
 7766SOL    HW234935   1.335   0.166   2.296 -0.1585 -0.4181 -1.5213
 7767SOL     OW34936   3.211   4.454  16.875 -0.2136  0.4577  0.0529
 7767SOL    HW134937   3.231   4.386  16.938 -1.5842 -0.4815 -0.5325
 7767SOL    HW234938   3.292   4.506  16.879 -1.5132  2.4712  0.0475
 7768SOL     OW34939   3.197   2.791   9.650 -0.7267 -0.1955  0.0869
 7768SOL    HW134940   3.236   2.745   9.724  2.7230 -0.2331 -1.7442
 7768SOL    HW234941   3.104   2.787   9.673 -0.8915 -1.1080 -0.7231
 7769SOL     OW34942   4.017   4.455   8.675  0.3171  0.2832 -0.2101
 7769SOL    HW134943   4.071   4.488   8.603  0.0521 -0.4990 -0.7675
 7769SOL    HW234944   3.961   4.532   8.685 -0.1279  0.2732 -2.5394
 7770SOL     OW34945   2.115   1.460   7.029 -0.1479  0.0648  0.1081
 7770SOL    HW134946   2.138   1.394   6.964  1.5602  2.2365 -1.5003
 7770SOL    HW234947   2.020   1.446   7.035 -0.3048 -0.0335 -2.5950
 7771SOL     OW34948   1.069   4.319   2.305 -0.0986  0.1171 -0.8776
 7771SOL    HW134949   0.981   4.355   2.315  0.2391 -0.3604  4.2081
 7771SOL    HW234950   1.058   4.230   2.338 -3.4549  1.1032  0.6632
 7772SOL     OW34951   2.597   4.167   4.822  0.0686  0.0118  0.0209
 7772SOL    HW134952   2.613   4.259   4.800  0.2874  0.2781  1.2869
 7772SOL    HW234953   2.526   4.137   4.765 -1.7178  1.0703  1.6827
 7773SOL     OW34954   2.357   4.078   2.949 -0.4710 -0.2243  0.1078
 7773SOL    HW134955   2.430   4.137   2.963 -1.8479  1.4680  0.0998
 7773SOL    HW234956   2.396   3.999   2.911 -1.1166 -0.5704  0.1630
 7774SOL     OW34957   3.984   2.584   3.496 -0.1008 -0.0527 -0.2478
 7774SOL    HW134958   3.896   2.621   3.490  0.1071  0.5111  0.1831
 7774SOL    HW234959   4.005   2.554   3.408  0.0525  0.0018 -0.2305
 7775SOL     OW34960   4.453   0.209   8.888  0.1615  0.1632  0.0107
 7775SOL    HW134961   4.371   0.250   8.860 -0.1350 -0.6838 -0.3749
 7775SOL    HW234962   4.489   0.161   8.813 -2.3250  0.0200 -1.0898
 7776SOL     OW34963   1.541   4.428   2.311 -0.1304 -0.1296  0.0663
 7776SOL    HW134964   1.537   4.347   2.362 -0.7253 -0.7389 -0.9591
 7776SOL    HW234965   1.471   4.417   2.247 -1.2137  2.6875  0.7669
 7777SOL     OW34966   3.440   4.312   4.782  0.4737  0.0771 -0.1322
 7777SOL    HW134967   3.524   4.285   4.819  0.4647 -1.2341 -1.1058
 7777SOL    HW234968   3.395   4.334   4.864 -0.8383 -0.7287 -0.6566
 7778SOL     OW34969   4.226   1.747   4.967 -0.8558  0.1726 -0.0002
 7778SOL    HW134970   4.309   1.752   5.014 -0.0946  0.5301 -1.3736
 7778SOL    HW234971   4.176   1.811   5.017  2.5627  2.3641  0.6024
 7779SOL     OW34972   1.434   1.870   5.496  0.3308  0.4273  0.1401
 7779SOL    HW134973   1.422   1.888   5.403 -1.0688 -1.4332 -0.0204
 7779SOL    HW234974   1.404   1.779   5.496  1.4387  0.0569 -1.3228
 7780SOL     OW34975   0.097   0.506   3.705  0.4609 -0.6951 -0.4223
 7780SOL    HW134976   0.139   0.545   3.782  1.8619 -0.7591 -1.1567
 7780SOL    HW234977   0.030   0.460   3.755 -1.0781  2.6114  0.5533
 7781SOL     OW34978   0.020   1.618   3.176 -0.1043 -0.4646  0.1676
 7781SOL    HW134979   0.013   1.696   3.231  0.2190  1.2390 -2.1638
 7781SOL    HW234980   0.023   1.547   3.240  2.0197 -2.0359 -1.6790
 7782SOL     OW34981   3.128   0.706   8.922 -0.1297 -0.2581  0.1013
 7782SOL    HW134982   3.133   0.737   8.832 -1.6327  1.6375  0.6720
 7782SOL    HW234983   3.073   0.628   8.910  0.4442 -0.7880  0.9588
 7783SOL     OW34984   3.907   3.653   6.177  0.0738  0.1297 -0.0290
 7783SOL    HW134985   3.863   3.635   6.260 -0.3115  2.7350  0.3455
 7783SOL    HW234986   3.934   3.741   6.204  1.7959  0.0552 -1.5478
 7784SOL     OW34987   3.847   1.057   6.611 -0.3478 -0.4790 -0.4393
 7784SOL    HW134988   3.813   1.056   6.700 -0.1345 -1.2718 -0.3731
 7784SOL    HW234989   3.758   1.050   6.575 -0.0014 -0.0668 -1.3981
 7785SOL     OW34990   4.170   3.993   4.175  0.4192  0.1947 -0.6674
 7785SOL    HW134991   4.176   4.029   4.263  1.9063 -1.5438 -0.0545
 7785SOL    HW234992   4.220   3.912   4.176  0.5946  0.3163  0.6108
 7786SOL     OW34993   0.065   3.732  12.036  0.0871 -0.7834  0.1263
 7786SOL    HW134994   0.060   3.810  12.091 -0.1916  0.0578 -1.0861
 7786SOL    HW234995   0.150   3.694  12.058  0.4070 -0.0976  0.0603
 7787SOL     OW34996   3.390   4.561   2.430 -0.1634  0.3234  0.0322
 7787SOL    HW134997   3.348   4.647   2.436 -0.6627  0.1356 -0.7684
 7787SOL    HW234998   3.321   4.524   2.374  0.3410 -0.1586 -0.2707
 7788SOL     OW34999   0.364   0.848   5.516 -0.6119 -0.2775 -0.4139
 7788SOL    HW135000   0.332   0.920   5.569  0.5324  0.5112 -0.7840
 7788SOL    HW235001   0.294   0.786   5.537  1.2832 -1.6587  1.8786
 7789SOL     OW35002   0.618   4.556   9.146 -0.8134 -0.1450  0.0196
 7789SOL    HW135003   0.693   4.587   9.198 -1.0635  0.6226 -0.0726
 7789SOL    HW235004   0.621   4.465   9.175 -1.4631 -0.6690 -1.5919
 7790SOL     OW35005   0.376   4.235   9.305 -0.1552  0.7234  0.3096
 7790SOL    HW135006   0.468   4.232   9.332  0.4827  1.3966 -1.8580
 7790SOL    HW235007   0.361   4.329   9.312  0.2359  0.8724 -0.9226
 7791SOL     OW35008   0.147   1.369   9.443  0.6235 -0.6823  0.1509
 7791SOL    HW135009   0.140   1.275   9.459  1.5803 -0.7560  0.1830
 7791SOL    HW235010   0.147   1.366   9.347  0.7496 -0.9111  0.1595
 7792SOL     OW35011   1.975   4.111  16.122  0.0781 -0.1908  0.0275
 7792SOL    HW135012   1.945   4.114  16.031 -0.5855 -1.8770  0.1774
 7792SOL    HW235013   2.021   4.028  16.137 -0.7485 -1.2442 -3.1966
 7793SOL     OW35014   4.708   2.193   6.625  0.1918 -0.5633 -0.4283
 7793SOL    HW135015   0.062   2.172   6.615  0.3568 -1.6454  3.4068
 7793SOL    HW235016   4.695   2.174   6.718  1.5564  0.5935  0.0079
 7794SOL     OW35017   3.986   0.341   2.440  0.2471 -0.1957 -0.0774
 7794SOL    HW135018   3.972   0.428   2.401  2.4875  0.1067 -0.2378
 7794SOL    HW235019   3.936   0.289   2.378  0.0272  1.5869 -1.4144
 7795SOL     OW35020   0.582   2.315   3.563 -0.2506 -0.2325  0.1958
 7795SOL    HW135021   0.643   2.377   3.604  1.2828 -0.4663 -1.7278
 7795SOL    HW235022   0.507   2.342   3.616 -0.9872 -1.3788 -0.2533
 7796SOL     OW35023   4.053   1.535   5.033 -0.3743 -0.1516  0.5113
 7796SOL    HW135024   4.134   1.587   5.032  0.5910 -1.6796 -1.8851
 7796SOL    HW235025   4.085   1.475   4.965 -0.7552 -0.0012  0.2033
 7797SOL     OW35026   3.874   1.014  15.324  0.2669  0.0958 -0.0383
 7797SOL    HW135027   3.916   1.012  15.238 -2.8206 -0.9903 -1.5079
 7797SOL    HW235028   3.922   1.091  15.356 -1.0343  0.4620  1.0489
 7798SOL     OW35029   0.565   1.852   1.974 -0.7497  0.0991 -0.3576
 7798SOL    HW135030   0.627   1.781   1.991 -1.1891  0.3673  2.3398
 7798SOL    HW235031   0.590   1.866   1.882 -0.5233  1.4810 -0.0797
 7799SOL     OW35032   2.870   1.236   4.139  0.1940 -0.4558  0.0191
 7799SOL    HW135033   2.794   1.254   4.194  0.5937 -1.8255  1.0156
 7799SOL    HW235034   2.915   1.192   4.211  1.1679  1.3541  0.5153
 7800SOL     OW35035   3.216   0.790  10.425 -0.1023  0.4906  0.0719
 7800SOL    HW135036   3.146   0.822  10.369 -1.2307 -1.3138  0.4423
 7800SOL    HW235037   3.285   0.857  10.423  0.2946  0.0350 -1.3466
 7801SOL     OW35038   1.405   3.323   8.677 -0.4005 -0.2993 -0.0435
 7801SOL    HW135039   1.481   3.348   8.626 -1.8300  1.9397 -1.0758
 7801SOL    HW235040   1.357   3.406   8.686  0.8004  0.3197  0.7438
 7802SOL     OW35041   1.171   1.894  10.958  0.6011 -0.7230  0.2376
 7802SOL    HW135042   1.183   1.822  11.020 -1.1712 -0.8971  0.3639
 7802SOL    HW235043   1.156   1.853  10.873  1.3059 -0.2986 -0.0925
 7803SOL     OW35044   0.662   0.588   5.465 -0.3173  0.3913 -0.0820
 7803SOL    HW135045   0.735   0.544   5.423 -0.6147  0.1838 -0.3792
 7803SOL    HW235046   0.611   0.602   5.386 -0.0311 -0.6487 -0.4485
 7804SOL     OW35047   3.729   1.937   5.564 -0.4570  0.2105 -0.7297
 7804SOL    HW135048   3.662   2.002   5.583 -1.4462 -0.2983 -2.4779
 7804SOL    HW235049   3.755   1.960   5.475 -3.1621  0.7601 -1.3881
 7805SOL     OW35050   2.634   2.349   6.306 -0.1503 -0.1518 -0.3075
 7805SOL    HW135051   2.548   2.308   6.303 -0.7527  1.4403 -4.4329
 7805SOL    HW235052   2.608   2.437   6.334  0.0743  0.3097 -1.5604
 7806SOL     OW35053   0.754   4.395  13.544 -0.3827 -0.4519  0.2352
 7806SOL    HW135054   0.698   4.440  13.608  1.5788  1.0690  0.9015
 7806SOL    HW235055   0.704   4.406  13.463 -0.5413 -2.0063  0.1256
 7807SOL     OW35056   0.603   0.037   0.338  0.4535 -0.6604 -0.7486
 7807SOL    HW135057   0.543   0.097   0.292  0.9277 -0.2925 -0.8795
 7807SOL    HW235058   0.659   0.018   0.263  0.8711  1.3936 -0.9515
 7808SOL     OW35059   0.788   0.010   3.871  0.8590 -0.5374  0.1801
 7808SOL    HW135060   0.725   0.078   3.847  2.0261  0.2593 -0.6324
 7808SOL    HW235061   0.798   4.691   3.795  1.4249 -0.9728  0.5792
 7809SOL     OW35062   2.382   3.387  15.615 -0.3301 -1.0754  0.0881
 7809SOL    HW135063   2.451   3.322  15.629 -1.0281 -1.7656  0.3131
 7809SOL    HW235064   2.365   3.416  15.705  0.6250  2.1110 -0.7651
 7810SOL     OW35065   3.592   1.411  16.458 -0.1183  0.2540  0.4409
 7810SOL    HW135066   3.536   1.345  16.417  0.8655 -0.4309  0.1992
 7810SOL    HW235067   3.531   1.457  16.515  0.3449  0.5406  0.7094
 7811SOL     OW35068   3.653   3.883  10.183 -0.2474  0.4393  0.2168
 7811SOL    HW135069   3.592   3.948  10.146 -0.9476  0.0260  0.6410
 7811SOL    HW235070   3.702   3.942  10.239  1.2642 -0.1842 -0.4560
 7812SOL     OW35071   3.697   1.211   7.588  1.0562  0.5257 -0.1480
 7812SOL    HW135072   3.652   1.133   7.621 -0.4029  0.3154 -2.6439
 7812SOL    HW235073   3.741   1.183   7.507  1.4680  0.0438  0.2383
 7813SOL     OW35074   1.017   0.877  14.775 -0.0694  0.1445  0.2050
 7813SOL    HW135075   1.019   0.804  14.836  1.3385 -2.1226 -2.5694
 7813SOL    HW235076   1.004   0.832  14.691  0.9835 -2.2401  1.3386
 7814SOL     OW35077   3.972   2.408   6.222  0.1272  0.2863 -0.0863
 7814SOL    HW135078   3.931   2.470   6.283  2.6200  0.0049  1.8673
 7814SOL    HW235079   3.960   2.460   6.143  2.1910 -1.2225 -1.3862
 7815SOL     OW35080   1.087   4.728   9.074 -0.3296  0.4726  0.2634
 7815SOL    HW135081   1.064   4.707   9.165  2.1287 -0.5851  0.6180
 7815SOL    HW235082   1.017   0.048   9.045  0.4635 -0.1597 -2.9142
 7816SOL     OW35083   0.394   3.335  10.040 -0.7026  0.6949  0.2228
 7816SOL    HW135084   0.412   3.376  10.124  2.4333 -0.3863  0.0853
 7816SOL    HW235085   0.478   3.331   9.995 -1.1482  0.2015 -0.5768
 7817SOL     OW35086   4.056   1.678   3.559  0.1915 -0.3456  0.4735
 7817SOL    HW135087   4.119   1.656   3.628  2.5698  2.7655 -0.7109
 7817SOL    HW235088   4.116   1.667   3.485 -0.4511  1.2798 -0.2652
 7818SOL     OW35089   1.850   0.657   9.093 -0.2605  0.1887 -0.4098
 7818SOL    HW135090   1.825   0.594   9.027  0.6960 -2.1215  1.4286
 7818SOL    HW235091   1.814   0.732   9.047  2.9220  0.9910 -1.6248
 7819SOL     OW35092   2.700   3.990   5.921 -0.4983 -0.7064 -0.0982
 7819SOL    HW135093   2.712   3.948   5.836  0.0986 -1.5036  0.3745
 7819SOL    HW235094   2.782   3.959   5.959 -0.7921 -1.1285  0.1995
 7820SOL     OW35095   2.202   2.572   5.168 -0.6414  0.4223  0.2664
 7820SOL    HW135096   2.158   2.495   5.205  0.1089 -0.0604  0.1615
 7820SOL    HW235097   2.131   2.615   5.120 -2.0022 -1.0616  0.9393
 7821SOL     OW35098   0.263   0.184   4.211 -0.4254  0.4217  0.0884
 7821SOL    HW135099   0.214   0.112   4.171 -0.0733  0.2076  0.0470
 7821SOL    HW235100   0.260   0.255   4.147 -0.1057  0.0387 -0.3481
 7822SOL     OW35101   2.335   1.098   5.881 -0.6571  0.4876  0.6772
 7822SOL    HW135102   2.336   1.184   5.924 -1.0090  0.8812 -0.0935
 7822SOL    HW235103   2.393   1.054   5.942  1.2463 -0.3494 -1.7453
 7823SOL     OW35104   0.825   2.124   4.298  0.4053 -0.2864  0.0372
 7823SOL    HW135105   0.831   2.055   4.232 -0.6716  1.1231 -1.5251
 7823SOL    HW235106   0.742   2.107   4.343  0.4934  1.9452  1.0400
 7824SOL     OW35107   4.507   1.965  17.029  0.3548  0.5505 -0.3181
 7824SOL    HW135108   4.459   2.048  17.017  2.2458  1.5784 -0.7775
 7824SOL    HW235109   4.590   2.006  17.055  0.6107  0.4403 -0.9716
 7825SOL     OW35110   1.327   2.826   3.285  1.0258  0.5218 -0.1275
 7825SOL    HW135111   1.407   2.846   3.237 -1.3964  2.2284 -3.4313
 7825SOL    HW235112   1.265   2.869   3.227 -0.3827 -0.2068  0.8220
 7826SOL     OW35113   1.679   2.837   5.918 -0.2800  0.0715  0.0007
 7826SOL    HW135114   1.602   2.787   5.947  1.6317 -1.4130  2.4176
 7826SOL    HW235115   1.723   2.769   5.867  1.7491 -0.0179  1.9189
 7827SOL     OW35116   4.695   4.342   9.173 -0.2908 -0.0211  0.1164
 7827SOL    HW135117   4.629   4.278   9.199  0.4480 -1.6921 -2.1156
 7827SOL    HW235118   4.671   4.406   9.240 -0.8827 -0.8438  0.6826
 7828SOL     OW35119   4.591   3.899   6.958  0.5005 -0.1816 -0.6093
 7828SOL    HW135120   4.570   3.867   7.046  1.1947  2.6915  0.6375
 7828SOL    HW235121   4.513   3.863   6.917  0.7930 -1.2974 -0.1779
 7829SOL     OW35122   3.475   2.503   4.917  0.3876 -0.1183  0.2486
 7829SOL    HW135123   3.462   2.410   4.900 -0.6900  0.0638  0.0982
 7829SOL    HW235124   3.518   2.532   4.836 -0.5895  1.1241  0.1683
 7830SOL     OW35125   1.660   1.824   6.559 -0.5821  0.0971  0.1041
 7830SOL    HW135126   1.718   1.789   6.628  0.8530 -0.3579 -1.3216
 7830SOL    HW235127   1.590   1.853   6.617 -1.0913 -2.4777  0.7597
 7831SOL     OW35128   4.347   4.632  14.584  0.3031  0.2648  0.4558
 7831SOL    HW135129   4.422   4.609  14.529  0.8362  0.2315  1.1982
 7831SOL    HW235130   4.391   4.694  14.642  1.7969  0.8642 -1.3368
 7832SOL     OW35131   3.571   4.610   7.584 -0.0388  0.1584  0.5562
 7832SOL    HW135132   3.654   4.574   7.616 -1.1054 -3.5774 -0.8515
 7832SOL    HW235133   3.564   4.685   7.643 -0.5901  0.5859 -0.0480
 7833SOL     OW35134   0.324   0.166   7.001  0.8667 -0.2460 -0.0544
 7833SOL    HW135135   0.329   0.117   7.083  1.5186  1.5270  0.9736
 7833SOL    HW235136   0.317   0.093   6.939 -0.6074 -1.2003  1.2448
 7834SOL     OW35137   1.120   3.399   2.443 -0.0789 -0.4955 -0.0399
 7834SOL    HW135138   1.098   3.417   2.352 -2.2404 -3.6984 -0.1445
 7834SOL    HW235139   1.192   3.460   2.459  0.3640 -0.4331 -2.2516
 7835SOL     OW35140   3.505   0.695   2.599 -0.4412 -0.3744  0.6408
 7835SOL    HW135141   3.551   0.707   2.516  0.8838  0.0128  1.4313
 7835SOL    HW235142   3.572   0.634   2.629 -0.6949  0.2170  2.4164
 7836SOL     OW35143   0.566   1.293   6.746 -0.6879  0.1920 -0.2563
 7836SOL    HW135144   0.623   1.330   6.813 -1.0849  0.2543  0.0499
 7836SOL    HW235145   0.516   1.226   6.793  0.8650 -0.3017  0.6804
 7837SOL     OW35146   2.015   3.423   4.785 -0.2592  0.1437 -0.0954
 7837SOL    HW135147   2.052   3.511   4.785  0.5899 -0.2223  0.7700
 7837SOL    HW235148   2.016   3.397   4.877  0.1044 -0.6761 -0.3323
 7838SOL     OW35149   3.453   3.517   0.758  0.0020  0.3261  0.1792
 7838SOL    HW135150   3.375   3.552   0.800 -0.9323 -0.1307 -1.1842
 7838SOL    HW235151   3.490   3.468   0.832 -1.1870  0.8210  1.1165
 7839SOL     OW35152   3.197   2.213   7.996 -0.0480  0.4628  0.1811
 7839SOL    HW135153   3.221   2.174   7.911  2.8197  2.3195  0.1600
 7839SOL    HW235154   3.217   2.144   8.059  0.2639  1.0116  0.6735
 7840SOL     OW35155   0.169   4.193   9.081  0.1166  0.2723  0.1470
 7840SOL    HW135156   0.158   4.240   9.163 -0.1663  2.8080 -1.3443
 7840SOL    HW235157   0.230   4.247   9.030  2.1460 -0.3256  1.9365
 7841SOL     OW35158   2.736   1.950   2.449  0.1020  0.3138  0.5707
 7841SOL    HW135159   2.729   2.033   2.497 -0.8064  0.5686  0.0049
 7841SOL    HW235160   2.815   1.964   2.398 -1.0079  0.4935 -1.1015
 7842SOL     OW35161   0.268   3.084   0.112  0.1716  0.8718 -0.1776
 7842SOL    HW135162   0.208   3.158   0.109 -0.3981  0.4108 -0.2713
 7842SOL    HW235163   0.200   3.018   0.128 -1.8864  2.5348 -2.2215
 7843SOL     OW35164   0.919   3.304   8.830 -0.7996  0.3934 -0.7424
 7843SOL    HW135165   0.847   3.261   8.785 -1.2502  1.0174 -0.6246
 7843SOL    HW235166   0.973   3.300   8.752  0.2801  4.2562 -0.2405
 7844SOL     OW35167   0.103   1.611   1.776  0.0553  0.1784 -0.2585
 7844SOL    HW135168   0.085   1.522   1.744  0.0829  0.1488 -0.1917
 7844SOL    HW235169   0.068   1.602   1.865 -2.4225 -2.5372 -1.5037
 7845SOL     OW35170   4.524   1.780   7.966  0.8564 -0.0152 -0.3462
 7845SOL    HW135171   4.542   1.872   7.987 -0.5494  0.1082  0.3354
 7845SOL    HW235172   4.468   1.761   8.042 -0.8602  1.0412 -1.3370
 7846SOL     OW35173   4.203   3.903   1.281 -0.3709  0.0285 -0.4672
 7846SOL    HW135174   4.246   3.968   1.337 -0.2486 -0.5245  0.0800
 7846SOL    HW235175   4.124   3.946   1.248 -0.8678 -0.0594  0.6176
 7847SOL     OW35176   2.551   1.630  16.195  0.6528  0.0817  0.1500
 7847SOL    HW135177   2.493   1.707  16.195  0.9714  0.3156 -1.2840
 7847SOL    HW235178   2.518   1.571  16.263 -0.3791  1.7019  1.0706
 7848SOL     OW35179   2.082   3.545   2.906 -0.2124  0.0509 -0.1756
 7848SOL    HW135180   2.105   3.494   2.828  2.4655 -0.5415  1.0197
 7848SOL    HW235181   2.157   3.601   2.928  0.3772  0.2192 -2.5940
 7849SOL     OW35182   1.732   2.258   8.002 -0.2634 -0.0167  0.1062
 7849SOL    HW135183   1.811   2.265   8.055 -0.0719 -0.0373 -0.1754
 7849SOL    HW235184   1.682   2.326   8.048 -0.9444  0.0290 -0.6925
 7850SOL     OW35185   1.224   3.011   9.374  0.1890  0.6660 -0.3040
 7850SOL    HW135186   1.301   3.033   9.322  0.4147 -0.3342 -0.3900
 7850SOL    HW235187   1.197   3.097   9.407  2.3076  1.2732 -0.1656
 7851SOL     OW35188   1.610   3.696   5.350  0.5818 -0.3040  0.4116
 7851SOL    HW135189   1.557   3.696   5.270  1.4858  0.7499 -0.1965
 7851SOL    HW235190   1.690   3.651   5.323  1.3194  1.5774 -0.5249
 7852SOL     OW35191   3.151   3.474   3.885  0.3388 -0.2715 -0.7879
 7852SOL    HW135192   3.197   3.463   3.969 -0.2998 -1.4214 -0.5849
 7852SOL    HW235193   3.058   3.470   3.904  0.3630 -3.4560 -1.2679
 7853SOL     OW35194   2.762   0.351   1.138  0.5817 -0.2003 -0.0179
 7853SOL    HW135195   2.689   0.302   1.176  1.7313 -1.4961  0.5541
 7853SOL    HW235196   2.736   0.362   1.047 -0.0843  1.0207  0.3198
 7854SOL     OW35197   0.814   0.316   7.986 -0.4141 -0.1675 -0.3240
 7854SOL    HW135198   0.750   0.368   7.938 -0.2914  0.3636  0.0902
 7854SOL    HW235199   0.804   0.357   8.071 -0.9826 -0.6106 -0.1766
 7855SOL     OW35200   4.567   4.346  13.841 -0.0743  0.4929 -0.0255
 7855SOL    HW135201   4.613   4.419  13.798  0.8080 -0.2949 -0.4388
 7855SOL    HW235202   4.575   4.356  13.936  1.7471  0.4394 -0.1743
 7856SOL     OW35203   1.767   3.234   6.882  0.2166 -0.5183  0.2111
 7856SOL    HW135204   1.805   3.319   6.863  1.5847 -1.3910 -0.9512
 7856SOL    HW235205   1.678   3.244   6.849  0.5467 -3.5666 -1.6219
 7857SOL     OW35206   1.335   2.225   9.041  0.6483 -0.8410 -0.7714
 7857SOL    HW135207   1.350   2.313   9.007 -2.1561  0.4026  1.1721
 7857SOL    HW235208   1.418   2.180   9.028 -0.0006 -2.1883 -0.2902
 7858SOL     OW35209   0.332   4.235  17.736  1.1872 -0.2536  0.9637
 7858SOL    HW135210   0.240   4.236   0.011  0.9562 -0.2397  0.2010
 7858SOL    HW235211   0.368   4.168   0.040 -1.8316 -0.0595  3.1125
 7859SOL     OW35212   4.463   0.735   4.126  0.6190  0.3633 -0.2787
 7859SOL    HW135213   4.519   0.796   4.174  1.7253 -2.0379  1.4973
 7859SOL    HW235214   4.504   0.726   4.040  0.5041 -2.4344 -0.0388
 7860SOL     OW35215   2.288   1.916  14.641  0.0729  0.2024 -0.3792
 7860SOL    HW135216   2.337   1.864  14.704  1.8932  1.6107 -0.6301
 7860SOL    HW235217   2.280   1.852  14.570 -0.5624  2.0869 -2.0014
 7861SOL     OW35218   0.868   0.235  11.902  0.2818  0.5407 -0.0988
 7861SOL    HW135219   0.878   0.254  11.808 -0.4736  1.1032 -0.0597
 7861SOL    HW235220   0.778   0.262  11.917  0.3198  2.0080 -2.4685
 7862SOL     OW35221   3.261   2.634   4.544  0.1504 -0.3258  0.2625
 7862SOL    HW135222   3.274   2.563   4.481 -1.1619 -0.6333  0.3431
 7862SOL    HW235223   3.170   2.653   4.521  0.1259 -1.8877 -0.9358
 7863SOL     OW35224   0.208   2.647   0.970 -0.0801  0.3404 -0.3093
 7863SOL    HW135225   0.298   2.616   0.982  0.1396  1.3041  0.5966
 7863SOL    HW235226   0.208   2.689   1.056  3.8186 -0.2509 -0.0231
 7864SOL     OW35227   2.451   3.534   3.076 -0.3150 -0.3349 -0.1180
 7864SOL    HW135228   2.507   3.460   3.051  1.3246  0.3191  1.5269
 7864SOL    HW235229   2.487   3.611   3.032 -0.5873 -0.0849  0.0988
 7865SOL     OW35230   2.004   3.712   9.221 -0.2453  0.0631  0.2937
 7865SOL    HW135231   1.968   3.665   9.296 -0.8757 -0.5604 -0.3987
 7865SOL    HW235232   2.095   3.700   9.250  0.6598 -0.0054 -2.6006
 7866SOL     OW35233   3.795   0.033   3.690 -0.7052 -0.2590 -0.5680
 7866SOL    HW135234   3.790   4.717   3.611  1.2549 -1.3938  0.1173
 7866SOL    HW235235   3.702   0.038   3.714 -0.7611  0.9310 -1.0374
 7867SOL     OW35236   0.632   1.073   7.115  0.3259 -0.3052 -0.3711
 7867SOL    HW135237   0.587   1.082   7.199  0.0377  0.4045 -0.5983
 7867SOL    HW235238   0.700   1.140   7.119  0.2714 -0.4385  2.4231
 7868SOL     OW35239   4.107   4.174   5.468  0.4920  0.1770  0.4133
 7868SOL    HW135240   4.148   4.088   5.473  0.3249 -0.0337 -1.5156
 7868SOL    HW235241   4.156   4.218   5.398 -0.0518 -2.1976 -1.4898
 7869SOL     OW35242   1.039   0.453  14.403  0.4732 -0.3134 -0.4064
 7869SOL    HW135243   1.057   0.529  14.457  1.7771 -0.3980 -0.7162
 7869SOL    HW235244   0.950   0.464  14.369  1.2922  2.0385 -1.7695
 7870SOL     OW35245   3.272   0.726  17.446 -0.2738  0.4075  0.1470
 7870SOL    HW135246   3.325   0.717  17.526  0.4228  1.1356 -0.2315
 7870SOL    HW235247   3.275   0.637  17.410 -0.2604 -0.1865  1.6129
 7871SOL     OW35248   2.730   1.706  15.971 -0.1665 -0.0569 -0.3231
 7871SOL    HW135249   2.794   1.757  16.020 -0.2534 -2.3543  2.1997
 7871SOL    HW235250   2.672   1.672  16.040 -0.2114 -0.1973 -0.4299
 7872SOL     OW35251   3.162   2.606   8.406 -0.0816 -0.1616 -0.3973
 7872SOL    HW135252   3.224   2.533   8.411 -2.1014 -1.8855 -0.8294
 7872SOL    HW235253   3.107   2.596   8.484  0.3338 -0.6621 -0.1684
 7873SOL     OW35254   2.879   4.109  11.214 -0.0190 -1.0716 -0.2609
 7873SOL    HW135255   2.812   4.096  11.281 -0.3616  2.4799  0.0805
 7873SOL    HW235256   2.933   4.034  11.236 -0.4331 -1.5349 -0.8048
 7874SOL     OW35257   4.708   2.877   5.056 -0.1411  0.1219 -0.3830
 7874SOL    HW135258   0.036   2.943   5.040 -0.7783  0.4380 -1.7216
 7874SOL    HW235259   4.699   2.851   4.964 -0.3566 -0.6294 -0.1499
 7875SOL     OW35260   1.775   3.369  15.186 -0.3277 -0.2976 -0.1572
 7875SOL    HW135261   1.814   3.390  15.102 -0.0225 -0.9171 -0.1704
 7875SOL    HW235262   1.838   3.310  15.228  1.2394  0.2704 -1.7367
 7876SOL     OW35263   4.077   0.087   3.440  0.0766 -0.0308  0.1109
 7876SOL    HW135264   4.005   0.149   3.429  0.7040  0.9687  1.5872
 7876SOL    HW235265   4.047   0.029   3.370  0.0152  2.1051 -1.6339
 7877SOL     OW35266   0.038   3.411   3.939 -0.1395  0.3065  0.4718
 7877SOL    HW135267   4.694   3.366   3.923  1.0783 -2.3330  1.6286
 7877SOL    HW235268   0.088   3.330   3.943  1.3238  1.1151 -0.8779
 7878SOL     OW35269   0.473   4.618   7.365  0.2251  0.3063 -0.4722
 7878SOL    HW135270   0.522   4.537   7.351  1.0008  0.7874 -0.5371
 7878SOL    HW235271   0.514   4.681   7.307  2.7744  0.7680  1.8178
 7879SOL     OW35272   4.090   0.917   4.877 -0.5593 -0.1702 -0.0657
 7879SOL    HW135273   4.055   0.879   4.957 -1.1709 -0.3085 -0.3956
 7879SOL    HW235274   4.087   1.009   4.903  1.3198 -0.1384  0.0289
 7880SOL     OW35275   3.148   2.121  12.310 -0.8297 -0.3739 -0.0902
 7880SOL    HW135276   3.163   2.161  12.396  0.3615  0.2192 -0.5893
 7880SOL    HW235277   3.231   2.075  12.296  0.3454  1.5616  0.5177
 7881SOL     OW35278   0.110   0.918   8.766 -0.7719  0.3687  0.0721
 7881SOL    HW135279   0.200   0.950   8.759 -0.5317 -0.0574  1.2996
 7881SOL    HW235280   0.131   0.825   8.766 -0.5690  0.4121  1.9877
 7882SOL     OW35281   1.770   0.375   8.518  0.0889 -0.1748 -0.3704
 7882SOL    HW135282   1.839   0.331   8.569  0.3138  1.4231  0.6897
 7882SOL    HW235283   1.817   0.372   8.435  1.3039 -1.8606  0.3564
 7883SOL     OW35284   3.104   1.873  16.617  0.1573 -0.2674 -0.2044
 7883SOL    HW135285   3.103   1.824  16.699 -0.0766 -2.1254 -1.3295
 7883SOL    HW235286   3.050   1.948  16.644 -1.8758 -1.5634 -0.6855
 7884SOL     OW35287   3.662   0.164   4.005  0.2337  0.1147 -0.3073
 7884SOL    HW135288   3.609   0.146   3.927 -0.4135  1.3772 -0.1523
 7884SOL    HW235289   3.708   0.080   4.013  0.6808  0.2065 -1.9677
 7885SOL     OW35290   3.941   1.246  11.308  0.7882 -0.3250  0.5572
 7885SOL    HW135291   3.930   1.294  11.226  0.6069 -0.4486  0.5100
 7885SOL    HW235292   3.880   1.300  11.360  0.8397  0.9084 -0.6677
 7886SOL     OW35293   2.081   2.662   3.479  0.0765 -0.0428 -0.4034
 7886SOL    HW135294   2.108   2.575   3.449  1.3567 -0.3171  1.5264
 7886SOL    HW235295   2.165   2.707   3.490 -0.2426  0.7260 -1.1193
 7887SOL     OW35296   1.832   0.304   4.945  0.8573  0.1750  0.4752
 7887SOL    HW135297   1.836   0.323   4.851 -1.7647  1.0809  0.5295
 7887SOL    HW235298   1.905   0.243   4.953  0.1491 -0.9682 -1.8077
 7888SOL     OW35299   3.696   1.259   7.030 -0.1007  0.2797  0.2190
 7888SOL    HW135300   3.682   1.352   7.046  0.6800  0.7175 -1.5781
 7888SOL    HW235301   3.661   1.225   7.112  1.2458  0.1714  0.7582
 7889SOL     OW35302   3.179   1.703   7.006  0.0901 -0.8423  0.3301
 7889SOL    HW135303   3.221   1.757   6.939 -1.5242  0.1767  0.1278
 7889SOL    HW235304   3.251   1.652   7.042  0.7689  1.1717  1.8545
 7890SOL     OW35305   1.944   2.435  17.093 -0.4702 -0.3530  0.0752
 7890SOL    HW135306   1.864   2.388  17.072 -1.8139  1.5406  0.9965
 7890SOL    HW235307   1.907   2.519  17.120  1.5168  0.4158  0.4255
 7891SOL     OW35308   3.387   4.589   2.842  0.4327 -0.4093 -0.7892
 7891SOL    HW135309   3.477   4.622   2.843 -0.7519  2.7671 -1.5445
 7891SOL    HW235310   3.340   4.636   2.773  0.7889  1.2691  0.1139
 7892SOL     OW35311   3.828   0.744   5.261 -0.0134 -0.0242 -0.6327
 7892SOL    HW135312   3.876   0.773   5.338 -0.1858 -1.5528  0.0473
 7892SOL    HW235313   3.750   0.799   5.266  0.7566  1.1358 -1.3583
 7893SOL     OW35314   1.799   1.150   9.436  0.3636 -0.0402 -0.6714
 7893SOL    HW135315   1.807   1.192   9.351 -1.0726 -0.8185 -1.1871
 7893SOL    HW235316   1.815   1.057   9.418 -0.6020  0.1563 -2.4504
 7894SOL     OW35317   2.950   3.526  17.428 -0.3768 -0.0603  0.4229
 7894SOL    HW135318   3.034   3.508  17.386 -0.5902 -0.5526  0.2138
 7894SOL    HW235319   2.976   3.575  17.506 -1.7980  0.7984  0.3545
 7895SOL     OW35320   4.390   2.043   1.515  0.1757 -0.4213 -0.1216
 7895SOL    HW135321   4.400   1.959   1.471 -1.3669 -0.6045 -0.1175
 7895SOL    HW235322   4.431   2.098   1.448  1.3537 -0.2792  0.7190
 7896SOL     OW35323   3.434   2.026  16.493 -0.0562 -0.9318  0.5119
 7896SOL    HW135324   3.346   2.045  16.526 -1.6970 -1.7561 -3.3775
 7896SOL    HW235325   3.478   2.111  16.496 -0.1559 -0.9027  1.0610
 7897SOL     OW35326   2.862   1.261  15.916  0.2105 -0.9036  0.0850
 7897SOL    HW135327   2.852   1.350  15.883 -0.2427 -1.2689 -0.7591
 7897SOL    HW235328   2.809   1.268  15.995  2.7543  0.6678  1.6729
 7898SOL     OW35329   2.720   3.439   8.762  0.1999  0.4036 -0.3698
 7898SOL    HW135330   2.648   3.396   8.716 -0.2383  0.9133 -0.1593
 7898SOL    HW235331   2.791   3.379   8.739  1.2912  1.2699  0.6998
 7899SOL     OW35332   1.701   0.755   4.345  0.5513 -0.1140  0.6405
 7899SOL    HW135333   1.774   0.727   4.400 -0.8104 -0.8331  2.0639
 7899SOL    HW235334   1.641   0.795   4.408 -3.3952 -2.8146 -1.4354
 7900SOL     OW35335   3.921   1.995   8.239  0.7582  0.5151  0.4105
 7900SOL    HW135336   3.947   1.920   8.185 -2.3133 -2.1881  2.7123
 7900SOL    HW235337   3.880   2.055   8.176 -1.6831 -0.9542  0.6208
 7901SOL     OW35338   4.607   0.443   8.230  0.2617 -0.5778  0.7327
 7901SOL    HW135339   4.632   0.441   8.322  0.6567  2.1830  0.6982
 7901SOL    HW235340   4.559   0.361   8.217 -0.7818  0.0725  0.4372
 7902SOL     OW35341   4.244   3.845   5.202 -0.8500  0.3378  0.9092
 7902SOL    HW135342   4.296   3.778   5.158 -2.2275  0.1850 -0.4871
 7902SOL    HW235343   4.215   3.897   5.127  3.3790  1.8201  0.3084
 7903SOL     OW35344   4.692   4.382   3.051 -0.2466 -0.2061  0.6116
 7903SOL    HW135345   0.024   4.396   2.988  0.6143 -1.6952  1.2586
 7903SOL    HW235346   4.666   4.472   3.070  0.5498  0.1199  0.1034
 7904SOL     OW35347   1.423   4.308   1.451 -0.6625  0.0120 -0.1103
 7904SOL    HW135348   1.367   4.323   1.527 -1.9072 -0.3798 -0.9522
 7904SOL    HW235349   1.480   4.385   1.443  1.2464 -1.4867 -0.8083
 7905SOL     OW35350   0.227   0.020   9.865 -0.3435 -0.9319  0.2954
 7905SOL    HW135351   0.236   0.093   9.804 -1.1006 -2.3316 -1.4976
 7905SOL    HW235352   0.132   0.015   9.854 -0.8411  5.4483  1.7593
 7906SOL     OW35353   2.957   2.023  12.617  0.1176  0.3998  0.3238
 7906SOL    HW135354   3.041   2.068  12.620  0.6884 -0.8380  2.5815
 7906SOL    HW235355   2.907   2.084  12.563  0.4416 -0.5589 -1.0672
 7907SOL     OW35356   2.723   4.471   2.997 -0.0016  0.5077 -0.2661
 7907SOL    HW135357   2.769   4.496   2.917 -1.7861  0.0168 -1.4535
 7907SOL    HW235358   2.747   4.542   3.055  1.2079 -0.0459 -0.0974
 7908SOL     OW35359   4.285   4.217   3.010  0.4082 -0.1858  0.4845
 7908SOL    HW135360   4.280   4.123   3.025  1.1255 -0.0609  1.5376
 7908SOL    HW235361   4.250   4.225   2.922  0.0996 -1.6033  0.4842
 7909SOL     OW35362   1.397   2.435   8.797 -0.2823  0.4118 -0.7490
 7909SOL    HW135363   1.452   2.372   8.752  0.0442  1.8728 -2.3886
 7909SOL    HW235364   1.312   2.400   8.771 -0.0480  0.1627 -1.1737
 7910SOL     OW35365   0.320   3.213   3.294  0.0149 -0.0852 -0.2223
 7910SOL    HW135366   0.288   3.205   3.204 -2.1711 -2.0324  0.7324
 7910SOL    HW235367   0.284   3.298   3.316  0.1310 -0.2095  0.4324
 7911SOL     OW35368   1.638   0.656  12.665 -0.7628 -0.1619 -0.0230
 7911SOL    HW135369   1.696   0.633  12.738  0.4925 -1.2733 -1.3734
 7911SOL    HW235370   1.703   0.628  12.601  0.7560  1.0860  0.9658
 7912SOL     OW35371   3.521   0.134   7.439  0.2999  0.5924  0.1437
 7912SOL    HW135372   3.538   0.062   7.500 -0.3502 -0.5631 -1.0586
 7912SOL    HW235373   3.446   0.168   7.488 -0.0355  1.9693 -1.3377
 7913SOL     OW35374   2.172   1.847   5.448  0.0367  0.0508  0.5710
 7913SOL    HW135375   2.135   1.932   5.474  0.7260  0.1992  1.0669
 7913SOL    HW235376   2.154   1.798   5.529 -4.5971 -2.6977 -2.1300
 7914SOL     OW35377   0.525   0.540  11.825  0.4020  0.3559 -0.0160
 7914SOL    HW135378   0.518   0.616  11.767  1.0937 -0.3828 -1.0619
 7914SOL    HW235379   0.439   0.548  11.867  0.1029 -1.4545 -0.2810
 7915SOL     OW35380   3.468   3.122   3.445  0.2880 -0.0067 -0.0755
 7915SOL    HW135381   3.403   3.054   3.427  1.8316 -1.4492 -0.2534
 7915SOL    HW235382   3.418   3.188   3.492  0.4520  0.3152 -0.3539
 7916SOL     OW35383   1.733   0.058  16.375 -0.7202  0.2200 -0.2668
 7916SOL    HW135384   1.647   0.048  16.336 -0.3105 -2.2846 -0.5349
 7916SOL    HW235385   1.713   0.065  16.468 -1.0193 -2.0748 -0.1699
 7917SOL     OW35386   2.728   2.889  14.597 -0.9724  0.4888  0.5855
 7917SOL    HW135387   2.656   2.840  14.557 -0.6882  0.6816 -0.1514
 7917SOL    HW235388   2.692   2.880  14.686 -1.0014 -0.4809  0.4818
 7918SOL     OW35389   2.095   0.825   3.528  0.0125 -0.1885 -0.1820
 7918SOL    HW135390   2.160   0.888   3.559 -1.1965  1.4107 -0.9212
 7918SOL    HW235391   2.014   0.874   3.539 -0.1204 -0.7353  1.2675
 7919SOL     OW35392   4.386   4.152   6.693  0.1316  0.0534 -0.4218
 7919SOL    HW135393   4.309   4.141   6.638  0.7918  0.1120 -1.3485
 7919SOL    HW235394   4.447   4.100   6.641 -1.3376 -1.4319 -0.6560
 7920SOL     OW35395   3.629   2.471   3.798 -0.0725  0.0017  0.6388
 7920SOL    HW135396   3.705   2.443   3.745 -0.6969 -1.3303  0.4439
 7920SOL    HW235397   3.583   2.388   3.810 -0.0147  0.3075  2.8584
 7921SOL     OW35398   1.802   1.387   6.762 -0.8157  0.0098 -0.0238
 7921SOL    HW135399   1.732   1.326   6.736 -1.2892  0.6935 -0.3502
 7921SOL    HW235400   1.823   1.354   6.849  0.0872 -1.8964 -0.9667
 7922SOL     OW35401   4.412   4.294   6.105  0.3513 -0.2308 -0.3763
 7922SOL    HW135402   4.368   4.378   6.123 -0.7417 -0.8174 -0.3246
 7922SOL    HW235403   4.472   4.295   6.180  2.8702 -0.2879 -2.3904
 7923SOL     OW35404   1.962   1.954  13.208  0.4336 -0.3340 -0.3112
 7923SOL    HW135405   1.875   1.970  13.171  1.0018  1.7721 -0.7662
 7923SOL    HW235406   1.959   1.859  13.202 -0.3131 -0.3028 -0.5294
 7924SOL     OW35407   4.045   4.503  11.314  0.6355 -0.2216  0.0149
 7924SOL    HW135408   4.066   4.487  11.222  2.3621 -0.1330  0.3910
 7924SOL    HW235409   4.132   4.541  11.331  0.7443  0.9225 -3.0489
 7925SOL     OW35410   1.731   4.087   8.485  0.1269  0.2588 -0.5936
 7925SOL    HW135411   1.711   4.172   8.524  2.2456  0.7386 -0.5649
 7925SOL    HW235412   1.657   4.076   8.426 -1.4282  0.2507  1.3311
 7926SOL     OW35413   2.696   4.188   0.082 -0.6199  0.0547  0.1445
 7926SOL    HW135414   2.724   4.273   0.047  2.2146 -0.6671  0.6498
 7926SOL    HW235415   2.732   4.125   0.020 -0.0271 -2.2968  2.8698
 7927SOL     OW35416   3.528   0.259   8.242 -0.0552 -0.5320  0.3299
 7927SOL    HW135417   3.506   0.342   8.200 -1.8363  0.7173  3.7483
 7927SOL    HW235418   3.440   0.223   8.226 -0.2178  0.2848 -0.6206
 7928SOL     OW35419   2.260   0.462   5.345  0.1977 -0.2989  0.4249
 7928SOL    HW135420   2.206   0.533   5.381  0.4438  0.2193 -0.2337
 7928SOL    HW235421   2.333   0.447   5.406  0.5923 -0.0949  0.0018
 7929SOL     OW35422   0.793   3.275   9.308  0.2611  0.3879 -0.2836
 7929SOL    HW135423   0.794   3.186   9.342 -0.5389  0.2800 -0.5368
 7929SOL    HW235424   0.699   3.291   9.319  0.3527  0.2624  0.6478
 7930SOL     OW35425   0.710   1.437  10.872  0.0880 -0.6683  0.2799
 7930SOL    HW135426   0.790   1.451  10.923 -1.0294  0.5526  1.7005
 7930SOL    HW235427   0.661   1.512  10.907  1.6450  0.0179  0.9881
 7931SOL     OW35428   0.367   1.835   5.787 -0.4395 -0.2039  0.6599
 7931SOL    HW135429   0.318   1.791   5.717 -0.2285 -1.3826  1.2449
 7931SOL    HW235430   0.397   1.758   5.836 -1.3616  0.4185  2.1576
 7932SOL     OW35431   4.132   3.649   9.191  0.3537 -0.2297 -0.2894
 7932SOL    HW135432   4.173   3.591   9.127  0.8262 -0.2020 -0.0090
 7932SOL    HW235433   4.154   3.733   9.150 -1.1180 -0.0847 -0.7948
 7933SOL     OW35434   3.986   0.067   4.244  0.5039  1.1389  0.1381
 7933SOL    HW135435   4.069   0.065   4.197 -0.3774 -0.3372 -1.3206
 7933SOL    HW235436   3.933   0.013   4.186  1.0074 -0.3322  1.0559
 7934SOL     OW35437   4.611   1.280   4.162  0.4421  0.2896 -0.1440
 7934SOL    HW135438   4.661   1.321   4.233 -1.0318  0.1802  0.9415
 7934SOL    HW235439   4.668   1.298   4.087 -0.0963 -0.0705 -0.6409
 7935SOL     OW35440   3.847   1.452   2.364 -0.2769  0.2136  0.5834
 7935SOL    HW135441   3.847   1.363   2.330  2.2596  0.9512 -1.3562
 7935SOL    HW235442   3.800   1.423   2.442 -0.0756  0.1889  0.6970
 7936SOL     OW35443   2.596   1.448   2.602 -0.4783 -0.0605  0.2281
 7936SOL    HW135444   2.618   1.492   2.520 -1.2821  1.2830  0.7132
 7936SOL    HW235445   2.656   1.494   2.662  1.1410 -1.6030 -0.2343
 7937SOL     OW35446   0.659   2.003   8.500  0.4848  0.3559  0.0558
 7937SOL    HW135447   0.719   1.961   8.562 -1.8473 -0.5235  1.6819
 7937SOL    HW235448   0.572   1.967   8.516  1.3045 -1.7429 -0.0642
 7938SOL     OW35449   0.502   1.146   1.988  0.3591 -0.0917 -0.0153
 7938SOL    HW135450   0.538   1.175   2.071 -1.5488  2.7028 -0.1568
 7938SOL    HW235451   0.448   1.225   1.976  0.5561  0.1025  0.3951
 7939SOL     OW35452   1.225   1.073   4.432  0.2608  0.5047 -0.4326
 7939SOL    HW135453   1.218   1.116   4.347 -1.0700  0.5021 -0.3238
 7939SOL    HW235454   1.275   0.993   4.412 -1.6724 -0.7522 -0.2725
 7940SOL     OW35455   0.556   2.649   3.255  0.0943 -0.6830 -0.0287
 7940SOL    HW135456   0.550   2.672   3.162 -0.8985  1.1499  0.4766
 7940SOL    HW235457   0.650   2.632   3.254  0.4767  1.3338  1.2663
 7941SOL     OW35458   0.255   2.603   8.399  0.5816  0.1459 -0.3257
 7941SOL    HW135459   0.311   2.680   8.413 -0.2116  0.4278  1.2841
 7941SOL    HW235460   0.298   2.537   8.453  1.3077 -0.2398 -1.3741
 7942SOL     OW35461   1.506   3.036   8.436 -0.4405 -0.5840  0.1907
 7942SOL    HW135462   1.486   3.017   8.528 -0.9755  1.1788  0.4478
 7942SOL    HW235463   1.429   2.994   8.397 -0.1342 -0.6216 -0.3650
 7943SOL     OW35464   1.721   2.828   2.629  0.5905  0.0644  0.0679
 7943SOL    HW135465   1.672   2.747   2.618 -0.3132  0.1043  3.8694
 7943SOL    HW235466   1.686   2.867   2.709 -1.3848 -0.2028 -0.6743
 7944SOL     OW35467   4.665   0.387   7.139 -0.4362 -0.1457  0.4736
 7944SOL    HW135468   4.591   0.425   7.091 -0.0836  1.7750  1.4366
 7944SOL    HW235469   4.724   0.463   7.139 -0.9641  0.2623  0.9467
 7945SOL     OW35470   0.647   1.248   2.248  0.3338  0.8608  0.0676
 7945SOL    HW135471   0.683   1.260   2.336 -2.1704  1.5846  1.0071
 7945SOL    HW235472   0.561   1.291   2.249 -0.2425 -0.3083  5.2355
 7946SOL     OW35473   3.774   3.976   3.075 -0.3060  0.2390 -0.3877
 7946SOL    HW135474   3.710   3.935   3.016  0.0294 -0.5026 -0.2397
 7946SOL    HW235475   3.828   3.899   3.094 -3.7190 -2.4901 -1.8003
 7947SOL     OW35476   3.692   1.738   6.301 -0.6906  0.2922 -0.0002
 7947SOL    HW135477   3.771   1.769   6.256 -0.0211  1.1494  1.7518
 7947SOL    HW235478   3.698   1.652   6.261  1.1583  0.3216  0.1931
 7948SOL     OW35479   1.377   4.474   2.108 -0.3686  0.2056 -0.1013
 7948SOL    HW135480   1.408   4.490   2.019 -0.9496 -1.1663 -0.5364
 7948SOL    HW235481   1.406   4.552   2.157  0.1276  0.6757 -1.1310
 7949SOL     OW35482   3.204   0.939   4.742  0.3107  0.3371 -0.1023
 7949SOL    HW135483   3.157   0.875   4.688  0.4309  0.7573 -0.7050
 7949SOL    HW235484   3.293   0.926   4.709  0.0218 -0.6818 -0.4852
 7950SOL     OW35485   0.863   1.041   3.053  0.3050 -0.3420  0.6866
 7950SOL    HW135486   0.919   1.052   3.129  1.0621  0.8892 -0.0606
 7950SOL    HW235487   0.912   0.985   2.992 -0.1824 -1.1736  1.0440
 7951SOL     OW35488   4.556   2.224  12.260 -0.6362  0.0982 -0.0454
 7951SOL    HW135489   4.598   2.148  12.222 -1.0000 -0.4147  0.5765
 7951SOL    HW235490   4.472   2.190  12.291 -0.9412  0.7354 -0.1559
 7952SOL     OW35491   0.269   1.327   7.764 -0.1644 -0.2122  0.1745
 7952SOL    HW135492   0.218   1.251   7.793 -0.4499  0.1065  0.5060
 7952SOL    HW235493   0.213   1.391   7.808 -0.0472 -1.5156  2.2338
 7953SOL     OW35494   0.986   4.504   4.096  0.1362  0.1892  0.6066
 7953SOL    HW135495   0.969   4.516   4.003  2.0403  2.5837  0.5466
 7953SOL    HW235496   0.913   4.557   4.129 -0.6689 -1.2600  1.1438
 7954SOL     OW35497   1.062   4.247  12.969 -0.4656 -0.2878  0.5360
 7954SOL    HW135498   0.971   4.268  12.991 -0.4364  1.6263 -1.1989
 7954SOL    HW235499   1.065   4.152  12.986 -1.4750 -0.5522 -0.7266
 7955SOL     OW35500   1.716   1.904  16.868 -0.4822  0.3288  0.0359
 7955SOL    HW135501   1.771   1.953  16.929 -1.9213  2.2015 -0.1759
 7955SOL    HW235502   1.663   1.976  16.833 -0.7155  0.4746  0.6876
 7956SOL     OW35503   0.129   0.680   3.226 -0.5001  0.2530  0.3260
 7956SOL    HW135504   0.160   0.616   3.162  0.3565  0.4590  0.5329
 7956SOL    HW235505   0.155   0.647   3.312 -2.6570 -1.0565  0.4736
 7957SOL     OW35506   2.228   4.279  16.092  0.3595  0.3962  0.2551
 7957SOL    HW135507   2.287   4.260  16.019 -0.7536  0.4795 -0.6627
 7957SOL    HW235508   2.247   4.203  16.147  1.0296 -1.2707 -2.3083
 7958SOL     OW35509   3.390   1.094   2.556 -0.2483 -0.2406  0.6302
 7958SOL    HW135510   3.322   1.161   2.556  1.7282  1.7602  2.9249
 7958SOL    HW235511   3.453   1.132   2.618 -0.4029  0.6723  0.2282
 7959SOL     OW35512   4.288   0.502  12.048  0.2034 -0.2553 -0.5163
 7959SOL    HW135513   4.371   0.484  12.093  0.6850 -2.6044 -2.3306
 7959SOL    HW235514   4.238   0.553  12.112  1.3186 -0.1358  0.2733
 7960SOL     OW35515   1.794   2.487   3.016 -0.1030 -0.6108 -0.2155
 7960SOL    HW135516   1.722   2.534   3.057  0.0282 -1.5277  1.0622
 7960SOL    HW235517   1.853   2.485   3.092  2.2805  0.8887 -2.0427
 7961SOL     OW35518   2.413   3.353   2.640  0.4089  0.4707  0.0088
 7961SOL    HW135519   2.318   3.359   2.647  0.0670 -1.6428 -2.8908
 7961SOL    HW235520   2.431   3.438   2.600 -2.2411  0.5547 -0.9726
 7962SOL     OW35521   4.424   1.758   2.496  0.1306 -0.7497  0.0007
 7962SOL    HW135522   4.349   1.707   2.525 -0.8618  1.3567  1.1805
 7962SOL    HW235523   4.475   1.755   2.577  0.9567  0.2767 -0.4689
 7963SOL     OW35524   0.687   2.996   5.453  0.2214  0.3835  0.6937
 7963SOL    HW135525   0.762   3.054   5.438 -0.5831  1.1965 -0.1787
 7963SOL    HW235526   0.629   3.070   5.474 -0.6998 -0.5946  1.5953
 7964SOL     OW35527   0.740   4.681  10.472  0.5667 -0.3291 -0.1588
 7964SOL    HW135528   0.737   4.612  10.407 -0.7446  1.1184 -1.6332
 7964SOL    HW235529   0.736   0.020  10.416  1.0057  0.3363  0.7144
 7965SOL     OW35530   4.014   1.769  13.000  0.2095  0.0698 -0.1364
 7965SOL    HW135531   4.007   1.865  13.003 -0.6931 -0.0238  0.8039
 7965SOL    HW235532   3.964   1.742  13.077  0.6516 -1.2599 -0.3172
 7966SOL     OW35533   2.462   4.206  15.029  0.5325 -0.1267 -0.6697
 7966SOL    HW135534   2.532   4.252  15.074  1.0795 -0.4901 -1.1493
 7966SOL    HW235535   2.454   4.251  14.945 -2.6302  1.1639  0.3074
 7967SOL     OW35536   2.364   0.305   7.975  0.2539 -0.4392  0.2339
 7967SOL    HW135537   2.438   0.325   7.918  0.7968 -0.9904  0.7326
 7967SOL    HW235538   2.416   0.250   8.034 -0.3998 -1.4335 -0.1180
 7968SOL     OW35539   1.863   0.751  15.427  0.2945 -0.1860 -0.3064
 7968SOL    HW135540   1.935   0.788  15.477 -0.9715  1.6928  0.1219
 7968SOL    HW235541   1.856   0.666  15.470  3.0722 -0.2126  0.0810
 7969SOL     OW35542   4.515   4.413  13.212 -1.1462 -0.0665 -0.7935
 7969SOL    HW135543   4.473   4.381  13.133 -1.3609  0.1342 -0.7621
 7969SOL    HW235544   4.496   4.507  13.211 -2.8294 -0.4046 -0.8381
 7970SOL     OW35545   3.288   2.822   7.588 -0.4832  0.0552  0.6085
 7970SOL    HW135546   3.289   2.914   7.617  0.8829  0.1674  0.1915
 7970SOL    HW235547   3.338   2.775   7.655  0.7328 -0.1641 -0.4548
 7971SOL     OW35548   4.287   4.714   6.114 -0.2543  0.0105 -0.8326
 7971SOL    HW135549   4.298   0.068   6.137  3.3555  0.0183 -2.5030
 7971SOL    HW235550   4.366   4.678   6.155 -0.9530 -0.2058  0.3057
 7972SOL     OW35551   1.184   2.072   5.759 -0.2110  0.3124 -0.0359
 7972SOL    HW135552   1.215   2.109   5.677 -0.3972 -0.7341 -0.5783
 7972SOL    HW235553   1.158   1.986   5.725  0.3888 -0.1368  0.6384
 7973SOL     OW35554   4.086   1.521   2.940  0.3130 -0.2697 -0.0441
 7973SOL    HW135555   4.014   1.498   2.999 -1.5050  1.6161 -1.5195
 7973SOL    HW235556   4.166   1.479   2.970  0.4063  0.3197  0.5208
 7974SOL     OW35557   2.406   3.482  15.879 -0.1105 -0.1053 -0.0078
 7974SOL    HW135558   2.448   3.562  15.912  0.2199  0.3086 -1.4304
 7974SOL    HW235559   2.486   3.430  15.887 -1.2253 -1.7496  0.1635
 7975SOL     OW35560   4.675   1.104   5.856 -0.4465  0.2673 -0.6538
 7975SOL    HW135561   4.626   1.153   5.790 -0.1289 -0.7206 -1.6193
 7975SOL    HW235562   4.671   1.016   5.818 -0.4129 -0.4763  1.0591
 7976SOL     OW35563   3.969   0.964  15.074 -0.2611 -0.4267 -0.1001
 7976SOL    HW135564   3.891   0.916  15.101  0.0600 -0.4861  0.7185
 7976SOL    HW235565   3.971   0.920  14.989 -4.3886 -0.2717 -0.3160
 7977SOL     OW35566   3.244   1.482   7.331 -0.3546  0.4991 -0.1881
 7977SOL    HW135567   3.189   1.420   7.284 -1.4869  1.6978 -0.4387
 7977SOL    HW235568   3.231   1.567   7.289  1.9602  0.1550 -1.5902
 7978SOL     OW35569   0.670   1.307   4.867 -0.2352  0.0698  0.2216
 7978SOL    HW135570   0.647   1.276   4.955  1.0341 -0.9289  0.1936
 7978SOL    HW235571   0.713   1.229   4.834  0.7435  1.0325 -0.7693
 7979SOL     OW35572   2.963   0.951  14.998 -0.2532  0.1468  0.8725
 7979SOL    HW135573   2.979   1.000  14.917  2.0723 -1.2652  0.4811
 7979SOL    HW235574   2.901   1.007  15.044 -1.1644  0.6666 -0.9748
 7980SOL     OW35575   4.579   3.277   7.946 -0.8545  0.1125 -0.5406
 7980SOL    HW135576   4.594   3.197   7.896  1.6419  1.7383 -2.3895
 7980SOL    HW235577   4.613   3.248   8.031 -1.6144  0.6508 -0.0537
 7981SOL     OW35578   4.114   1.312   7.891  0.2425 -0.4884 -0.0877
 7981SOL    HW135579   4.088   1.348   7.976 -0.0422  1.0134 -0.8023
 7981SOL    HW235580   4.052   1.243   7.866  0.1723 -0.8134  0.9873
 7982SOL     OW35581   0.581   4.370   7.347  0.1211  0.1245 -0.1174
 7982SOL    HW135582   0.617   4.333   7.428  1.7957  0.4703 -0.7003
 7982SOL    HW235583   0.614   4.308   7.283  0.0451 -0.8740  0.8148
 7983SOL     OW35584   0.465   4.129   8.637  0.5671  0.5901 -0.1877
 7983SOL    HW135585   0.520   4.057   8.668 -1.1020 -1.1508 -1.2655
 7983SOL    HW235586   0.528   4.201   8.628 -0.4617  1.6143  0.8793
 7984SOL     OW35587   0.692   3.061   5.102 -0.0385  0.2784  0.1236
 7984SOL    HW135588   0.784   3.054   5.126 -0.7801  0.0339  2.9204
 7984SOL    HW235589   0.689   2.994   5.034 -1.7412  0.1928  0.2891
 7985SOL     OW35590   2.306   2.619  13.896  0.0196 -0.0472  0.3145
 7985SOL    HW135591   2.366   2.545  13.903 -2.0538 -1.6182  1.8200
 7985SOL    HW235592   2.360   2.695  13.916  1.6960 -0.6405 -2.0286
 7986SOL     OW35593   1.827   4.330  15.911 -0.0877 -0.1767  0.3025
 7986SOL    HW135594   1.824   4.236  15.889  1.1246  0.0175 -0.6485
 7986SOL    HW235595   1.817   4.359  15.821 -2.0460  2.8228  1.4840
 7987SOL     OW35596   4.617   1.987   6.456 -0.1701 -0.8892 -0.2739
 7987SOL    HW135597   4.654   1.900   6.472 -1.1717 -1.5981 -1.7758
 7987SOL    HW235598   4.661   2.039   6.523  2.1335 -0.6842 -1.9542
 7988SOL     OW35599   0.157   1.463   7.540 -0.0141  0.1800  0.4966
 7988SOL    HW135600   0.203   1.437   7.620 -1.4475 -1.6552  0.7171
 7988SOL    HW235601   0.192   1.404   7.473  1.6430  0.9102  0.7142
 7989SOL     OW35602   0.743   1.242   9.554  0.0898  0.3083 -0.2089
 7989SOL    HW135603   0.818   1.227   9.610  0.0323 -0.3435 -0.3019
 7989SOL    HW235604   0.749   1.168   9.493  0.6593 -1.1138  1.5612
 7990SOL     OW35605   4.131   3.454   7.934  0.0688  0.1816 -0.1504
 7990SOL    HW135606   4.169   3.448   8.021  0.7937  0.0735 -0.4785
 7990SOL    HW235607   4.040   3.462   7.963 -0.1573 -0.5361 -0.6440
 7991SOL     OW35608   1.449   4.657  11.613  0.1508  0.2981  0.0565
 7991SOL    HW135609   1.543   4.652  11.633  0.1497  0.8137  0.2105
 7991SOL    HW235610   1.434   0.008  11.644  2.1690  0.9127 -0.7315
 7992SOL     OW35611   0.282   3.332  17.712 -0.3845 -0.1525  0.5344
 7992SOL    HW135612   0.301   3.425  17.726 -0.2161  0.1852 -1.8760
 7992SOL    HW235613   0.329   3.313  17.631 -1.5549 -1.8325  0.2474
 7993SOL     OW35614   4.518   0.527  15.358 -0.1278  0.0966  0.0392
 7993SOL    HW135615   4.562   0.605  15.391  1.7386  0.2336 -2.7352
 7993SOL    HW235616   4.470   0.493  15.433 -1.1030 -0.3221 -0.7933
 7994SOL     OW35617   0.392   2.598   2.264  0.1567 -0.0507  0.4535
 7994SOL    HW135618   0.333   2.523   2.259  0.2255  0.0539 -2.0596
 7994SOL    HW235619   0.453   2.557   2.325 -0.6286  1.0819  2.0029
 7995SOL     OW35620   2.326   1.767   0.444 -0.1449 -0.1131 -0.2509
 7995SOL    HW135621   2.324   1.859   0.419 -3.8649 -0.0239  0.5068
 7995SOL    HW235622   2.417   1.753   0.471  0.7532  0.6707 -2.9017
 7996SOL     OW35623   3.805   1.116   7.376 -0.5926  0.3501 -0.1499
 7996SOL    HW135624   3.726   1.080   7.335 -0.4633 -1.0327  0.8462
 7996SOL    HW235625   3.860   1.041   7.398 -2.2824 -0.6732  0.6424
 7997SOL     OW35626   0.765   2.743   8.769  0.2423 -0.6569 -0.0092
 7997SOL    HW135627   0.735   2.828   8.739 -1.5310 -1.5471 -0.7188
 7997SOL    HW235628   0.699   2.721   8.834  0.9755 -1.0356  0.6172
 7998SOL     OW35629   1.771   3.099   1.579  0.2082  0.6266 -0.5963
 7998SOL    HW135630   1.742   3.010   1.596  1.2246  0.3731 -0.1617
 7998SOL    HW235631   1.832   3.093   1.505 -1.2787  1.8172 -1.9126
 7999SOL     OW35632   3.390   3.234   0.697  0.1457 -0.0207 -0.4370
 7999SOL    HW135633   3.301   3.268   0.697  0.8570  1.8319  1.3211
 7999SOL    HW235634   3.435   3.303   0.746  0.4861  0.0586 -0.8613
 8000SOL     OW35635   4.711   3.646   3.218 -0.3367 -0.0941 -0.0687
 8000SOL    HW135636   4.691   3.616   3.307 -1.5235  0.1797 -0.2509
 8000SOL    HW235637   0.018   3.729   3.234  0.6883 -0.8897  1.1528
 8001SOL     OW35638   3.153   0.464  17.037 -0.0277 -0.1851 -0.0727
 8001SOL    HW135639   3.091   0.431  17.101 -0.2986  2.6955  1.1348
 8001SOL    HW235640   3.201   0.383  17.018 -0.4890 -0.3957 -0.3606
 8002SOL     OW35641   1.199   1.982   6.180  0.0958  0.5676 -0.3300
 8002SOL    HW135642   1.264   1.969   6.111  0.8349  0.1181  0.4472
 8002SOL    HW235643   1.175   1.892   6.204  0.1776  0.8021  0.6323
 8003SOL     OW35644   4.371   3.650   7.827 -0.5747 -0.3501 -0.2788
 8003SOL    HW135645   4.280   3.674   7.811 -0.8529 -1.5661 -0.5325
 8003SOL    HW235646   4.400   3.622   7.740 -1.0700 -2.2331  0.1535
 8004SOL     OW35647   3.758   0.680   7.689  0.3080  0.0109 -0.0858
 8004SOL    HW135648   3.703   0.640   7.756 -1.6185 -0.6216 -2.0471
 8004SOL    HW235649   3.755   0.775   7.701  0.2950  0.3099 -2.4184
 8005SOL     OW35650   1.948   3.666   8.685  0.1266 -0.0134 -0.3227
 8005SOL    HW135651   1.874   3.701   8.635 -1.0863 -0.7967  0.8906
 8005SOL    HW235652   1.998   3.746   8.696  0.2519 -0.3145  1.4047
 8006SOL     OW35653   2.813   2.102   7.794 -0.3879  0.4290 -0.7155
 8006SOL    HW135654   2.845   2.180   7.750 -0.5275  0.4089 -0.8517
 8006SOL    HW235655   2.884   2.077   7.853 -1.3060  0.5172  0.4250
 8007SOL     OW35656   1.383   1.169   6.468  0.6183  0.4150  0.1517
 8007SOL    HW135657   1.290   1.176   6.489  0.5926  0.6136 -0.0295
 8007SOL    HW235658   1.397   1.257   6.432 -0.8560  0.7938  0.5170
 8008SOL     OW35659   4.172   2.846  13.272  0.1329 -0.0334  0.0488
 8008SOL    HW135660   4.202   2.911  13.335  1.2990  1.2874 -1.8802
 8008SOL    HW235661   4.236   2.860  13.202  0.1870 -0.6061 -0.0190
 8009SOL     OW35662   4.122   4.643   4.052 -0.0044  0.2576  0.1491
 8009SOL    HW135663   4.149   4.627   4.143  0.5256  0.1252 -0.0350
 8009SOL    HW235664   4.149   4.560   4.013 -0.0072  0.0488  0.5912
 8010SOL     OW35665   2.955   3.391   9.060 -0.3541 -0.1008 -0.8045
 8010SOL    HW135666   3.009   3.421   9.133  0.4681 -1.8909 -0.6770
 8010SOL    HW235667   3.009   3.319   9.028 -2.4953 -2.2959  0.4808
 8011SOL     OW35668   0.387   2.222   4.149 -0.2709  0.3447  0.7132
 8011SOL    HW135669   0.325   2.196   4.217 -1.8905  0.9057 -0.5140
 8011SOL    HW235670   0.404   2.315   4.165 -0.5010  0.3619  0.8634
 8012SOL     OW35671   3.072   2.214   4.744  0.3561  0.1027 -0.0589
 8012SOL    HW135672   2.977   2.226   4.753  0.1283 -2.5057  0.9457
 8012SOL    HW235673   3.078   2.186   4.653 -1.0171  0.3152 -0.2154
 8013SOL     OW35674   0.711   2.056   2.737 -0.3004  0.5996  0.4485
 8013SOL    HW135675   0.643   2.116   2.703  0.3255  0.7262 -0.5751
 8013SOL    HW235676   0.655   1.979   2.745  1.2985 -0.6635 -0.7045
 8014SOL     OW35677   1.699   3.777   4.728 -0.1991  0.3640 -0.4019
 8014SOL    HW135678   1.675   3.693   4.690  1.9054  0.2839 -1.5339
 8014SOL    HW235679   1.776   3.746   4.775  0.5893 -2.5108 -3.5444
 8015SOL     OW35680   4.383   1.040   5.552 -0.2967 -0.0152  0.3754
 8015SOL    HW135681   4.363   0.951   5.523 -0.8679  0.0865  0.4653
 8015SOL    HW235682   4.380   1.087   5.469 -2.0641 -1.8746 -0.6226
 8016SOL     OW35683   2.316   4.495   9.470  0.2971 -0.1643  0.8015
 8016SOL    HW135684   2.299   4.452   9.554  0.2187  0.0482  0.8938
 8016SOL    HW235685   2.345   4.582   9.496  0.0438 -0.1139  0.9205
 8017SOL     OW35686   0.807   3.128   1.808  0.1998 -0.1913  0.2166
 8017SOL    HW135687   0.867   3.101   1.878  1.2673  0.6650 -0.3631
 8017SOL    HW235688   0.860   3.132   1.728  1.3409  2.2256  1.0983
 8018SOL     OW35689   0.479   0.903   6.376  0.0667  0.4229 -0.0854
 8018SOL    HW135690   0.410   0.848   6.413  1.0672 -1.4136 -0.9193
 8018SOL    HW235691   0.478   0.975   6.439 -0.1643  0.0876  0.2940
 8019SOL     OW35692   1.378   1.486   4.956  0.4869  0.2646 -0.1042
 8019SOL    HW135693   1.349   1.396   4.942  0.9632  0.3474 -1.6460
 8019SOL    HW235694   1.421   1.512   4.875 -0.7034 -1.1214 -1.1743
 8020SOL     OW35695   1.794   2.978   3.598 -0.4578 -0.5124  0.0089
 8020SOL    HW135696   1.714   2.926   3.604 -0.2645 -1.0732 -2.4162
 8020SOL    HW235697   1.758   3.058   3.637 -2.7325 -0.5890 -1.9360
 8021SOL     OW35698   2.027   2.159   2.117  0.3945 -0.1494  0.3153
 8021SOL    HW135699   2.038   2.217   2.193 -1.9546 -0.6086  1.0237
 8021SOL    HW235700   1.984   2.220   2.057  1.0459  0.5917  0.5910
 8022SOL     OW35701   4.103   1.354   3.292  0.1050 -0.4404  0.2130
 8022SOL    HW135702   4.133   1.445   3.284 -1.2413  0.2144  2.4983
 8022SOL    HW235703   4.027   1.367   3.348 -0.6917  0.2045 -1.0042
 8023SOL     OW35704   4.076   2.028  14.011 -0.0171  0.6722  0.2580
 8023SOL    HW135705   4.062   1.989  14.097 -0.1021  0.1883  0.0253
 8023SOL    HW235706   3.988   2.022  13.974 -0.6544  1.8608  1.5854
 8024SOL     OW35707   2.724   0.821   2.490 -0.2351 -0.5628  0.1374
 8024SOL    HW135708   2.676   0.797   2.412  3.3886 -0.1225 -2.2154
 8024SOL    HW235709   2.803   0.856   2.450  0.6336 -1.3280  1.1764
 8025SOL     OW35710   3.442   3.546  12.331 -0.1054 -0.0507  0.4700
 8025SOL    HW135711   3.382   3.619  12.319  0.4495  0.1230 -1.2650
 8025SOL    HW235712   3.460   3.551  12.425  1.3082  0.1752  0.1933
 8026SOL     OW35713   4.564   1.009  12.384 -0.1855  0.9906 -0.3571
 8026SOL    HW135714   4.579   1.075  12.317  2.9241  0.8087  0.1783
 8026SOL    HW235715   4.600   0.930  12.345 -3.3902  0.0450 -1.4406
 8027SOL     OW35716   4.594   4.274   7.716  0.0892  0.3350  0.0837
 8027SOL    HW135717   4.661   4.294   7.781 -0.5640  0.5684  0.6856
 8027SOL    HW235718   4.636   4.301   7.634 -0.8077 -4.1498 -1.8900
 8028SOL     OW35719   3.800   2.180  17.454 -0.3467 -0.1807 -0.1460
 8028SOL    HW135720   3.783   2.260  17.404 -0.0896  0.0676  0.1584
 8028SOL    HW235721   3.711   2.161  17.485  0.6095  0.8491  3.2629
 8029SOL     OW35722   0.759   2.101   8.981 -0.0204  0.1566 -0.1193
 8029SOL    HW135723   0.712   2.125   9.060 -1.0750 -0.3984 -0.5872
 8029SOL    HW235724   0.737   2.169   8.916  0.1228 -1.6702 -2.0623
 8030SOL     OW35725   4.300   1.271   7.132  0.1757  0.1528 -0.4151
 8030SOL    HW135726   4.380   1.222   7.154 -0.7036 -1.5238 -0.9612
 8030SOL    HW235727   4.230   1.209   7.151  0.5627  0.0624  0.6918
 8031SOL     OW35728   1.550   3.640   8.566  0.4159 -0.7522  0.1200
 8031SOL    HW135729   1.609   3.715   8.570 -1.8163  1.0427 -1.5544
 8031SOL    HW235730   1.543   3.628   8.661  3.9489  0.1291  0.5110
 8032SOL     OW35731   2.268   0.035   8.478  0.2231 -0.3222  0.0465
 8032SOL    HW135732   2.302   4.686   8.495 -1.9335 -1.3151 -0.7649
 8032SOL    HW235733   2.210   0.037   8.554  1.0379 -0.3445  0.6642
 8033SOL     OW35734   0.146   2.782   9.632 -0.2652 -0.1743  0.1598
 8033SOL    HW135735   0.184   2.737   9.708 -0.0169 -0.9125 -0.4122
 8033SOL    HW235736   0.219   2.802   9.574  0.3414 -1.1156  0.5931
 8034SOL     OW35737   1.085   4.058   8.020 -0.5614  0.2401  0.4173
 8034SOL    HW135738   1.097   4.122   7.950 -2.7630 -0.2546 -0.4107
 8034SOL    HW235739   1.039   3.993   7.968 -0.5945  1.0071 -0.5175
 8035SOL     OW35740   0.544   0.786   2.938  0.1114 -0.1941  0.6870
 8035SOL    HW135741   0.534   0.839   2.859  0.5864  0.7297  1.2406
 8035SOL    HW235742   0.475   0.721   2.923 -1.4375  1.6766 -0.2691
 8036SOL     OW35743   3.254   2.334   7.529 -0.2340 -0.5745 -0.1802
 8036SOL    HW135744   3.214   2.420   7.528 -0.5849 -0.7325  0.7849
 8036SOL    HW235745   3.183   2.281   7.566 -0.8687  1.7039  1.8619
 8037SOL     OW35746   3.992   2.989   8.839 -0.3201  0.3037 -0.0441
 8037SOL    HW135747   3.918   2.967   8.895  0.1741  0.9256  0.8555
 8037SOL    HW235748   3.952   3.065   8.797 -1.3249 -1.8972 -3.1293
 8038SOL     OW35749   4.570   2.016  17.410  0.0295 -0.1527 -0.1253
 8038SOL    HW135750   4.665   2.004  17.408  0.0234 -0.5348  1.5712
 8038SOL    HW235751   4.550   1.928  17.378  1.6543 -0.9669  1.0852
 8039SOL     OW35752   3.664   3.893   1.373  0.1377 -0.3776 -0.2375
 8039SOL    HW135753   3.682   3.813   1.323 -1.2499 -0.1530 -1.0931
 8039SOL    HW235754   3.576   3.925   1.352 -0.2539  0.2737  2.4667
 8040SOL     OW35755   0.101   0.771   1.112 -0.4696 -0.7123  0.0713
 8040SOL    HW135756   0.194   0.783   1.135 -0.6885  0.8397  0.1016
 8040SOL    HW235757   0.073   0.715   1.184  1.0629 -0.6428  0.7344
 8041SOL     OW35758   2.027   3.389   1.696  0.1413  0.2080  0.4704
 8041SOL    HW135759   1.947   3.349   1.729 -0.9179  2.0339  0.1677
 8041SOL    HW235760   1.991   3.460   1.641 -1.9089 -1.6399 -0.5881
 8042SOL     OW35761   3.510   3.817   7.555 -0.7319 -0.3502  0.2933
 8042SOL    HW135762   3.524   3.797   7.462  0.1764 -1.0863  0.5879
 8042SOL    HW235763   3.445   3.886   7.540 -0.9969 -0.6805 -0.0862
 8043SOL     OW35764   0.924   4.148  13.191 -0.1835 -0.1358  0.2950
 8043SOL    HW135765   0.900   4.056  13.178 -1.0920  0.1451 -0.0611
 8043SOL    HW235766   0.842   4.182  13.227 -2.3971 -1.9422 -3.0328
 8044SOL     OW35767   4.333   1.845  10.693  0.3564  0.0465  0.3838
 8044SOL    HW135768   4.266   1.864  10.627  0.7062 -1.1744 -0.3166
 8044SOL    HW235769   4.388   1.923  10.697 -0.2462  0.6034 -2.6508
 8045SOL     OW35770   4.661   4.517  10.817 -0.4411 -0.4209 -0.6626
 8045SOL    HW135771   0.009   4.521  10.775 -0.1505 -2.9102 -0.2976
 8045SOL    HW235772   4.654   4.424  10.841 -1.5219  0.0719  0.8721
 8046SOL     OW35773   0.711   2.748   8.227  0.3779  0.1197 -0.3143
 8046SOL    HW135774   0.797   2.770   8.261  0.3446 -1.0794  0.5405
 8046SOL    HW235775   0.652   2.759   8.301  1.4328  1.3883  0.3272
 8047SOL     OW35776   2.671   2.959  17.639 -0.3798  0.2128 -0.0993
 8047SOL    HW135777   2.619   3.031  17.602  0.7320  1.8067  1.4503
 8047SOL    HW235778   2.611   2.886  17.624  2.0703 -1.1965 -2.9538
 8048SOL     OW35779   0.363   3.557   3.231 -0.2858  0.0350 -0.0707
 8048SOL    HW135780   0.337   3.646   3.255 -1.8507 -0.2402 -0.6969
 8048SOL    HW235781   0.328   3.543   3.143 -2.1623  0.2605  0.6413
 8049SOL     OW35782   2.497   3.009   4.267 -0.1764 -0.6895  0.4081
 8049SOL    HW135783   2.485   3.104   4.261  1.9621 -0.4064  0.8517
 8049SOL    HW235784   2.514   3.004   4.361 -1.4678 -0.5940  0.6520
 8050SOL     OW35785   2.912   4.315   5.258  0.6148 -0.4958 -0.1282
 8050SOL    HW135786   2.921   4.227   5.221 -1.5904 -2.0555  2.9798
 8050SOL    HW235787   2.869   4.344   5.178 -0.1639 -1.1234  0.0599
 8051SOL     OW35788   4.214   2.036  13.716  0.5665 -0.7920 -0.4523
 8051SOL    HW135789   4.171   2.060  13.634 -0.1951  0.7399  0.3795
 8051SOL    HW235790   4.224   2.121  13.760  0.0140  0.9553 -3.7245
 8052SOL     OW35791   2.283   2.921   4.559 -0.2597  0.2901 -0.0676
 8052SOL    HW135792   2.202   2.878   4.532 -0.3034  0.9422 -0.9764
 8052SOL    HW235793   2.282   2.993   4.495 -0.6264 -1.0642 -1.5869
 8053SOL     OW35794   2.089   1.067   4.686 -0.0138 -0.5022  0.5086
 8053SOL    HW135795   2.127   1.007   4.622  0.8844 -2.2131  2.6465
 8053SOL    HW235796   2.166   1.106   4.728 -0.0309 -0.9930  0.9895
 8054SOL     OW35797   1.740   2.939   8.697 -0.1968 -0.6661 -0.5766
 8054SOL    HW135798   1.666   2.969   8.644  2.1331  3.5701 -1.4513
 8054SOL    HW235799   1.807   3.007   8.689 -0.3918 -0.5798 -1.5704
 8055SOL     OW35800   0.351   3.893   7.928 -0.3368 -0.0639  0.2470
 8055SOL    HW135801   0.367   3.914   7.836 -0.8675  1.1541  0.4246
 8055SOL    HW235802   0.270   3.841   7.922 -1.3637  1.4830  0.5120
 8056SOL     OW35803   2.273   1.591   0.223 -0.1667  0.3767 -0.2033
 8056SOL    HW135804   2.326   1.646   0.281 -1.1322  1.3345 -0.2231
 8056SOL    HW235805   2.345   1.552   0.175  0.6101  1.0810  0.3968
 8057SOL     OW35806   4.584   1.327   7.653 -0.2120  0.2948  0.4482
 8057SOL    HW135807   4.559   1.408   7.698  0.5072 -2.1727  5.3627
 8057SOL    HW235808   4.606   1.263   7.721  0.5840  0.5699  0.4429
 8058SOL     OW35809   0.036   3.698   7.566 -0.6371  0.1945  0.0701
 8058SOL    HW135810   0.030   3.680   7.472  0.5687 -0.3724  0.1016
 8058SOL    HW235811   0.128   3.677   7.584 -0.8545 -2.1580 -1.4124
 8059SOL     OW35812   3.752   1.938  13.060 -0.2222  0.1859 -0.4738
 8059SOL    HW135813   3.813   1.870  13.091 -0.4635  0.3651  0.3891
 8059SOL    HW235814   3.741   1.986  13.142  1.0374 -0.2438 -0.0521
 8060SOL     OW35815   4.472   3.360  17.016  0.3741 -0.6215  0.1097
 8060SOL    HW135816   4.535   3.290  17.029  0.2410 -1.0766 -1.6311
 8060SOL    HW235817   4.407   3.322  16.956  1.0252 -3.1956  1.0413
 8061SOL     OW35818   1.759   3.461   5.734  0.0984 -0.2494 -0.0615
 8061SOL    HW135819   1.791   3.478   5.823  0.1244  0.3341 -0.1836
 8061SOL    HW235820   1.688   3.402   5.761 -0.7389  0.4563 -0.7078
 8062SOL     OW35821   1.184   1.465  12.338 -0.5475 -0.0521  0.2758
 8062SOL    HW135822   1.217   1.533  12.397  1.9563 -1.8069  0.8578
 8062SOL    HW235823   1.251   1.460  12.270 -1.6064  1.0843 -0.8486
 8063SOL     OW35824   4.533   2.449   5.427  0.2300 -0.4803 -0.0183
 8063SOL    HW135825   4.506   2.399   5.503 -0.9426  1.3563  0.7600
 8063SOL    HW235826   4.450   2.467   5.383 -0.2315  1.2701  1.5641
 8064SOL     OW35827   2.457   2.079  14.015  0.2815 -0.4838 -0.2115
 8064SOL    HW135828   2.484   2.168  13.988 -0.2628 -0.1403  0.3886
 8064SOL    HW235829   2.393   2.057  13.947 -1.9176  1.9762  1.0437
 8065SOL     OW35830   0.464   0.426   8.350  0.1088  0.1346  0.2293
 8065SOL    HW135831   0.483   0.363   8.420 -2.1672 -1.9152 -0.9998
 8065SOL    HW235832   0.369   0.424   8.339  0.1213  0.9167  0.0532
 8066SOL     OW35833   4.630   3.632   9.560 -0.1265  0.3944  0.0563
 8066SOL    HW135834   4.670   3.607   9.643 -1.1968 -0.2537  0.3704
 8066SOL    HW235835   4.701   3.687   9.526 -0.4283  0.2200 -0.8735
 8067SOL     OW35836   2.616   2.725  10.432 -0.3367 -0.0201 -0.4393
 8067SOL    HW135837   2.566   2.688  10.505 -0.1571  0.5604 -0.0255
 8067SOL    HW235838   2.660   2.645  10.403 -1.2175 -0.2886 -1.0485
 8068SOL     OW35839   2.847   4.294   5.766  0.1254  0.1108 -0.1353
 8068SOL    HW135840   2.798   4.355   5.822 -1.3266 -1.0533 -0.1439
 8068SOL    HW235841   2.820   4.304   5.675 -1.4367  1.0242  0.4231
 8069SOL     OW35842   3.569   0.413   7.754  0.7997  0.2986 -0.6923
 8069SOL    HW135843   3.505   0.458   7.699  0.8537  2.2763  0.8321
 8069SOL    HW235844   3.569   0.467   7.833 -1.4568 -0.3164 -0.2703
 8070SOL     OW35845   0.749   1.134   3.774 -0.4966 -0.8519  0.8426
 8070SOL    HW135846   0.825   1.171   3.729  0.0241 -1.8134  0.9351
 8070SOL    HW235847   0.715   1.085   3.699  2.0865  2.0532 -2.2101
 8071SOL     OW35848   4.613   2.329  11.373 -0.4085  0.1131  0.2988
 8071SOL    HW135849   4.565   2.278  11.439  4.0856 -1.7160  2.1341
 8071SOL    HW235850   4.692   2.279  11.356 -1.7410 -1.8580 -0.0706
 8072SOL     OW35851   2.563   1.480   6.590 -0.8207  0.5214  0.0293
 8072SOL    HW135852   2.542   1.386   6.594  0.6053  0.1842 -0.3947
 8072SOL    HW235853   2.476   1.518   6.584 -0.0792  1.8331 -2.2179
 8073SOL     OW35854   0.757   4.147   6.874  0.0438  0.4308  0.9964
 8073SOL    HW135855   0.721   4.079   6.818 -0.2032  0.5765  0.9792
 8073SOL    HW235856   0.838   4.168   6.827 -0.3546  0.3703  0.2953
 8074SOL     OW35857   4.055   3.293   9.784 -0.0368 -0.2049  0.3886
 8074SOL    HW135858   3.981   3.233   9.776 -0.4500  0.6346 -2.0436
 8074SOL    HW235859   4.025   3.381   9.805  2.6108  0.3927  1.7591
 8075SOL     OW35860   1.259   2.349   7.504 -0.0874  0.0354  0.5870
 8075SOL    HW135861   1.220   2.430   7.473 -2.9592 -1.7188 -0.4254
 8075SOL    HW235862   1.235   2.287   7.435 -0.9346  1.1052 -0.0865
 8076SOL     OW35863   1.784   3.698   8.078 -0.2483  0.5215  0.3503
 8076SOL    HW135864   1.843   3.654   8.017 -0.8788  0.1896 -0.0123
 8076SOL    HW235865   1.699   3.675   8.040  0.6119  0.3428 -1.4804
 8077SOL     OW35866   0.969   0.704   5.003 -0.0028  0.5458 -0.4063
 8077SOL    HW135867   1.014   0.671   5.081  0.9563  2.1993 -0.2480
 8077SOL    HW235868   0.905   0.634   4.997  0.4189  0.2611 -1.6164
 8078SOL     OW35869   0.583   2.041   6.818  0.0126  0.0593  0.0045
 8078SOL    HW135870   0.657   2.056   6.876 -0.1116 -1.5488  0.5883
 8078SOL    HW235871   0.624   1.978   6.759  1.1167  0.5957  0.2135
 8079SOL     OW35872   4.385   4.359  16.974  0.1766 -0.1620 -0.0163
 8079SOL    HW135873   4.313   4.420  16.985  0.3552  0.1632 -0.7203
 8079SOL    HW235874   4.366   4.292  17.040  2.5959 -0.6717  0.1567
 8080SOL     OW35875   1.638   0.243  16.930 -0.4540 -0.3521  0.1296
 8080SOL    HW135876   1.580   0.292  16.987  0.4594  0.6748  0.1801
 8080SOL    HW235877   1.629   0.152  16.960 -0.1893  0.2031  1.8601
 8081SOL     OW35878   3.095   3.984   7.940 -0.1811  0.0636  0.6376
 8081SOL    HW135879   3.054   3.953   8.021  1.0130 -0.1998  1.1425
 8081SOL    HW235880   3.139   3.903   7.913 -0.0495 -0.1314  1.4442
 8082SOL     OW35881   4.676   2.839  17.034  0.2273  0.0945  0.6265
 8082SOL    HW135882   4.706   2.751  17.011 -0.2448 -0.4102  1.9653
 8082SOL    HW235883   4.705   2.856  17.123  2.3775  0.1899 -0.0868
 8083SOL     OW35884   3.823   2.318  13.136 -0.0024  0.2175 -0.0398
 8083SOL    HW135885   3.880   2.336  13.212 -0.4664 -1.1237  0.6235
 8083SOL    HW235886   3.775   2.247  13.178  0.7700  0.1250  0.6988
 8084SOL     OW35887   1.469   1.840   9.065 -1.3949  0.1546  0.4149
 8084SOL    HW135888   1.486   1.867   9.155 -1.8820  2.9813 -0.3471
 8084SOL    HW235889   1.396   1.897   9.042 -0.5164  1.3023  0.4700
 8085SOL     OW35890   4.322   3.639   7.551 -0.0557 -0.2340  0.4722
 8085SOL    HW135891   4.374   3.586   7.490 -0.2492  1.5048 -1.2168
 8085SOL    HW235892   4.347   3.724   7.515 -1.0012  0.0142  0.4148
 8086SOL     OW35893   3.866   1.010  12.398  0.3891  0.5363  0.3159
 8086SOL    HW135894   3.892   0.998  12.307 -0.5833 -2.7870  0.4677
 8086SOL    HW235895   3.939   0.958  12.432  0.3713  0.3138  0.0128
 8087SOL     OW35896   0.839   1.290   7.128  0.2087  0.1903  0.4228
 8087SOL    HW135897   0.807   1.325   7.211  1.5773  0.5768  0.7945
 8087SOL    HW235898   0.931   1.285   7.154  0.4579 -0.1830 -0.5540
 8088SOL     OW35899   0.625   2.237   4.537 -0.6270 -0.3385 -0.3283
 8088SOL    HW135900   0.635   2.208   4.627 -0.3799 -0.1132 -0.2835
 8088SOL    HW235901   0.672   2.317   4.514  1.2999 -1.1320  0.9463
 8089SOL     OW35902   3.164   2.483   2.330 -0.0946  0.2264  0.1513
 8089SOL    HW135903   3.111   2.461   2.407 -2.0593  2.8106 -0.4635
 8089SOL    HW235904   3.220   2.406   2.325 -0.2099  0.1076  0.6994
 8090SOL     OW35905   1.646   2.008   8.074 -0.4392  0.0480 -0.4568
 8090SOL    HW135906   1.674   2.098   8.054  0.6022 -0.4217 -1.0644
 8090SOL    HW235907   1.718   1.954   8.043 -0.0223  0.9336 -1.0183
 8091SOL     OW35908   0.690   3.538   9.506  0.3270 -0.2001  0.2025
 8091SOL    HW135909   0.740   3.477   9.560 -0.0462 -0.0850  0.6693
 8091SOL    HW235910   0.653   3.482   9.438  0.2841 -2.9757  2.5335
 8092SOL     OW35911   2.840   3.955  15.761  0.3709  0.1693 -0.1882
 8092SOL    HW135912   2.793   3.929  15.840 -0.1051  0.5936 -0.3339
 8092SOL    HW235913   2.830   4.050  15.754  0.2240  0.1395 -0.3645
 8093SOL     OW35914   1.768   1.343   5.620  0.4633 -0.3874 -0.1689
 8093SOL    HW135915   1.796   1.322   5.531 -3.1797 -2.6171 -0.7719
 8093SOL    HW235916   1.675   1.357   5.607  0.7895  3.7260  2.1225
 8094SOL     OW35917   4.630   0.291   0.254 -0.2705 -0.1789  0.0378
 8094SOL    HW135918   4.613   0.313   0.163  1.1733 -0.3934 -0.2922
 8094SOL    HW235919   4.572   0.220   0.282 -0.6359  0.9897  2.1973
 8095SOL     OW35920   2.716   0.424  15.165  0.7361 -0.5757  0.3686
 8095SOL    HW135921   2.690   0.365  15.236 -1.0882 -1.4344 -1.0067
 8095SOL    HW235922   2.641   0.415  15.107  1.4365 -3.2051 -0.1314
 8096SOL     OW35923   1.384   3.393   0.625  0.0351  0.0028  0.9114
 8096SOL    HW135924   1.344   3.307   0.608 -0.6481  0.1766  1.6272
 8096SOL    HW235925   1.477   3.373   0.625 -0.5574 -2.7673  0.8623
 8097SOL     OW35926   2.921   0.550  16.636  0.0950 -0.2203  0.5839
 8097SOL    HW135927   2.832   0.571  16.606  1.5471  3.7547 -0.9206
 8097SOL    HW235928   2.919   0.587  16.724 -2.1101  3.0346 -0.8434
 8098SOL     OW35929   3.527   2.212   0.776  0.3600  0.2938 -0.0214
 8098SOL    HW135930   3.493   2.233   0.863  0.0195 -1.2613  0.2244
 8098SOL    HW235931   3.509   2.291   0.726 -0.7422  1.3155  1.9950
 8099SOL     OW35932   2.279   2.238   8.811  0.5516  0.0715 -0.2875
 8099SOL    HW135933   2.286   2.228   8.906 -0.5517  1.1644 -0.0963
 8099SOL    HW235934   2.370   2.241   8.783  0.7995  0.4800  0.5595
 8100SOL     OW35935   1.247   1.084   2.048 -0.0657 -0.5611  0.0394
 8100SOL    HW135936   1.227   1.043   1.964 -1.5054  1.3509 -0.5446
 8100SOL    HW235937   1.337   1.112   2.030 -0.0432 -1.0874 -0.6673
 8101SOL     OW35938   1.529   0.460   8.940  0.5664 -0.3739 -0.3666
 8101SOL    HW135939   1.448   0.511   8.937 -0.9398 -2.6079  2.7965
 8101SOL    HW235940   1.529   0.444   9.034 -0.5340 -1.9847 -0.6374
 8102SOL     OW35941   4.235   2.149  17.270 -0.5072  0.0041  0.3164
 8102SOL    HW135942   4.154   2.181  17.229  0.2430  0.3753 -0.8484
 8102SOL    HW235943   4.283   2.110  17.198 -1.1719  0.1738 -0.2169
 8103SOL     OW35944   2.177   3.023  10.388  0.8018  0.3512  0.0895
 8103SOL    HW135945   2.233   2.955  10.426  0.1133  0.7882  1.9106
 8103SOL    HW235946   2.227   3.041  10.309  0.4359 -0.0577 -0.2292
 8104SOL     OW35947   2.169   1.552   0.886 -0.0711 -0.1337  0.3623
 8104SOL    HW135948   2.137   1.462   0.880  0.8058 -0.2745 -2.1101
 8104SOL    HW235949   2.178   1.582   0.796 -3.4108  2.3299  0.8653
 8105SOL     OW35950   1.043   3.529  10.779 -0.1605  0.3261 -0.2155
 8105SOL    HW135951   1.073   3.605  10.828 -1.6764 -0.1987  1.5613
 8105SOL    HW235952   1.050   3.466  10.851  0.4573 -1.2225 -1.6214
 8106SOL     OW35953   3.609   2.488   2.489  0.7159 -0.3430 -0.2304
 8106SOL    HW135954   3.570   2.442   2.563 -0.0953 -1.9755 -1.6518
 8106SOL    HW235955   3.679   2.425   2.471  1.6300  0.4875  0.3902
 8107SOL     OW35956   3.594   0.624   7.938  0.5245 -0.2066 -0.1702
 8107SOL    HW135957   3.573   0.714   7.964  1.7452  0.0967 -0.2148
 8107SOL    HW235958   3.679   0.608   7.979  0.5573  1.9290  0.5935
 8108SOL     OW35959   0.273   0.304   6.576 -0.1016  0.0681 -0.2171
 8108SOL    HW135960   0.245   0.341   6.660 -2.1977  0.9386 -1.3187
 8108SOL    HW235961   0.348   0.362   6.559  0.8646 -1.1114  0.0346
 8109SOL     OW35962   1.628   4.485   3.425  0.2689 -0.2334  0.0412
 8109SOL    HW135963   1.636   4.450   3.336  1.0349  2.4706 -0.9331
 8109SOL    HW235964   1.716   4.468   3.460  0.8065 -0.4123 -1.3977
 8110SOL     OW35965   4.718   4.534   7.154 -0.1640  0.7020 -0.3017
 8110SOL    HW135966   4.723   4.627   7.132  1.0230  1.2814  2.4123
 8110SOL    HW235967   0.069   4.508   7.132 -0.5538 -0.7252 -0.1555
 8111SOL     OW35968   1.273   1.022  15.021  0.3578 -0.2527 -0.0977
 8111SOL    HW135969   1.310   1.060  14.941 -0.8791  2.8599  0.8073
 8111SOL    HW235970   1.179   1.033  15.006  0.6474 -0.0651 -1.7279
 8112SOL     OW35971   3.625   1.440   3.709  0.2418 -0.7434  0.2793
 8112SOL    HW135972   3.593   1.482   3.789  1.6826 -0.3211  0.6435
 8112SOL    HW235973   3.658   1.520   3.669 -0.1156 -0.8352 -0.1966
 8113SOL     OW35974   4.582   2.956  13.428 -0.0694 -0.2431 -0.1948
 8113SOL    HW135975   4.603   2.997  13.512  0.3856 -0.3859 -0.2396
 8113SOL    HW235976   4.617   2.868  13.441 -0.2758 -0.4541 -1.0683
 8114SOL     OW35977   1.126   3.199   5.592 -0.1212  0.6536  0.1177
 8114SOL    HW135978   1.107   3.243   5.675  0.3247  0.0300  0.5583
 8114SOL    HW235979   1.107   3.264   5.524  1.6975 -0.3623 -1.3767
 8115SOL     OW35980   1.904   2.095   1.745 -0.5817 -0.3872 -0.3842
 8115SOL    HW135981   1.844   2.050   1.685 -0.8085 -3.1006  1.8804
 8115SOL    HW235982   1.880   2.044   1.822 -1.0789  0.3847 -0.0289
 8116SOL     OW35983   0.160   4.318   5.608 -0.1637  0.0691  0.2336
 8116SOL    HW135984   0.215   4.250   5.570  0.5721 -0.3370  2.0321
 8116SOL    HW235985   0.074   4.281   5.585 -0.6252  0.5527  1.1763
 8117SOL     OW35986   3.353   4.596  13.938 -0.8214 -0.1322 -0.2016
 8117SOL    HW135987   3.310   4.566  14.018 -2.5027 -1.2281 -1.5312
 8117SOL    HW235988   3.282   4.587  13.875 -1.0607  0.2239  0.0226
 8118SOL     OW35989   0.211   1.641   5.633  0.0873  0.1253  0.2504
 8118SOL    HW135990   0.165   1.598   5.705 -1.7802 -0.2497 -1.1707
 8118SOL    HW235991   0.161   1.613   5.555 -1.1908  1.1751  0.7014
 8119SOL     OW35992   2.180   3.472   8.048 -0.1492  0.7891  0.2114
 8119SOL    HW135993   2.174   3.425   7.965 -2.9860  2.8075 -0.7272
 8119SOL    HW235994   2.119   3.542   8.024 -2.6108 -1.0161  1.2866
 8120SOL     OW35995   3.874   0.810  10.294 -0.1877 -0.5822 -0.0295
 8120SOL    HW135996   3.840   0.746  10.355  1.5032 -0.3959  1.1141
 8120SOL    HW235997   3.945   0.754  10.262  1.0563  1.4302 -0.8541
 8121SOL     OW35998   2.017   0.654   8.285 -0.1090  0.6516 -0.0294
 8121SOL    HW135999   2.023   0.741   8.246 -0.9345  0.7957  0.1586
 8121SOL    HW236000   1.984   0.675   8.373 -0.6403 -0.3334 -0.0064
 8122SOL     OW36001   1.167   1.813  12.715 -0.6122 -0.3273 -0.2332
 8122SOL    HW136002   1.096   1.792  12.776  0.2693 -0.8255  0.6175
 8122SOL    HW236003   1.124   1.868  12.649 -0.8390  1.4034  1.3569
 8123SOL     OW36004   0.559   3.636  14.247  0.0562  0.3016 -0.0802
 8123SOL    HW136005   0.645   3.604  14.274  0.9474  0.6910 -2.5446
 8123SOL    HW236006   0.510   3.604  14.323 -1.0045 -0.6909 -1.1694
 8124SOL     OW36007   0.504   4.587   8.907 -0.2658  0.1026 -0.0112
 8124SOL    HW136008   0.538   4.578   8.996  1.3686 -0.9649 -0.7552
 8124SOL    HW236009   0.579   4.625   8.861 -0.4310  0.5641  0.1020
 8125SOL     OW36010   3.719   0.938   7.762  0.5965 -0.1744 -0.2612
 8125SOL    HW136011   3.632   0.976   7.773 -0.1992 -1.2193 -2.7782
 8125SOL    HW236012   3.752   1.005   7.821  0.0074  1.4507 -1.7973
 8126SOL     OW36013   0.047   2.109  12.873  0.2201  0.0156 -0.3217
 8126SOL    HW136014   0.069   2.169  12.802  0.5599  0.9118  0.5390
 8126SOL    HW236015   4.695   2.137  12.890 -0.2008 -1.9930  0.7223
 8127SOL     OW36016   2.029   4.539  13.237  0.5137  0.0220  0.3042
 8127SOL    HW136017   2.087   4.478  13.190  0.2287 -0.2171  0.2620
 8127SOL    HW236018   1.944   4.495  13.238  0.1073  0.8437  1.1973
 8128SOL     OW36019   2.968   2.312  14.970 -0.7136 -0.7284 -0.3679
 8128SOL    HW136020   3.032   2.261  15.019 -1.3453 -0.3538  0.8577
 8128SOL    HW236021   2.979   2.265  14.888  0.7198 -0.1342 -0.5176
 8129SOL     OW36022   0.283   0.132   9.005 -0.1744 -0.1199  0.1673
 8129SOL    HW136023   0.271   0.067   9.074  1.5663 -1.8272 -1.1699
 8129SOL    HW236024   0.195   0.169   8.998  0.1772  0.9763  1.4897
 8130SOL     OW36025   3.406   4.488  16.048 -1.3454 -0.1505  0.2615
 8130SOL    HW136026   3.478   4.476  15.987 -1.9252  0.9429 -0.6438
 8130SOL    HW236027   3.365   4.401  16.051 -0.7939 -0.4093  0.2408
 8131SOL     OW36028   3.816   1.106   0.736  0.3608  0.1679 -0.6233
 8131SOL    HW136029   3.752   1.087   0.666 -1.5189  0.1356  1.1127
 8131SOL    HW236030   3.814   1.032   0.795  1.4921  0.6487  0.0029
 8132SOL     OW36031   1.112   3.633   6.989 -0.0188  0.5114 -0.1835
 8132SOL    HW136032   1.120   3.538   6.992  1.7660  0.7567  2.7449
 8132SOL    HW236033   1.203   3.659   6.975  1.0213 -1.6702  2.6982
 8133SOL     OW36034   0.397   3.970  14.940  0.1922 -0.1532 -0.1929
 8133SOL    HW136035   0.460   3.905  14.971  1.1031  0.3833 -0.9653
 8133SOL    HW236036   0.318   3.936  14.984 -0.0844 -1.0794 -1.4224
 8134SOL     OW36037   4.382   4.401   8.452 -0.1873  0.1317  0.5782
 8134SOL    HW136038   4.366   4.319   8.499 -0.4352 -0.4274 -0.4797
 8134SOL    HW236039   4.437   4.376   8.378 -0.4701 -0.5967  0.6211
 8135SOL     OW36040   1.883   3.253  14.599 -0.0196 -0.0671 -0.3530
 8135SOL    HW136041   1.848   3.164  14.601  0.0809 -0.0818  0.5660
 8135SOL    HW236042   1.805   3.304  14.622  0.4701  0.4094  0.2638
 8136SOL     OW36043   4.158   0.973  12.955  0.0858  0.2491 -0.3084
 8136SOL    HW136044   4.245   0.989  12.917  0.3686 -0.4275  0.0537
 8136SOL    HW236045   4.111   0.936  12.881  0.8038  0.8145 -1.0524
 8137SOL     OW36046   1.058   2.824   9.541 -0.1120 -0.3207  1.2918
 8137SOL    HW136047   1.118   2.764   9.585 -0.1870  0.0362  1.8663
 8137SOL    HW236048   1.120   2.865   9.480  0.8173 -1.3633  1.5337
 8138SOL     OW36049   1.818   0.808   7.408 -0.4902 -1.0833  0.1083
 8138SOL    HW136050   1.846   0.745   7.475  1.9071  0.6241  0.7091
 8138SOL    HW236051   1.841   0.756   7.331 -1.9200  1.3941 -1.9912
 8139SOL     OW36052   0.862   1.229   4.266 -0.1036 -0.2373 -0.5270
 8139SOL    HW136053   0.824   1.236   4.178  0.0892 -1.3815 -0.7040
 8139SOL    HW236054   0.862   1.134   4.280  0.3892 -0.3067 -0.9605
 8140SOL     OW36055   3.936   3.520   8.842  0.4545  0.2179 -0.1110
 8140SOL    HW136056   4.023   3.497   8.874  0.4367 -2.4956 -2.0991
 8140SOL    HW236057   3.881   3.489   8.914  0.0653 -2.2236 -1.4765
 8141SOL     OW36058   3.996   4.373  16.120  0.2193  0.1000 -0.0559
 8141SOL    HW136059   4.027   4.346  16.033  0.7044 -1.3746  0.5814
 8141SOL    HW236060   3.912   4.327  16.116 -0.6810  1.6355  1.1937
 8142SOL     OW36061   0.021   1.725  17.245  0.2939 -0.4891 -0.1958
 8142SOL    HW136062   4.680   1.674  17.260  1.3391 -2.4397 -1.3277
 8142SOL    HW236063   0.087   1.686  17.302  1.2581 -0.6816 -1.4448
 8143SOL     OW36064   3.564   0.765   0.177  0.0764 -0.5132 -0.2285
 8143SOL    HW136065   3.626   0.707   0.222  0.0736 -0.7526 -0.5328
 8143SOL    HW236066   3.498   0.768   0.246  0.7457 -1.1355  0.4493
 8144SOL     OW36067   3.976   4.512   5.846  0.0945  0.1347 -0.5366
 8144SOL    HW136068   3.923   4.556   5.779  0.4131 -0.6029 -1.2703
 8144SOL    HW236069   4.063   4.554   5.848  0.3451 -0.4914  1.5219
 8145SOL     OW36070   2.478   3.051   9.009  0.3717 -0.6858 -0.1961
 8145SOL    HW136071   2.410   3.002   8.961  0.8983 -0.2777 -1.3460
 8145SOL    HW236072   2.427   3.070   9.088 -0.3267 -2.5084 -0.2058
 8146SOL     OW36073   1.658   2.257   5.225  0.0240 -0.4068  0.1178
 8146SOL    HW136074   1.675   2.202   5.302 -0.2354 -0.5889  0.0452
 8146SOL    HW236075   1.563   2.264   5.232  0.4258  0.8125  4.7600
 8147SOL     OW36076   2.826   0.425   6.294 -0.3875 -0.2618 -0.4398
 8147SOL    HW136077   2.803   0.371   6.370 -1.9650 -0.3379 -0.9757
 8147SOL    HW236078   2.843   0.351   6.236 -1.0985  0.1485 -1.1564
 8148SOL     OW36079   0.552   2.890   6.717  0.3404 -0.0081  0.7564
 8148SOL    HW136080   0.631   2.901   6.770  1.9432  0.1620 -1.6285
 8148SOL    HW236081   0.535   2.982   6.696 -1.6064 -0.5444 -0.0294
 8149SOL     OW36082   2.481   3.052   0.816 -0.2088  0.3836 -0.6422
 8149SOL    HW136083   2.536   3.111   0.765  0.4344 -0.8529 -1.3788
 8149SOL    HW236084   2.505   2.968   0.777  3.9120  0.0349  2.6537
 8150SOL     OW36085   4.104   3.624   6.437  0.1985 -0.2062  0.2101
 8150SOL    HW136086   4.186   3.591   6.400  0.7452 -0.1292  1.3308
 8150SOL    HW236087   4.062   3.658   6.359  0.4718 -0.9129 -0.2466
 8151SOL     OW36088   0.854   0.567   9.124 -0.1138  0.2762 -0.2780
 8151SOL    HW136089   0.829   0.491   9.176  1.1676 -1.1354 -1.7326
 8151SOL    HW236090   0.791   0.629   9.162 -2.0548 -1.1274 -1.2066
 8152SOL     OW36091   0.920   1.207   8.146 -0.1236 -0.4086 -0.2375
 8152SOL    HW136092   1.004   1.231   8.185 -0.5757 -1.0779  1.1600
 8152SOL    HW236093   0.907   1.277   8.082 -3.6416  0.7551  1.7689
 8153SOL     OW36094   3.424   4.243   2.320  0.2002 -0.1114  0.1151
 8153SOL    HW136095   3.384   4.158   2.335 -0.2288  0.4520  2.1768
 8153SOL    HW236096   3.375   4.307   2.371 -0.3053  0.6295 -1.3079
 8154SOL     OW36097   3.593   1.863   3.544  0.0705 -0.3914 -0.0656
 8154SOL    HW136098   3.671   1.825   3.585 -0.6765 -1.6025  0.2038
 8154SOL    HW236099   3.523   1.800   3.559  0.0778 -0.2399  0.6375
 8155SOL     OW36100   1.878   2.797   4.847 -0.3123  0.1277  0.2300
 8155SOL    HW136101   1.926   2.716   4.866  0.2650  0.3974 -0.0791
 8155SOL    HW236102   1.796   2.780   4.894  0.4297  0.7404  1.7518
 8156SOL     OW36103   2.858   4.059   4.755 -0.4814 -0.1451 -0.1189
 8156SOL    HW136104   2.919   4.068   4.827  1.0966  0.8820 -1.5864
 8156SOL    HW236105   2.811   4.142   4.743  0.0763  0.3254  1.0453
 8157SOL     OW36106   3.766   1.823  10.248 -0.0092  0.1673 -0.5068
 8157SOL    HW136107   3.840   1.872  10.212  1.2256 -1.4310 -0.1686
 8157SOL    HW236108   3.813   1.761  10.303 -2.0172 -1.3530 -0.5330
 8158SOL     OW36109   1.941   3.111   8.646  0.0699  0.2548 -0.0460
 8158SOL    HW136110   1.985   3.072   8.570 -0.8797  0.5646 -0.7454
 8158SOL    HW236111   1.988   3.192   8.665  1.0624 -0.3298 -0.0125
 8159SOL     OW36112   0.435   3.629   1.642 -0.5853 -0.2987  0.2018
 8159SOL    HW136113   0.511   3.641   1.584  0.4494 -3.4502  0.9633
 8159SOL    HW236114   0.370   3.651   1.574 -0.2960 -0.1381 -0.0247
 8160SOL     OW36115   2.857   3.180   3.445 -0.8991  0.0167  0.3343
 8160SOL    HW136116   2.952   3.171   3.434 -0.8652 -0.8809  1.3497
 8160SOL    HW236117   2.841   3.162   3.538  2.2878 -1.1929  0.6498
 8161SOL     OW36118   2.141   1.980   8.501 -0.4909  0.5045  0.1957
 8161SOL    HW136119   2.127   1.886   8.490 -1.7974  0.9320 -1.7661
 8161SOL    HW236120   2.230   1.996   8.469 -0.6066  1.8186  0.5363
 8162SOL     OW36121   3.029   1.644   7.588  0.3779 -0.4435  0.5336
 8162SOL    HW136122   2.967   1.694   7.642  0.2891  1.6319 -1.4737
 8162SOL    HW236123   3.000   1.660   7.498 -2.1293  1.4288  1.6763
 8163SOL     OW36124   1.733   1.110  15.638 -1.0737  0.1485  0.1890
 8163SOL    HW136125   1.790   1.115  15.562  1.4668 -1.6063  1.9554
 8163SOL    HW236126   1.652   1.072  15.604  0.4305 -0.9796 -2.0891
 8164SOL     OW36127   1.749   4.492   6.663 -0.4638 -0.2344  0.1869
 8164SOL    HW136128   1.726   4.574   6.705 -0.0507 -0.0724  0.0966
 8164SOL    HW236129   1.796   4.518   6.584  0.8315 -0.1092  0.9981
 8165SOL     OW36130   0.533   0.717   5.707  0.4509  0.8957 -0.0298
 8165SOL    HW136131   0.547   0.677   5.622  0.8259 -1.1375  0.9966
 8165SOL    HW236132   0.478   0.793   5.685 -0.6947 -0.0631 -0.4624
 8166SOL     OW36133   3.188   0.461   1.832  0.0105  0.1571  0.0011
 8166SOL    HW136134   3.119   0.500   1.885 -0.7074  0.5338 -1.2246
 8166SOL    HW236135   3.243   0.436   1.906  2.1248  2.0481 -0.9546
 8167SOL     OW36136   0.652   4.143  13.585 -0.1294 -0.3955  0.4315
 8167SOL    HW136137   0.693   4.226  13.561 -1.2064  0.2935  0.9497
 8167SOL    HW236138   0.668   4.096  13.504  2.1304 -0.6731  1.0389
 8168SOL     OW36139   3.059   4.387   3.944  0.2918  0.1655  0.1698
 8168SOL    HW136140   3.064   4.397   3.849  1.1422  1.5211  0.3625
 8168SOL    HW236141   2.967   4.358   3.946 -0.4021  2.4549  0.5268
 8169SOL     OW36142   2.719   0.682   3.440  0.6305  0.5454  0.0020
 8169SOL    HW136143   2.721   0.775   3.461  1.1368  0.4814  0.2638
 8169SOL    HW236144   2.626   0.665   3.452  0.6193  0.4366 -0.2449
 8170SOL     OW36145   3.355   4.681  12.892  0.0630 -0.2503  0.1170
 8170SOL    HW136146   3.296   4.675  12.967  1.1151 -1.3165  0.8641
 8170SOL    HW236147   3.288   4.715  12.833  2.0089  0.2995 -1.7736
 8171SOL     OW36148   0.061   3.567   1.061  0.6482 -0.1218  0.7023
 8171SOL    HW136149   0.156   3.555   1.062  0.9468  2.0132 -1.1466
 8171SOL    HW236150   0.022   3.532   1.141  2.0877 -3.7844 -0.1867
 8172SOL     OW36151   1.330   0.479   6.713 -0.4575  0.3353  0.0868
 8172SOL    HW136152   1.263   0.502   6.778 -0.7032 -0.6795  0.1799
 8172SOL    HW236153   1.288   0.475   6.628 -2.4133 -0.2497  1.0924
 8173SOL     OW36154   1.503   4.452  15.835  0.2220 -0.2760 -0.2692
 8173SOL    HW136155   1.502   4.533  15.886 -1.4389 -0.3856 -0.1524
 8173SOL    HW236156   1.576   4.466  15.774  0.2255 -1.1498 -0.4734
 8174SOL     OW36157   4.245   1.649   3.358  0.1075  0.1694  0.5813
 8174SOL    HW136158   4.224   1.740   3.339  0.6413  0.5045  1.6127
 8174SOL    HW236159   4.300   1.630   3.282 -1.6647  2.3157 -1.2272
 8175SOL     OW36160   1.859   3.123   1.820 -0.6996  0.4175  0.2444
 8175SOL    HW136161   1.827   3.125   1.730 -0.6832 -0.5011  0.2098
 8175SOL    HW236162   1.855   3.216   1.841  0.3307  0.5723 -0.2173
 8176SOL     OW36163   3.182   0.106  16.139 -0.9722 -0.2011 -0.2830
 8176SOL    HW136164   3.196   0.035  16.076  2.7935 -1.2048  1.6450
 8176SOL    HW236165   3.212   0.182  16.089  1.7593 -1.0460  0.0727
 8177SOL     OW36166   2.145   1.009  16.743  0.0643  0.9402 -0.1963
 8177SOL    HW136167   2.098   1.052  16.672  0.3284  0.8644 -0.4166
 8177SOL    HW236168   2.079   0.965  16.796  2.0846 -0.7160  0.9713
 8178SOL     OW36169   1.485   0.567   8.606  0.2422 -0.1064  0.0669
 8178SOL    HW136170   1.529   0.621   8.672 -2.5390  2.9046 -0.5299
 8178SOL    HW236171   1.551   0.530   8.548  1.1383  2.1202 -0.3668
 8179SOL     OW36172   2.449   1.730   4.680 -0.2206  0.3615 -0.1032
 8179SOL    HW136173   2.404   1.646   4.677  2.1930 -0.8615 -2.2957
 8179SOL    HW236174   2.468   1.736   4.773 -0.8661  3.1183 -0.1540
 8180SOL     OW36175   3.124   2.052   6.597  0.5600  0.1827 -0.3402
 8180SOL    HW136176   3.044   2.098   6.575 -0.1725 -1.4152 -1.0155
 8180SOL    HW236177   3.187   2.094   6.539  2.1739  0.0837  1.3230
 8181SOL     OW36178   0.668   1.563   9.082 -0.1870  0.1148  0.4699
 8181SOL    HW136179   0.595   1.538   9.138 -0.8447  2.0811  0.4963
 8181SOL    HW236180   0.625   1.632   9.030  1.1904 -0.1883 -1.0867
 8182SOL     OW36181   0.778   2.512   8.108  0.1824 -0.0952  0.2892
 8182SOL    HW136182   0.697   2.469   8.078  0.8630 -0.4219 -1.0886
 8182SOL    HW236183   0.744   2.594   8.144  0.3041  0.7226 -1.4261
 8183SOL     OW36184   4.141   1.981   9.091  0.1579  0.2884  1.0063
 8183SOL    HW136185   4.099   1.990   9.176 -0.5680  1.6985  0.4922
 8183SOL    HW236186   4.069   1.960   9.032  2.2794 -0.4824 -1.3177
 8184SOL     OW36187   0.556   0.398   6.802  0.7576 -0.2683  0.1675
 8184SOL    HW136188   0.626   0.333   6.791  0.3433 -0.5694 -0.7425
 8184SOL    HW236189   0.542   0.433   6.714  3.4899 -2.4890 -1.1419
 8185SOL     OW36190   1.851   4.683  12.378  0.2121 -0.4704 -0.1749
 8185SOL    HW136191   1.815   4.595  12.365 -3.7285  1.0923 -0.0064
 8185SOL    HW236192   1.782   4.726  12.328  0.1410 -0.2855  0.0787
 8186SOL     OW36193   1.589   1.596  13.950 -0.6633 -0.5193 -0.0913
 8186SOL    HW136194   1.586   1.646  14.031  0.7134  0.7560 -0.8193
 8186SOL    HW236195   1.594   1.507  13.984  1.4260 -0.6294 -0.6756
 8187SOL     OW36196   3.364   0.051   6.077  0.3328  0.3309  0.0380
 8187SOL    HW136197   3.396   0.097   6.000  0.6465 -1.2179 -0.7437
 8187SOL    HW236198   3.448   0.023   6.112 -0.7307 -0.6712  1.8130
 8188SOL     OW36199   0.403   4.380  17.514  0.5981  0.4206 -0.2022
 8188SOL    HW136200   0.391   4.309  17.451 -0.4865 -1.3182  1.9714
 8188SOL    HW236201   0.384   4.331  17.594  0.1314 -0.8467 -1.0988
 8189SOL     OW36202   4.364   2.384   6.093  0.3941  0.1744 -0.1967
 8189SOL    HW136203   4.305   2.372   6.167 -0.0487  0.3877 -0.5212
 8189SOL    HW236204   4.301   2.364   6.024  1.3923 -1.4312 -0.6596
 8190SOL     OW36205   2.894   4.715   4.607  0.7023  0.6757  0.5111
 8190SOL    HW136206   2.987   4.694   4.618  0.9536  0.2503 -2.3027
 8190SOL    HW236207   2.870   4.681   4.521  0.7689  1.7372  0.0626
 8191SOL     OW36208   3.196   1.034   0.244  0.3794  0.0456  0.5539
 8191SOL    HW136209   3.182   1.001   0.155 -1.7057 -0.4915  1.0575
 8191SOL    HW236210   3.135   1.105   0.265  0.5378 -0.1639  1.6919
 8192SOL     OW36211   4.371   3.228  12.276 -0.2620  0.2167 -0.2532
 8192SOL    HW136212   4.358   3.157  12.213  3.0420 -2.1832  1.7721
 8192SOL    HW236213   4.287   3.218  12.322 -0.5223  0.1244 -0.7510
 8193SOL     OW36214   3.540   3.532   3.470  0.0442  0.3026  0.1596
 8193SOL    HW136215   3.620   3.515   3.421 -1.2818 -1.0294 -1.5509
 8193SOL    HW236216   3.571   3.612   3.512 -2.9161  1.8516 -0.5941
 8194SOL     OW36217   0.410   0.895  10.511  0.0818  0.6259  0.4429
 8194SOL    HW136218   0.423   0.986  10.484  0.1894  0.7845  1.0295
 8194SOL    HW236219   0.498   0.860  10.526 -0.1234 -1.2986 -2.9610
 8195SOL     OW36220   0.558   0.748  14.362  1.1307 -0.2476 -0.4501
 8195SOL    HW136221   0.576   0.655  14.348 -1.4062 -0.9248  0.6485
 8195SOL    HW236222   0.518   0.774  14.279 -1.8163 -0.8236  0.7763
 8196SOL     OW36223   4.324   3.416   5.087  0.1294 -0.1981  0.3063
 8196SOL    HW136224   4.396   3.475   5.106  0.6478 -0.1749 -1.7299
 8196SOL    HW236225   4.290   3.402   5.175 -1.9610  0.7008 -0.3553
 8197SOL     OW36226   0.398   2.341   8.161 -0.1367  0.2443 -0.0175
 8197SOL    HW136227   0.418   2.435   8.159  1.1433  0.0348  2.2259
 8197SOL    HW236228   0.363   2.338   8.251  0.7487 -0.0403  0.3185
 8198SOL     OW36229   0.610   3.884   8.299  0.5364 -0.5062 -0.4645
 8198SOL    HW136230   0.628   3.976   8.320 -0.1095 -0.8917  1.7149
 8198SOL    HW236231   0.531   3.872   8.351  0.9744 -1.5213 -0.0420
 8199SOL     OW36232   3.962   2.290   5.244  0.4310 -0.1724 -0.4073
 8199SOL    HW136233   3.959   2.239   5.325 -2.0425  1.1056  0.2912
 8199SOL    HW236234   3.878   2.261   5.207 -0.1051  0.9349 -0.0630
 8200SOL     OW36235   3.638   4.016   6.878  0.2288  0.8452  0.3568
 8200SOL    HW136236   3.600   4.089   6.830  0.6303  0.8786  0.0887
 8200SOL    HW236237   3.720   4.004   6.831 -0.5002  1.3638 -1.0349
 8201SOL     OW36238   2.745   3.922  16.055  0.4074 -0.1272 -0.2170
 8201SOL    HW136239   2.662   3.954  16.091  1.2227  3.2358 -1.3788
 8201SOL    HW236240   2.804   3.994  16.079  0.8129 -0.7364  0.6239
 8202SOL     OW36241   4.703   0.795   7.073 -0.5538  0.0529 -0.3026
 8202SOL    HW136242   4.705   0.886   7.042  2.6298 -0.4997 -1.7917
 8202SOL    HW236243   4.671   0.814   7.161 -0.7207  2.1577 -0.8107
 8203SOL     OW36244   3.459   4.318   9.528  0.0659  0.3509  0.9911
 8203SOL    HW136245   3.437   4.390   9.468 -2.8534 -0.1486  1.4759
 8203SOL    HW236246   3.537   4.290   9.480 -1.3198 -0.5336 -0.7444
 8204SOL     OW36247   2.476   1.976   3.671  0.2969  0.3416  0.1393
 8204SOL    HW136248   2.465   2.041   3.601  1.8766 -0.2029 -0.6299
 8204SOL    HW236249   2.543   2.019   3.724 -0.3510 -0.9507  2.0168
 8205SOL     OW36250   4.318   4.132  15.805 -0.2707  0.3499 -0.2022
 8205SOL    HW136251   4.278   4.174  15.729  0.0965 -0.9329 -1.0974
 8205SOL    HW236252   4.372   4.206  15.831  1.3683 -0.5464 -1.0869
 8206SOL     OW36253   3.875   4.446   9.539  0.4779  0.5447  0.2331
 8206SOL    HW136254   3.873   4.510   9.610 -0.8887  0.1307  0.5904
 8206SOL    HW236255   3.913   4.368   9.581 -0.2096 -1.3249 -2.6167
 8207SOL     OW36256   3.497   0.326   9.394 -0.1524 -0.2118 -0.0227
 8207SOL    HW136257   3.426   0.285   9.345 -0.1790  0.3516 -0.4588
 8207SOL    HW236258   3.457   0.411   9.413 -1.8271 -0.3700 -2.7218
 8208SOL     OW36259   1.558   0.645   9.601 -0.0150 -0.2972 -0.4898
 8208SOL    HW136260   1.546   0.641   9.696  3.4423 -0.6815 -0.0535
 8208SOL    HW236261   1.607   0.564   9.584  0.6199  0.0865 -0.4960
 8209SOL     OW36262   3.177   4.436   7.638  0.2586  0.1285 -0.2918
 8209SOL    HW136263   3.213   4.377   7.704  0.3379 -0.8754 -1.2499
 8209SOL    HW236264   3.232   4.514   7.645 -1.1913  1.3110 -1.8981
 8210SOL     OW36265   0.318   1.013   1.732  0.2592 -0.1580 -0.3196
 8210SOL    HW136266   0.278   1.070   1.798 -1.7616 -0.2735 -1.4250
 8210SOL    HW236267   0.265   0.933   1.732 -1.0040  0.6719 -0.9685
 8211SOL     OW36268   1.261   1.120   6.977 -0.4076 -0.0756  0.2725
 8211SOL    HW136269   1.223   1.196   6.933 -0.0173  0.7966  1.4329
 8211SOL    HW236270   1.192   1.113   7.042  1.0521  2.8175  2.1307
 8212SOL     OW36271   3.867   4.551   5.590  0.6379 -0.5558  0.1508
 8212SOL    HW136272   3.821   4.565   5.508  0.1040  3.5037  1.1228
 8212SOL    HW236273   3.918   4.631   5.575  1.5013 -1.4652 -1.7483
 8213SOL     OW36274   1.397   3.798   4.388 -0.2056 -0.1484  0.7628
 8213SOL    HW136275   1.337   3.724   4.397 -0.4061 -0.3391 -2.0597
 8213SOL    HW236276   1.330   3.866   4.394  1.0569  1.0385  1.3504
 8214SOL     OW36277   3.554   0.929   9.341  0.2665 -0.4760 -0.2369
 8214SOL    HW136278   3.471   0.883   9.355 -0.5326  0.9706 -0.1646
 8214SOL    HW236279   3.520   1.016   9.318  1.8963  0.3144  0.3459
 8215SOL     OW36280   1.766   3.210   3.926 -0.7146 -0.1829  0.0290
 8215SOL    HW136281   1.670   3.214   3.925 -0.7369 -0.3033  1.5306
 8215SOL    HW236282   1.794   3.207   4.018 -2.8070 -1.3085  0.6358
 8216SOL     OW36283   4.255   3.131   5.060 -0.0016 -0.3265  0.3996
 8216SOL    HW136284   4.283   3.115   4.970  2.0930  0.2610  0.9420
 8216SOL    HW236285   4.280   3.223   5.063 -0.4316 -0.2393  1.3029
 8217SOL     OW36286   4.725   3.143   4.442 -0.1176 -0.6684 -0.5998
 8217SOL    HW136287   0.033   3.152   4.359  0.6917 -0.5751 -0.1315
 8217SOL    HW236288   0.061   3.129   4.500 -0.2690  0.7449 -0.0541
 8218SOL     OW36289   0.116   1.539   7.846 -0.1854  0.2240 -0.1683
 8218SOL    HW136290   0.021   1.547   7.846 -0.0619  1.6825 -0.9287
 8218SOL    HW236291   0.147   1.630   7.841  1.9438 -0.4732  0.1475
 8219SOL     OW36292   3.770   1.612   4.972  0.2267  0.7107 -0.3676
 8219SOL    HW136293   3.853   1.587   5.011  0.6313  0.2540 -1.5415
 8219SOL    HW236294   3.705   1.599   5.041 -0.8616  0.7609 -1.3884
 8220SOL     OW36295   0.010   0.181   5.858 -0.5636  0.4396  0.2830
 8220SOL    HW136296   0.063   0.242   5.910  1.2439 -0.2646 -0.7509
 8220SOL    HW236297   0.069   0.166   5.785 -0.2274 -1.6763  0.9818
 8221SOL     OW36298   3.630   0.634   7.428 -0.4144  0.4422 -0.2702
 8221SOL    HW136299   3.640   0.683   7.509 -0.5418  2.2646 -1.3734
 8221SOL    HW236300   3.537   0.644   7.407  0.2192 -1.8621 -4.2269
 8222SOL     OW36301   1.566   1.240   7.493  0.5692  0.5731 -0.1124
 8222SOL    HW136302   1.597   1.150   7.488  0.0619  0.3148  1.4613
 8222SOL    HW236303   1.593   1.265   7.581 -0.8053 -1.7359  0.9440
 8223SOL     OW36304   2.358   0.723   6.279 -0.1088  0.4827 -0.0531
 8223SOL    HW136305   2.439   0.708   6.231 -0.3015 -1.2116  0.1495
 8223SOL    HW236306   2.371   0.673   6.359 -0.6142  3.5289  1.9175
 8224SOL     OW36307   4.197   3.693   9.872  0.5178 -0.6972 -0.0231
 8224SOL    HW136308   4.286   3.704   9.905 -0.4250 -1.0434  2.5897
 8224SOL    HW236309   4.194   3.746   9.792 -0.9547  1.2355  1.2966
 8225SOL     OW36310   3.339   3.132  16.044 -0.3562  0.3932  0.4592
 8225SOL    HW136311   3.315   3.041  16.061 -0.7889  0.2721 -0.8192
 8225SOL    HW236312   3.361   3.130  15.951 -1.8626  3.6999 -0.0067
 8226SOL     OW36313   3.262   4.733   8.817 -0.5360  0.7313 -0.1681
 8226SOL    HW136314   3.220   4.662   8.767  0.2055  0.1272  0.0669
 8226SOL    HW236315   3.340   4.687   8.846 -0.9237 -0.0249 -0.3150
 8227SOL     OW36316   0.894   3.110  10.124 -0.2350 -0.0155 -0.4637
 8227SOL    HW136317   0.900   3.206  10.124 -1.0009  0.0310 -0.4098
 8227SOL    HW236318   0.979   3.094  10.165 -0.0190 -0.1014 -0.9535
 8228SOL     OW36319   3.380   3.386  12.867  0.8701  0.2928  0.1093
 8228SOL    HW136320   3.456   3.433  12.903  1.0593  0.8840 -1.0792
 8228SOL    HW236321   3.415   3.338  12.793  0.7211  0.0604  0.1901
 8229SOL     OW36322   2.797   3.973  11.628  0.2913  0.1275 -0.0648
 8229SOL    HW136323   2.792   3.878  11.615  1.2972  0.0581  0.0660
 8229SOL    HW236324   2.759   3.985  11.715 -2.0448 -2.0196 -0.7896
 8230SOL     OW36325   2.571   4.035  12.390 -0.7854  0.5369 -0.3258
 8230SOL    HW136326   2.530   4.024  12.305 -3.4210  0.6601  0.9353
 8230SOL    HW236327   2.626   4.110  12.368 -0.2068 -0.3338 -1.8412
 8231SOL     OW36328   1.844   0.908   9.323 -0.9422 -0.4963 -0.1502
 8231SOL    HW136329   1.907   0.899   9.252 -0.9558 -1.5603 -0.0194
 8231SOL    HW236330   1.840   0.818   9.353 -0.9178 -0.5272 -0.2389
 8232SOL     OW36331   0.849   1.209   8.416  0.6632  0.4085  0.8092
 8232SOL    HW136332   0.781   1.274   8.433  1.6858  1.3904  1.1492
 8232SOL    HW236333   0.856   1.201   8.321 -0.8301 -0.0482  0.7365
 8233SOL     OW36334   1.407   4.441   5.651  0.2021 -0.0216 -0.4276
 8233SOL    HW136335   1.333   4.382   5.664 -0.0448  0.2754 -0.4896
 8233SOL    HW236336   1.422   4.473   5.740 -0.0443 -0.0029 -0.3940
 8234SOL     OW36337   0.937   2.513  11.196 -0.3148 -0.7934 -0.5503
 8234SOL    HW136338   0.987   2.436  11.167  0.4475 -0.5176  0.0164
 8234SOL    HW236339   0.894   2.477  11.274 -0.5564 -1.3927 -0.9594
 8235SOL     OW36340   2.584   1.319  16.932 -0.5017 -0.0938 -0.2099
 8235SOL    HW136341   2.588   1.226  16.914  0.1636  0.1718 -1.4352
 8235SOL    HW236342   2.648   1.332  17.002  0.6718 -2.4261 -0.8807
 8236SOL     OW36343   3.837   4.173   6.717 -0.2647  0.1237 -0.0042
 8236SOL    HW136344   3.751   4.215   6.715 -1.4525 -2.0610  3.8596
 8236SOL    HW236345   3.869   4.215   6.797 -0.5833 -0.2583  0.3314
 8237SOL     OW36346   1.580   0.149   7.474  0.0205  0.0673  0.2981
 8237SOL    HW136347   1.644   0.216   7.497 -1.2199  1.2237  0.4154
 8237SOL    HW236348   1.504   0.188   7.518  0.3276  2.3968 -1.2741
 8238SOL     OW36349   4.002   2.075   2.797 -0.6932  0.8303 -0.7448
 8238SOL    HW136350   4.088   2.078   2.838 -1.5481 -1.7400  1.2214
 8238SOL    HW236351   4.016   2.029   2.715 -2.9308 -1.7539  0.3074
 8239SOL     OW36352   2.114   4.005   1.801  0.6953  0.2006  0.0507
 8239SOL    HW136353   2.129   3.970   1.888  0.0481  0.5018  0.2801
 8239SOL    HW236354   2.180   4.074   1.794  1.0908 -0.3820 -2.0153
 8240SOL     OW36355   2.946   2.012   1.791 -0.4357 -0.4359 -0.2338
 8240SOL    HW136356   2.972   1.927   1.825  1.7011 -0.0893 -0.9416
 8240SOL    HW236357   2.853   2.019   1.809 -0.4139  1.2739 -0.7564
 8241SOL     OW36358   2.155   0.351   5.126  0.4122  0.2604  0.0251
 8241SOL    HW136359   2.195   0.371   5.211  1.6551 -0.3705 -0.4041
 8241SOL    HW236360   2.132   0.441   5.104 -1.0170 -0.2591 -0.5867
 8242SOL     OW36361   0.270   4.371  14.599 -0.0971 -0.7342  0.0572
 8242SOL    HW136362   0.363   4.360  14.578 -0.3162 -0.8977 -0.8484
 8242SOL    HW236363   0.230   4.287  14.575 -2.8163  0.5570  0.0987
 8243SOL     OW36364   0.147   3.647   9.124  0.2550 -0.0054  0.3390
 8243SOL    HW136365   0.177   3.700   9.050 -0.3162 -2.5986 -1.7458
 8243SOL    HW236366   0.231   3.610   9.153 -0.3152 -1.9712 -0.5081
 8244SOL     OW36367   4.616   0.095   6.696  0.1233 -0.1699 -0.1775
 8244SOL    HW136368   4.557   0.130   6.763  1.9311  3.2364 -0.3907
 8244SOL    HW236369   4.559   0.052   6.632 -0.4475  0.3832 -0.0526
 8245SOL     OW36370   1.074   4.071   5.244 -0.0132 -0.3223 -0.1740
 8245SOL    HW136371   1.129   4.018   5.302 -1.6922 -2.1972 -0.2873
 8245SOL    HW236372   1.064   4.014   5.168 -0.6264  0.7353 -0.8837
 8246SOL     OW36373   4.706   2.618   2.418  0.2375  0.2497 -0.0857
 8246SOL    HW136374   4.676   2.701   2.455  0.3299 -0.0585  0.6900
 8246SOL    HW236375   4.732   2.565   2.493 -0.5164  1.2920  0.9286
 8247SOL     OW36376   0.462   2.272   2.124 -0.0335 -0.3817  0.1428
 8247SOL    HW136377   0.402   2.340   2.094  0.7159  0.1438 -0.1603
 8247SOL    HW236378   0.446   2.195   2.070  0.0456 -0.5745  0.3964
 8248SOL     OW36379   1.787   0.517   8.867 -0.8835  0.2525  0.0552
 8248SOL    HW136380   1.827   0.538   8.783 -0.7348  0.1050  0.0877
 8248SOL    HW236381   1.694   0.500   8.851 -0.4124 -1.9781 -0.3638
 8249SOL     OW36382   1.304   3.481   3.058 -0.6125 -0.4043 -1.1751
 8249SOL    HW136383   1.292   3.448   3.147 -0.8606  2.6017 -0.0925
 8249SOL    HW236384   1.388   3.442   3.033  0.4611  1.2159 -0.0885
 8250SOL     OW36385   0.909   0.630  10.444 -0.1333 -0.4846 -0.4643
 8250SOL    HW136386   0.932   0.581  10.523 -2.8952 -0.3743  0.4145
 8250SOL    HW236387   0.884   0.560  10.384  0.0619 -0.8773 -0.0878
 8251SOL     OW36388   2.875   2.822   8.547 -0.2155 -0.2192 -0.4054
 8251SOL    HW136389   2.912   2.769   8.618  0.0949  0.8450  0.2356
 8251SOL    HW236390   2.947   2.886   8.541 -0.2032 -0.0413  1.5304
 8252SOL     OW36391   1.607   2.869   7.560  0.1881 -0.2715 -0.1211
 8252SOL    HW136392   1.553   2.905   7.630  0.2279  0.5063 -0.4940
 8252SOL    HW236393   1.548   2.896   7.490 -0.0696  0.8362  0.5395
 8253SOL     OW36394   2.246   1.013  14.713  0.4097  0.4788  0.1934
 8253SOL    HW136395   2.265   0.945  14.649  2.5751  2.1099 -0.8986
 8253SOL    HW236396   2.161   0.983  14.743  0.3884 -0.2943 -0.6370
 8254SOL     OW36397   1.942   3.367   9.108  0.1564  1.3828 -0.7079
 8254SOL    HW136398   1.847   3.367   9.118  0.4450 -2.5941  2.0016
 8254SOL    HW236399   1.945   3.402   9.019 -0.1729  0.2465 -1.1652
 8255SOL     OW36400   1.141   2.511   6.597  0.2045  0.4114 -0.1193
 8255SOL    HW136401   1.193   2.562   6.659  1.4930  0.9333 -1.6449
 8255SOL    HW236402   1.190   2.529   6.517  3.6485  0.7224  2.0878
 8256SOL     OW36403   0.967   0.842   7.169 -0.3766 -0.1819 -0.2979
 8256SOL    HW136404   1.005   0.842   7.082  2.9950  1.0353  1.1800
 8256SOL    HW236405   1.036   0.806   7.225 -0.4024 -0.5724 -0.5166
 8257SOL     OW36406   1.383   1.859   4.604  0.1558  0.1776  0.0397
 8257SOL    HW136407   1.388   1.858   4.508 -0.4236 -3.4091  0.0520
 8257SOL    HW236408   1.475   1.882   4.618  0.7089 -2.5579  0.8466
 8258SOL     OW36409   1.456   1.925   3.927  0.3665  0.2125 -0.9283
 8258SOL    HW136410   1.393   1.854   3.934 -0.7340  1.2275 -0.5094
 8258SOL    HW236411   1.419   1.986   3.864  0.1173  2.2965  1.2080
 8259SOL     OW36412   0.965   2.393   5.704 -0.2677 -0.1524 -0.1143
 8259SOL    HW136413   0.926   2.328   5.645  0.8396 -0.1953 -0.7965
 8259SOL    HW236414   0.996   2.467   5.651  2.8844 -0.9268  0.7088
 8260SOL     OW36415   1.545   3.496   3.541 -0.8178 -0.0748  0.0449
 8260SOL    HW136416   1.621   3.473   3.594 -1.3505  0.6892  1.1318
 8260SOL    HW236417   1.567   3.443   3.464 -0.4153  0.2332 -0.0523
 8261SOL     OW36418   0.867   0.432   8.519 -0.3434  0.2427 -0.8331
 8261SOL    HW136419   0.796   0.401   8.576  0.6074 -1.7483 -0.7230
 8261SOL    HW236420   0.940   0.379   8.553 -0.5692  1.4048  1.4419
 8262SOL     OW36421   2.583   3.901  17.575  0.6229 -0.0921 -0.0837
 8262SOL    HW136422   2.617   3.811  17.580  2.6562  0.6351 -0.7265
 8262SOL    HW236423   2.555   3.910  17.483 -0.7274 -0.0513  0.3351
 8263SOL     OW36424   0.434   0.119  10.029 -0.0662 -0.3444 -0.5113
 8263SOL    HW136425   0.469   0.193   9.979 -0.1869  0.6998  0.9568
 8263SOL    HW236426   0.380   0.075   9.963 -0.8636  0.0372 -0.1260
 8264SOL     OW36427   0.998   2.078   3.635  0.3296 -0.1068  0.2113
 8264SOL    HW136428   1.080   2.104   3.592  0.2374  1.2597  0.8571
 8264SOL    HW236429   0.999   1.989   3.599  0.7147 -0.6708  1.6025
 8265SOL     OW36430   4.530   4.279   8.005  0.0357  0.1710  0.0185
 8265SOL    HW136431   4.597   4.214   7.982  0.4846  0.5972  0.1343
 8265SOL    HW236432   4.446   4.241   7.980 -0.1595  0.6956 -0.1160
 8266SOL     OW36433   1.182   4.715   6.953  0.2602  0.4738 -0.5583
 8266SOL    HW136434   1.158   4.638   6.902  0.3890 -0.2070  0.4098
 8266SOL    HW236435   1.268   4.730   6.915 -0.0910  0.2720 -1.4342
 8267SOL     OW36436   2.598   0.928  16.224 -0.1234  0.1822  0.2405
 8267SOL    HW136437   2.634   0.945  16.137 -0.5735  1.4658  0.3051
 8267SOL    HW236438   2.671   0.879  16.263 -0.8337 -1.0105  0.0676
 8268SOL     OW36439   1.536   3.949   8.795  0.2069  0.1100  0.0968
 8268SOL    HW136440   1.477   4.016   8.760  0.1389  1.0673  2.0703
 8268SOL    HW236441   1.577   4.005   8.861  1.3215  3.0733 -3.1205
 8269SOL     OW36442   0.906   4.512  17.694  0.8055  0.0652 -0.4265
 8269SOL    HW136443   0.919   4.420  17.670 -1.0664 -0.2952 -0.0566
 8269SOL    HW236444   0.838   4.539  17.632  0.1038  0.2482  0.4218
 8270SOL     OW36445   3.234   2.420   1.352  0.1451 -0.4893  0.6346
 8270SOL    HW136446   3.192   2.448   1.433 -0.8575  2.3959 -0.8868
 8270SOL    HW236447   3.308   2.481   1.347 -0.4902  0.2762  0.5238
 8271SOL     OW36448   1.435   0.669  12.881  0.6894  0.8178 -0.5422
 8271SOL    HW136449   1.495   0.657  12.807  0.6402  0.7442 -0.5699
 8271SOL    HW236450   1.485   0.713  12.950 -3.0673  3.8263  0.2062
 8272SOL     OW36451   4.581   1.895   4.249  0.3914 -0.3384 -0.3393
 8272SOL    HW136452   4.667   1.937   4.250  1.0863 -1.8145  1.7546
 8272SOL    HW236453   4.560   1.914   4.157  1.5679  1.4553 -0.2262
 8273SOL     OW36454   0.215   0.548   7.677  0.3900  0.4782 -0.0020
 8273SOL    HW136455   0.193   0.503   7.596 -0.7880 -1.0756  1.1618
 8273SOL    HW236456   0.293   0.595   7.648  2.1700 -2.2216  0.3661
 8274SOL     OW36457   0.128   1.983   7.023 -0.4312 -0.6742  0.4072
 8274SOL    HW136458   0.132   1.893   7.055 -1.4293 -0.6485  0.6105
 8274SOL    HW236459   0.077   2.025   7.093 -0.3492  1.7550 -0.9573
 8275SOL     OW36460   1.718   1.346   8.395  0.4307 -1.0462  0.1887
 8275SOL    HW136461   1.639   1.303   8.429  0.3459 -1.0344  0.0061
 8275SOL    HW236462   1.757   1.297   8.323  0.1783  0.6191 -1.0859
 8276SOL     OW36463   3.487   3.650   4.669 -0.5331 -0.5640  0.0218
 8276SOL    HW136464   3.454   3.616   4.585  4.1609  3.3752 -3.4091
 8276SOL    HW236465   3.578   3.626   4.654 -1.0544 -1.3488 -2.0283
 8277SOL     OW36466   2.972   0.160   3.409 -0.3131 -0.0644 -0.4964
 8277SOL    HW136467   3.037   0.199   3.351  0.7890 -0.5914  0.3617
 8277SOL    HW236468   3.009   0.076   3.437 -0.7490 -0.3124 -0.6729
 8278SOL     OW36469   4.431   2.680   2.205  0.2121 -0.6074  0.1070
 8278SOL    HW136470   4.491   2.606   2.214 -0.4515 -1.1574  0.0492
 8278SOL    HW236471   4.350   2.633   2.182  0.4485 -0.2267 -1.5056
 8279SOL     OW36472   1.327   0.334   8.741  0.4884 -0.3599  0.3779
 8279SOL    HW136473   1.411   0.373   8.716 -0.0111  0.7808  0.4549
 8279SOL    HW236474   1.318   0.381   8.824  0.7149 -1.9740  1.2978
 8280SOL     OW36475   3.831   1.173   5.040  0.2960 -0.5810  0.6091
 8280SOL    HW136476   3.767   1.211   5.101  1.0016 -0.7812  1.4658
 8280SOL    HW236477   3.914   1.190   5.084  1.0824  2.4855 -2.1139
 8281SOL     OW36478   3.874   2.316   3.391 -0.9013 -0.0645  0.3198
 8281SOL    HW136479   3.969   2.306   3.385 -1.0766 -1.6800  0.3309
 8281SOL    HW236480   3.852   2.363   3.311  0.9065 -0.7201 -0.5504
 8282SOL     OW36481   0.036   2.124   9.755  0.6192  0.3367  0.3391
 8282SOL    HW136482   0.122   2.165   9.765  0.1671  1.9213 -2.2269
 8282SOL    HW236483   0.026   2.100   9.847 -1.9530  0.3991  0.0781
 8283SOL     OW36484   4.604   3.147  17.084  0.0724  0.1276  0.4978
 8283SOL    HW136485   4.594   3.104  17.169 -0.7826  0.9680  0.8141
 8283SOL    HW236486   4.650   3.079  17.035 -1.9803 -0.2638 -0.9096
 8284SOL     OW36487   0.614   3.259   5.491  0.1077 -0.4833 -0.1749
 8284SOL    HW136488   0.687   3.310   5.456  0.6721 -0.7984  0.5593
 8284SOL    HW236489   0.633   3.277   5.583 -0.0498  0.0559 -0.2488
 8285SOL     OW36490   2.123   0.964   5.769 -0.4981 -0.2387  0.2500
 8285SOL    HW136491   2.064   1.039   5.765  0.0319  0.2682  1.8414
 8285SOL    HW236492   2.195   1.012   5.811 -0.2682 -0.2450 -0.1348
 8286SOL     OW36493   1.519   2.032   1.653 -0.5229 -0.3268 -0.0543
 8286SOL    HW136494   1.525   2.092   1.727  0.7383 -0.5129  0.0009
 8286SOL    HW236495   1.470   2.084   1.590  0.7755 -1.6782 -2.1925
 8287SOL     OW36496   3.180   0.841   7.900  0.2411  0.9532 -0.3619
 8287SOL    HW136497   3.264   0.861   7.941 -0.2725 -0.2960  1.2836
 8287SOL    HW236498   3.133   0.895   7.963 -0.7115 -1.7400  1.2033
 8288SOL     OW36499   1.078   1.371   0.407  0.4536 -0.0210  0.1139
 8288SOL    HW136500   1.040   1.458   0.414 -0.0537 -0.1111 -1.6092
 8288SOL    HW236501   1.120   1.377   0.322  1.8627 -0.8891  0.7374
 8289SOL     OW36502   3.751   1.224  12.264  0.0910 -0.6211  0.2159
 8289SOL    HW136503   3.796   1.162  12.322  0.3607 -0.1935  0.4720
 8289SOL    HW236504   3.753   1.294  12.330 -1.0611  0.2963 -0.7407
 8290SOL     OW36505   1.178   1.385   5.256 -0.1667 -0.5643 -0.0337
 8290SOL    HW136506   1.192   1.475   5.228 -0.4107 -0.6809 -0.5355
 8290SOL    HW236507   1.142   1.350   5.174  0.4521 -2.0258  0.3062
 8291SOL     OW36508   1.601   4.332  16.079  0.0586 -0.1611 -0.0965
 8291SOL    HW136509   1.535   4.388  16.037  0.0228  0.8669  1.3628
 8291SOL    HW236510   1.666   4.334  16.009 -0.7891  0.8400 -0.8723
 8292SOL     OW36511   3.582   4.358   3.958 -0.7191 -0.1024  0.6764
 8292SOL    HW136512   3.619   4.280   3.918 -0.6324  1.4978 -2.3502
 8292SOL    HW236513   3.487   4.356   3.942 -0.6591 -1.9681  0.6141
 8293SOL     OW36514   1.457   0.042   7.242 -0.0106 -0.1994 -0.3327
 8293SOL    HW136515   1.508   0.072   7.317 -0.6052  0.7392 -0.3054
 8293SOL    HW236516   1.385   0.004   7.291 -0.0314 -0.7803 -0.8099
 8294SOL     OW36517   2.849   4.206   2.785  0.2017  0.2485 -0.0271
 8294SOL    HW136518   2.850   4.132   2.725 -0.2112 -0.7902  1.2232
 8294SOL    HW236519   2.895   4.279   2.745 -0.4246  2.1971  2.7597
 8295SOL     OW36520   0.015   3.214   8.589 -0.3389 -0.3966  0.4265
 8295SOL    HW136521   0.087   3.241   8.532 -1.9497  1.1622 -0.8714
 8295SOL    HW236522   0.059   3.199   8.673 -0.9242 -1.8220  0.4755
 8296SOL     OW36523   0.989   3.138   4.822 -0.0828 -0.5890 -0.0824
 8296SOL    HW136524   0.937   3.066   4.787 -1.4816  0.0570  0.6730
 8296SOL    HW236525   0.935   3.214   4.803  4.0796  2.1931 -0.7654
 8297SOL     OW36526   4.508   2.326   2.664  0.5454 -0.3055  0.2080
 8297SOL    HW136527   4.479   2.237   2.645 -1.9483  0.7143 -0.6535
 8297SOL    HW236528   4.468   2.374   2.593  0.0457  1.7064  1.8531
 8298SOL     OW36529   4.414   3.646   1.785  0.2985 -0.2620  0.3482
 8298SOL    HW136530   4.475   3.719   1.772  0.0233  0.0874  1.0554
 8298SOL    HW236531   4.457   3.614   1.864  3.1545  1.7243 -0.3957
 8299SOL     OW36532   3.905   2.513  16.590  0.3372 -0.6718  0.3232
 8299SOL    HW136533   3.827   2.569  16.595  0.9070 -0.0144  1.6027
 8299SOL    HW236534   3.945   2.573  16.526 -0.3262 -1.5963 -0.9606
 8300SOL     OW36535   0.015   1.827   1.568  0.3059 -0.5095  0.0769
 8300SOL    HW136536   0.071   1.797   1.497  1.5799  0.4577  0.6752
 8300SOL    HW236537   4.677   1.770   1.575 -0.5623  0.7675  1.1106
 8301SOL     OW36538   0.425   1.437   8.431  0.1506 -0.4180  0.3415
 8301SOL    HW136539   0.426   1.363   8.371  0.5729 -2.1781  2.5372
 8301SOL    HW236540   0.330   1.432   8.438  0.0149 -1.6235 -2.4129
 8302SOL     OW36541   4.696   2.520   9.373 -0.0620  0.2581 -0.3494
 8302SOL    HW136542   4.698   2.594   9.312 -1.3112  1.5734  1.2024
 8302SOL    HW236543   4.674   2.444   9.319 -0.2948  0.8923 -1.1526
 8303SOL     OW36544   0.431   3.121   5.154  0.3372  0.4033  0.9188
 8303SOL    HW136545   0.524   3.099   5.151  0.7601  2.2412  0.7277
 8303SOL    HW236546   0.395   3.038   5.184  1.9874 -0.7545 -0.3195
 8304SOL     OW36547   1.991   0.917   8.857 -0.4528  0.2228  0.5343
 8304SOL    HW136548   2.014   0.991   8.800 -1.9729  0.3087  0.0092
 8304SOL    HW236549   2.014   0.846   8.798 -1.8336  2.0255 -2.2038
 8305SOL     OW36550   1.647   1.691   2.447 -0.0120 -0.5581 -0.0785
 8305SOL    HW136551   1.708   1.764   2.444  1.5806 -1.9198 -0.4545
 8305SOL    HW236552   1.568   1.740   2.422 -0.8051 -0.2797  2.9576
 8306SOL     OW36553   2.582   3.920   5.553  0.3849 -0.3476  0.4184
 8306SOL    HW136554   2.555   3.828   5.554 -0.8323 -0.0029 -2.5223
 8306SOL    HW236555   2.495   3.958   5.546  0.5479 -0.3751 -1.7689
 8307SOL     OW36556   2.670   2.729   1.449  0.0681 -0.1845 -0.7339
 8307SOL    HW136557   2.740   2.681   1.492 -1.2031 -2.2714 -0.9695
 8307SOL    HW236558   2.683   2.818   1.482 -0.3570  0.1338 -1.4105
 8308SOL     OW36559   3.068   1.443  14.672 -0.1776  0.3533 -0.1931
 8308SOL    HW136560   3.144   1.452  14.730  0.1475  0.9614 -0.7075
 8308SOL    HW236561   3.004   1.396  14.724  2.0394 -3.2826 -0.7226
 8309SOL     OW36562   2.747   2.950   1.582  0.4213 -0.4125  0.3724
 8309SOL    HW136563   2.810   3.022   1.584 -0.5994  0.4423  1.7926
 8309SOL    HW236564   2.784   2.898   1.653  2.4708  1.6284  0.7947
 8310SOL     OW36565   4.170   0.017  10.086  0.2086 -0.0785 -0.1439
 8310SOL    HW136566   4.254   0.027  10.129 -0.8268  0.6871  1.6936
 8310SOL    HW236567   4.160   0.102  10.043  2.5817 -0.4633 -1.4852
 8311SOL     OW36568   3.694   1.297  12.975 -0.4051 -0.2044 -0.4285
 8311SOL    HW136569   3.642   1.376  12.962 -1.7434 -0.9029  0.7189
 8311SOL    HW236570   3.723   1.329  13.061 -1.4347  2.7324 -1.1710
 8312SOL     OW36571   3.759   2.260   8.712 -0.1724  0.6662 -0.0632
 8312SOL    HW136572   3.789   2.210   8.636  0.7594 -3.2991  2.8935
 8312SOL    HW236573   3.749   2.204   8.789 -2.8763  0.4250 -0.5709
 8313SOL     OW36574   0.019   0.797   1.718 -0.7129 -0.2042  0.3854
 8313SOL    HW136575   0.068   0.733   1.769 -0.7415 -0.7329 -0.2508
 8313SOL    HW236576   0.065   0.804   1.635  0.6620 -0.8452  1.0961
 8314SOL     OW36577   3.498   1.596   8.902 -0.1529 -0.3832  0.1635
 8314SOL    HW136578   3.540   1.682   8.909  0.6347 -0.5428 -2.3414
 8314SOL    HW236579   3.552   1.553   8.835  1.1293 -1.5632  1.9607
 8315SOL     OW36580   1.715   2.273  15.922  0.0101  0.4095  0.0713
 8315SOL    HW136581   1.677   2.185  15.925  1.2339 -0.1107 -0.0390
 8315SOL    HW236582   1.804   2.246  15.940  0.6980  2.2141 -0.6008
 8316SOL     OW36583   2.438   0.164   4.724  0.3797 -0.0424 -0.7278
 8316SOL    HW136584   2.368   0.102   4.747  1.0100 -0.0152  1.2792
 8316SOL    HW236585   2.459   0.210   4.805 -3.7141 -1.6129  1.2226
 8317SOL     OW36586   4.090   2.172   6.144  0.1332  0.2370 -0.1836
 8317SOL    HW136587   4.099   2.197   6.051 -0.4637 -1.1578 -0.6169
 8317SOL    HW236588   4.013   2.224   6.168  0.8843  0.3252  2.0133
 8318SOL     OW36589   0.517   4.444   3.348 -0.1328 -0.3290 -0.5324
 8318SOL    HW136590   0.582   4.512   3.334 -1.0256  0.8306  1.0358
 8318SOL    HW236591   0.469   4.475   3.424  0.2448  0.3509 -0.5787
 8319SOL     OW36592   3.435   3.564  12.604 -0.6073 -0.8388  0.0046
 8319SOL    HW136593   3.380   3.641  12.595  1.8501  1.1827  2.5058
 8319SOL    HW236594   3.440   3.566  12.700  2.2940  1.6780 -0.2014
 8320SOL     OW36595   1.939   4.403  10.623  0.1795 -0.0120  0.0770
 8320SOL    HW136596   1.908   4.446  10.543  3.0161  0.3324 -0.8101
 8320SOL    HW236597   1.879   4.440  10.688 -0.6711 -3.4644  1.2350
 8321SOL     OW36598   3.387   2.442   2.705  0.2269 -0.4891 -0.3283
 8321SOL    HW136599   3.363   2.355   2.672 -0.8160 -0.8529  1.3409
 8321SOL    HW236600   3.370   2.422   2.798 -0.0579 -0.9881 -0.4870
 8322SOL     OW36601   1.523   2.665   7.847  0.3029  0.4389  0.2826
 8322SOL    HW136602   1.489   2.575   7.849  3.8949 -0.9234  0.3650
 8322SOL    HW236603   1.464   2.711   7.906 -0.5949 -1.1006  0.5764
 8323SOL     OW36604   4.646   2.179  13.997  0.3091 -0.8691  0.2504
 8323SOL    HW136605   4.578   2.140  13.942  0.5365 -0.6311 -0.2020
 8323SOL    HW236606   4.606   2.153  14.080 -1.6551 -1.1267 -0.7614
 8324SOL     OW36607   4.020   0.306   7.952  0.5435  0.1592 -0.3152
 8324SOL    HW136608   4.101   0.256   7.967  0.8172  0.4365 -0.8620
 8324SOL    HW236609   3.953   0.243   7.976  1.2276 -0.9598 -1.3217
 8325SOL     OW36610   2.438   1.154  16.137  0.2642  0.2647 -0.1942
 8325SOL    HW136611   2.502   1.101  16.185 -1.0392 -2.2614 -1.2379
 8325SOL    HW236612   2.370   1.124  16.197  0.8939  0.8499  0.8204
 8326SOL     OW36613   1.141   0.644   7.968  0.1868 -0.1240 -0.1164
 8326SOL    HW136614   1.210   0.697   7.927 -0.3089  1.1555  0.7070
 8326SOL    HW236615   1.064   0.686   7.930 -0.3059  1.0014  2.1086
 8327SOL     OW36616   0.203   3.494   7.817  0.5514  0.5616 -0.0957
 8327SOL    HW136617   0.190   3.408   7.859 -1.1121  0.7434 -0.2424
 8327SOL    HW236618   0.153   3.556   7.870  0.0120  0.3868 -0.3941
 8328SOL     OW36619   2.858   4.247   7.632  0.0035 -0.3287  0.0287
 8328SOL    HW136620   2.832   4.171   7.580  1.1240 -1.6501  1.4150
 8328SOL    HW236621   2.800   4.243   7.708  0.6425 -2.0058  0.4174
 8329SOL     OW36622   2.427   1.789   0.698  0.8430  0.0181  0.0588
 8329SOL    HW136623   2.449   1.881   0.714 -1.5556  0.7874 -1.1508
 8329SOL    HW236624   2.333   1.796   0.713  0.6617  1.2348 -1.7167
 8330SOL     OW36625   1.015   2.429   8.314 -0.2297  0.4376  0.3841
 8330SOL    HW136626   1.013   2.333   8.305 -0.2834  0.4130  0.6852
 8330SOL    HW236627   0.927   2.438   8.277 -0.4429  1.7760  1.2611
 8331SOL     OW36628   2.166   3.119  16.107  0.5926  0.9359  0.1771
 8331SOL    HW136629   2.195   3.051  16.167  0.8489  1.3816  0.5581
 8331SOL    HW236630   2.243   3.140  16.055  0.0685 -1.1004 -1.4125
 8332SOL     OW36631   3.617   0.620   6.634  0.1252  0.5217 -0.2517
 8332SOL    HW136632   3.625   0.533   6.595 -2.0806 -0.5967  1.7761
 8332SOL    HW236633   3.643   0.598   6.723  2.4368  0.7448 -0.8907
 8333SOL     OW36634   0.547   3.849   9.009 -0.2434  0.2123  0.1131
 8333SOL    HW136635   0.572   3.918   9.070 -2.0002  0.4063  0.6106
 8333SOL    HW236636   0.503   3.788   9.067 -1.1548 -0.6892 -1.5313
 8334SOL     OW36637   1.706   0.782   7.059 -0.1670 -0.6194 -0.0133
 8334SOL    HW136638   1.689   0.860   7.112 -0.0280 -0.9240  0.4820
 8334SOL    HW236639   1.801   0.777   7.070 -0.1052 -0.1166 -0.3001
 8335SOL     OW36640   1.494   4.171   4.969  0.2031 -0.1248  1.0556
 8335SOL    HW136641   1.460   4.225   5.040 -0.5462  0.1350  0.4958
 8335SOL    HW236642   1.575   4.219   4.950 -0.2643  0.2926  0.1291
 8336SOL     OW36643   4.472   1.409   6.201  0.0846 -0.1252 -0.1330
 8336SOL    HW136644   4.467   1.432   6.108 -0.3390 -0.5605 -0.2198
 8336SOL    HW236645   4.539   1.472   6.226  0.0084 -0.1629  0.1591
 8337SOL     OW36646   2.088   3.931   8.727  0.5608 -0.2891  0.0114
 8337SOL    HW136647   2.171   3.971   8.702  1.6025 -0.8912  2.4426
 8337SOL    HW236648   2.103   3.899   8.816 -0.4126 -2.7357 -0.7086
 8338SOL     OW36649   0.537   1.507   2.699 -0.2140  0.6487  0.2400
 8338SOL    HW136650   0.621   1.551   2.709 -0.0642  0.4389 -0.1200
 8338SOL    HW236651   0.503   1.502   2.789  1.8309 -1.4173  0.9173
 8339SOL     OW36652   1.726   4.557   1.691 -0.4462 -0.4789  0.2698
 8339SOL    HW136653   1.707   4.539   1.599 -0.4836 -0.9651  0.3740
 8339SOL    HW236654   1.750   4.472   1.727 -2.1134 -0.5574  1.1616
 8340SOL     OW36655   3.883   0.210   8.825 -0.5032 -0.0415  0.2093
 8340SOL    HW136656   3.843   0.290   8.859  0.5404  0.9797 -0.9734
 8340SOL    HW236657   3.810   0.176   8.773 -0.3999 -1.5493  1.0504
 8341SOL     OW36658   1.658   2.238   7.691 -0.1284  0.2338 -0.4745
 8341SOL    HW136659   1.661   2.253   7.786 -0.2316 -0.0086 -0.4326
 8341SOL    HW236660   1.748   2.266   7.677  0.2349 -1.2266 -0.9650
 8342SOL     OW36661   2.096   0.545   3.610  0.8008 -0.0968  0.0544
 8342SOL    HW136662   2.119   0.627   3.566 -1.5530  0.7099  0.2878
 8342SOL    HW236663   2.004   0.564   3.631  1.1328  1.2316  0.2823
 8343SOL     OW36664   3.576   4.527   8.688  0.4499 -0.1146  0.3865
 8343SOL    HW136665   3.622   4.444   8.678  0.1768 -0.0951 -0.9622
 8343SOL    HW236666   3.558   4.522   8.782  1.1574  1.1606  0.5903
 8344SOL     OW36667   2.137   0.876   7.444 -0.7429 -0.7615 -0.3313
 8344SOL    HW136668   2.159   0.867   7.351 -0.8032  0.3130 -0.4501
 8344SOL    HW236669   2.140   0.788   7.480 -2.0504 -0.8623 -0.4680
 8345SOL     OW36670   2.246   0.628   7.876 -0.4446  0.6256 -0.0893
 8345SOL    HW136671   2.282   0.697   7.932  0.0518 -1.5039  2.2195
 8345SOL    HW236672   2.157   0.624   7.913  0.2467 -0.0946  1.5136
 8346SOL     OW36673   0.291   0.411  14.566 -0.7135 -0.0643 -0.1562
 8346SOL    HW136674   0.253   0.407  14.653 -0.3649  1.6421  0.0686
 8346SOL    HW236675   0.368   0.462  14.590 -0.4125 -1.0235  0.9161
 8347SOL     OW36676   2.230   1.829   2.150  0.6150 -0.0158 -0.1525
 8347SOL    HW136677   2.249   1.923   2.150  0.4231  0.0235  1.0684
 8347SOL    HW236678   2.201   1.809   2.061  1.6904  3.6721 -1.3425
 8348SOL     OW36679   0.990   2.238  12.186 -0.5276 -0.3297  0.2115
 8348SOL    HW136680   0.939   2.290  12.248 -0.8171  0.4929 -0.7211
 8348SOL    HW236681   1.073   2.284  12.196 -1.0377  0.5910  0.2565
 8349SOL     OW36682   2.589   3.965  16.355  0.2817  0.0403 -1.0538
 8349SOL    HW136683   2.635   3.895  16.402  0.5588  1.1163  0.2723
 8349SOL    HW236684   2.550   3.920  16.281 -3.2685 -0.3476  1.0930
 8350SOL     OW36685   2.548   2.291   5.556 -0.3330 -0.3073 -0.0029
 8350SOL    HW136686   2.490   2.309   5.631 -1.9353 -1.6143 -0.9182
 8350SOL    HW236687   2.623   2.257   5.604 -0.8629 -1.2926  0.1258
 8351SOL     OW36688   2.584   4.171   2.465  0.2853 -0.2088  0.1731
 8351SOL    HW136689   2.587   4.159   2.370  0.5032 -1.4913  0.3354
 8351SOL    HW236690   2.674   4.160   2.495  0.1141  0.5133  0.9351
 8352SOL     OW36691   3.165   2.539   2.047  0.4195  0.1390  0.0820
 8352SOL    HW136692   3.080   2.501   2.023  0.5005 -0.2344  0.3916
 8352SOL    HW236693   3.165   2.504   2.136 -1.3513  1.0619  0.4460
 8353SOL     OW36694   2.240   3.013   2.441 -0.0867 -0.2416  0.2655
 8353SOL    HW136695   2.164   2.984   2.491 -0.0502 -0.1685  0.3630
 8353SOL    HW236696   2.299   3.033   2.514 -0.8325  0.8444  0.5536
 8354SOL     OW36697   2.323   1.543   3.244  0.4037  0.3017 -0.5716
 8354SOL    HW136698   2.404   1.593   3.258 -0.1495  1.2995 -0.9657
 8354SOL    HW236699   2.317   1.509   3.333  0.3673 -0.5621 -0.9118
 8355SOL     OW36700   0.808   0.193  10.027  0.3052  0.5055 -0.0160
 8355SOL    HW136701   0.843   0.264   9.973  0.7445  0.4420  0.1833
 8355SOL    HW236702   0.872   0.125  10.007  1.3787  0.6731  2.9220
 8356SOL     OW36703   0.722   3.055   9.924 -0.4103 -0.8529  0.6812
 8356SOL    HW136704   0.786   3.079   9.991  0.3189 -1.3523  0.1557
 8356SOL    HW236705   0.741   2.962   9.910 -1.1747 -0.9133  0.0544
 8357SOL     OW36706   2.359   1.527   7.593  0.5990  0.1072 -0.0147
 8357SOL    HW136707   2.437   1.582   7.603 -0.0850  1.1615 -0.5090
 8357SOL    HW236708   2.320   1.567   7.515 -1.5247 -0.3900  0.7816
 8358SOL     OW36709   4.026   0.743   5.078 -0.0715 -0.4344 -0.2329
 8358SOL    HW136710   3.957   0.736   5.144  0.9716 -1.5919  0.7274
 8358SOL    HW236711   3.987   0.687   5.010 -0.6903 -0.0525 -0.2005
 8359SOL     OW36712   2.176   3.306   5.662  0.1349  0.6632 -0.5378
 8359SOL    HW136713   2.182   3.385   5.609  1.8162 -0.4253 -1.9425
 8359SOL    HW236714   2.226   3.336   5.738  1.2370 -0.8346 -0.6575
 8360SOL     OW36715   3.642   1.016   0.114  0.5654  0.3884 -1.0490
 8360SOL    HW136716   3.609   0.927   0.104  2.9273 -0.5805 -0.2149
 8360SOL    HW236717   3.612   1.042   0.201 -0.0097  0.6530 -1.3286
 8361SOL     OW36718   1.148   1.928   7.020 -0.1665 -0.3115 -0.2539
 8361SOL    HW136719   1.107   1.993   7.076  0.4870 -1.7469  1.8818
 8361SOL    HW236720   1.080   1.929   6.953 -0.2444 -0.3130 -0.1745
 8362SOL     OW36721   1.585   3.248   9.499 -0.0533  0.1995  0.2247
 8362SOL    HW136722   1.584   3.159   9.463  0.6466  0.4845 -0.5199
 8362SOL    HW236723   1.493   3.264   9.516  0.1462  1.4270  0.1038
 8363SOL     OW36724   3.934   0.827   5.497  0.0173  0.2755  0.1182
 8363SOL    HW136725   3.943   0.906   5.552 -2.6645 -0.4352  1.5344
 8363SOL    HW236726   3.954   0.758   5.560  0.3806  1.1369  0.9597
 8364SOL     OW36727   0.719   0.396  11.478 -0.9388  0.0252 -1.0528
 8364SOL    HW136728   0.750   0.404  11.388  2.4912  0.2881  0.1680
 8364SOL    HW236729   0.764   0.314  11.498 -2.3559 -0.9393 -1.8612
 8365SOL     OW36730   3.283   3.164   8.569 -0.1528 -0.1473  0.1143
 8365SOL    HW136731   3.324   3.144   8.485 -0.0431 -1.3318  0.4478
 8365SOL    HW236732   3.361   3.166   8.624 -0.0537 -1.5283  0.0357
 8366SOL     OW36733   3.462   4.157   5.727 -0.1218 -0.1716 -0.0667
 8366SOL    HW136734   3.421   4.202   5.653 -0.4242 -1.0828 -0.4431
 8366SOL    HW236735   3.451   4.230   5.788 -1.7271 -0.4339 -0.0541
 8367SOL     OW36736   3.078   1.358  16.095 -0.1211  0.2515  0.2580
 8367SOL    HW136737   3.151   1.311  16.136 -0.1847 -0.5907 -0.5845
 8367SOL    HW236738   3.055   1.306  16.018 -1.7835  0.9027  0.3337
 8368SOL     OW36739   4.249   4.449   3.141 -0.2484  0.1269  0.4115
 8368SOL    HW136740   4.309   4.487   3.077  0.3944  0.2130  1.0626
 8368SOL    HW236741   4.265   4.355   3.133  0.7205  0.3882 -0.7004
 8369SOL     OW36742   0.270   0.983  17.004  0.0583  0.5621  0.0458
 8369SOL    HW136743   0.275   1.042  16.928 -1.5078  0.4080 -0.1834
 8369SOL    HW236744   0.176   0.968  17.014  0.4441 -0.2340  2.3687
 8370SOL     OW36745   3.482   0.937   4.704  0.3453  0.4612 -0.0499
 8370SOL    HW136746   3.541   0.943   4.779  2.7897  0.0200 -1.9254
 8370SOL    HW236747   3.535   0.994   4.649  1.4163  0.0840  0.5866
 8371SOL     OW36748   1.126   1.004   6.362 -0.2549  1.1477 -0.2722
 8371SOL    HW136749   1.168   0.931   6.407 -2.0533  0.6016  0.5111
 8371SOL    HW236750   1.099   1.051   6.441 -0.1903 -1.2473  1.1609
 8372SOL     OW36751   1.473   3.352  11.145  1.0373 -0.3999 -0.1710
 8372SOL    HW136752   1.455   3.336  11.238  2.3108 -3.0583 -0.3604
 8372SOL    HW236753   1.560   3.315  11.127  2.3639  2.7665 -0.3073
 8373SOL     OW36754   4.572   3.041  17.336  0.5859  0.0444 -0.4407
 8373SOL    HW136755   4.606   2.951  17.340  1.5510  0.4071 -0.3609
 8373SOL    HW236756   4.648   3.080  17.380  2.6002 -2.5569 -1.6169
 8374SOL     OW36757   0.763   2.984   8.616 -0.0387 -0.0321 -0.3136
 8374SOL    HW136758   0.743   3.056   8.675 -1.8059 -2.2790  1.8287
 8374SOL    HW236759   0.694   2.999   8.551 -0.9422  1.5938  1.0158
 8375SOL     OW36760   0.516   0.458   9.165 -0.4464 -0.2599  0.3805
 8375SOL    HW136761   0.551   0.546   9.179  2.2948 -1.1625 -0.9493
 8375SOL    HW236762   0.423   0.471   9.182  0.2800  2.8269  1.9492
 8376SOL     OW36763   4.337   4.668   4.513 -0.9621  0.4147 -0.4108
 8376SOL    HW136764   4.376   4.609   4.578 -1.6632  0.4444  0.0363
 8376SOL    HW236765   4.248   4.670   4.549 -1.3042 -1.3630 -1.1441
 8377SOL     OW36766   2.245   0.310   6.623 -0.1266 -0.1448  1.0024
 8377SOL    HW136767   2.209   0.266   6.547  0.5067 -1.1616  1.2914
 8377SOL    HW236768   2.234   0.402   6.597 -0.9812 -1.0062 -1.6204
 8378SOL     OW36769   3.424   3.901   2.957  0.0665 -0.3176 -0.1617
 8378SOL    HW136770   3.385   3.942   3.035  1.6143  1.5376 -0.3692
 8378SOL    HW236771   3.384   3.815   2.968 -0.0507  0.0707  2.4675
 8379SOL     OW36772   4.654   3.560   7.917 -0.6539 -0.1302 -0.2405
 8379SOL    HW136773   4.564   3.584   7.894 -1.2782  0.1449  2.4036
 8379SOL    HW236774   4.637   3.467   7.930 -0.6923  0.1010  1.4754
 8380SOL     OW36775   1.989   2.590   1.910  0.3790 -0.8258  0.1934
 8380SOL    HW136776   1.990   2.496   1.893  1.4817 -1.1304  1.9772
 8380SOL    HW236777   2.062   2.623   1.859 -2.3475  3.8241 -0.7049
 8381SOL     OW36778   0.103   4.633  17.749 -0.9356 -0.0652  0.3008
 8381SOL    HW136779   0.143   4.619  17.663  0.4497 -0.3435  0.9824
 8381SOL    HW236780   0.028   4.575  17.735 -1.8785  0.9499  1.2253
 8382SOL     OW36781   4.138   1.250   1.744 -0.0928 -0.2659  0.2622
 8382SOL    HW136782   4.084   1.271   1.667  3.4873  2.0040 -1.6275
 8382SOL    HW236783   4.195   1.326   1.755 -1.3661  0.9466 -1.5486
 8383SOL     OW36784   1.734   2.985  10.050 -0.1427  0.6325 -0.2921
 8383SOL    HW136785   1.788   2.987  10.129 -0.8195 -1.7737  0.2182
 8383SOL    HW236786   1.791   2.951   9.981  1.1345 -1.2411  1.6842
 8384SOL     OW36787   2.615   2.513  15.447  0.0038  0.3657  0.7451
 8384SOL    HW136788   2.592   2.440  15.389 -0.5930  1.1802 -0.0531
 8384SOL    HW236789   2.559   2.580  15.407 -0.5601 -1.4844 -1.5569
 8385SOL     OW36790   0.728   2.273   2.269 -0.1317  0.0650 -0.3542
 8385SOL    HW136791   0.676   2.281   2.189  0.9078  0.1210 -1.0121
 8385SOL    HW236792   0.819   2.260   2.243  0.3154  3.2277 -0.3907
 8386SOL     OW36793   2.455   1.633   2.165 -1.2821  0.5946  0.6385
 8386SOL    HW136794   2.365   1.666   2.165 -1.9652 -1.2531 -0.2533
 8386SOL    HW236795   2.479   1.660   2.253 -0.2304  2.5736 -0.2606
 8387SOL     OW36796   1.217   1.646   4.718 -0.6223  0.0236  0.3670
 8387SOL    HW136797   1.183   1.623   4.632  1.1198 -1.7465  0.1602
 8387SOL    HW236798   1.293   1.697   4.689 -1.0230  1.0021  1.0131
 8388SOL     OW36799   1.695   2.837   2.325  0.0181 -0.1319  0.1281
 8388SOL    HW136800   1.774   2.829   2.272 -0.3271 -0.8981 -0.2647
 8388SOL    HW236801   1.748   2.840   2.405  1.6859 -1.2522 -0.9428
 8389SOL     OW36802   3.720   3.763   5.863  0.0445  0.5011 -0.5786
 8389SOL    HW136803   3.785   3.706   5.903 -1.4588  0.1138  1.3267
 8389SOL    HW236804   3.747   3.850   5.893 -3.2007  1.4824 -0.4882
 8390SOL     OW36805   3.661   2.513   8.668  0.2117  0.3436 -0.0408
 8390SOL    HW136806   3.734   2.571   8.691 -1.6468  2.0015  1.6680
 8390SOL    HW236807   3.698   2.433   8.705  0.5915 -0.2766 -1.7547
 8391SOL     OW36808   3.062   2.550   6.259  0.3455  0.0798 -0.7580
 8391SOL    HW136809   3.070   2.637   6.297 -0.5487 -0.3471  0.3937
 8391SOL    HW236810   3.023   2.501   6.331  1.4148 -1.0791 -0.9595
 8392SOL     OW36811   0.779   3.146   6.220  0.1725 -0.6974  0.2245
 8392SOL    HW136812   0.694   3.132   6.262 -0.8179  0.6027 -1.3305
 8392SOL    HW236813   0.783   3.075   6.157  0.6013  0.7709 -1.4195
 8393SOL     OW36814   0.696   4.682  11.905 -0.1138  0.6329  0.0517
 8393SOL    HW136815   0.680   4.674  11.999 -1.6551  1.0689 -0.1724
 8393SOL    HW236816   0.746   4.603  11.887 -2.0407 -0.1971 -1.6558
 8394SOL     OW36817   4.400   2.981  10.445  0.3446  0.3213  0.3408
 8394SOL    HW136818   4.345   2.905  10.466  0.2387  0.0040 -1.0508
 8394SOL    HW236819   4.367   2.994  10.356 -2.4937 -0.4666  1.2858
 8395SOL     OW36820   4.252   2.054   4.177 -0.2785  0.1667 -0.3564
 8395SOL    HW136821   4.217   2.130   4.224 -0.1540 -0.1931  0.3102
 8395SOL    HW236822   4.341   2.090   4.180  0.1163 -0.9829  1.5109
 8396SOL     OW36823   0.032   3.655   0.467  0.3351  0.3687  0.2013
 8396SOL    HW136824   0.104   3.625   0.523  0.6403 -1.7603 -1.3190
 8396SOL    HW236825   4.725   3.709   0.532 -0.4213  1.1040 -0.9373
 8397SOL     OW36826   2.177   3.051   3.191 -0.3133 -0.1950  0.4467
 8397SOL    HW136827   2.223   2.968   3.205 -2.4750 -1.4517  0.0842
 8397SOL    HW236828   2.127   3.051   3.273  0.2291  1.0326  0.7685
 8398SOL     OW36829   1.680   2.614   4.973 -0.0030  0.0840 -0.1496
 8398SOL    HW136830   1.614   2.548   4.995  0.3735  0.2120  1.3367
 8398SOL    HW236831   1.752   2.561   4.940 -1.4341  0.1378 -3.4334
 8399SOL     OW36832   0.897   4.043  10.383  0.0416 -0.1864  0.8139
 8399SOL    HW136833   0.970   4.100  10.408 -1.0948  1.0253  1.3803
 8399SOL    HW236834   0.927   3.959  10.416 -2.9623 -0.3824  3.1045
 8400SOL     OW36835   3.549   1.058   6.204 -0.2438  0.0173 -0.3871
 8400SOL    HW136836   3.566   1.127   6.268  0.1348 -1.3195  0.9542
 8400SOL    HW236837   3.499   1.115   6.146 -2.0288  0.7393  1.8739
 8401SOL     OW36838   3.190   1.051  12.114  0.2913  0.1105 -0.7281
 8401SOL    HW136839   3.189   0.958  12.135 -0.6138 -0.0890 -1.6613
 8401SOL    HW236840   3.274   1.086  12.147 -0.2162  0.1731  0.4976
 8402SOL     OW36841   1.940   4.379  11.498 -0.5884  0.0918  0.5047
 8402SOL    HW136842   1.975   4.436  11.566 -1.0464 -0.1103  0.9141
 8402SOL    HW236843   1.942   4.436  11.421  2.7701 -2.2946 -1.1645
 8403SOL     OW36844   3.379   4.028   3.965 -0.5510 -0.3193  0.7731
 8403SOL    HW136845   3.331   4.016   3.884  0.8802 -0.9122  0.0138
 8403SOL    HW236846   3.352   4.118   3.986 -2.8732 -0.5953 -1.0455
 8404SOL     OW36847   2.095   3.372  15.737 -0.0645 -0.5724  0.3554
 8404SOL    HW136848   2.104   3.467  15.741  0.3093 -0.5844 -0.1761
 8404SOL    HW236849   2.142   3.343  15.659  0.3674  1.8161 -0.2792
 8405SOL     OW36850   3.685   1.298   5.264 -0.2680 -0.2399 -0.0333
 8405SOL    HW136851   3.600   1.343   5.265  1.0445  2.1655  2.7924
 8405SOL    HW236852   3.740   1.370   5.234 -0.6273  0.3670  0.7514
 8406SOL     OW36853   0.992   2.276  16.549  0.5222 -0.1559  0.4663
 8406SOL    HW136854   0.906   2.253  16.584  1.0582  1.1294  2.6137
 8406SOL    HW236855   1.013   2.341  16.615  0.4355  1.1291 -0.7800
 8407SOL     OW36856   3.303   4.584   6.403 -0.5073 -0.0106 -0.1089
 8407SOL    HW136857   3.354   4.557   6.327 -0.9637 -0.2811 -0.3175
 8407SOL    HW236858   3.366   4.642   6.446 -2.0592 -0.5504  2.9230
 8408SOL     OW36859   4.118   4.128   9.353  0.2637 -0.0275 -0.1524
 8408SOL    HW136860   4.072   4.087   9.280 -2.1924  2.8400 -0.1789
 8408SOL    HW236861   4.111   4.068   9.428 -2.4291  2.2795  1.4408
 8409SOL     OW36862   1.084   3.283   3.885 -0.2002  0.1184 -0.0231
 8409SOL    HW136863   0.995   3.255   3.906 -0.1735  1.5493  2.0001
 8409SOL    HW236864   1.122   3.211   3.835 -0.9006 -0.5985  0.4948
 8410SOL     OW36865   4.085   0.318   3.228 -0.2053  0.2364  0.3911
 8410SOL    HW136866   4.082   0.227   3.198  0.4884  1.1774 -2.4997
 8410SOL    HW236867   4.154   0.358   3.175 -0.7621  2.1373  1.0759
 8411SOL     OW36868   0.679   4.298   5.346  0.3721 -0.0085 -0.4487
 8411SOL    HW136869   0.599   4.246   5.336 -0.2351  1.1845 -1.8280
 8411SOL    HW236870   0.742   4.232   5.317  0.2399 -0.8308  1.1647
 8412SOL     OW36871   0.592   4.467  13.286 -0.3241  0.1267 -0.1051
 8412SOL    HW136872   0.501   4.446  13.304 -0.9913  3.1963  0.1668
 8412SOL    HW236873   0.578   4.543  13.228 -0.8202 -0.5387 -0.8603
 8413SOL     OW36874   0.459   0.886   6.109  0.1054 -0.3415  0.3488
 8413SOL    HW136875   0.502   0.847   6.185 -1.2259 -0.5066  1.0307
 8413SOL    HW236876   0.437   0.973   6.143  0.5320  0.2414 -0.8929
 8414SOL     OW36877   2.698   3.320   6.428  0.1289  0.0633 -0.3355
 8414SOL    HW136878   2.634   3.362   6.371 -1.1633 -0.9759  0.3477
 8414SOL    HW236879   2.755   3.281   6.363  0.5559  0.1410 -0.0053
 8415SOL     OW36880   4.146   3.564  14.611  0.1255 -0.5961 -0.0026
 8415SOL    HW136881   4.121   3.655  14.597 -2.3650 -1.4983 -1.2842
 8415SOL    HW236882   4.137   3.563  14.706 -0.1263 -2.3934 -0.0399
 8416SOL     OW36883   0.994   2.749  11.269 -0.2112 -0.1687  0.1713
 8416SOL    HW136884   0.963   2.666  11.232  0.3259  0.4007 -1.5804
 8416SOL    HW236885   1.046   2.718  11.343 -0.6440 -1.7257 -0.1697
 8417SOL     OW36886   3.230   0.259   9.819  0.4569  0.4290  0.3986
 8417SOL    HW136887   3.324   0.242   9.824  0.2042 -0.8715  0.6927
 8417SOL    HW236888   3.186   0.192   9.873 -2.3717  2.1800  0.2735
 8418SOL     OW36889   0.560   0.075   6.396 -0.3364 -0.2167 -0.3626
 8418SOL    HW136890   0.527   0.117   6.317  1.3752 -0.5595 -1.2646
 8418SOL    HW236891   0.554   4.724   6.364  1.6157 -0.2401 -0.6479
 8419SOL     OW36892   2.771   0.309   6.545 -0.3704  0.4743 -0.2605
 8419SOL    HW136893   2.690   0.339   6.587  0.7802  0.1645  2.1950
 8419SOL    HW236894   2.765   0.214   6.543  0.5046  0.4158 -0.0629
 8420SOL     OW36895   0.236   2.238  13.076 -0.5113  0.2225  0.6024
 8420SOL    HW136896   0.180   2.167  13.044  0.9927 -1.0662  0.8065
 8420SOL    HW236897   0.305   2.221  13.011 -0.9115 -2.6818  0.9335
 8421SOL     OW36898   1.099   4.295  11.688  0.4280  0.1220  0.3669
 8421SOL    HW136899   1.110   4.224  11.751 -0.1182 -1.7648 -1.6266
 8421SOL    HW236900   1.180   4.347  11.690  0.5464 -0.0830  0.7868
 8422SOL     OW36901   2.389   4.506  16.583 -0.2006  0.1445 -0.0726
 8422SOL    HW136902   2.456   4.521  16.650 -0.5237 -1.2446  0.5650
 8422SOL    HW236903   2.347   4.592  16.584 -1.6358 -0.5636  0.3496
 8423SOL     OW36904   4.612   3.551   2.815  0.0781  0.4374 -0.5566
 8423SOL    HW136905   4.695   3.525   2.775 -0.4566  0.0059 -1.3894
 8423SOL    HW236906   4.554   3.489   2.771 -0.7385  0.2473  0.7896
 8424SOL     OW36907   0.647   0.771  10.495 -0.3189 -0.1171 -0.4336
 8424SOL    HW136908   0.733   0.743  10.463  1.3720  3.8771  0.6480
 8424SOL    HW236909   0.616   0.687  10.530  2.3805 -3.0818 -5.1393
 8425SOL     OW36910   0.358   2.771   5.483 -0.1053 -0.0899  0.7332
 8425SOL    HW136911   0.365   2.676   5.477  0.6087  0.0887 -1.1966
 8425SOL    HW236912   0.407   2.789   5.563  3.2647  0.4096 -1.4691
 8426SOL     OW36913   2.297   4.310   9.013  0.2100 -0.2811  0.0369
 8426SOL    HW136914   2.316   4.277   9.100 -0.4775  1.9796  1.0661
 8426SOL    HW236915   2.293   4.404   9.034 -0.1329 -0.3717  0.3757
 8427SOL     OW36916   3.583   1.923   5.177  0.1136 -0.2010 -0.3042
 8427SOL    HW136917   3.566   1.978   5.101  0.0631  1.4539  0.8984
 8427SOL    HW236918   3.503   1.870   5.187  0.7166 -0.9495  0.5812
 8428SOL     OW36919   4.712   3.128  14.653  0.5308  0.0942  0.2816
 8428SOL    HW136920   4.663   3.113  14.734  0.2281 -1.3842 -0.1859
 8428SOL    HW236921   0.021   3.045  14.651  0.8149  0.2760 -0.3717
 8429SOL     OW36922   2.497   4.524   4.555  0.3222 -0.0399  0.3043
 8429SOL    HW136923   2.502   4.437   4.514 -1.4195 -0.0590  0.1430
 8429SOL    HW236924   2.515   4.583   4.482 -1.7855 -0.5950 -0.6561
 8430SOL     OW36925   2.585   2.179   2.776  0.4574 -0.3218  0.0493
 8430SOL    HW136926   2.553   2.210   2.691 -1.8166  0.6224  1.2634
 8430SOL    HW236927   2.667   2.133   2.758 -0.2563 -1.6933  0.2627
 8431SOL     OW36928   1.381   2.722   4.353 -0.4698  0.0356  0.1530
 8431SOL    HW136929   1.422   2.809   4.348 -0.0336 -0.2481 -1.1958
 8431SOL    HW236930   1.433   2.662   4.299  0.7646 -0.3939  1.8106
 8432SOL     OW36931   0.681   3.087   7.224 -0.2897 -0.7004 -0.6574
 8432SOL    HW136932   0.632   3.008   7.244 -0.5583 -0.9369 -2.2705
 8432SOL    HW236933   0.736   3.105   7.301  0.1369 -1.4307 -0.7915
 8433SOL     OW36934   3.485   2.345  14.491 -0.1573  0.3290 -0.1302
 8433SOL    HW136935   3.527   2.364  14.575  2.3000  0.3649 -1.3932
 8433SOL    HW236936   3.405   2.308  14.528  0.3063 -0.6465 -0.1104
 8434SOL     OW36937   0.335   3.918  10.567  0.5137 -0.1762 -0.2192
 8434SOL    HW136938   0.328   3.999  10.517  2.1690 -0.9393 -1.6577
 8434SOL    HW236939   0.246   3.931  10.600  0.8469  3.0882 -0.6555
 8435SOL     OW36940   3.278   1.459   8.762  0.2535 -0.7711  0.1595
 8435SOL    HW136941   3.239   1.403   8.829 -1.2831 -1.0616 -0.9873
 8435SOL    HW236942   3.367   1.456   8.798 -0.1085  0.8608  1.1709
 8436SOL     OW36943   2.751   1.434   0.351 -0.5473 -0.0606  0.3778
 8436SOL    HW136944   2.792   1.424   0.436  2.3454  0.7863 -0.9265
 8436SOL    HW236945   2.719   1.346   0.331  2.8462 -1.3430  0.6859
 8437SOL     OW36946   1.001   1.063  10.522 -0.0742 -0.1706 -0.4438
 8437SOL    HW136947   1.055   1.139  10.544 -1.6990  0.6093  0.9221
 8437SOL    HW236948   1.052   0.984  10.542  1.6356  0.2531 -3.1134
 8438SOL     OW36949   1.449   0.224  12.763  0.1577 -0.4605 -0.5048
 8438SOL    HW136950   1.503   0.274  12.824 -1.9090  0.8279  0.3010
 8438SOL    HW236951   1.391   0.286  12.718 -1.1229 -0.9103  0.5017
 8439SOL     OW36952   0.903   2.313   7.485  0.3305  0.2735 -0.3286
 8439SOL    HW136953   0.931   2.397   7.522  2.3346 -0.2879 -0.5631
 8439SOL    HW236954   0.924   2.324   7.393  1.4367  1.8449  0.1089
 8440SOL     OW36955   0.272   4.037   8.815 -0.6694  0.1442 -0.1361
 8440SOL    HW136956   0.342   4.088   8.774 -2.3499  1.9948 -0.6775
 8440SOL    HW236957   0.278   4.064   8.906 -1.6621 -0.0723 -0.0069
 8441SOL     OW36958   2.381   4.150   3.722  1.0989 -0.4005 -0.0962
 8441SOL    HW136959   2.389   4.201   3.641  1.9905 -1.7933 -0.8795
 8441SOL    HW236960   2.470   4.127   3.748  1.8564  1.2426 -1.2622
 8442SOL     OW36961   1.124   1.196   6.587  0.2695  0.1921  0.4189
 8442SOL    HW136962   1.083   1.208   6.673 -0.9057  1.9109 -0.3811
 8442SOL    HW236963   1.102   1.279   6.545  1.5706 -0.2604 -1.1333
 8443SOL     OW36964   2.275   1.516   4.637  0.1585  0.2675 -0.3403
 8443SOL    HW136965   2.199   1.516   4.579  0.5190 -1.1873 -0.8261
 8443SOL    HW236966   2.333   1.449   4.599  2.8500  1.5633  1.4431
 8444SOL     OW36967   0.497   0.813  17.020 -0.2859  0.8537  0.9612
 8444SOL    HW136968   0.466   0.781  17.105 -3.5936  1.3144 -0.0542
 8444SOL    HW236969   0.414   0.857  17.004 -1.7051 -1.1973  2.6315
 8445SOL     OW36970   2.386   2.443  11.489 -0.5891  0.0849 -0.1048
 8445SOL    HW136971   2.414   2.478  11.404 -1.0266 -0.9694 -0.6788
 8445SOL    HW236972   2.292   2.423  11.490 -0.3159 -1.2107 -0.4872
 8446SOL     OW36973   2.150   2.526   6.929  0.3835 -1.1515  0.1327
 8446SOL    HW136974   2.196   2.450   6.965  1.5263 -0.4610  0.1485
 8446SOL    HW236975   2.224   2.578   6.896  1.0037 -2.3994 -0.4636
 8447SOL     OW36976   2.542   2.140   5.316 -0.0189 -0.1189 -0.2968
 8447SOL    HW136977   2.521   2.210   5.377 -2.0233  0.4079 -1.6066
 8447SOL    HW236978   2.629   2.126   5.355 -0.3936 -1.4493  0.0612
 8448SOL     OW36979   1.167   2.669  11.468 -0.1441  0.3545  0.4816
 8448SOL    HW136980   1.254   2.657  11.432 -0.4923  0.7646 -0.4890
 8448SOL    HW236981   1.188   2.700  11.556 -1.1083  1.7447  0.2316
 8449SOL     OW36982   2.025   3.014  17.390  0.4136 -0.2318  0.1398
 8449SOL    HW136983   1.947   3.042  17.438 -0.1443 -0.0601 -0.8825
 8449SOL    HW236984   2.013   3.039  17.299  1.2926 -1.4875 -0.3257
 8450SOL     OW36985   3.215   0.579  11.581  0.0651 -0.9826 -0.0083
 8450SOL    HW136986   3.305   0.610  11.592 -0.2279  1.0324 -3.0557
 8450SOL    HW236987   3.220   0.486  11.602  0.9946 -1.2493 -1.3853
 8451SOL     OW36988   4.711   4.483  11.416  0.3174 -0.0199 -0.2424
 8451SOL    HW136989   0.050   4.504  11.366  0.1717 -1.0070 -0.8902
 8451SOL    HW236990   4.736   4.537  11.491  0.9283 -0.3626 -0.2002
 8452SOL     OW36991   1.606   4.488  16.326 -0.0732 -0.3382  0.0425
 8452SOL    HW136992   1.602   4.411  16.269  0.9002 -2.1459  2.4232
 8452SOL    HW236993   1.612   4.565  16.270  0.3794 -1.3778 -1.3256
 8453SOL     OW36994   4.730   0.489   5.480  0.0645  0.0418 -0.1754
 8453SOL    HW136995   4.670   0.498   5.405 -1.3647 -0.5210  0.8863
 8453SOL    HW236996   4.670   0.470   5.552  2.6231  1.7526  2.3764
 8454SOL     OW36997   2.296   3.303   6.451  0.4556  0.5607  0.0748
 8454SOL    HW136998   2.337   3.218   6.436 -3.3893 -1.4139  0.4928
 8454SOL    HW236999   2.340   3.322   6.533 -0.2118  0.5322  0.4438
 8455SOL     OW37000   1.626   4.736   4.206 -0.2328  0.3868  0.7619
 8455SOL    HW137001   1.713   0.035   4.204  0.4022 -1.1083 -0.3790
 8455SOL    HW237002   1.640   4.648   4.171  1.0560 -0.1050  2.4934
 8456SOL     OW37003   2.498   1.131   5.661  0.2990 -0.1705 -0.1373
 8456SOL    HW137004   2.431   1.139   5.728 -0.7630 -0.2375 -1.1837
 8456SOL    HW237005   2.444   1.142   5.582  0.7195 -1.9730 -0.6775
 8457SOL     OW37006   3.015   0.611   4.051 -1.1183  0.2359  0.3068
 8457SOL    HW137007   3.006   0.702   4.078  0.0861  0.1484  0.9970
 8457SOL    HW237008   3.046   0.572   4.133 -0.1228  0.4571  0.0375
 8458SOL     OW37009   4.625   3.985   3.608 -0.2619  1.2321  0.3644
 8458SOL    HW137010   4.621   3.898   3.648 -1.1354  1.6314  1.1648
 8458SOL    HW237011   4.551   3.988   3.548 -0.1501 -2.6960  0.0885
 8459SOL     OW37012   0.434   3.160   8.012 -0.0430 -0.1029 -0.5471
 8459SOL    HW137013   0.353   3.197   8.045 -0.3939 -1.4061  0.0529
 8459SOL    HW237014   0.407   3.151   7.921 -0.2195  1.2528 -0.6322
 8460SOL     OW37015   3.117   4.294  14.625  0.1886 -0.1121  0.4419
 8460SOL    HW137016   3.033   4.290  14.670  0.1414  1.8046  0.5025
 8460SOL    HW237017   3.151   4.383  14.631  3.1248 -1.2380  0.8781
 8461SOL     OW37018   3.158   0.238   2.046 -0.3214  0.3052  0.4304
 8461SOL    HW137019   3.148   0.144   2.029 -1.0487  0.3701  0.5134
 8461SOL    HW237020   3.065   0.259   2.047 -0.3150  0.2215  1.9494
 8462SOL     OW37021   2.891   0.553   8.841  0.2682  0.0228 -0.2987
 8462SOL    HW137022   2.857   0.643   8.848 -0.4018 -0.1919 -0.8387
 8462SOL    HW237023   2.855   0.534   8.755  2.2915  1.3809 -1.4595
 8463SOL     OW37024   3.880   4.248   5.591 -0.4212  0.2877 -0.3021
 8463SOL    HW137025   3.893   4.343   5.597  1.0235  0.0381  0.4731
 8463SOL    HW237026   3.963   4.218   5.553 -0.6795 -0.9408  0.1080
 8464SOL     OW37027   0.516   2.752   4.748  0.1853  0.3212  0.1858
 8464SOL    HW137028   0.440   2.699   4.727 -0.9666  2.5992 -1.3922
 8464SOL    HW237029   0.506   2.824   4.686 -1.0481  0.2663  0.3309
 8465SOL     OW37030   4.547   4.362   8.259 -1.0957  0.2265 -0.0079
 8465SOL    HW137031   4.556   4.356   8.164  0.9581 -1.4690  0.2805
 8465SOL    HW237032   4.639   4.342   8.280 -1.9422 -3.3105  0.3235
 8466SOL     OW37033   1.211   0.248   4.765 -0.1192  0.2362 -0.1339
 8466SOL    HW137034   1.287   0.194   4.788 -1.5751 -1.7120  0.0770
 8466SOL    HW237035   1.212   0.251   4.670 -0.3941 -0.2272 -0.1498
 8467SOL     OW37036   0.942   2.603   7.042  0.0782  0.1971 -0.7096
 8467SOL    HW137037   0.929   2.622   6.949  2.6666  0.0774 -1.0856
 8467SOL    HW237038   0.926   2.686   7.086  0.1671  0.5320 -1.3095
 8468SOL     OW37039   3.482   1.537   1.987  0.1574  0.2278  0.1001
 8468SOL    HW137040   3.432   1.515   1.908 -0.7430 -0.5865  0.8908
 8468SOL    HW237041   3.568   1.556   1.949 -0.5069 -0.4849 -1.7638
 8469SOL     OW37042   0.247   2.653   3.216 -0.3441 -0.1587  0.2027
 8469SOL    HW137043   0.217   2.722   3.275 -0.1391 -0.7857  1.0350
 8469SOL    HW237044   0.342   2.661   3.219 -0.3989 -1.4419  4.7485
 8470SOL     OW37045   3.260   2.246   7.265  0.0195 -0.4084 -0.4441
 8470SOL    HW137046   3.347   2.284   7.274 -0.4220  0.5750 -0.2770
 8470SOL    HW237047   3.216   2.313   7.317 -0.0569 -0.3315 -0.6083
 8471SOL     OW37048   1.975   2.975   2.563 -1.1217 -0.2890  0.1140
 8471SOL    HW137049   1.977   2.997   2.470 -0.4541 -0.3720  0.1059
 8471SOL    HW237050   1.884   2.949   2.572 -0.9313 -1.2315 -0.6937
 8472SOL     OW37051   3.105   3.438   2.875 -0.2347  0.5022 -0.2122
 8472SOL    HW137052   3.142   3.353   2.850 -0.5860  0.5531 -0.9158
 8472SOL    HW237053   3.016   3.401   2.872 -0.4256  1.2008 -2.8722
 8473SOL     OW37054   0.741   2.025  10.313  0.1435  0.3717  0.1389
 8473SOL    HW137055   0.669   1.996  10.368  0.1146 -0.2594 -0.2272
 8473SOL    HW237056   0.777   1.945  10.273  1.0935 -0.2127  2.1704
 8474SOL     OW37057   0.630   1.091   5.541 -0.4716  0.2857  0.3971
 8474SOL    HW137058   0.701   1.065   5.600  1.2462  0.8946 -1.4165
 8474SOL    HW237059   0.632   1.026   5.472  0.3097 -0.0550  0.7458
 8475SOL     OW37060   4.312   0.427  10.348  0.2998  0.3342 -0.1046
 8475SOL    HW137061   4.364   0.508  10.349 -0.2861  0.7001  2.3472
 8475SOL    HW237062   4.368   0.359  10.386 -0.3541 -0.5913 -0.8005
 8476SOL     OW37063   4.734   4.704   6.909  0.6145 -0.5092  0.2077
 8476SOL    HW137064   4.708   0.028   6.841 -0.9554 -0.1444  1.1463
 8476SOL    HW237065   4.660   4.648   6.931  0.8765 -1.0008 -0.1741
 8477SOL     OW37066   1.581   2.304   2.982  0.0264 -0.0904  0.3180
 8477SOL    HW137067   1.535   2.366   3.039  2.7031  2.3899 -0.1946
 8477SOL    HW237068   1.667   2.344   2.969  0.7424 -1.1053  1.9762
 8478SOL     OW37069   2.898   1.156   8.086 -0.0094 -0.1363  0.4959
 8478SOL    HW137070   2.850   1.209   8.150 -0.9409  0.4059 -0.6306
 8478SOL    HW237071   2.877   1.205   8.006  0.5296 -1.3249 -0.3688
 8479SOL     OW37072   3.815   4.565   6.800  0.0938  0.2208  0.3998
 8479SOL    HW137073   3.720   4.566   6.813  0.1403 -0.6725  0.8053
 8479SOL    HW237074   3.857   4.574   6.885  1.8554 -2.5018 -0.1707
 8480SOL     OW37075   2.031   0.591   5.707 -0.4994 -0.4864  0.0472
 8480SOL    HW137076   1.981   0.671   5.695 -0.5993 -0.4159  0.9775
 8480SOL    HW237077   2.109   0.612   5.759 -0.7202  0.1519  0.1189
 8481SOL     OW37078   3.455   3.063   7.936  0.7516  0.0204 -0.5327
 8481SOL    HW137079   3.456   3.137   7.997  0.9658 -0.1868 -0.2842
 8481SOL    HW237080   3.399   2.997   7.976  0.5605  0.4374 -0.1123
 8482SOL     OW37081   4.190   3.363  13.961 -0.2226  0.0187 -0.3971
 8482SOL    HW137082   4.109   3.358  13.911 -0.9362  3.2923  0.4384
 8482SOL    HW237083   4.245   3.424  13.911  1.4063 -0.5510  0.7098
 8483SOL     OW37084   2.556   0.585   0.739 -1.2947 -0.0675  0.6662
 8483SOL    HW137085   2.514   0.594   0.654  1.3594 -1.7294 -0.7926
 8483SOL    HW237086   2.580   0.676   0.756 -1.9325  0.0886  0.7206
 8484SOL     OW37087   4.226   0.747   6.628 -0.0104 -0.5315  0.0879
 8484SOL    HW137088   4.141   0.728   6.587 -0.7073 -0.8574  1.6916
 8484SOL    HW237089   4.226   0.842   6.634 -0.4518 -0.4992 -0.4345
 8485SOL     OW37090   3.619   4.156   7.560 -0.4140  0.1860 -0.2484
 8485SOL    HW137091   3.698   4.127   7.605  0.7460 -0.6840 -2.8691
 8485SOL    HW237092   3.553   4.140   7.628 -1.0277 -0.9413 -1.1113
 8486SOL     OW37093   1.404   3.975   5.139 -0.3516  0.8272 -0.0659
 8486SOL    HW137094   1.461   4.005   5.069 -0.1481  1.1303  0.2280
 8486SOL    HW237095   1.450   4.005   5.218  0.4918 -0.0358 -0.2316
 8487SOL     OW37096   3.540   4.567  10.598  0.0859 -0.1495 -0.4342
 8487SOL    HW137097   3.482   4.633  10.638 -0.3077  0.9895 -2.9317
 8487SOL    HW237098   3.494   4.558  10.515 -1.3135 -1.2379  0.4633
 8488SOL     OW37099   1.708   4.077   9.495  0.4606  0.1401 -0.2479
 8488SOL    HW137100   1.688   4.070   9.588  0.2947  1.2960 -0.1921
 8488SOL    HW237101   1.656   4.001   9.472  0.8980 -0.6856  1.4608
 8489SOL     OW37102   3.475   1.473  12.811  0.3412  0.0370  0.1618
 8489SOL    HW137103   3.438   1.520  12.736  0.9597 -0.9101 -0.7403
 8489SOL    HW237104   3.556   1.520  12.832  0.1211  1.4971 -2.2422
 8490SOL     OW37105   0.059   2.657   4.568  0.0917  0.0390 -0.4551
 8490SOL    HW137106   4.731   2.640   4.502 -1.1088 -2.3075  1.3679
 8490SOL    HW237107   0.125   2.690   4.506  0.5081 -1.7975 -0.9994
 8491SOL     OW37108   1.581   0.162   8.594  0.2990 -0.1289  0.0303
 8491SOL    HW137109   1.610   0.176   8.684 -0.5642  0.5318  0.2109
 8491SOL    HW237110   1.662   0.178   8.547  0.0246  0.5568 -0.2029
 8492SOL     OW37111   0.059   2.097   8.347  0.3469  0.0130 -0.3872
 8492SOL    HW137112   0.127   2.152   8.384 -0.4609  2.0322 -1.8974
 8492SOL    HW237113   0.018   2.162   8.290 -3.5176 -1.9304  0.1354
 8493SOL     OW37114   2.597   1.234   6.883  0.2212  0.2914  0.5529
 8493SOL    HW137115   2.572   1.255   6.794  0.9165  0.3275  0.3673
 8493SOL    HW237116   2.687   1.211   6.859 -1.2991 -4.7100 -0.4824
 8494SOL     OW37117   2.753   0.406   3.469  0.0412 -0.7559 -0.6213
 8494SOL    HW137118   2.797   0.385   3.386  0.1221 -1.1476 -0.4762
 8494SOL    HW237119   2.762   0.502   3.467 -0.4809 -0.6968 -0.0177
 8495SOL     OW37120   0.867   1.278   7.867  0.1698 -0.2713  0.2542
 8495SOL    HW137121   0.932   1.296   7.800  0.4679 -3.3322 -0.2729
 8495SOL    HW237122   0.858   1.368   7.897  1.0739  0.3960 -1.5203
 8496SOL     OW37123   4.009   2.065   6.975  0.5382 -0.1722  0.8098
 8496SOL    HW137124   3.942   2.115   7.022 -0.4130 -1.0753  0.3899
 8496SOL    HW237125   4.079   2.057   7.041  0.8240 -0.6286  0.4469
 8497SOL     OW37126   1.030   2.137   8.544 -0.7067 -0.4033  0.4024
 8497SOL    HW137127   1.058   2.047   8.564 -2.1040 -0.8024  0.5483
 8497SOL    HW237128   1.042   2.154   8.451  0.7778  0.2211  0.7129
 8498SOL     OW37129   0.816   0.712   2.633 -0.1059 -0.0485  0.0869
 8498SOL    HW137130   0.904   0.682   2.658  0.0316 -1.6318 -2.2723
 8498SOL    HW237131   0.835   0.746   2.546 -0.2304  1.5528  0.6864
 8499SOL     OW37132   0.069   1.924   0.070  0.1202 -0.1741  0.1343
 8499SOL    HW137133   0.037   1.870  17.751 -3.5583  0.4349  1.2962
 8499SOL    HW237134   0.008   1.999   0.064  0.1885 -0.2467 -1.4372
 8500SOL     OW37135   0.592   2.332   2.912  0.4276 -0.1375 -0.0710
 8500SOL    HW137136   0.578   2.410   2.965  0.4013  1.1471 -1.9604
 8500SOL    HW237137   0.644   2.367   2.840  0.1952  1.0020  0.3114
 8501SOL     OW37138   3.694   3.053  16.973 -0.1949 -0.4111  0.5207
 8501SOL    HW137139   3.758   3.056  16.902 -0.5972 -0.7236  0.1480
 8501SOL    HW237140   3.748   3.041  17.052 -0.6026  1.4516  1.0825
 8502SOL     OW37141   0.503   1.131   1.594  0.0862 -0.4368 -0.0227
 8502SOL    HW137142   0.473   1.076   1.667  0.7721  2.2852  2.3214
 8502SOL    HW237143   0.432   1.196   1.590  0.2037 -0.2329  1.2275
 8503SOL     OW37144   1.553   1.236   3.494 -0.8090  0.1778  0.3901
 8503SOL    HW137145   1.561   1.148   3.532  2.9246  0.0700 -0.6515
 8503SOL    HW237146   1.568   1.290   3.571  0.6537  0.6054 -0.1990
 8504SOL     OW37147   0.403   4.707   5.691  0.7933 -0.3181  0.1287
 8504SOL    HW137148   0.475   4.647   5.670  0.6136 -0.7245  0.6965
 8504SOL    HW237149   0.344   4.680   5.620  2.1736  0.1425 -1.2127
 8505SOL     OW37150   0.230   0.597   3.463  0.3829  0.1697  0.3870
 8505SOL    HW137151   0.191   0.587   3.550  1.8352 -1.9842  0.7922
 8505SOL    HW237152   0.296   0.663   3.484  0.8389  0.3160 -1.5364
 8506SOL     OW37153   3.769   3.077   4.176 -0.0723  0.0156 -0.3263
 8506SOL    HW137154   3.828   3.015   4.218 -0.0265  2.6481  3.4763
 8506SOL    HW237155   3.812   3.157   4.204  1.3944 -0.7413 -0.4185
 8507SOL     OW37156   1.742   1.257   7.740  0.6087  0.2423  0.6007
 8507SOL    HW137157   1.730   1.283   7.832 -0.6430  0.1622  0.4512
 8507SOL    HW237158   1.828   1.301   7.738  0.2401  0.9154 -0.5420
 8508SOL     OW37159   0.637   3.077   3.598 -0.3272  0.3208  0.6642
 8508SOL    HW137160   0.629   3.027   3.516 -0.7514  2.0355 -0.3503
 8508SOL    HW237161   0.724   3.051   3.627 -0.3868 -1.3692 -0.6653
 8509SOL     OW37162   2.327   3.051  12.361 -0.0243  0.4120 -0.1615
 8509SOL    HW137163   2.330   3.143  12.336  0.3233 -0.0908 -2.0040
 8509SOL    HW237164   2.396   3.012  12.307  0.4586 -0.5179  1.1440
 8510SOL     OW37165   1.730   4.167  16.261  0.4772  0.0143 -0.2171
 8510SOL    HW137166   1.796   4.127  16.204 -1.1197 -0.5424 -1.6732
 8510SOL    HW237167   1.664   4.210  16.206 -0.4833  0.3746  1.2248
 8511SOL     OW37168   4.493   4.564   0.336  0.5247 -0.1453 -0.2782
 8511SOL    HW137169   4.487   4.502   0.263  2.6811 -0.4503 -0.1756
 8511SOL    HW237170   4.546   4.516   0.399 -0.6288 -0.7346  0.2350
 8512SOL     OW37171   4.104   3.872   7.184 -0.1214 -0.2708  0.3772
 8512SOL    HW137172   4.094   3.946   7.123  2.4219  0.9701  1.4948
 8512SOL    HW237173   4.144   3.922   7.255 -0.3838  0.9368 -0.3180
 8513SOL     OW37174   0.346   0.109   2.370 -0.0407 -0.3366  0.3037
 8513SOL    HW137175   0.339   0.069   2.457 -0.4311  1.0452  0.9036
 8513SOL    HW237176   0.335   0.202   2.391 -1.4629 -0.5818  0.6520
 8514SOL     OW37177   3.912   2.499   8.888 -0.0876 -0.0180  0.6225
 8514SOL    HW137178   4.002   2.526   8.870 -0.2794  1.4632  1.9388
 8514SOL    HW237179   3.908   2.423   8.830  1.1959 -0.5651  1.2524
 8515SOL     OW37180   2.087   0.663   2.063 -0.5713  0.4475  0.1070
 8515SOL    HW137181   2.169   0.653   2.015  0.5778  2.2824  1.7025
 8515SOL    HW237182   2.129   0.668   2.149  2.1966  2.0379 -1.3430
 8516SOL     OW37183   4.476   1.789   3.181  0.2572 -0.3406 -0.3839
 8516SOL    HW137184   4.390   1.823   3.156  0.0746 -0.1585  0.4890
 8516SOL    HW237185   4.506   1.758   3.096  0.1947 -1.1633 -0.1034
 8517SOL     OW37186   2.680   0.810   5.071  0.0312 -0.1103  0.1987
 8517SOL    HW137187   2.748   0.855   5.019 -0.7805 -2.3794 -2.8743
 8517SOL    HW237188   2.731   0.747   5.122  0.4083 -0.9477 -1.1979
 8518SOL     OW37189   0.111   4.087   2.007  0.4519 -0.0113 -0.3252
 8518SOL    HW137190   0.199   4.122   1.994  1.0499 -0.9399  1.1672
 8518SOL    HW237191   0.131   4.023   2.075  1.8388 -0.0712 -0.7814
 8519SOL     OW37192   3.370   4.222   5.273 -0.4262 -0.5437  0.2586
 8519SOL    HW137193   3.342   4.139   5.236  0.4504 -0.4025 -0.7255
 8519SOL    HW237194   3.317   4.220   5.352  0.1386  2.0663  0.7250
 8520SOL     OW37195   3.578   4.607   5.126  0.4450  0.1493  0.2247
 8520SOL    HW137196   3.644   4.632   5.061 -0.3888  0.6449 -0.4280
 8520SOL    HW237197   3.499   4.645   5.087  0.3856  0.6098  0.7968
 8521SOL     OW37198   0.842   0.535  12.434 -0.1450 -0.0336 -0.2030
 8521SOL    HW137199   0.825   0.607  12.496 -1.7714 -0.0404 -0.6263
 8521SOL    HW237200   0.890   0.572  12.360  0.3152  1.9868  1.0992
 8522SOL     OW37201   1.645   3.572   7.057 -0.6531  0.1938 -0.5618
 8522SOL    HW137202   1.641   3.492   7.109 -0.1320 -1.4125 -3.0220
 8522SOL    HW237203   1.691   3.547   6.976  0.2300  2.5661 -0.7892
 8523SOL     OW37204   0.094   2.780   0.781  0.0935 -0.3929  0.1838
 8523SOL    HW137205   0.032   2.707   0.783  1.6949 -1.7372  0.6193
 8523SOL    HW237206   0.147   2.748   0.854  3.2671 -0.3792 -2.0868
 8524SOL     OW37207   4.144   3.411   4.853  0.3098 -0.0132 -0.0220
 8524SOL    HW137208   4.222   3.396   4.906  0.4449 -0.9502 -0.4932
 8524SOL    HW237209   4.077   3.385   4.917 -0.5016 -1.0602 -1.3080
 8525SOL     OW37210   4.471   0.302   3.960 -0.4841 -0.3377  0.3625
 8525SOL    HW137211   4.411   0.228   3.971 -0.6834 -0.3847 -0.9804
 8525SOL    HW237212   4.506   0.318   4.047 -0.2630 -2.1832  0.6239
 8526SOL     OW37213   2.064   2.075   7.601 -0.6877  0.5924  0.5201
 8526SOL    HW137214   2.053   2.167   7.578  2.8710  0.8343 -0.1661
 8526SOL    HW237215   2.158   2.063   7.613 -0.9660  0.5864  2.6433
 8527SOL     OW37216   0.067   2.991  10.695 -0.0175  0.3254  0.4477
 8527SOL    HW137217   0.048   2.958  10.607 -2.6023 -0.2889  1.2621
 8527SOL    HW237218   4.720   2.969  10.730  0.4362 -1.9300  0.1674
 8528SOL     OW37219   1.022   2.325   5.368  0.2948 -0.3112  0.7423
 8528SOL    HW137220   0.969   2.387   5.319  0.3573  1.3172  2.7671
 8528SOL    HW237221   0.960   2.293   5.433 -2.0475  1.7254 -0.5230
 8529SOL     OW37222   0.438   1.797   2.213  0.2328  0.4692  0.0646
 8529SOL    HW137223   0.342   1.801   2.212  0.2075  0.8087  3.2150
 8529SOL    HW237224   0.457   1.833   2.127 -0.4940 -2.3039 -1.2736
 8530SOL     OW37225   2.485   3.892   6.257 -0.5005 -0.1838 -0.0826
 8530SOL    HW137226   2.535   3.968   6.285  0.7630 -0.5828 -1.1946
 8530SOL    HW237227   2.539   3.822   6.295 -0.6697  0.5633  1.4848
 8531SOL     OW37228   1.920   0.777  16.113 -0.0796  0.3545  0.0568
 8531SOL    HW137229   1.970   0.857  16.100 -1.3535  1.5515  2.4038
 8531SOL    HW237230   1.860   0.774  16.038 -0.6492 -2.1302  0.5982
 8532SOL     OW37231   2.826   3.340   1.769  0.4334  0.2138  0.0485
 8532SOL    HW137232   2.806   3.300   1.684  0.1443 -1.7909  1.0485
 8532SOL    HW237233   2.855   3.267   1.823 -0.9406  0.1175  0.6623
 8533SOL     OW37234   3.451   1.211  12.172  0.0956 -0.0172 -0.6757
 8533SOL    HW137235   3.402   1.234  12.251  0.8768  1.2601 -0.5636
 8533SOL    HW237236   3.543   1.207  12.198  0.4935  0.0555 -2.0616
 8534SOL     OW37237   4.263   3.232  10.683  0.1843 -0.1612  0.0754
 8534SOL    HW137238   4.327   3.261  10.748 -0.6387  1.1730  0.3160
 8534SOL    HW237239   4.259   3.137  10.695  2.3002 -0.5668 -2.5969
 8535SOL     OW37240   0.439   0.577  13.336  0.0905 -0.6045 -0.5602
 8535SOL    HW137241   0.418   0.644  13.400 -1.2646  0.2836 -1.9444
 8535SOL    HW237242   0.374   0.593  13.267  1.4051  2.9403 -0.9756
 8536SOL     OW37243   0.572   2.747   8.465  0.1833  0.9059  0.2879
 8536SOL    HW137244   0.613   2.695   8.534  1.0663  0.1360 -0.8116
 8536SOL    HW237245   0.530   2.807   8.526  2.2887  2.6088  0.0442
 8537SOL     OW37246   2.899   1.139  14.098  0.6355 -0.2586  0.3708
 8537SOL    HW137247   2.979   1.099  14.064  0.8988  0.6019 -0.0447
 8537SOL    HW237248   2.926   1.201  14.167  0.2995 -0.3716  0.6038
 8538SOL     OW37249   3.756   1.843   8.599 -0.2685 -0.3342 -0.5066
 8538SOL    HW137250   3.729   1.781   8.531 -1.0673  0.0483 -0.5282
 8538SOL    HW237251   3.773   1.789   8.676 -0.5008  1.9882  1.1487
 8539SOL     OW37252   1.791   3.316   3.630 -0.1062  0.2836 -0.1332
 8539SOL    HW137253   1.880   3.297   3.659 -0.4511  0.3097  0.9247
 8539SOL    HW237254   1.745   3.304   3.713  1.9303 -0.0943  0.9390
 8540SOL     OW37255   1.964   3.219  15.285  0.0502  0.2404 -0.3619
 8540SOL    HW137256   1.979   3.125  15.277  2.0233  0.4812  0.5795
 8540SOL    HW237257   2.046   3.246  15.244  1.3462 -2.5822  0.3558
 8541SOL     OW37258   3.941   2.002   8.850  0.1014 -0.6568 -0.1717
 8541SOL    HW137259   3.872   2.062   8.877 -0.9142 -1.9668  0.1572
 8541SOL    HW237260   3.957   2.033   8.761 -0.7727  3.2563  1.0369
 8542SOL     OW37261   2.997   0.679   3.284 -0.1769  0.0930 -0.0935
 8542SOL    HW137262   2.934   0.726   3.338 -1.1116  0.3350 -1.3980
 8542SOL    HW237263   3.032   0.622   3.352 -2.3204  0.6867  1.5158
 8543SOL     OW37264   1.209   0.631  17.051 -0.3615  0.6613 -0.4792
 8543SOL    HW137265   1.205   0.704  16.989  2.5923  0.3040 -1.0916
 8543SOL    HW237266   1.225   0.553  16.998 -2.6707 -0.9961  1.2774
 8544SOL     OW37267   4.038   1.188   9.750  0.2480  0.5641  0.1093
 8544SOL    HW137268   4.021   1.224   9.837  1.3683  2.4713 -0.4487
 8544SOL    HW237269   3.991   1.245   9.688  0.2409 -1.9926 -2.2392
 8545SOL     OW37270   1.173   3.853   8.558 -0.1003  0.2143  0.0880
 8545SOL    HW137271   1.090   3.900   8.548 -0.3807  0.3855  3.2511
 8545SOL    HW237272   1.242   3.919   8.559  1.6494 -1.5850 -2.8258
 8546SOL     OW37273   2.214   4.710   7.983  0.3313 -0.0020 -0.1712
 8546SOL    HW137274   2.300   4.702   8.027 -1.2595 -3.5214  2.3357
 8546SOL    HW237275   2.151   4.686   8.051  1.7354 -1.6853  0.5750
 8547SOL     OW37276   1.120   2.084  17.588 -0.1077 -0.6410 -0.2939
 8547SOL    HW137277   1.102   2.175  17.612 -0.8815 -0.8855  0.0407
 8547SOL    HW237278   1.199   2.076  17.642 -1.6219 -1.1145  1.8714
 8548SOL     OW37279   2.870   1.760   1.076 -0.5953  0.2165  0.1437
 8548SOL    HW137280   2.946   1.753   1.134 -0.9265  0.3462  0.5927
 8548SOL    HW237281   2.829   1.841   1.106  0.2933  0.8133 -0.2329
 8549SOL     OW37282   3.661   0.179  10.140 -0.0848  0.0527 -0.4035
 8549SOL    HW137283   3.667   0.128  10.059 -0.1156 -0.3041 -0.1843
 8549SOL    HW237284   3.630   0.263  10.108  0.0787 -0.1242 -1.0128
 8550SOL     OW37285   1.410   4.548   4.980 -0.3923  0.0950 -0.5992
 8550SOL    HW137286   1.335   4.491   4.963 -0.7030  0.6871 -1.2409
 8550SOL    HW237287   1.489   4.495   4.975  1.1396  2.4727 -1.5882
 8551SOL     OW37288   0.131   2.128   8.944  0.1293  0.0409  0.5718
 8551SOL    HW137289   0.170   2.064   9.002  0.7411  1.8892  2.1907
 8551SOL    HW237290   0.042   2.092   8.949 -0.3372  1.0368 -0.2883
 8552SOL     OW37291   0.819   0.370   8.246 -0.0656 -0.4205  0.4869
 8552SOL    HW137292   0.782   0.283   8.262  0.5339  0.0227  4.2285
 8552SOL    HW237293   0.854   0.391   8.333  1.6256  3.4470 -1.1374
 8553SOL     OW37294   3.258   1.283   4.485 -0.1388 -0.7811 -0.1334
 8553SOL    HW137295   3.213   1.344   4.426 -2.4519 -1.9736  0.4313
 8553SOL    HW237296   3.326   1.348   4.504 -1.0661 -0.2432  1.3450
 8554SOL     OW37297   2.846   0.701   0.986  0.6685  0.3046  0.0923
 8554SOL    HW137298   2.877   0.642   0.918 -3.2953 -1.8321  0.1689
 8554SOL    HW237299   2.800   0.765   0.931 -0.2913 -0.6652 -0.2222
 8555SOL     OW37300   2.570   1.519   4.913  0.2397 -0.3358 -0.0226
 8555SOL    HW137301   2.652   1.491   4.873  0.4119 -2.2650  1.6871
 8555SOL    HW237302   2.591   1.606   4.947  0.6496 -0.0075 -1.1240
 8556SOL     OW37303   3.248   3.609  17.557  0.0121 -0.0333 -0.1700
 8556SOL    HW137304   3.164   3.605  17.602  0.2618  0.2758  0.3179
 8556SOL    HW237305   3.259   3.524  17.514 -0.7612 -0.1412 -0.1431
 8557SOL     OW37306   0.675   4.170  12.951  0.2827 -0.3779 -0.4479
 8557SOL    HW137307   0.609   4.174  13.020 -0.7491 -1.2741 -1.3933
 8557SOL    HW237308   0.731   4.104  12.991 -1.0305 -1.9099 -1.1691
 8558SOL     OW37309   1.746   4.348   8.651 -0.2864 -0.0367 -0.5447
 8558SOL    HW137310   1.768   4.430   8.607  0.3491  0.0523 -0.0688
 8558SOL    HW237311   1.815   4.328   8.715  2.0108  1.7720 -2.4213
 8559SOL     OW37312   3.288   1.248  17.364 -0.1544 -0.2184 -0.3524
 8559SOL    HW137313   3.258   1.168  17.321  1.5478 -0.5531 -0.8989
 8559SOL    HW237314   3.252   1.235  17.452  1.4499  1.3487  0.5245
 8560SOL     OW37315   2.200   3.185   6.170  0.6059  0.5220 -0.0260
 8560SOL    HW137316   2.250   3.151   6.096  0.9709  1.2264 -0.0972
 8560SOL    HW237317   2.236   3.273   6.169  0.2493  0.6594 -1.1469
 8561SOL     OW37318   3.747   1.912   4.855 -0.0045  0.6108 -0.4812
 8561SOL    HW137319   3.796   1.980   4.900 -1.3167 -0.1844  2.1864
 8561SOL    HW237320   3.736   1.834   4.909  1.7465  1.2974  0.8572
 8562SOL     OW37321   4.557   1.504  15.069  0.0547 -0.0104  0.1619
 8562SOL    HW137322   4.597   1.529  15.152 -3.2066 -0.5145  1.8986
 8562SOL    HW237323   4.466   1.529  15.085 -0.0454  0.3028 -0.8354
 8563SOL     OW37324   3.103   3.206   4.205 -0.1175  0.1788 -0.1976
 8563SOL    HW137325   3.048   3.283   4.223 -0.1497  0.4371 -1.3847
 8563SOL    HW237326   3.157   3.236   4.132 -1.7995  2.8492 -0.3607
 8564SOL     OW37327   2.256   4.309   2.618 -0.3560 -0.2718 -0.4401
 8564SOL    HW137328   2.187   4.305   2.685  1.5279 -1.9132  1.4124
 8564SOL    HW237329   2.202   4.336   2.544 -0.0480  0.6330 -0.3330
 8565SOL     OW37330   4.206   2.547   8.830  0.0653 -0.0963 -0.0761
 8565SOL    HW137331   4.191   2.636   8.800 -1.8008 -0.2080  0.5452
 8565SOL    HW237332   4.260   2.557   8.909 -0.5649 -1.5553  0.5388
 8566SOL     OW37333   4.496   2.107  14.249 -0.3521  0.2891 -0.0542
 8566SOL    HW137334   4.414   2.058  14.257 -1.2564  1.7835 -0.1577
 8566SOL    HW237335   4.554   2.046  14.296  0.5273 -0.7224 -2.4467
 8567SOL     OW37336   2.567   3.247   5.770 -0.0922  0.0027  0.2102
 8567SOL    HW137337   2.489   3.296   5.797 -0.6467 -1.6132  1.5615
 8567SOL    HW237338   2.583   3.267   5.678  2.4424 -1.1259  0.3976
 8568SOL     OW37339   1.850   3.778   7.444 -0.4830  0.3497  0.3499
 8568SOL    HW137340   1.896   3.828   7.511 -0.1015 -2.3389  2.1040
 8568SOL    HW237341   1.763   3.819   7.446  0.5521  2.5557 -0.0680
 8569SOL     OW37342   3.681   0.993   2.751 -0.1532  0.2624 -0.3554
 8569SOL    HW137343   3.672   1.084   2.779 -1.3248  0.3266 -0.9571
 8569SOL    HW237344   3.644   0.939   2.820 -0.9853 -0.1168 -1.1031
 8570SOL     OW37345   1.401   2.196   6.578  0.5118 -0.1560 -0.3640
 8570SOL    HW137346   1.376   2.104   6.562  1.3158 -0.3029 -0.7350
 8570SOL    HW237347   1.357   2.210   6.662 -0.5833  0.7777 -1.0853
 8571SOL     OW37348   2.216   1.429  16.404 -0.5202 -0.0463 -0.1873
 8571SOL    HW137349   2.188   1.399  16.317  2.5236  3.4972 -2.3682
 8571SOL    HW237350   2.309   1.451  16.400 -0.4319 -0.6157 -1.3074
 8572SOL     OW37351   3.999   4.340   6.140  0.2972  0.1525  0.2230
 8572SOL    HW137352   3.936   4.283   6.184  0.7129  0.3785  1.1030
 8572SOL    HW237353   4.032   4.277   6.076  1.0385  0.1228  0.6328
 8573SOL     OW37354   3.237   0.558  10.577  0.5575  0.0169  0.1191
 8573SOL    HW137355   3.278   0.488  10.528  1.3781  0.6771 -0.1359
 8573SOL    HW237356   3.218   0.631  10.518 -0.9082 -0.8173 -0.4566
 8574SOL     OW37357   1.035   4.325   5.363  0.0363  0.3083  0.6180
 8574SOL    HW137358   1.035   4.369   5.278 -2.0274 -0.3532  0.2705
 8574SOL    HW237359   1.050   4.234   5.340  1.3080  0.2305  1.7421
 8575SOL     OW37360   0.537   3.767   4.911  0.7325  0.2756 -0.0783
 8575SOL    HW137361   0.562   3.698   4.972  1.9130 -0.8666 -1.8369
 8575SOL    HW237362   0.464   3.812   4.953 -0.4828 -1.3877 -0.3720
 8576SOL     OW37363   0.026   4.330   0.194  0.7389 -0.0158  0.6768
 8576SOL    HW137364   4.725   4.397   0.138 -2.4827 -0.6017  2.2187
 8576SOL    HW237365   4.688   4.312   0.248 -0.2143  1.2861 -0.2352
 8577SOL     OW37366   3.324   1.750  16.964  0.4269  0.5279  0.3707
 8577SOL    HW137367   3.380   1.825  16.985 -1.2434  1.9492 -0.2117
 8577SOL    HW237368   3.313   1.710  17.051 -1.0034  1.1095  0.4606
 8578SOL     OW37369   1.723   3.216  11.376  0.2094 -0.1211  0.4282
 8578SOL    HW137370   1.628   3.220  11.367  0.3835  1.4663 -0.6274
 8578SOL    HW237371   1.733   3.199  11.470 -1.5592 -0.7981  0.5017
 8579SOL     OW37372   1.366   2.327   0.169  0.7445 -0.0998  0.1118
 8579SOL    HW137373   1.438   2.380   0.135 -0.0768  1.4742  0.7778
 8579SOL    HW237374   1.328   2.398   0.222  2.4743  1.1266 -0.2827
 8580SOL     OW37375   0.460   4.154   6.806  0.0172 -0.2605  0.3519
 8580SOL    HW137376   0.445   4.079   6.749  0.5093 -0.0574 -0.0450
 8580SOL    HW237377   0.439   4.117   6.892 -2.7550 -1.2676 -0.7769
 8581SOL     OW37378   4.174   3.797   0.126  0.1929 -0.2215 -0.2131
 8581SOL    HW137379   4.188   3.725   0.188  0.3088  0.7090  0.8404
 8581SOL    HW237380   4.241   3.779   0.061 -0.5963 -2.2488 -0.4726
 8582SOL     OW37381   1.364   4.433  11.728 -0.1058  0.0899 -0.3263
 8582SOL    HW137382   1.428   4.500  11.704  0.5009 -0.5586 -0.5594
 8582SOL    HW237383   1.311   4.476  11.794  1.1745 -0.7221  1.2168
 8583SOL     OW37384   3.146   4.417   3.145 -0.1754  0.3448  0.7449
 8583SOL    HW137385   3.126   4.363   3.221 -2.1150  0.3121  0.2150
 8583SOL    HW237386   3.154   4.344   3.083  0.8964  2.3425 -1.4556
 8584SOL     OW37387   2.553   1.000   4.776 -0.6308 -0.0871  0.3401
 8584SOL    HW137388   2.640   0.991   4.816  0.0450  1.8584 -0.6661
 8584SOL    HW237389   2.541   0.914   4.736 -0.2872 -0.6591  1.4719
 8585SOL     OW37390   3.137   0.258  15.575  0.0183 -0.5160 -0.1631
 8585SOL    HW137391   3.224   0.281  15.606  0.1096  0.3951 -1.0655
 8585SOL    HW237392   3.098   0.346  15.579 -0.3014 -0.7232  1.1882
 8586SOL     OW37393   1.304   0.015   5.159 -0.1378  0.4445 -0.2744
 8586SOL    HW137394   1.320   4.709   5.076  0.1141  1.4718 -0.7831
 8586SOL    HW237395   1.224   4.710   5.187 -0.0719 -0.1551 -1.0381
 8587SOL     OW37396   4.113   1.471  13.977  0.0135  0.0711  0.0199
 8587SOL    HW137397   4.151   1.517  13.902  2.8335 -1.6841  0.3564
 8587SOL    HW237398   4.038   1.431  13.932  0.5280 -0.2805 -0.5245
 8588SOL     OW37399   1.183   1.697   2.324 -0.1505  0.3822 -0.1647
 8588SOL    HW137400   1.220   1.645   2.253  0.6508  0.9752 -0.1826
 8588SOL    HW237401   1.110   1.645   2.357  0.0349 -0.0953 -0.4987
 8589SOL     OW37402   1.638   2.393   9.988  0.0986  1.0087 -0.3392
 8589SOL    HW137403   1.661   2.300   9.982  0.3567  1.1337 -1.4030
 8589SOL    HW237404   1.545   2.388  10.010  0.0055 -0.6976 -1.1131
 8590SOL     OW37405   1.022   0.222   7.821  0.4000  0.2928  0.1420
 8590SOL    HW137406   0.972   0.275   7.883 -2.5477  0.4853 -2.4086
 8590SOL    HW237407   0.974   0.139   7.823 -1.8412  1.5700 -1.0224
 8591SOL     OW37408   3.633   2.716   8.969  0.8988 -0.1491  0.0366
 8591SOL    HW137409   3.644   2.765   8.888  1.1938 -2.4395 -1.3104
 8591SOL    HW237410   3.645   2.784   9.036 -0.0548 -0.1218  0.1749
 8592SOL     OW37411   3.759   4.473   2.848 -0.4778 -0.2096 -0.3887
 8592SOL    HW137412   3.790   4.546   2.795 -2.9189  0.1225 -1.3597
 8592SOL    HW237413   3.840   4.452   2.895  0.5764  0.6592 -1.8273
 8593SOL     OW37414   2.695   2.660   8.145  0.7151  0.0619 -0.0934
 8593SOL    HW137415   2.723   2.633   8.232  1.1214 -1.1852 -0.6153
 8593SOL    HW237416   2.779   2.700   8.122  0.1288  0.2205 -1.9290
 8594SOL     OW37417   3.762   0.806   9.503 -0.2069  0.1982  0.8492
 8594SOL    HW137418   3.729   0.838   9.587  0.6023 -1.2550  1.7087
 8594SOL    HW237419   3.699   0.848   9.444 -0.5523  0.3378  1.3217
 8595SOL     OW37420   1.764   4.665   7.424  0.7271  0.0243 -0.1237
 8595SOL    HW137421   1.768   4.715   7.506 -1.4811 -2.3648  1.4371
 8595SOL    HW237422   1.771   4.576   7.459 -1.2389 -1.2754 -3.0363
 8596SOL     OW37423   3.414   0.853   8.011 -0.2369 -0.2133 -0.2953
 8596SOL    HW137424   3.397   0.880   8.102  2.3083  1.1075 -0.2305
 8596SOL    HW237425   3.463   0.925   7.972 -1.0578 -0.0513 -1.0284
 8597SOL     OW37426   2.006   3.586   3.605 -0.5528 -0.2163 -0.2746
 8597SOL    HW137427   2.004   3.671   3.650 -1.2896  0.6542 -1.9755
 8597SOL    HW237428   1.945   3.531   3.654 -0.5748 -0.7000 -0.8466
 8598SOL     OW37429   3.201   0.164   6.988  0.1443 -0.1096 -0.5613
 8598SOL    HW137430   3.185   0.111   6.910  1.7633 -1.3198 -0.0690
 8598SOL    HW237431   3.263   0.109   7.036  0.4883 -0.4033 -1.3429
 8599SOL     OW37432   3.688   4.733   3.234  0.3691 -0.1308 -0.2204
 8599SOL    HW137433   3.692   0.024   3.144 -2.1631 -1.2762 -0.7213
 8599SOL    HW237434   3.689   4.639   3.220  0.1256 -0.1944  0.1856
 8600SOL     OW37435   3.825   0.496  14.710  0.0625 -0.0753  0.5095
 8600SOL    HW137436   3.848   0.405  14.692 -3.1667 -0.8810  0.4836
 8600SOL    HW237437   3.862   0.490  14.798 -1.2196  2.2515  1.1909
 8601SOL     OW37438   3.070   0.060   9.010 -0.3237  0.0677 -0.2767
 8601SOL    HW137439   3.141   0.040   8.950 -0.2841 -0.1199 -0.1641
 8601SOL    HW237440   3.038   0.144   8.976  2.2814  1.7140  1.3015
 8602SOL     OW37441   3.082   1.961   6.852  0.1502  0.3095 -0.1640
 8602SOL    HW137442   2.994   1.926   6.839  1.2924 -2.5420 -0.3530
 8602SOL    HW237443   3.108   1.970   6.760  2.3980  0.9118  0.5392
 8603SOL     OW37444   0.116   1.683   6.459  0.1938  1.2016  0.2960
 8603SOL    HW137445   0.033   1.688   6.507 -0.4658  0.8341 -0.7953
 8603SOL    HW237446   0.175   1.728   6.519 -0.6831  2.6987  0.0519
 8604SOL     OW37447   0.226   2.064   3.680 -0.1090  0.0715 -0.2826
 8604SOL    HW137448   0.273   1.996   3.631  1.8454  1.4938 -0.3922
 8604SOL    HW237449   0.181   2.009   3.743 -1.2288  0.9979 -0.2915
 8605SOL     OW37450   3.430   1.189  14.443  0.6774  0.3788 -0.0851
 8605SOL    HW137451   3.438   1.169  14.536 -2.3101 -0.7450 -0.0779
 8605SOL    HW237452   3.360   1.252  14.426  3.2967  2.3704 -3.5383
 8606SOL     OW37453   3.901   2.369  14.889  0.8130 -0.3221 -0.3864
 8606SOL    HW137454   3.899   2.289  14.941 -0.1770  0.2253  0.4340
 8606SOL    HW237455   3.887   2.334  14.801  0.7203  1.2753 -1.0009
 8607SOL     OW37456   0.251   0.154   4.488 -0.4066 -0.3624 -0.5501
 8607SOL    HW137457   0.299   0.233   4.512 -1.4162  0.4958 -1.3668
 8607SOL    HW237458   0.240   0.173   4.395 -0.8380  2.1024  0.0155
 8608SOL     OW37459   2.861   0.178  16.472  0.3024 -1.0020  0.4147
 8608SOL    HW137460   2.859   0.085  16.497  0.8246 -0.9379  0.7035
 8608SOL    HW237461   2.772   0.204  16.496  1.1140  1.3654  0.7899
 8609SOL     OW37462   0.366   4.714  17.497  0.1528  0.4827 -0.2932
 8609SOL    HW137463   0.282   4.669  17.505 -0.2945  1.5914  1.3841
 8609SOL    HW237464   0.360   0.059  17.543  0.8340 -1.7039  3.8198
 8610SOL     OW37465   4.612   0.698   6.396 -0.3375 -0.5114 -0.3151
 8610SOL    HW137466   4.684   0.690   6.460  1.7856  0.9557 -2.5294
 8610SOL    HW237467   4.540   0.656   6.443 -0.6374 -0.5286 -0.7979
 8611SOL     OW37468   0.793   0.870   6.185 -0.3828 -0.1087 -0.0009
 8611SOL    HW137469   0.809   0.824   6.102  2.1445  1.7232 -0.5309
 8611SOL    HW237470   0.741   0.808   6.236 -1.7090  0.6952 -0.3484
 8612SOL     OW37471   2.316   0.670  13.492 -0.0903  0.4352 -0.2986
 8612SOL    HW137472   2.388   0.611  13.513 -0.5558 -0.5545 -1.4510
 8612SOL    HW237473   2.240   0.633  13.538  0.2838  1.9915  1.5627
 8613SOL     OW37474   1.078   2.020   0.809 -0.4160 -0.4549  0.1275
 8613SOL    HW137475   1.090   2.044   0.901  0.7794  0.8088 -0.3721
 8613SOL    HW237476   1.164   2.038   0.773 -1.4094  2.4740 -0.8432
 8614SOL     OW37477   0.512   3.525   9.759 -0.1425 -0.4049  0.6870
 8614SOL    HW137478   0.550   3.488   9.679  2.5497 -2.0380  2.7072
 8614SOL    HW237479   0.574   3.506   9.830  1.1364 -0.4604 -0.4529
 8615SOL     OW37480   1.618   1.035   7.149  0.1334  0.2941 -0.8403
 8615SOL    HW137481   1.607   1.091   7.073 -0.4527  0.0422 -0.9340
 8615SOL    HW237482   1.660   1.097   7.209 -1.3594 -0.5018  1.0334
 8616SOL     OW37483   2.005   1.924   7.879 -0.5206  0.3983  0.4841
 8616SOL    HW137484   2.009   1.908   7.785  0.2830  0.8189  0.4473
 8616SOL    HW237485   2.067   1.995   7.897  1.8697 -2.0074  1.6495
 8617SOL     OW37486   1.334   0.033   8.684  0.2619  0.2500 -0.0433
 8617SOL    HW137487   1.357   0.116   8.726  1.2838 -0.6906  1.2580
 8617SOL    HW237488   1.411   0.038   8.628  1.7609 -2.0113  1.8440
 8618SOL     OW37489   4.191   0.325   3.525 -0.3682  0.2640  0.6648
 8618SOL    HW137490   4.170   0.232   3.519  0.6607 -0.1006  2.6674
 8618SOL    HW237491   4.177   0.340   3.431  1.4349  2.9369  0.8525
 8619SOL     OW37492   2.247   2.853   2.898 -0.1043 -0.3620 -0.0336
 8619SOL    HW137493   2.185   2.920   2.868 -0.4802 -0.5761  0.2720
 8619SOL    HW237494   2.322   2.905   2.928 -0.7790  1.4390 -1.4179
 8620SOL     OW37495   3.181   1.616  17.227  0.5564  0.5022  0.3038
 8620SOL    HW137496   3.201   1.663  17.308 -0.8729 -0.6529  1.3100
 8620SOL    HW237497   3.092   1.646  17.209  1.3505  1.3891 -2.2457
 8621SOL     OW37498   1.762   1.081   7.385  0.3684  0.4038 -0.0685
 8621SOL    HW137499   1.854   1.100   7.398  0.1471  1.0517  0.5322
 8621SOL    HW237500   1.755   0.998   7.432 -0.1523  1.1664  1.2145
 8622SOL     OW37501   0.279   2.369   9.141  0.1859 -0.0939  0.0529
 8622SOL    HW137502   0.261   2.279   9.171  1.7656 -0.6039 -0.5279
 8622SOL    HW237503   0.192   2.407   9.140  0.4881  0.5726 -0.4671
 8623SOL     OW37504   1.778   1.679   5.704  0.4316 -0.1955  0.2488
 8623SOL    HW137505   1.780   1.584   5.691 -0.7453 -0.3042  0.8456
 8623SOL    HW237506   1.731   1.699   5.623  0.2365  3.1988  1.2012
 8624SOL     OW37507   0.420   0.224   0.256  0.0584  0.0496 -0.9076
 8624SOL    HW137508   0.343   0.179   0.222 -0.5516 -0.2169  0.7785
 8624SOL    HW237509   0.407   0.313   0.222 -0.7438 -0.0460 -0.8476
 8625SOL     OW37510   2.551   2.945  12.248 -0.5246  0.2205  0.1279
 8625SOL    HW137511   2.513   2.879  12.190 -0.0163  0.8594 -0.9307
 8625SOL    HW237512   2.625   2.893  12.279 -1.0588 -0.5328  0.1403
 8626SOL     OW37513   1.413   0.051   9.626 -0.3739  0.4619 -0.5573
 8626SOL    HW137514   1.372   0.034   9.541 -0.8941 -1.3782  0.0791
 8626SOL    HW237515   1.397   4.704   9.665 -0.6958  0.4439 -0.7241
 8627SOL     OW37516   3.045   2.652   7.525 -0.2177 -0.2081  0.0815
 8627SOL    HW137517   3.083   2.616   7.445 -1.4811 -0.0551 -0.5914
 8627SOL    HW237518   3.112   2.720   7.533 -0.1845 -0.1629 -0.5794
 8628SOL     OW37519   1.760   1.451   2.077  0.0775 -0.0219 -0.3760
 8628SOL    HW137520   1.788   1.542   2.085 -0.3508  0.3313 -2.8825
 8628SOL    HW237521   1.749   1.424   2.168 -0.0310  1.8673  0.1726
 8629SOL     OW37522   3.691   1.256  10.378  0.0336 -0.0310 -0.2209
 8629SOL    HW137523   3.742   1.210  10.445  0.2828 -0.2713 -0.5779
 8629SOL    HW237524   3.649   1.178  10.343 -0.3207  0.0321  0.0615
 8630SOL     OW37525   3.604   0.669   3.449 -0.2071 -0.4786  0.0275
 8630SOL    HW137526   3.566   0.752   3.479  0.5407  0.8007 -2.6382
 8630SOL    HW237527   3.627   0.621   3.529  0.6663  1.2515  0.8285
 8631SOL     OW37528   0.696   2.772   9.944 -1.0778 -0.2715 -0.1860
 8631SOL    HW137529   0.679   2.691   9.992 -1.0416  1.4952  2.8077
 8631SOL    HW237530   0.607   2.807   9.952  0.2537  2.8610  1.0123
 8632SOL     OW37531   4.023   0.504  16.909  0.5246 -0.1751  0.0112
 8632SOL    HW137532   4.072   0.557  16.972  0.8898  1.2283 -1.4376
 8632SOL    HW237533   4.071   0.423  16.896  0.8595 -0.1711  1.2596
 8633SOL     OW37534   2.455   2.740   7.684 -0.1586  0.1738 -0.3187
 8633SOL    HW137535   2.366   2.718   7.656 -0.5203  1.4473 -0.1802
 8633SOL    HW237536   2.454   2.721   7.777  0.3363 -2.3442 -0.8398
 8634SOL     OW37537   3.506   2.013   8.761 -0.4110 -0.4678  0.3251
 8634SOL    HW137538   3.463   2.009   8.846 -0.8990  2.3483  0.2215
 8634SOL    HW237539   3.595   2.002   8.792  0.4801  0.3629 -1.9371
 8635SOL     OW37540   1.960   2.012   4.297  0.0350 -0.4098 -0.3893
 8635SOL    HW137541   1.963   2.098   4.338  1.7604 -0.9275  0.5663
 8635SOL    HW237542   2.042   1.976   4.330 -1.2226 -0.4096  2.7613
 8636SOL     OW37543   0.338   0.406  16.414 -0.2706  0.0243 -0.2270
 8636SOL    HW137544   0.360   0.498  16.407 -1.3562  0.4763  2.2126
 8636SOL    HW237545   0.364   0.384  16.504 -0.5456  0.6320  0.0010
 8637SOL     OW37546   0.915   4.346   7.900 -0.3287  0.0191 -0.1798
 8637SOL    HW137547   0.847   4.406   7.930  1.4029  2.0949 -0.3989
 8637SOL    HW237548   0.891   4.260   7.936 -1.4149  0.7058  0.7228
 8638SOL     OW37549   2.070   2.737   7.422 -0.4832  0.5200  0.3360
 8638SOL    HW137550   2.033   2.739   7.334  0.1847 -0.8230  0.0247
 8638SOL    HW237551   1.989   2.745   7.473 -1.2223  0.8944 -0.8956
 8639SOL     OW37552   4.285   2.189  12.301  0.0634  0.0092  0.2463
 8639SOL    HW137553   4.214   2.242  12.266 -0.6724 -1.7846 -0.9951
 8639SOL    HW237554   4.305   2.258  12.365  1.5695 -0.2131  0.0120
 8640SOL     OW37555   3.064   4.111   5.698  0.5583 -0.5175  0.1511
 8640SOL    HW137556   2.987   4.056   5.715 -0.2793  1.2288  1.9248
 8640SOL    HW237557   3.025   4.194   5.724  0.4271 -0.9306  1.2722
 8641SOL     OW37558   1.505   4.213   2.486 -0.4200  0.0553 -0.6191
 8641SOL    HW137559   1.562   4.216   2.563 -1.7476  2.4968  0.2757
 8641SOL    HW237560   1.521   4.126   2.451  1.4392  1.0526 -2.2983
 8642SOL     OW37561   3.253   2.357   3.511 -0.2372  0.5691 -0.0921
 8642SOL    HW137562   3.215   2.274   3.484  1.6190 -0.7074  1.2688
 8642SOL    HW237563   3.319   2.360   3.441  2.0562  1.8925  2.1543
 8643SOL     OW37564   2.512   2.972   6.197 -0.4011  0.8157  0.2516
 8643SOL    HW137565   2.532   2.993   6.106 -1.7428 -0.7271 -0.3993
 8643SOL    HW237566   2.420   2.947   6.197  0.0293 -0.8067 -0.6698
 8644SOL     OW37567   3.922   1.505   1.989  0.0696  0.0840 -0.0241
 8644SOL    HW137568   3.848   1.494   1.930  0.6912  2.2893 -1.2530
 8644SOL    HW237569   3.950   1.415   2.002  0.3496  0.0994 -0.5192
 8645SOL     OW37570   3.928   3.196  13.549 -0.1117  0.3999  0.6199
 8645SOL    HW137571   3.982   3.118  13.543  0.7871  1.0878 -0.1908
 8645SOL    HW237572   3.950   3.238  13.466  1.2331 -0.5260  0.5080
 8646SOL     OW37573   0.412   3.084   9.921 -0.0227 -0.6024 -0.5056
 8646SOL    HW137574   0.367   3.119   9.998  2.5296  0.8085  0.3278
 8646SOL    HW237575   0.504   3.092   9.947  0.4045 -0.0489 -2.2196
 8647SOL     OW37576   4.515   3.196  13.129 -0.1403  0.8041 -0.1843
 8647SOL    HW137577   4.602   3.162  13.108 -0.4186 -0.1172  0.1310
 8647SOL    HW237578   4.533   3.287  13.151  0.7168  0.5899  0.0059
 8648SOL     OW37579   3.475   2.173  14.048  0.5150 -0.3946  0.2944
 8648SOL    HW137580   3.553   2.158  13.995  0.4992  0.0516  0.1428
 8648SOL    HW237581   3.435   2.233  13.984 -1.4873 -1.7077  0.3298
 8649SOL     OW37582   4.177   4.528   7.261  0.3672  0.4814  0.1992
 8649SOL    HW137583   4.136   4.614   7.254 -0.0337  0.1803 -1.3016
 8649SOL    HW237584   4.255   4.540   7.315  0.8646 -0.1254 -0.3712
 8650SOL     OW37585   2.593   2.388   3.837 -0.3299  0.4010  0.0840
 8650SOL    HW137586   2.551   2.397   3.752  0.1739 -2.1194 -0.4111
 8650SOL    HW237587   2.574   2.474   3.874 -0.3923  0.4822 -0.1399
 8651SOL     OW37588   2.842   1.124   2.386 -0.1462  0.2794 -0.3256
 8651SOL    HW137589   2.906   1.105   2.318  2.2532 -0.9191  2.2687
 8651SOL    HW237590   2.880   1.155   2.468 -0.1813 -1.9891  0.5439
 8652SOL     OW37591   1.299   3.216   7.184  0.6181  0.4535 -0.4180
 8652SOL    HW137592   1.394   3.207   7.193  0.5371  0.0329  0.0101
 8652SOL    HW237593   1.273   3.239   7.274 -0.1424 -0.6626 -0.3659
 8653SOL     OW37594   4.083   0.623   5.634  0.3044  0.5317 -0.5446
 8653SOL    HW137595   4.176   0.604   5.641  0.3439  0.3328 -1.5603
 8653SOL    HW237596   4.048   0.547   5.679 -0.8690  1.9533  0.9585
 8654SOL     OW37597   2.156   3.944   3.471  0.0039 -0.4148  0.5957
 8654SOL    HW137598   2.140   3.888   3.394 -3.4151  0.9267  0.3221
 8654SOL    HW237599   2.251   3.949   3.483  0.1940 -1.9258 -0.2330
 8655SOL     OW37600   4.316   0.179   4.781 -0.0781  0.1541  0.2740
 8655SOL    HW137601   4.243   0.128   4.744  0.0632 -1.4466  2.1980
 8655SOL    HW237602   4.266   0.260   4.795  2.1316  1.7887 -1.2500
 8656SOL     OW37603   0.352   2.780   7.497 -0.3580  0.0445  0.1774
 8656SOL    HW137604   0.407   2.828   7.559  0.3827  0.0820 -0.5032
 8656SOL    HW237605   0.402   2.781   7.415  1.8027  2.5658  1.5440
 8657SOL     OW37606   4.187   1.354   5.803  0.1271 -0.0590 -0.2958
 8657SOL    HW137607   4.207   1.261   5.813  2.5993  0.5981  0.7566
 8657SOL    HW237608   4.146   1.369   5.889 -2.5747 -0.4438 -1.5095
 8658SOL     OW37609   0.667   3.729   1.491  0.2890 -0.3830  0.1519
 8658SOL    HW137610   0.733   3.797   1.505  0.9140 -1.1201  0.7459
 8658SOL    HW237611   0.710   3.644   1.503  0.5784 -0.1695  0.6394
 8659SOL     OW37612   1.954   2.812   9.270  0.2824  0.4622 -0.4541
 8659SOL    HW137613   1.956   2.907   9.275 -0.0548  0.4123  0.6032
 8659SOL    HW237614   1.885   2.804   9.204  0.9106 -1.7764 -0.8439
 8660SOL     OW37615   4.569   3.554  16.139  0.6010  1.0777  0.8861
 8660SOL    HW137616   4.485   3.585  16.174  0.5341  0.0455  1.6423
 8660SOL    HW237617   4.570   3.596  16.053  1.0554 -0.0243  0.3503
 8661SOL     OW37618   0.413   1.720   0.050  0.6926 -0.3808  0.1154
 8661SOL    HW137619   0.479   1.766   0.102 -1.8168  2.0207  1.2085
 8661SOL    HW237620   0.389   1.650   0.110  0.5809 -0.4212  0.0233
 8662SOL     OW37621   4.204   2.021   5.288 -0.5507 -0.0639  0.8135
 8662SOL    HW137622   4.174   2.106   5.319  1.0302  0.7909  0.0072
 8662SOL    HW237623   4.179   1.957   5.354 -2.0386 -1.4393 -1.0696
 8663SOL     OW37624   0.875   4.410  12.683 -0.3129 -0.2203  0.0183
 8663SOL    HW137625   0.911   4.475  12.622 -2.1005  0.5473 -0.2512
 8663SOL    HW237626   0.813   4.457  12.740 -2.2404 -0.0822 -2.1533
 8664SOL     OW37627   2.763   2.167  10.224  0.0532  0.4810  0.2873
 8664SOL    HW137628   2.789   2.244  10.173  0.3285 -0.6524 -1.3003
 8664SOL    HW237629   2.850   2.127  10.215 -0.6564 -1.5380  2.6564
 8665SOL     OW37630   3.020   4.728   0.702  0.1942 -0.1267  0.4775
 8665SOL    HW137631   3.046   0.044   0.628 -1.9742  1.4784  0.9305
 8665SOL    HW237632   3.071   0.028   0.773  0.9257  0.6122 -0.4576
 8666SOL     OW37633   2.533   2.071   0.748 -0.0606  0.0829 -0.0652
 8666SOL    HW137634   2.534   2.076   0.844 -1.5476 -1.9540  0.0461
 8666SOL    HW237635   2.616   2.111   0.723 -0.5863  2.8537  2.7233
 8667SOL     OW37636   4.251   3.943   5.444 -0.1568  0.6919  0.2490
 8667SOL    HW137637   4.308   3.885   5.493 -0.8330 -0.8790 -0.8453
 8667SOL    HW237638   4.270   3.898   5.362  0.1456 -0.2744  0.8477
 8668SOL     OW37639   0.241   0.927   3.283  0.4568 -0.1004 -0.0546
 8668SOL    HW137640   0.192   0.847   3.263  1.2100 -0.2717 -1.2145
 8668SOL    HW237641   0.229   0.976   3.201  1.1280  0.6106  0.2719
 8669SOL     OW37642   4.137   1.183  15.143 -0.0313  0.1905  0.3133
 8669SOL    HW137643   4.138   1.174  15.238 -1.6515  1.2396  0.4203
 8669SOL    HW237644   4.097   1.099  15.122  1.7123 -0.5104 -0.1924
 8670SOL     OW37645   2.179   0.028   7.075 -1.0051 -0.1756  0.7569
 8670SOL    HW137646   2.165   0.094   7.007 -1.2411 -0.8937  0.0905
 8670SOL    HW237647   2.207   4.690   7.024 -0.3641  0.9515 -0.5686
 8671SOL     OW37648   0.540   1.914   1.271 -0.4467  0.0899  0.0290
 8671SOL    HW137649   0.528   1.847   1.204  0.0460  1.5778 -1.5505
 8671SOL    HW237650   0.453   1.933   1.304 -0.3212 -0.5277  0.7037
 8672SOL     OW37651   4.637   2.891   2.918  0.1142 -0.2679 -0.1847
 8672SOL    HW137652   4.678   2.970   2.881 -0.6082  0.1909 -0.0166
 8672SOL    HW237653   4.602   2.913   3.004  1.1288 -0.2228  0.2125
 8673SOL     OW37654   4.478   3.497   7.377 -0.5360  0.4512 -0.3220
 8673SOL    HW137655   4.565   3.504   7.338  1.0122 -2.8973  2.6018
 8673SOL    HW237656   4.445   3.410   7.356  0.5607  0.5185 -2.3350
 8674SOL     OW37657   2.556   0.464   6.735 -0.2245  0.2648  0.4682
 8674SOL    HW137658   2.548   0.445   6.829 -0.5077  0.5566  0.5059
 8674SOL    HW237659   2.611   0.543   6.738 -0.0497  0.1053  1.6506
 8675SOL     OW37660   3.884   2.070   8.541 -0.3886  0.1467  0.0166
 8675SOL    HW137661   3.881   2.065   8.445 -0.5338  1.0106 -0.0308
 8675SOL    HW237662   3.833   1.994   8.567 -0.2820 -0.9054 -2.8584
 8676SOL     OW37663   0.433   2.681   1.673 -0.3939  0.3395  0.9511
 8676SOL    HW137664   0.440   2.775   1.656  1.5964 -0.0678 -0.5545
 8676SOL    HW237665   0.424   2.681   1.768 -0.7616  0.0344  0.9154
 8677SOL     OW37666   4.463   2.064   2.996 -0.4103  0.4333  0.1529
 8677SOL    HW137667   4.544   2.025   2.964 -0.0140  0.3874  1.2064
 8677SOL    HW237668   4.495   2.106   3.076 -0.0373  1.6033 -0.6156
 8678SOL     OW37669   1.517   4.686   2.217 -0.1473  0.0021 -0.0500
 8678SOL    HW137670   1.545   4.637   2.294  0.3231 -2.2657 -1.6918
 8678SOL    HW237671   1.605   4.704   2.185 -0.0410 -0.2322  0.1084
 8679SOL     OW37672   0.141   2.225   7.374  0.5305 -0.1145 -0.8560
 8679SOL    HW137673   0.196   2.226   7.453  0.2889 -1.1606 -0.6770
 8679SOL    HW237674   0.146   2.315   7.342  0.3189 -0.5825 -2.2195
 8680SOL     OW37675   1.920   0.029   7.936 -0.3128  0.3156 -0.3160
 8680SOL    HW137676   2.015   0.037   7.925 -0.0545 -1.3418  0.6167
 8680SOL    HW237677   1.912   4.675   7.915 -1.2841  0.3425 -0.0531
 8681SOL     OW37678   2.973   0.295   1.289  0.4101 -0.0440  0.0970
 8681SOL    HW137679   2.894   0.304   1.235 -0.1267 -2.2226  0.5108
 8681SOL    HW237680   2.946   0.229   1.354  1.9063 -1.0091 -0.2687
 8682SOL     OW37681   1.567   3.276   5.737 -0.0422 -0.1596  0.2603
 8682SOL    HW137682   1.535   3.274   5.827  1.0929  1.4569  0.6887
 8682SOL    HW237683   1.583   3.183   5.721 -0.1570 -0.3371  1.1677
 8683SOL     OW37684   3.328   1.847   5.293 -0.4128  0.1810 -0.3988
 8683SOL    HW137685   3.297   1.854   5.383  0.5221  0.1090 -0.0825
 8683SOL    HW237686   3.242   1.853   5.250 -1.3076  0.0127  1.3863
 8684SOL     OW37687   2.301   1.781  12.081 -0.0150  0.0472  0.6532
 8684SOL    HW137688   2.256   1.839  12.142  1.7493  0.0659  1.9141
 8684SOL    HW237689   2.316   1.845  12.012 -1.3868  2.6733  2.7912
 8685SOL     OW37690   1.235   0.819   6.565  0.3698  0.0132  0.0499
 8685SOL    HW137691   1.316   0.863   6.540 -0.7348  1.1964 -1.5121
 8685SOL    HW237692   1.255   0.795   6.655  1.4152 -1.0277 -0.4603
 8686SOL     OW37693   1.149   0.149  16.911 -0.1442 -0.1283  0.3986
 8686SOL    HW137694   1.189   0.233  16.891 -0.6000  0.0163  0.1045
 8686SOL    HW237695   1.207   0.101  16.852  0.4734 -1.2050  1.8725
 8687SOL     OW37696   3.985   0.166   3.824 -0.6134  0.4659 -0.2848
 8687SOL    HW137697   3.917   0.115   3.781 -0.0662  1.7385 -2.6881
 8687SOL    HW237698   3.959   0.176   3.915 -2.3878  1.6478 -0.9115
 8688SOL     OW37699   4.598   1.546   7.864 -0.1039  0.1563 -0.7505
 8688SOL    HW137700   4.570   1.637   7.873  2.6592  1.0557 -1.4414
 8688SOL    HW237701   4.514   1.511   7.894 -0.6298 -0.3429 -2.8677
 8689SOL     OW37702   0.113   1.150   9.126 -0.1583 -0.1661  0.0806
 8689SOL    HW137703   0.188   1.170   9.070  1.3035 -3.1235  0.9787
 8689SOL    HW237704   0.157   1.105   9.198 -0.6693 -2.6148 -1.1201
 8690SOL     OW37705   0.532   3.364   9.336 -0.1207  0.2751  0.0003
 8690SOL    HW137706   0.468   3.334   9.401 -0.3502 -0.6778 -0.6764
 8690SOL    HW237707   0.484   3.416   9.271  1.2817  2.9566  1.0834
 8691SOL     OW37708   2.895   4.203   9.606 -0.3259  0.0119  0.1907
 8691SOL    HW137709   2.883   4.286   9.561  2.6985 -0.2940 -1.2215
 8691SOL    HW237710   2.821   4.154   9.572 -2.0449  1.8682  1.2836
 8692SOL     OW37711   3.914   4.355   9.258  0.2738  0.6682 -0.2927
 8692SOL    HW137712   3.931   4.428   9.316 -0.0809  1.1985 -0.8517
 8692SOL    HW237713   3.985   4.298   9.288  0.4032  1.5935  1.1248
 8693SOL     OW37714   2.510   0.696  15.103  0.3253  0.1124  0.4818
 8693SOL    HW137715   2.541   0.697  15.193 -1.5946 -1.8447  1.1639
 8693SOL    HW237716   2.574   0.756  15.065  4.3148 -3.6835  1.2358
 8694SOL     OW37717   3.735   0.362  16.293  0.4877 -0.4398  0.0672
 8694SOL    HW137718   3.794   0.361  16.218  0.5525 -0.7696  0.1212
 8694SOL    HW237719   3.663   0.301  16.277  1.3659 -0.7780 -2.5934
 8695SOL     OW37720   2.882   1.432  13.014  0.0949 -0.4326 -0.0047
 8695SOL    HW137721   2.881   1.361  12.950  2.4260 -2.1850  1.8821
 8695SOL    HW237722   2.976   1.444  13.026 -0.0175 -0.3845  0.8575
 8696SOL     OW37723   4.617   1.602   0.072  0.2816 -0.2835 -0.1692
 8696SOL    HW137724   4.630   1.514   0.106 -0.9232  0.1475  1.4154
 8696SOL    HW237725   4.521   1.604   0.070  0.3495  1.1709 -1.7511
 8697SOL     OW37726   1.873   0.120   7.219 -0.6471 -0.0849  0.1095
 8697SOL    HW137727   1.835   0.090   7.301  2.3022 -0.9093  1.1713
 8697SOL    HW237728   1.926   0.192   7.253  0.6508 -0.4898 -1.0359
 8698SOL     OW37729   1.183   4.321   9.172  0.3705  0.5565 -0.3746
 8698SOL    HW137730   1.254   4.368   9.216 -0.1101 -1.3853  2.4551
 8698SOL    HW237731   1.192   4.360   9.085  0.3123 -1.8996 -1.4719
 8699SOL     OW37732   1.129   3.818   1.839  0.6684  0.5562 -0.3580
 8699SOL    HW137733   1.199   3.841   1.900  2.3877  1.7666 -2.7776
 8699SOL    HW237734   1.143   3.881   1.767  2.8540 -0.4727 -0.8263
 8700SOL     OW37735   4.648   1.752  12.936  1.1704 -0.9990  0.2271
 8700SOL    HW137736   4.727   1.789  12.975  1.3468 -0.9687 -0.1523
 8700SOL    HW237737   4.641   1.798  12.852  0.4235  0.5440  1.1479
 8701SOL     OW37738   4.013   4.048  16.216  0.6809 -0.8705  0.2017
 8701SOL    HW137739   4.084   3.985  16.200  0.3735 -0.3875 -3.0401
 8701SOL    HW237740   4.066   4.127  16.229  1.0926 -1.1684  0.3408
 8702SOL     OW37741   0.675   3.336   1.667 -0.3292 -0.3611  0.0699
 8702SOL    HW137742   0.665   3.305   1.577 -0.1525  0.7766 -0.3337
 8702SOL    HW237743   0.714   3.258   1.706  2.7057  0.5579 -1.1286
 8703SOL     OW37744   3.425   4.097   7.734  0.0172  0.1475  0.7354
 8703SOL    HW137745   3.361   4.160   7.767 -0.4634  0.5117 -0.8992
 8703SOL    HW237746   3.376   4.048   7.668  1.3431  0.5375 -0.5292
 8704SOL     OW37747   3.326   0.030   1.346 -0.3507  0.0964 -0.5384
 8704SOL    HW137748   3.418   0.053   1.344 -0.4356  0.3767 -1.2318
 8704SOL    HW237749   3.337   4.674   1.355  0.3514  0.2396  0.0679
 8705SOL     OW37750   1.274   1.516  13.075 -0.4811 -0.1792 -0.5772
 8705SOL    HW137751   1.280   1.473  13.160 -1.4151 -0.7056 -0.7863
 8705SOL    HW237752   1.357   1.486  13.036  0.7789  1.8140  0.5596
 8706SOL     OW37753   0.973   2.423   2.133 -0.0511  0.2726  0.1333
 8706SOL    HW137754   1.064   2.425   2.163 -0.5278  0.1304  1.5380
 8706SOL    HW237755   0.959   2.516   2.114  1.5276  0.0235 -2.3721
 8707SOL     OW37756   1.258   0.078   8.030  0.5792 -0.0973 -0.1796
 8707SOL    HW137757   1.248   0.128   7.949 -3.3156  0.5211  0.6868
 8707SOL    HW237758   1.201   0.122   8.094 -1.0153 -0.1663 -1.5583
 8708SOL     OW37759   3.296   1.714   4.039  0.2572  0.3685  0.6389
 8708SOL    HW137760   3.352   1.771   4.092  0.5301  0.0124  0.7331
 8708SOL    HW237761   3.256   1.657   4.105  0.9434 -0.7766  0.0526
 8709SOL     OW37762   3.064   4.394   9.160  0.1897 -0.1641 -0.3948
 8709SOL    HW137763   2.973   4.365   9.161  0.3749 -0.7589 -0.4274
 8709SOL    HW237764   3.094   4.353   9.241  1.2209  2.1772  0.3862
 8710SOL     OW37765   2.213   4.069   6.013  0.3505  0.2710  0.0453
 8710SOL    HW137766   2.264   4.090   6.092  1.4152 -1.2072 -0.2299
 8710SOL    HW237767   2.173   4.154   6.001 -0.2780 -0.0874 -0.3679
 8711SOL     OW37768   4.177   2.906   2.468  0.2801  0.1017  0.1552
 8711SOL    HW137769   4.138   2.836   2.416 -0.6509  0.7323  0.0197
 8711SOL    HW237770   4.119   2.902   2.544 -0.6727  0.4357 -0.5506
 8712SOL     OW37771   2.747   1.896  12.080  0.1752 -0.0252  0.5537
 8712SOL    HW137772   2.801   1.955  12.132  1.7565  0.5434 -1.7353
 8712SOL    HW237773   2.675   1.949  12.044  0.5365 -0.7253 -1.1902
 8713SOL     OW37774   3.173   2.162   4.500  0.5586 -0.0692 -0.1360
 8713SOL    HW137775   3.264   2.173   4.473  0.8871  0.9271  1.4306
 8713SOL    HW237776   3.136   2.241   4.461  0.8349 -1.1936 -2.7016
 8714SOL     OW37777   3.391   2.129   5.235 -0.4869 -0.4616 -0.8062
 8714SOL    HW137778   3.304   2.147   5.269  0.5059 -1.0288  2.0803
 8714SOL    HW237779   3.406   2.049   5.286 -0.5963 -1.7388 -2.8076
 8715SOL     OW37780   3.488   2.985   5.391 -0.4965  0.1530  0.3198
 8715SOL    HW137781   3.453   3.041   5.322  2.5383  0.9140 -0.5873
 8715SOL    HW237782   3.566   3.032   5.423  0.0224 -0.0731 -0.6275
 8716SOL     OW37783   0.435   1.356   8.770  0.5720  0.9064  0.1585
 8716SOL    HW137784   0.433   1.292   8.699 -0.0720  1.4668 -0.3242
 8716SOL    HW237785   0.419   1.435   8.719 -0.4818 -0.0994 -1.0778
 8717SOL     OW37786   0.889   2.886   3.255  0.4332  0.2225  0.2367
 8717SOL    HW137787   0.841   2.969   3.261  1.7393  0.9130  1.1014
 8717SOL    HW237788   0.969   2.910   3.206 -1.3090  0.6012 -2.4426
 8718SOL     OW37789   3.036   0.869   2.635  0.3323  0.4832  0.2792
 8718SOL    HW137790   2.998   0.955   2.618  0.0409  0.4436  0.7419
 8718SOL    HW237791   3.107   0.852   2.573 -0.7405  1.2380 -1.1342
 8719SOL     OW37792   2.564   2.447   4.698  0.2101  0.1405 -0.6651
 8719SOL    HW137793   2.534   2.429   4.610 -1.3656  1.3278 -0.3791
 8719SOL    HW237794   2.490   2.493   4.738  1.8771  0.5428  1.9808
 8720SOL     OW37795   0.179   2.254   3.922  0.1840 -0.1274  0.3215
 8720SOL    HW137796   0.259   2.232   3.969 -0.1940 -0.0474  1.0110
 8720SOL    HW237797   0.124   2.175   3.927  0.8004 -0.3471  3.5269
 8721SOL     OW37798   4.667   4.666   5.904  0.2995 -0.4533  0.2392
 8721SOL    HW137799   4.638   4.618   5.826 -1.5218  2.0672 -0.6526
 8721SOL    HW237800   4.670   0.020   5.883  1.2211 -0.4165  0.5550
 8722SOL     OW37801   4.169   3.644  14.874 -0.2849  0.1078 -0.0964
 8722SOL    HW137802   4.199   3.734  14.888  0.4228 -0.1353 -0.0761
 8722SOL    HW237803   4.160   3.609  14.962 -1.0472 -0.1884 -0.2911
 8723SOL     OW37804   2.298   0.845   8.017 -0.5014  0.5268  0.1097
 8723SOL    HW137805   2.375   0.861   7.963  0.4840 -0.4111  1.2360
 8723SOL    HW237806   2.229   0.887   7.965  1.0032  0.9357 -1.5574
 8724SOL     OW37807   3.709   4.286  15.080 -0.6304  0.7611 -0.0204
 8724SOL    HW137808   3.692   4.198  15.047  0.2228  1.0757 -1.2665
 8724SOL    HW237809   3.618   4.318  15.079 -1.1294 -0.6950 -1.3053
 8725SOL     OW37810   4.012   4.684   1.654 -0.1752  0.0974 -0.2392
 8725SOL    HW137811   3.992   4.593   1.677  0.2406  0.6249  2.2059
 8725SOL    HW237812   3.932   4.721   1.691 -0.2264 -0.7742  0.5186
 8726SOL     OW37813   1.487   1.575  17.605  0.4106  0.0718 -0.1923
 8726SOL    HW137814   1.422   1.506  17.587  1.6620 -1.3792  0.8769
 8726SOL    HW237815   1.558   1.536  17.657 -0.5107 -0.5281  0.6309
 8727SOL     OW37816   0.055   2.042   2.613 -0.0310  0.6741 -0.3531
 8727SOL    HW137817   0.042   2.074   2.523 -1.3056  1.9568  0.2843
 8727SOL    HW237818   0.131   2.090   2.646  0.3933 -2.4266  3.1086
 8728SOL     OW37819   0.051   1.001   6.550 -0.1109  0.3236 -0.0335
 8728SOL    HW137820   4.715   1.056   6.527  1.9298  1.9466 -2.7918
 8728SOL    HW237821   0.081   0.968   6.465 -0.0468 -0.6172  0.3501
 8729SOL     OW37822   2.074   4.467   6.162 -0.1680 -0.1564  0.3029
 8729SOL    HW137823   2.053   4.539   6.102  1.0932 -0.4414 -0.4962
 8729SOL    HW237824   2.082   4.397   6.096  0.4175 -0.7212  0.9792
 8730SOL     OW37825   0.684   0.268   6.523  0.5425  0.5851 -0.8445
 8730SOL    HW137826   0.650   0.183   6.494 -0.7729  0.1749  1.9144
 8730SOL    HW237827   0.773   0.253   6.555  0.4672  1.2117 -0.3445
 8731SOL     OW37828   1.848   4.332   1.820 -0.4488 -0.1466  0.3112
 8731SOL    HW137829   1.758   4.300   1.815  0.1053 -1.3856 -1.4344
 8731SOL    HW237830   1.898   4.256   1.850  0.5862 -0.1418 -1.4130
 8732SOL     OW37831   1.427   4.500   1.656 -0.2563 -0.4370  0.0485
 8732SOL    HW137832   1.466   4.558   1.590 -0.3963 -0.8474 -0.3992
 8732SOL    HW237833   1.434   4.553   1.735 -1.5161  0.5187 -0.4607
 8733SOL     OW37834   2.723   3.565   5.306  0.0119  0.2447  0.6378
 8733SOL    HW137835   2.698   3.651   5.341 -2.7178  0.5260 -1.9995
 8733SOL    HW237836   2.818   3.563   5.314 -0.0347  0.8439  1.3216
 8734SOL     OW37837   1.484   3.508   0.319  0.3669  0.3567 -1.0918
 8734SOL    HW137838   1.409   3.450   0.335  2.6545 -2.9398 -2.3194
 8734SOL    HW237839   1.450   3.580   0.373  1.4827 -0.2831  0.4702
 8735SOL     OW37840   0.386   3.341   0.682 -0.5445  0.2998  0.6869
 8735SOL    HW137841   0.421   3.369   0.598  0.5457  0.4739  1.1960
 8735SOL    HW237842   0.455   3.352   0.748 -0.1531  1.7693  0.0251
 8736SOL     OW37843   0.942   4.275  13.876  0.2523  0.3011  0.2376
 8736SOL    HW137844   0.928   4.191  13.920  1.9783  0.7147  1.5947
 8736SOL    HW237845   0.860   4.318  13.901 -0.3326 -0.3902 -0.5045
 8737SOL     OW37846   0.834   2.574   5.847 -0.6785 -0.1266  0.5036
 8737SOL    HW137847   0.895   2.504   5.824 -0.0187  0.5026  0.3400
 8737SOL    HW237848   0.755   2.524   5.829  0.0266 -0.5623 -1.2913
 8738SOL     OW37849   0.967   1.391   6.770 -0.2356  0.1812  0.0997
 8738SOL    HW137850   0.880   1.384   6.809 -0.9833 -0.1175 -1.6334
 8738SOL    HW237851   0.978   1.485   6.785  1.4749  0.0590 -0.3735
 8739SOL     OW37852   3.003   1.070   1.721  0.2056 -0.5497  0.2596
 8739SOL    HW137853   3.025   0.979   1.701 -0.0345 -0.1911 -1.6135
 8739SOL    HW237854   2.927   1.063   1.778 -0.6586  2.8547 -0.4710
 8740SOL     OW37855   3.086   0.383   6.893  0.2089 -0.0753 -0.6515
 8740SOL    HW137856   3.137   0.460   6.918 -0.7485 -0.2687  1.8167
 8740SOL    HW237857   3.132   0.307   6.928 -3.3278 -1.4515  1.0072
 8741SOL     OW37858   2.087   2.389  11.543  0.4558  0.2561  0.3687
 8741SOL    HW137859   2.081   2.320  11.478  0.6094 -0.9150  1.6036
 8741SOL    HW237860   2.056   2.338  11.618 -1.7048 -1.9182 -2.0247
 8742SOL     OW37861   4.026   3.703   4.345 -0.3617 -0.4826 -0.2895
 8742SOL    HW137862   3.987   3.791   4.347  0.0060 -0.3859  2.9903
 8742SOL    HW237863   3.981   3.670   4.423 -1.1085 -1.6553 -1.2257
 8743SOL     OW37864   3.028   2.575  10.475  0.5018  0.1313  0.1809
 8743SOL    HW137865   3.068   2.527  10.548  0.1214  1.7632  1.4644
 8743SOL    HW237866   2.948   2.524  10.466 -1.2320  3.1563 -1.4266
 8744SOL     OW37867   3.660   0.596  14.320 -0.4689 -0.4177 -0.0148
 8744SOL    HW137868   3.579   0.611  14.370  0.4242 -1.5931  1.7461
 8744SOL    HW237869   3.655   0.502  14.333  0.5058 -0.3706  0.6848
 8745SOL     OW37870   4.119   0.008  11.647 -0.2663  0.0459  0.5704
 8745SOL    HW137871   4.102   0.071  11.577 -0.2977 -0.7708 -0.1686
 8745SOL    HW237872   4.174   4.683  11.601  0.0709  1.7503 -1.3563
 8746SOL     OW37873   0.549   3.290  13.975  0.1822 -0.6427  0.0047
 8746SOL    HW137874   0.511   3.257  14.056 -0.0319  1.2134  0.6692
 8746SOL    HW237875   0.608   3.219  13.951  1.0654  0.1596 -0.2151
 8747SOL     OW37876   2.080   4.011   2.528 -0.5430  1.1129 -0.2168
 8747SOL    HW137877   2.174   4.021   2.510 -0.5910  0.9669 -0.5438
 8747SOL    HW237878   2.058   3.981   2.440  3.1084 -0.0075 -0.7525
 8748SOL     OW37879   2.432   0.501   6.477  0.3357  0.0557 -0.2848
 8748SOL    HW137880   2.365   0.552   6.522  1.5661  0.9699  0.5316
 8748SOL    HW237881   2.491   0.485   6.551  0.3162  1.0975 -0.0397
 8749SOL     OW37882   0.926   3.959   5.760  0.1473  0.0313 -0.1530
 8749SOL    HW137883   0.927   3.863   5.770 -1.5406 -0.2483 -2.5859
 8749SOL    HW237884   0.838   3.980   5.792 -0.2857 -1.1077 -0.5626
 8750SOL     OW37885   3.881   1.506  14.938  0.8670 -0.5882 -0.2873
 8750SOL    HW137886   3.806   1.494  14.880  0.7386 -3.3915  0.5049
 8750SOL    HW237887   3.887   1.415  14.967  2.8914 -0.0716  0.8801
 8751SOL     OW37888   4.526   2.466   0.338  0.1782  0.3473  0.2900
 8751SOL    HW137889   4.471   2.535   0.375  1.3588  0.9203  0.9862
 8751SOL    HW237890   4.480   2.461   0.254 -0.6179  0.5566  0.7222
 8752SOL     OW37891   3.923   1.661   3.316  0.1911 -0.3016 -0.1339
 8752SOL    HW137892   3.946   1.688   3.405 -3.1972 -1.3776  1.0868
 8752SOL    HW237893   3.999   1.666   3.259  0.9635 -2.8862  0.6654
 8753SOL     OW37894   3.498   1.309   1.644 -0.2190  0.0930  0.0754
 8753SOL    HW137895   3.412   1.268   1.646 -0.4956  0.6365 -0.6123
 8753SOL    HW237896   3.473   1.396   1.611  1.9649  1.3199  1.6379
 8754SOL     OW37897   3.955   0.975  12.153 -0.2089 -0.0549 -0.1812
 8754SOL    HW137898   4.042   1.014  12.154 -1.1565  2.0248  0.9067
 8754SOL    HW237899   3.969   0.906  12.088  0.0639  0.0166 -0.1983
 8755SOL     OW37900   4.150   2.696   4.425 -0.1307  0.6069 -0.4722
 8755SOL    HW137901   4.238   2.698   4.464 -0.8137  2.6954  0.9537
 8755SOL    HW237902   4.118   2.608   4.449  0.6195  0.6157  0.5645
 8756SOL     OW37903   4.343   2.582   5.270  0.2392  0.0725 -0.2589
 8756SOL    HW137904   4.375   2.628   5.192  0.5143  0.4664  0.0804
 8756SOL    HW237905   4.325   2.659   5.324 -0.0597  0.6099 -1.1286
 8757SOL     OW37906   0.004   0.263   6.512  0.1289 -0.0137  0.1068
 8757SOL    HW137907   0.097   0.261   6.535  0.4234  0.6499 -1.0546
 8757SOL    HW237908   4.703   0.212   6.583 -0.0845  0.9103  0.6645
 8758SOL     OW37909   2.893   0.210  16.005  0.5915 -0.7005  0.6551
 8758SOL    HW137910   2.848   0.133  15.971  0.1660 -1.4648  2.9226
 8758SOL    HW237911   2.922   0.178  16.090  1.9491 -0.8652  0.1221
 8759SOL     OW37912   4.414   4.444   6.799  0.2322 -0.1937  0.4907
 8759SOL    HW137913   4.485   4.433   6.736 -1.3750  1.6015 -1.6738
 8759SOL    HW237914   4.365   4.365   6.779 -1.4145  1.0486 -0.4378
 8760SOL     OW37915   3.634   0.076   9.497  0.0482  0.6891  0.6763
 8760SOL    HW137916   3.598   0.153   9.452 -2.0644 -1.0041 -0.5194
 8760SOL    HW237917   3.558   0.043   9.545 -0.0571  0.1316  0.1210
 8761SOL     OW37918   3.669   1.421   1.855  0.4639  0.2339  0.4309
 8761SOL    HW137919   3.657   1.338   1.902  2.1745 -0.2778 -0.0432
 8761SOL    HW237920   3.616   1.394   1.779 -1.9658  2.7350  1.2207
 8762SOL     OW37921   2.909   0.330  13.396 -0.2666 -0.7938 -0.2431
 8762SOL    HW137922   2.999   0.351  13.422 -1.2477  0.4360  2.1062
 8762SOL    HW237923   2.856   0.397  13.437 -0.6581  1.6561 -4.7565
 8763SOL     OW37924   0.674   1.889  13.486  0.1184 -0.1368  0.1551
 8763SOL    HW137925   0.603   1.937  13.443 -0.3824 -1.9553 -1.0815
 8763SOL    HW237926   0.725   1.955  13.532  0.0574 -0.4047  0.6162
 8764SOL     OW37927   1.478   2.958   2.523 -0.3874 -0.2123 -0.4618
 8764SOL    HW137928   1.554   3.015   2.521 -0.9096  0.4633 -1.0760
 8764SOL    HW237929   1.527   2.877   2.534 -0.3073  0.0577  1.1405
 8765SOL     OW37930   2.818   2.295   0.351  0.0389 -0.4951 -0.2539
 8765SOL    HW137931   2.785   2.206   0.361 -1.0373 -0.3624 -2.7906
 8765SOL    HW237932   2.813   2.310   0.257 -1.0018  0.2432 -0.0737
 8766SOL     OW37933   3.699   3.306   7.609  0.3450  0.0433 -0.1126
 8766SOL    HW137934   3.721   3.225   7.656 -0.2415  0.5980  1.1342
 8766SOL    HW237935   3.777   3.317   7.555  0.3379 -4.1957 -0.9666
 8767SOL     OW37936   3.264   3.916   4.308 -0.2780 -0.9686  0.4971
 8767SOL    HW137937   3.356   3.938   4.322 -0.1579 -0.0869 -1.5497
 8767SOL    HW237938   3.226   3.998   4.276 -1.3683 -2.6466 -2.5552
 8768SOL     OW37939   1.323   2.652   8.367 -0.3113 -0.4339 -0.6808
 8768SOL    HW137940   1.276   2.628   8.447  2.4547  4.3400  2.4285
 8768SOL    HW237941   1.415   2.636   8.389 -0.3508 -0.2973 -0.4227
 8769SOL     OW37942   3.828   4.698   3.995  0.2151  0.1086 -0.9718
 8769SOL    HW137943   3.822   4.603   4.002 -0.6269  0.0877 -1.9910
 8769SOL    HW237944   3.913   4.709   3.952 -0.3468  1.3991 -1.7524
 8770SOL     OW37945   3.613   1.121  15.269 -0.0305 -0.9026 -0.3796
 8770SOL    HW137946   3.699   1.079  15.274  0.8378  0.7623 -1.3700
 8770SOL    HW237947   3.560   1.073  15.332 -0.9501 -0.2761 -0.6812
 8771SOL     OW37948   0.975   3.949   3.638 -0.2020  0.3243 -0.3184
 8771SOL    HW137949   1.040   3.934   3.569 -2.0412 -5.2346 -0.8291
 8771SOL    HW237950   0.897   3.939   3.584  0.3716 -3.1061 -0.5019
 8772SOL     OW37951   2.832   4.275   7.182 -0.4646 -0.5200  0.1320
 8772SOL    HW137952   2.750   4.232   7.157 -0.7590  0.3035 -0.3024
 8772SOL    HW237953   2.857   4.304   7.094 -1.4334 -0.5120 -0.1388
 8773SOL     OW37954   2.627   1.814   0.137 -0.7413 -0.3478  0.3347
 8773SOL    HW137955   2.598   1.787   0.050  0.0207 -0.1938  0.0286
 8773SOL    HW237956   2.555   1.867   0.171  0.7524  1.2317  1.0849
 8774SOL     OW37957   1.931   2.938  10.268 -0.6613  0.6520  0.4384
 8774SOL    HW137958   2.005   2.944  10.328 -0.5123  1.6694  0.1482
 8774SOL    HW237959   1.929   2.843  10.274  1.8480  0.6254  0.8653
 8775SOL     OW37960   3.632   1.445   8.723 -0.2098 -0.0765 -0.6170
 8775SOL    HW137961   3.586   1.398   8.653 -0.1131 -0.2342 -0.5730
 8775SOL    HW237962   3.721   1.440   8.691 -0.5911  1.9481 -2.0046
 8776SOL     OW37963   1.035   3.808   9.035  0.3939 -0.3135  0.2008
 8776SOL    HW137964   1.054   3.746   9.105 -2.7167 -3.0624 -1.3878
 8776SOL    HW237965   1.113   3.798   8.981  0.4099 -1.6322  0.4647
 8777SOL     OW37966   0.583   4.358  12.532  0.1316 -0.1807 -0.3177
 8777SOL    HW137967   0.509   4.372  12.591 -2.0145 -2.0332 -2.5848
 8777SOL    HW237968   0.657   4.361  12.592 -0.3841 -0.1460  0.3173
 8778SOL     OW37969   3.075   1.855   3.280  0.2221  0.3188 -0.1467
 8778SOL    HW137970   3.057   1.771   3.237  0.7905 -0.3911  1.0066
 8778SOL    HW237971   3.148   1.831   3.337 -0.5925 -1.9112 -0.0544
 8779SOL     OW37972   1.003   1.648  12.899  0.5154 -0.1357  0.4715
 8779SOL    HW137973   1.006   1.553  12.915  0.4151 -0.2941 -0.4228
 8779SOL    HW237974   1.053   1.683  12.973  1.1028 -0.6375  0.3185
 8780SOL     OW37975   4.475   3.585   0.648  0.2898  0.2172  0.0139
 8780SOL    HW137976   4.538   3.657   0.642  1.1945 -0.5320  0.5675
 8780SOL    HW237977   4.519   3.531   0.714 -0.9914  0.4412  1.0571
 8781SOL     OW37978   1.228   2.408   1.251 -0.1194  0.2940 -0.1428
 8781SOL    HW137979   1.150   2.353   1.251  2.3631 -3.1977  0.8290
 8781SOL    HW237980   1.215   2.467   1.326  1.1080  0.7359 -0.2784
 8782SOL     OW37981   4.156   2.149   7.230 -0.1506  0.3548 -0.2320
 8782SOL    HW137982   4.087   2.198   7.275  0.7817  1.7441 -0.3165
 8782SOL    HW237983   4.185   2.119   7.316  2.0510  1.3867 -0.6067
 8783SOL     OW37984   1.657   3.042   6.410  0.5584 -0.1583 -0.6250
 8783SOL    HW137985   1.740   3.075   6.444 -0.2159  0.3639  0.7341
 8783SOL    HW237986   1.666   3.066   6.317 -0.8531 -1.1377 -1.0173
 8784SOL     OW37987   4.663   0.824   0.196  0.0193  0.1695  0.5189
 8784SOL    HW137988   4.656   0.804   0.289 -2.4898  2.1048  0.7133
 8784SOL    HW237989   4.615   0.750   0.157  1.9689 -2.2860  2.7581
 8785SOL     OW37990   2.357   1.383  13.227  0.1554  0.2809  0.5448
 8785SOL    HW137991   2.380   1.292  13.206  3.7412  1.3142  0.0337
 8785SOL    HW237992   2.282   1.370  13.284 -0.6154  1.7381 -0.1299
 8786SOL     OW37993   2.458   1.082   9.208  0.3229  0.0730 -0.3278
 8786SOL    HW137994   2.423   1.021   9.142  0.1297  0.4716 -0.5936
 8786SOL    HW237995   2.548   1.082   9.176  0.5203 -1.7699  0.1934
 8787SOL     OW37996   3.899   3.270   3.529 -0.2612 -0.1055  0.2104
 8787SOL    HW137997   3.894   3.180   3.562  2.6657 -0.8338 -1.3164
 8787SOL    HW237998   3.812   3.274   3.488 -0.6734 -0.6629  1.0133
 8788SOL     OW37999   1.019   4.002   9.623 -0.0647 -0.0612 -0.4255
 8788SOL    HW138000   1.074   4.051   9.562  2.1293  1.4431  2.8069
 8788SOL    HW238001   1.028   3.910   9.599  0.9794 -0.2995  0.8942
 8789SOL     OW38002   1.095   1.298   2.132  0.4511 -0.4347 -0.2920
 8789SOL    HW138003   1.103   1.260   2.219  0.5286 -2.9837 -1.4022
 8789SOL    HW238004   1.151   1.235   2.087  1.7741  0.8478 -0.4553
 8790SOL     OW38005   0.416   2.656   5.149 -0.3514 -0.0688 -0.5870
 8790SOL    HW138006   0.384   2.722   5.087  0.4211  3.1853  2.4556
 8790SOL    HW238007   0.486   2.705   5.193 -0.5028  0.6680 -1.1673
 8791SOL     OW38008   4.151   3.077  11.424 -0.1916 -0.6097  0.8295
 8791SOL    HW138009   4.211   3.049  11.494  2.3529 -2.3118 -2.0007
 8791SOL    HW238010   4.095   2.999  11.427 -2.3601  0.9116 -0.4930
 8792SOL     OW38011   0.940   3.426   9.946  0.4243 -0.1649  0.3698
 8792SOL    HW138012   0.938   3.511   9.901  0.3455 -0.0485  0.5942
 8792SOL    HW238013   1.009   3.439  10.011 -1.5237  1.5078  2.1234
 8793SOL     OW38014   1.006   1.040  14.973  0.0605 -0.5235  0.5474
 8793SOL    HW138015   0.981   0.965  15.027  0.0457 -1.5965 -0.9564
 8793SOL    HW238016   0.993   0.997  14.889  1.1656  1.8887 -0.8335
 8794SOL     OW38017   4.336   0.085   4.020  0.1999 -0.8706  0.5900
 8794SOL    HW138018   4.253   0.038   4.026  0.4564 -1.4152 -0.1755
 8794SOL    HW238019   4.360   0.094   4.112  3.1888 -5.0865  0.1869
 8795SOL     OW38020   3.558   1.421   7.520 -0.5311  0.4877  0.3193
 8795SOL    HW138021   3.629   1.366   7.554 -0.0219  0.7913 -0.2524
 8795SOL    HW238022   3.560   1.402   7.427  3.2198 -0.5449  0.5998
 8796SOL     OW38023   3.166   4.177   4.257 -0.1384  0.2708  0.1620
 8796SOL    HW138024   3.121   4.166   4.174 -1.0768 -1.3307  0.8806
 8796SOL    HW238025   3.086   4.161   4.307 -1.1488  2.8612 -0.6752
 8797SOL     OW38026   1.099   3.735   3.433 -0.1186 -0.3568 -0.2513
 8797SOL    HW138027   1.101   3.705   3.524 -0.3622  0.8718  0.1654
 8797SOL    HW238028   1.178   3.691   3.401 -0.6768 -1.1041 -0.5979
 8798SOL     OW38029   0.022   3.509   0.043 -0.0018 -0.5212 -0.3171
 8798SOL    HW138030   0.024   3.601   0.018 -0.0497 -0.2218  0.7532
 8798SOL    HW238031   4.678   3.500   0.091  0.0515 -0.8372 -0.2843
 8799SOL     OW38032   1.414   3.529  15.606 -0.2011  0.5292 -0.0653
 8799SOL    HW138033   1.426   3.440  15.638 -0.8094  0.7031  0.6485
 8799SOL    HW238034   1.497   3.557  15.568  1.0919  2.6033  4.2535
 8800SOL     OW38035   0.025   2.322   0.297 -0.2955 -0.0181  0.5316
 8800SOL    HW138036   4.686   2.377   0.308 -1.3787 -2.0308  3.0232
 8800SOL    HW238037   4.710   2.252   0.262  1.0614 -0.2345 -1.1171
 8801SOL     OW38038   2.147   3.211  12.609  0.1212  0.2108  0.1755
 8801SOL    HW138039   2.219   3.195  12.670 -0.4861 -1.5642  0.4242
 8801SOL    HW238040   2.182   3.288  12.564  0.3648  1.6541  2.8156
 8802SOL     OW38041   0.322   4.547   3.139  0.0676  0.1746 -0.0626
 8802SOL    HW138042   0.339   4.496   3.218  1.0394 -0.5947 -0.7635
 8802SOL    HW238043   0.253   4.493   3.099  0.3504 -2.1157  2.5317
 8803SOL     OW38044   2.352   1.689  11.486  0.5833  0.1353  0.3503
 8803SOL    HW138045   2.415   1.681  11.415 -2.0835 -0.2077 -1.9917
 8803SOL    HW238046   2.365   1.600  11.517  0.2761 -0.5853 -1.6409
 8804SOL     OW38047   4.557   4.194   2.880 -0.7025 -0.5986  0.0907
 8804SOL    HW138048   4.498   4.199   2.955 -1.5224 -0.2546 -0.5766
 8804SOL    HW238049   4.586   4.285   2.887  1.0706 -1.1873  0.3696
 8805SOL     OW38050   0.866   4.403   7.152 -0.2576 -0.4395 -0.0766
 8805SOL    HW138051   0.816   4.408   7.070 -0.7083 -2.3201  0.0910
 8805SOL    HW238052   0.817   4.331   7.192  0.6791 -0.8806  0.2712
 8806SOL     OW38053   4.570   1.766   6.874 -0.0810  0.4038 -0.2173
 8806SOL    HW138054   4.481   1.799   6.871 -0.4222 -0.4060  1.1719
 8806SOL    HW238055   4.562   1.714   6.954  0.5370  0.0111 -0.4124
 8807SOL     OW38056   4.158   4.417   4.537 -0.0556 -0.1077  0.1487
 8807SOL    HW138057   4.227   4.358   4.569  0.1177  0.3938  0.6978
 8807SOL    HW238058   4.084   4.401   4.595 -1.0289 -0.0539 -1.0780
 8808SOL     OW38059   4.531   3.804   7.198 -0.5776  0.1211  0.1794
 8808SOL    HW138060   4.458   3.748   7.172  0.0077  0.1018 -1.4697
 8808SOL    HW238061   4.483   3.855   7.262 -0.8679 -0.9107  0.7722
 8809SOL     OW38062   3.231   2.253  16.636 -0.2638 -0.1482 -0.4905
 8809SOL    HW138063   3.268   2.330  16.679  0.6960  0.1131 -1.7732
 8809SOL    HW238064   3.280   2.190  16.688 -0.6672 -1.3890 -1.6091
 8810SOL     OW38065   3.974   0.442   5.799  0.3491  0.2171  0.3040
 8810SOL    HW138066   4.011   0.426   5.886 -0.7263 -2.0073  0.3517
 8810SOL    HW238067   3.891   0.471   5.838  0.1439  0.0034  0.0261
 8811SOL     OW38068   3.487   0.466   2.320  0.5184  0.5843 -0.1776
 8811SOL    HW138069   3.422   0.531   2.291  0.8641  0.4643 -1.2230
 8811SOL    HW238070   3.562   0.515   2.356 -0.8222  2.7646 -0.3374
 8812SOL     OW38071   1.051   0.778   2.153 -0.0590  0.2561 -0.1275
 8812SOL    HW138072   1.132   0.814   2.116  0.8010 -1.4323  0.1383
 8812SOL    HW238073   1.002   0.779   2.070  1.2563 -1.0923 -0.9045
 8813SOL     OW38074   4.367   2.014   7.661 -0.0588  0.6823 -0.6541
 8813SOL    HW138075   4.309   1.956   7.710  2.2258 -0.1883  0.9944
 8813SOL    HW238076   4.344   1.990   7.571 -4.3084  0.2974  0.5255
 8814SOL     OW38077   3.962   0.580   9.231 -0.0892 -0.0101  0.2508
 8814SOL    HW138078   4.044   0.532   9.217  0.7840  1.9005 -1.0834
 8814SOL    HW238079   3.957   0.592   9.325  0.7996  2.4037 -0.0160
 8815SOL     OW38080   2.770   3.596   7.495 -0.3603  0.0588  0.2212
 8815SOL    HW138081   2.723   3.540   7.557  0.3213 -1.6149 -0.7628
 8815SOL    HW238082   2.732   3.682   7.512 -0.8141  0.0333 -0.6342
 8816SOL     OW38083   4.420   0.135   0.115  0.4108  0.0161 -0.2944
 8816SOL    HW138084   4.362   0.063   0.089 -0.0120 -0.6750  2.6276
 8816SOL    HW238085   4.459   0.091   0.191  1.6050 -0.1714 -1.0098
 8817SOL     OW38086   3.830   0.714  15.838 -0.9398  0.2363  0.3940
 8817SOL    HW138087   3.897   0.779  15.817  0.5302 -1.1601  0.7759
 8817SOL    HW238088   3.841   0.667  15.755 -1.2520 -1.1434  1.1301
 8818SOL     OW38089   3.593   3.767   7.305  0.3694 -0.4668 -0.0093
 8818SOL    HW138090   3.658   3.807   7.247  0.8699 -2.1497 -0.6274
 8818SOL    HW238091   3.622   3.676   7.296  3.4736  0.3602  1.6187
 8819SOL     OW38092   2.899   3.576   4.907 -0.4934  0.1974 -0.3419
 8819SOL    HW138093   2.948   3.656   4.927 -0.9105  0.7551 -1.5645
 8819SOL    HW238094   2.810   3.609   4.917 -1.4738 -2.6187  0.0999
 8820SOL     OW38095   1.846   0.611   6.668 -0.3475 -0.2487 -0.5944
 8820SOL    HW138096   1.759   0.588   6.636 -0.5329  1.1034 -1.0815
 8820SOL    HW238097   1.886   0.622   6.582 -0.7908 -0.7823 -0.8696
 8821SOL     OW38098   0.395   0.596  16.149 -0.6575 -0.1000  0.1484
 8821SOL    HW138099   0.387   0.586  16.244 -2.7766 -0.3014 -0.0527
 8821SOL    HW238100   0.444   0.518  16.122 -2.2899 -1.1148  0.1554
 8822SOL     OW38101   0.539   0.240   8.567 -0.1166 -0.0332 -0.2626
 8822SOL    HW138102   0.609   0.279   8.619  1.2599 -3.3787  0.3953
 8822SOL    HW238103   0.482   0.204   8.634 -1.7846  1.2880 -0.9829
 8823SOL     OW38104   3.026   1.429  15.212 -0.1208  0.4742  0.0487
 8823SOL    HW138105   3.030   1.446  15.118 -1.9489 -0.3003 -0.1717
 8823SOL    HW238106   3.061   1.507  15.255  0.3464 -0.0451  0.6049
 8824SOL     OW38107   0.452   0.272  16.216 -0.1260  0.0138 -0.3425
 8824SOL    HW138108   0.523   0.250  16.277 -1.0139  0.4845  0.8754
 8824SOL    HW238109   0.388   0.307  16.278  1.3133  0.1034  1.1194
 8825SOL     OW38110   4.422   4.094   7.597 -0.4523 -0.3633  0.0940
 8825SOL    HW138111   4.488   4.153   7.634 -0.7736  0.9178 -1.3671
 8825SOL    HW238112   4.375   4.168   7.559  0.2197 -0.6092 -1.2304
 8826SOL     OW38113   3.440   0.512  10.293  0.1670  0.2090 -0.1127
 8826SOL    HW138114   3.494   0.590  10.301  1.3969 -0.8343  1.9914
 8826SOL    HW238115   3.360   0.552  10.258 -1.1460 -2.6134 -0.3433
 8827SOL     OW38116   1.148   0.011   2.717 -0.5668 -0.0761  0.7155
 8827SOL    HW138117   1.205   4.677   2.742  0.1141 -0.0841 -0.8783
 8827SOL    HW238118   1.086   4.694   2.669  0.3862 -0.7899  0.3041
 8828SOL     OW38119   0.769   0.902   6.575  0.1833 -0.0864  0.3537
 8828SOL    HW138120   0.823   0.824   6.567 -0.5106 -0.4309 -0.9701
 8828SOL    HW238121   0.785   0.940   6.662 -1.5336  0.5614  0.3916
 8829SOL     OW38122   1.748   1.139   1.681  0.0836 -0.1241  0.0755
 8829SOL    HW138123   1.798   1.159   1.760 -0.4741 -0.1801  0.4406
 8829SOL    HW238124   1.810   1.099   1.621  1.0047 -1.5023  1.9591
 8830SOL     OW38125   1.612   0.693   8.356 -0.2539 -0.2127 -0.0229
 8830SOL    HW138126   1.551   0.628   8.321  0.4040 -1.2935  0.8015
 8830SOL    HW238127   1.557   0.744   8.415  3.3127  0.2496  2.9288
 8831SOL     OW38128   0.453   4.436   4.744 -0.0231  0.4686 -0.4757
 8831SOL    HW138129   0.425   4.474   4.660 -0.0450  1.8048  0.1396
 8831SOL    HW238130   0.537   4.480   4.754  1.1313 -1.1174 -3.2796
 8832SOL     OW38131   2.633   3.542   7.269 -1.2091 -0.0447  0.5202
 8832SOL    HW138132   2.697   3.583   7.328 -0.3715  1.6552 -1.5732
 8832SOL    HW238133   2.631   3.456   7.311 -0.4903 -0.1023  0.4394
 8833SOL     OW38134   3.372   4.687   5.380 -0.1546 -0.1829 -0.0519
 8833SOL    HW138135   3.351   4.622   5.448  1.8650  0.2749  1.0213
 8833SOL    HW238136   3.434   4.642   5.323 -0.9987 -0.8611 -0.4392
 8834SOL     OW38137   4.512   2.214   7.808  0.6513  0.5259 -0.6333
 8834SOL    HW138138   4.585   2.220   7.747  1.8767  0.6671  0.8635
 8834SOL    HW238139   4.458   2.140   7.780  0.4446  1.2461 -2.1483
 8835SOL     OW38140   1.228   4.395  14.551  0.1975  0.1801  0.3662
 8835SOL    HW138141   1.312   4.351  14.536 -0.7375 -0.9777 -1.5389
 8835SOL    HW238142   1.193   4.387  14.462  1.0112 -0.6159  0.1160
 8836SOL     OW38143   0.110   4.451   2.819 -0.8155  0.1038  0.4281
 8836SOL    HW138144   0.126   4.435   2.726  1.7822  1.9668  0.5500
 8836SOL    HW238145   0.095   4.545   2.819  2.4706  0.6228 -0.0150
 8837SOL     OW38146   0.042   4.014   8.247  0.5575 -0.5347 -0.5894
 8837SOL    HW138147   0.136   4.001   8.237  0.1839 -3.4487 -0.1572
 8837SOL    HW238148   0.042   4.110   8.247  1.4077 -0.5295  1.5533
 8838SOL     OW38149   2.276   3.888   8.257  0.3400 -0.0569 -0.4669
 8838SOL    HW138150   2.280   3.961   8.319  0.7559  0.1202 -0.7022
 8838SOL    HW238151   2.266   3.929   8.171  2.7991 -0.8184 -1.1155
 8839SOL     OW38152   1.382   2.751  10.151  0.1405  0.1320 -0.4025
 8839SOL    HW138153   1.297   2.786  10.178 -0.2814 -2.0430  1.1087
 8839SOL    HW238154   1.377   2.663  10.189  0.5603  0.9711  1.5974
 8840SOL     OW38155   1.321   1.988   4.880 -0.8724  0.1599  0.0986
 8840SOL    HW138156   1.237   2.033   4.870 -0.1238  1.2671 -1.1736
 8840SOL    HW238157   1.306   1.915   4.820  0.3260  0.2418 -0.2834
 8841SOL     OW38158   0.165   2.344   1.020 -0.3313 -0.2434 -0.1262
 8841SOL    HW138159   0.249   2.388   1.031 -0.5977  0.5975 -1.4421
 8841SOL    HW238160   0.130   2.364   1.107  1.3387  3.4937 -0.3094
 8842SOL     OW38161   1.521   3.492   9.030  0.0128 -0.0751  0.6564
 8842SOL    HW138162   1.519   3.564   8.967 -1.6572  0.3392  1.1588
 8842SOL    HW238163   1.544   3.536   9.112  1.7344  0.3587 -0.0617
 8843SOL     OW38164   3.566   2.659  17.735  0.1808  0.7228 -0.6798
 8843SOL    HW138165   3.544   2.623  17.649 -0.8308  0.3375 -0.2690
 8843SOL    HW238166   3.659   2.642  17.729  0.4158  1.9433 -0.6549
 8844SOL     OW38167   0.577   2.191   9.175  0.7022 -0.9520  0.6641
 8844SOL    HW138168   0.487   2.175   9.202  0.4041 -0.1146  0.1865
 8844SOL    HW238169   0.618   2.136   9.241  0.1348 -1.4239  0.6276
 8845SOL     OW38170   2.837   4.230  15.704 -0.3741  0.1009 -0.1268
 8845SOL    HW138171   2.768   4.249  15.640 -0.4336 -2.8757 -0.9425
 8845SOL    HW238172   2.844   4.315  15.747 -0.1045 -0.3044  0.6344
 8846SOL     OW38173   1.622   1.865   4.686  0.1615  0.6974  0.2870
 8846SOL    HW138174   1.682   1.889   4.616 -0.2905 -1.5797 -0.8757
 8846SOL    HW238175   1.692   1.840   4.747  0.3613  4.0926  1.4418
 8847SOL     OW38176   2.885   0.635   5.217  0.4201  0.3059  0.3158
 8847SOL    HW138177   2.877   0.568   5.285  0.0437  0.7826  0.7425
 8847SOL    HW238178   2.964   0.684   5.240  0.9926  0.1627 -1.3244
 8848SOL     OW38179   3.267   1.643   9.073  0.8607 -0.0893 -0.2700
 8848SOL    HW138180   3.243   1.551   9.088 -0.3800  0.2417 -0.2549
 8848SOL    HW238181   3.324   1.631   8.997 -1.5169 -0.5962 -1.9748
 8849SOL     OW38182   4.047   1.627   8.521  0.0492 -0.1144 -0.1291
 8849SOL    HW138183   3.991   1.689   8.473 -0.8715 -0.2380  0.7807
 8849SOL    HW238184   4.135   1.651   8.492  0.4604 -1.7724 -0.2020
 8850SOL     OW38185   2.085   4.625   5.910  0.3110  0.1356 -0.3289
 8850SOL    HW138186   2.109   4.591   5.824  0.2632  0.6495 -0.5470
 8850SOL    HW238187   2.110   4.716   5.893  1.6507 -0.5754 -2.1925
 8851SOL     OW38188   0.472   3.719   2.346 -0.2336  0.5371 -0.4516
 8851SOL    HW138189   0.423   3.791   2.386  0.1167 -0.1809  1.2674
 8851SOL    HW238190   0.477   3.655   2.416 -0.6672  1.0017  0.0041
 8852SOL     OW38191   0.960   4.620   2.557 -0.1022  0.6596 -1.2570
 8852SOL    HW138192   0.966   4.703   2.510 -0.7859 -0.6680 -3.6640
 8852SOL    HW238193   0.922   4.559   2.494  1.4527 -2.6259  0.9420
 8853SOL     OW38194   3.708   1.618  14.244  0.2911 -0.0126  0.3194
 8853SOL    HW138195   3.787   1.569  14.218  0.3725 -0.0418  0.6247
 8853SOL    HW238196   3.679   1.668  14.168 -1.3450  1.4255  1.8890
 8854SOL     OW38197   3.342   4.298  12.141 -0.0719  0.2928  0.2273
 8854SOL    HW138198   3.323   4.211  12.106 -0.7694  0.9137 -0.9063
 8854SOL    HW238199   3.266   4.346  12.108 -0.7911 -0.1352  1.2484
 8855SOL     OW38200   2.652   2.959   5.600  0.5713  0.0274  0.5334
 8855SOL    HW138201   2.744   2.946   5.624  0.9183  1.1385 -0.2166
 8855SOL    HW238202   2.636   2.876   5.555  0.3385 -0.1524  0.9429
 8856SOL     OW38203   3.262   1.422   1.295  0.0480  0.1764  0.0663
 8856SOL    HW138204   3.186   1.394   1.346 -1.0653  0.0213 -1.7078
 8856SOL    HW238205   3.225   1.458   1.215 -0.4884 -0.1083  0.1912
 8857SOL     OW38206   2.616   2.126  10.467  0.1497 -0.0391  0.9392
 8857SOL    HW138207   2.655   2.156  10.385  2.0878 -2.9520  0.8138
 8857SOL    HW238208   2.684   2.070  10.503 -0.5196 -0.4588  1.5639
 8858SOL     OW38209   0.346   3.231   9.470 -0.1523  0.0588  0.1447
 8858SOL    HW138210   0.338   3.166   9.540 -2.3217 -0.2754 -0.4101
 8858SOL    HW238211   0.297   3.182   9.404 -0.3478  1.4258 -0.7412
 8859SOL     OW38212   1.506   2.755  10.903 -0.3395 -0.0552 -0.3845
 8859SOL    HW138213   1.535   2.805  10.827 -2.3284  2.3658  0.4351
 8859SOL    HW238214   1.590   2.714  10.922 -0.4296 -0.4799 -0.8735
 8860SOL     OW38215   1.800   1.065  17.336 -0.8069  0.0590  0.5531
 8860SOL    HW138216   1.780   1.087  17.245 -4.0856  1.5927  1.6721
 8860SOL    HW238217   1.843   0.981  17.318  1.6560  0.8775  2.5278
 8861SOL     OW38218   0.720   1.237   5.232  0.5593 -0.6424  0.2872
 8861SOL    HW138219   0.797   1.237   5.175  0.3971 -0.7811  0.0652
 8861SOL    HW238220   0.753   1.246   5.321 -0.0600 -1.4132  0.5904
 8862SOL     OW38221   1.652   3.198   4.731 -0.0073 -0.0387 -0.2985
 8862SOL    HW138222   1.736   3.161   4.704 -0.4115 -1.1330 -0.0593
 8862SOL    HW238223   1.606   3.120   4.761 -1.6404  1.4733  1.1420
 8863SOL     OW38224   4.116   3.194   9.128  0.3101  0.0896 -0.6295
 8863SOL    HW138225   4.031   3.237   9.115  0.2916 -0.1254 -1.2159
 8863SOL    HW238226   4.163   3.255   9.186 -2.6813  0.1283  1.7352
 8864SOL     OW38227   2.984   1.455   2.453 -0.2114  0.4252  0.1133
 8864SOL    HW138228   2.955   1.433   2.541 -0.8308 -0.0132 -0.2015
 8864SOL    HW238229   2.941   1.538   2.431 -0.2425 -0.0584 -1.6254
 8865SOL     OW38230   4.424   1.345   1.276  0.2551  0.0856  0.1821
 8865SOL    HW138231   4.369   1.424   1.277 -0.7216 -0.6350  2.1686
 8865SOL    HW238232   4.466   1.355   1.191  0.7662 -0.9627  0.3123
 8866SOL     OW38233   1.032   3.479   7.907 -0.2722  0.2523  0.0200
 8866SOL    HW138234   1.048   3.456   7.999  0.5767 -1.8453 -0.6498
 8866SOL    HW238235   1.115   3.487   7.860 -0.9954 -0.1895 -1.3379
 8867SOL     OW38236   4.088   4.686   5.226 -0.1930 -0.2417  0.1213
 8867SOL    HW138237   4.065   0.014   5.162 -0.8349 -0.1690  0.4296
 8867SOL    HW238238   4.174   4.715   5.258 -0.5798 -1.2490  2.1030
 8868SOL     OW38239   0.864   1.802   5.815  0.1566 -0.2195 -0.0123
 8868SOL    HW138240   0.840   1.725   5.764 -0.5948  1.1739 -1.7481
 8868SOL    HW238241   0.943   1.824   5.766  0.4606 -1.1983  0.0453
 8869SOL     OW38242   4.302   2.854  13.001  0.2550 -0.1230 -0.0128
 8869SOL    HW138243   4.285   2.943  12.972 -0.2994 -0.5931 -1.1627
 8869SOL    HW238244   4.394   2.849  12.974  0.4850  0.0465  0.7452
 8870SOL     OW38245   1.195   3.515   3.915 -0.2621  0.1995 -0.2636
 8870SOL    HW138246   1.233   3.495   3.830  1.2467 -2.2210  0.9893
 8870SOL    HW238247   1.154   3.429   3.916 -0.7150  0.4098 -0.8751
 8871SOL     OW38248   0.705   2.719   7.869 -0.6117  0.4240 -0.1736
 8871SOL    HW138249   0.698   2.695   7.961 -0.6720 -0.8155 -0.4932
 8871SOL    HW238250   0.728   2.810   7.882  0.3421  0.2426 -0.5758
 8872SOL     OW38251   2.552   4.334   3.984  0.0037  0.1090  0.0098
 8872SOL    HW138252   2.528   4.401   3.920  2.1459  0.3838 -0.5120
 8872SOL    HW238253   2.516   4.380   4.060 -1.4657  0.2499 -0.7859
 8873SOL     OW38254   3.255   2.401   6.743  0.1141 -0.1650  0.1157
 8873SOL    HW138255   3.261   2.309   6.769 -0.1485 -0.0852  0.4639
 8873SOL    HW238256   3.348   2.422   6.754  0.5015 -1.4355 -0.7562
 8874SOL     OW38257   4.238   0.335   7.359  0.2094  0.2247  0.3514
 8874SOL    HW138258   4.227   0.419   7.316 -0.2011 -1.1709 -2.2398
 8874SOL    HW238259   4.167   0.334   7.423  1.5611  1.7792  1.8817
 8875SOL     OW38260   1.412   1.657   4.101 -0.1566  0.5606  0.4650
 8875SOL    HW138261   1.504   1.641   4.077  0.3355  2.1701  1.2335
 8875SOL    HW238262   1.380   1.568   4.091 -2.2422  1.0694  2.7121
 8876SOL     OW38263   0.290   1.380  16.250 -0.1251 -0.1121 -0.3230
 8876SOL    HW138264   0.224   1.437  16.209 -0.2925 -1.1743 -1.5074
 8876SOL    HW238265   0.299   1.312  16.184  1.0274  0.5744 -0.8901
 8877SOL     OW38266   4.676   1.399   1.706 -0.6004  0.2117 -0.1828
 8877SOL    HW138267   4.629   1.338   1.764  2.1535 -0.7171  1.0659
 8877SOL    HW238268   4.711   1.332   1.648 -0.2980  0.6891 -0.5435
 8878SOL     OW38269   3.256   2.912   1.987  0.1893 -0.3332  0.1862
 8878SOL    HW138270   3.211   2.994   2.007 -1.9366 -1.0795 -1.5667
 8878SOL    HW238271   3.273   2.873   2.073  1.5075  0.4804  0.2884
 8879SOL     OW38272   1.855   1.769   8.300 -0.0882  0.1192 -0.3671
 8879SOL    HW138273   1.935   1.738   8.342  0.5044  0.8863 -0.9151
 8879SOL    HW238274   1.820   1.823   8.371 -0.3650  0.0411 -0.4449
 8880SOL     OW38275   4.156   4.713   6.970 -0.0184 -0.0815 -0.0184
 8880SOL    HW138276   4.174   0.048   6.912 -0.1079  1.6466  2.1454
 8880SOL    HW238277   4.172   0.026   7.049  0.8563 -2.4008  1.2924
 8881SOL     OW38278   3.486   0.443   6.966  0.4678  0.6443  0.8221
 8881SOL    HW138279   3.479   0.382   7.039 -0.0803  0.8619  0.9507
 8881SOL    HW238280   3.394   0.466   6.950  0.0113 -2.1039 -0.6399
 8882SOL     OW38281   1.975   4.488  16.383  0.5835  0.2347  0.3798
 8882SOL    HW138282   1.918   4.420  16.418 -0.9947  0.7477 -1.2153
 8882SOL    HW238283   1.981   4.459  16.292  1.1521 -0.1377  0.5339
 8883SOL     OW38284   1.063   1.945  11.289 -0.1294 -0.4774  0.1408
 8883SOL    HW138285   1.148   1.937  11.247 -0.6799 -1.3650 -0.7983
 8883SOL    HW238286   1.088   1.970  11.378 -0.7830  2.3856 -0.4769
 8884SOL     OW38287   2.785   4.416  17.675 -0.0647 -0.2435 -0.7413
 8884SOL    HW138288   2.815   4.418  17.585  1.1575  0.7124 -0.3134
 8884SOL    HW238289   2.759   4.508  17.689  0.3912 -0.4602  1.5938
 8885SOL     OW38290   2.024   3.495  17.711  0.1701 -0.1329 -0.5769
 8885SOL    HW138291   1.946   3.513  17.659  1.0050  1.4126 -1.2914
 8885SOL    HW238292   2.074   3.576  17.717 -1.1549  0.5634  0.8315
 8886SOL     OW38293   0.751   1.530  10.290  0.3474  0.2928 -0.1545
 8886SOL    HW138294   0.735   1.512  10.383  0.5291 -0.1825 -0.2125
 8886SOL    HW238295   0.715   1.451  10.249 -3.0706  1.4741  0.5198
 8887SOL     OW38296   2.612   0.444   8.097 -0.3390 -0.4460  0.3532
 8887SOL    HW138297   2.611   0.349   8.105  0.8449 -0.4694  0.2206
 8887SOL    HW238298   2.693   0.456   8.048  0.9964 -0.8912  2.4554
 8888SOL     OW38299   3.151   2.891  13.697  0.5216 -0.1507 -0.1456
 8888SOL    HW138300   3.056   2.886  13.705  0.9202 -1.5701  3.7392
 8888SOL    HW238301   3.163   2.942  13.617 -1.4586  2.3726  1.1662
 8889SOL     OW38302   2.515   3.103   0.236  0.2084  0.0827  0.2920
 8889SOL    HW138303   2.477   3.149   0.311 -0.7790 -0.3104  0.0322
 8889SOL    HW238304   2.525   3.180   0.180 -1.5941 -0.1208 -0.3212
 8890SOL     OW38305   3.719   0.198  11.033  0.1591 -0.1549  0.4640
 8890SOL    HW138306   3.812   0.204  11.056  0.4955 -2.1235 -0.3850
 8890SOL    HW238307   3.677   0.230  11.113  0.5647  0.6531  0.3620
 8891SOL     OW38308   3.321   0.614  15.946  0.1687 -0.4678  0.2980
 8891SOL    HW138309   3.366   0.564  16.013 -0.6254 -1.4172  0.1170
 8891SOL    HW238310   3.343   0.701  15.981 -1.9946  1.6304 -3.4792
 8892SOL     OW38311   1.726   0.571   3.416  0.0532  0.0197  0.2916
 8892SOL    HW138312   1.670   0.494   3.423 -1.1426  0.8728  0.1151
 8892SOL    HW238313   1.756   0.561   3.326 -1.0682 -0.4289 -0.0233
 8893SOL     OW38314   3.241   1.360   2.416 -0.5101  0.1495  0.3542
 8893SOL    HW138315   3.279   1.416   2.348  1.7874 -1.0907  0.6087
 8893SOL    HW238316   3.160   1.410   2.427  0.4455  1.8459 -0.2964
 8894SOL     OW38317   0.144   3.602  11.256 -0.0714 -0.2767  0.0952
 8894SOL    HW138318   0.051   3.606  11.237 -0.0731 -2.2722 -0.3504
 8894SOL    HW238319   0.163   3.674  11.316 -0.7526 -0.7835  0.9120
 8895SOL     OW38320   2.435   2.764   1.045 -0.1037  0.9400 -0.2863
 8895SOL    HW138321   2.353   2.793   1.004 -0.1931  0.2223 -0.6070
 8895SOL    HW238322   2.481   2.740   0.965 -2.4799 -3.7968 -0.1890
 8896SOL     OW38323   3.716   0.383   8.912  0.1428  0.5147  0.2071
 8896SOL    HW138324   3.671   0.396   8.995  1.6391 -0.9828  1.2473
 8896SOL    HW238325   3.691   0.461   8.862 -2.3368 -0.6396 -0.3591
 8897SOL     OW38326   1.945   3.365  10.908  0.4192 -0.2835 -0.0387
 8897SOL    HW138327   2.031   3.375  10.867  0.1837  1.2457 -0.1640
 8897SOL    HW238328   1.899   3.440  10.869  2.2465 -0.2845 -2.2055
 8898SOL     OW38329   0.916   0.541   1.412  0.6458 -0.3384  0.6926
 8898SOL    HW138330   0.909   0.504   1.324  0.4091 -2.0495  1.4184
 8898SOL    HW238331   0.825   0.560   1.435  0.3995  0.0762 -0.6095
 8899SOL     OW38332   3.507   3.039   4.026 -0.2712  0.1476  0.6922
 8899SOL    HW138333   3.520   2.956   4.071  1.2162 -1.9206 -3.5573
 8899SOL    HW238334   3.594   3.076   4.036 -0.1452 -0.5776  2.2564
 8900SOL     OW38335   3.676   3.517   7.298  0.5082  0.0628 -1.0767
 8900SOL    HW138336   3.611   3.447   7.303 -1.4405  2.2084  4.0257
 8900SOL    HW238337   3.758   3.468   7.307 -0.8626 -2.0494 -0.3174
 8901SOL     OW38338   3.704   2.336   4.809  0.1227  0.2642 -0.3553
 8901SOL    HW138339   3.763   2.292   4.748 -1.8949 -1.3654 -1.1259
 8901SOL    HW238340   3.654   2.397   4.754  1.3002  1.0588 -0.5285
 8902SOL     OW38341   3.124   2.076   2.467 -0.3928  0.6796  0.1056
 8902SOL    HW138342   3.107   1.998   2.415 -1.5521  0.3975  0.9285
 8902SOL    HW238343   3.151   2.140   2.401 -0.3576  0.9744  0.4015
 8903SOL     OW38344   3.526   2.302   6.699 -0.6048  0.7215  0.3796
 8903SOL    HW138345   3.604   2.247   6.694  0.3497  2.0685  0.5331
 8903SOL    HW238346   3.512   2.344   6.614 -0.0311 -0.2144 -0.1708
 8904SOL     OW38347   3.781   0.316   7.108 -0.1817  0.4766  0.5165
 8904SOL    HW138348   3.740   0.389   7.060 -1.1318  0.2990  1.0502
 8904SOL    HW238349   3.872   0.314   7.078  0.0042  1.0760  1.0467
 8905SOL     OW38350   3.090   2.032   3.793  0.1558  0.0011  0.0633
 8905SOL    HW138351   3.042   2.111   3.771 -0.3831  0.0063  1.2795
 8905SOL    HW238352   3.029   1.979   3.843  0.4337  1.0504  1.5260
 8906SOL     OW38353   0.391   4.049  10.005  0.0372 -0.0567  0.4082
 8906SOL    HW138354   0.401   4.034  10.099  0.6556 -1.6896  0.0711
 8906SOL    HW238355   0.381   4.144   9.995 -0.0152 -0.2474 -1.3396
 8907SOL     OW38356   3.733   0.085   5.521  0.1883  0.0149 -0.0553
 8907SOL    HW138357   3.820   0.121   5.542 -0.4065  1.2482  0.2880
 8907SOL    HW238358   3.687   0.159   5.483 -0.8776 -0.3215  0.5892
 8908SOL     OW38359   3.121   0.588  16.272 -0.2874 -0.4809 -0.6739
 8908SOL    HW138360   3.144   0.520  16.209  0.9505 -0.1961 -0.5420
 8908SOL    HW238361   3.080   0.537  16.342 -1.0718 -1.3301 -1.7519
 8909SOL     OW38362   4.409   4.651   8.361 -0.4649  0.0190  0.5601
 8909SOL    HW138363   4.463   4.673   8.285 -0.2225  0.4412  0.8499
 8909SOL    HW238364   4.430   4.562   8.390 -3.0229 -1.7895 -3.1671
 8910SOL     OW38365   1.364   3.918   1.989 -1.1459  0.4516  0.0242
 8910SOL    HW138366   1.380   4.011   1.972 -1.2019  0.3086 -0.8292
 8910SOL    HW238367   1.327   3.919   2.077 -1.0524 -1.9530  0.0863
 8911SOL     OW38368   3.279   2.856   4.779  0.0318 -0.1516  0.0566
 8911SOL    HW138369   3.251   2.814   4.698  0.4374 -0.5691  0.1344
 8911SOL    HW238370   3.202   2.896   4.819 -0.7126 -0.6744 -0.8718
 8912SOL     OW38371   2.242   3.633   9.326  0.7444  0.8084 -0.5383
 8912SOL    HW138372   2.234   3.587   9.409 -0.4900  2.2698  0.1672
 8912SOL    HW238373   2.249   3.556   9.270  0.2368 -0.3905  1.0622
 8913SOL     OW38374   1.741   2.267   3.458  0.0988  0.3068 -0.5094
 8913SOL    HW138375   1.750   2.190   3.515  0.7757  2.6465  2.5177
 8913SOL    HW238376   1.773   2.340   3.511  1.2519  0.1975 -1.0607
 8914SOL     OW38377   1.927   1.570   2.973  0.5778 -0.2513 -0.8734
 8914SOL    HW138378   1.864   1.533   3.035 -0.3034  1.9654 -0.4351
 8914SOL    HW238379   2.004   1.557   3.028 -0.2499  1.4449  0.7061
 8915SOL     OW38380   0.458   4.230   2.458  0.4699 -1.1412 -0.5698
 8915SOL    HW138381   0.469   4.275   2.542 -0.8682 -1.6290 -0.1330
 8915SOL    HW238382   0.470   4.296   2.390 -0.6208  0.6199  0.9204
 8916SOL     OW38383   0.944   2.708   8.413  0.1861 -0.1542  0.1373
 8916SOL    HW138384   0.980   2.661   8.338  0.2970 -0.0481  0.1238
 8916SOL    HW238385   0.940   2.632   8.472 -2.0558 -0.2848 -0.2085
 8917SOL     OW38386   1.448   1.532   7.817 -0.1668  0.0298  0.5604
 8917SOL    HW138387   1.430   1.548   7.725  0.5087 -0.2212  0.3857
 8917SOL    HW238388   1.361   1.535   7.856  0.1864  0.9055  1.2798
 8918SOL     OW38389   4.598   2.688   7.498  0.5837 -0.2031  0.4844
 8918SOL    HW138390   4.680   2.640   7.487  0.7571 -0.1149  1.4672
 8918SOL    HW238391   4.548   2.622   7.546  0.1424  0.5368  1.0370
 8919SOL     OW38392   3.404   0.496   8.143 -0.3074  0.2132 -0.5544
 8919SOL    HW138393   3.459   0.547   8.084 -0.3014  1.4174  0.4898
 8919SOL    HW238394   3.315   0.507   8.110 -0.9730 -4.2813 -0.3012
 8920SOL     OW38395   0.323   2.551   7.303  0.1248 -0.8007  0.8739
 8920SOL    HW138396   0.330   2.478   7.241 -1.0124  0.5531 -0.8475
 8920SOL    HW238397   0.407   2.534   7.345  0.7302 -0.3702 -0.1708
 8921SOL     OW38398   1.574   3.252   2.783  0.0547  0.2447 -0.0088
 8921SOL    HW138399   1.661   3.288   2.764  0.0063  0.2883 -0.1510
 8921SOL    HW238400   1.573   3.157   2.774 -4.0866  0.5140 -2.5132
 8922SOL     OW38401   2.997   3.773   7.480 -0.0710  0.2529  0.2557
 8922SOL    HW138402   3.073   3.728   7.517  0.8790  0.4345 -1.4562
 8922SOL    HW238403   2.927   3.709   7.486 -0.5715  0.6174 -1.5152
 8923SOL     OW38404   4.514   2.822   8.939  0.4471  0.7947  0.1744
 8923SOL    HW138405   4.591   2.871   8.910  2.0134 -1.0559  1.1793
 8923SOL    HW238406   4.456   2.895   8.961 -0.4569  0.2130 -0.2764
 8924SOL     OW38407   3.613   3.786   9.644  0.3492  0.3154  0.4837
 8924SOL    HW138408   3.701   3.750   9.639  0.4217  0.5929 -0.1830
 8924SOL    HW238409   3.588   3.761   9.555  0.8658  1.2725  0.0800
 8925SOL     OW38410   4.321   1.471   1.736 -0.7356 -0.1343  0.2927
 8925SOL    HW138411   4.369   1.433   1.809  0.6660  0.4072 -0.3499
 8925SOL    HW238412   4.306   1.563   1.756 -2.4443 -0.8908  2.4722
 8926SOL     OW38413   2.507   3.665  17.144  0.3382 -0.1958  0.2676
 8926SOL    HW138414   2.445   3.684  17.215 -0.7419  1.6002 -1.1777
 8926SOL    HW238415   2.584   3.646  17.198 -2.0432  0.5286  3.9151
 8927SOL     OW38416   3.769   4.413   4.356  0.3879  0.6926  0.5851
 8927SOL    HW138417   3.786   4.430   4.264 -0.4392  2.8977  0.8307
 8927SOL    HW238418   3.699   4.478   4.362  0.1231  0.3977  0.6997
 8928SOL     OW38419   2.627   1.546   4.143 -0.0155  0.2746 -0.2207
 8928SOL    HW138420   2.662   1.629   4.111  2.2513 -0.8402 -0.6564
 8928SOL    HW238421   2.563   1.578   4.206  0.3702  1.7066 -0.5519
 8929SOL     OW38422   0.738   1.568   7.238  0.2871  0.2722  0.0257
 8929SOL    HW138423   0.739   1.631   7.166 -0.5988 -0.5452 -0.7153
 8929SOL    HW238424   0.646   1.550   7.259 -0.3602  1.1391 -2.0355
 8930SOL     OW38425   1.000   3.414   1.464 -0.0845  0.0956  0.0765
 8930SOL    HW138426   1.067   3.479   1.448 -0.0375 -0.1778 -0.8360
 8930SOL    HW238427   0.930   3.439   1.403 -0.4768  2.3959  1.4620
 8931SOL     OW38428   4.569   4.734  13.791 -0.0747  0.2035  0.3942
 8931SOL    HW138429   4.599   4.694  13.872  0.7364 -2.5167 -1.2331
 8931SOL    HW238430   4.594   4.662  13.733  1.1337  1.5927 -0.7857
 8932SOL     OW38431   0.403   0.746   5.262  0.0880  0.4587 -0.1350
 8932SOL    HW138432   0.398   0.666   5.315 -2.0494  2.9424  3.3582
 8932SOL    HW238433   0.418   0.805   5.335 -1.0798 -1.1567  1.4042
 8933SOL     OW38434   0.750   2.135  12.553  0.5634 -0.7888 -0.3097
 8933SOL    HW138435   0.716   2.112  12.466  1.6606  1.5165 -1.3569
 8933SOL    HW238436   0.665   2.140  12.595 -0.0323 -0.5911 -1.5319
 8934SOL     OW38437   3.855   4.015   5.911  0.3639  0.2086 -0.6435
 8934SOL    HW138438   3.932   4.072   5.915  0.5986 -0.0829 -1.0940
 8934SOL    HW238439   3.803   4.063   5.976  0.9507 -0.3343  0.2295
 8935SOL     OW38440   2.986   1.808  12.793 -0.5471  0.1512  0.5590
 8935SOL    HW138441   2.921   1.831  12.860 -0.3481  1.6765  0.2286
 8935SOL    HW238442   3.001   1.888  12.743  0.9485  0.3340  1.3060
 8936SOL     OW38443   1.730   2.751   1.908  0.1951 -0.6625  0.2823
 8936SOL    HW138444   1.793   2.820   1.929 -0.0410 -0.8639  1.6284
 8936SOL    HW238445   1.785   2.674   1.896  0.2452 -0.4495 -0.8682
 8937SOL     OW38446   0.919   2.051   3.917  0.4076 -0.6127  0.0168
 8937SOL    HW138447   0.879   2.011   3.840  0.8357 -1.5130  0.2662
 8937SOL    HW238448   0.942   2.132   3.871 -2.8491 -0.1299 -0.7689
 8938SOL     OW38449   2.929   0.458   2.334 -0.1375  0.3587 -0.3371
 8938SOL    HW138450   2.853   0.512   2.312 -0.2786  0.0991 -0.4826
 8938SOL    HW238451   2.971   0.511   2.402  0.3822  0.1576 -0.5102
 8939SOL     OW38452   4.405   2.816   4.821  0.6162 -0.0826 -0.3025
 8939SOL    HW138453   4.383   2.908   4.804 -1.3911 -0.5888 -0.4583
 8939SOL    HW238454   4.495   2.814   4.787  0.0775  0.0322 -1.7473
 8940SOL     OW38455   1.603   3.047   9.014  0.4440 -0.4719  0.0486
 8940SOL    HW138456   1.529   3.072   8.959  0.5233  0.3023  0.2984
 8940SOL    HW238457   1.658   3.122   8.993 -1.6036  0.5660 -1.4948
 8941SOL     OW38458   0.604   0.761   1.602  0.1932 -0.3473 -0.4407
 8941SOL    HW138459   0.674   0.827   1.598 -2.1302  2.0999 -0.9443
 8941SOL    HW238460   0.589   0.738   1.693 -1.9109 -0.1099 -0.7344
 8942SOL     OW38461   4.477   2.988   0.653  0.6303 -0.2185  0.1338
 8942SOL    HW138462   4.476   3.070   0.604 -1.1377 -1.1039 -1.2733
 8942SOL    HW238463   4.517   3.028   0.731 -2.4371  1.7272  0.7060
 8943SOL     OW38464   1.218   1.497  10.929  0.4267 -0.4515  0.7441
 8943SOL    HW138465   1.307   1.480  10.961  0.9070 -0.9489 -0.8736
 8943SOL    HW238466   1.244   1.493  10.837 -0.6740  0.1518  0.4057
 8944SOL     OW38467   2.979   1.681   3.128 -0.1363 -0.0623 -0.3660
 8944SOL    HW138468   2.899   1.687   3.077 -0.2141  1.8739 -0.0177
 8944SOL    HW238469   3.001   1.590   3.108  1.3308  0.1207  0.3798
 8945SOL     OW38470   1.908   4.418  14.374  0.6052 -0.7588 -0.0073
 8945SOL    HW138471   1.887   4.487  14.437  0.3251 -0.4925 -0.3903
 8945SOL    HW238472   1.829   4.364  14.369 -0.9558  1.6630 -1.2790
 8946SOL     OW38473   2.074   0.563   4.738  0.3958  0.5586  0.4601
 8946SOL    HW138474   2.168   0.575   4.755  0.4320  0.0981  0.5771
 8946SOL    HW238475   2.034   0.637   4.784 -0.3504 -0.6923  1.8137
 8947SOL     OW38476   1.821   0.976   2.689 -0.1684  0.2480  0.2183
 8947SOL    HW138477   1.897   0.918   2.685  0.5237  1.2236 -0.7408
 8947SOL    HW238478   1.790   0.989   2.599  0.6064 -1.3734 -0.2922
 8948SOL     OW38479   2.182   1.862   3.425  0.2230 -0.3073  0.3992
 8948SOL    HW138480   2.243   1.902   3.363 -0.1574 -2.2042 -1.1818
 8948SOL    HW238481   2.103   1.879   3.373 -0.5372 -2.0359  0.9784
 8949SOL     OW38482   1.820   3.647   2.829  0.1014 -0.2692  0.1779
 8949SOL    HW138483   1.843   3.557   2.804  4.3233  0.0629  2.7948
 8949SOL    HW238484   1.877   3.665   2.904 -1.1510  1.3616  0.7437
 8950SOL     OW38485   2.475   3.848   5.984 -0.2063 -0.0134 -0.1077
 8950SOL    HW138486   2.482   3.850   6.079  2.6530 -0.2767 -0.3225
 8950SOL    HW238487   2.549   3.906   5.964 -1.4927  1.2764 -1.2013
 8951SOL     OW38488   2.066   3.399   3.215  0.2074  0.0759  0.4297
 8951SOL    HW138489   2.081   3.332   3.148  2.9035  0.0830  1.0453
 8951SOL    HW238490   2.130   3.468   3.201  0.1339 -0.4000 -2.3166
 8952SOL     OW38491   0.253   2.610   7.721 -0.6027 -0.4353 -0.0547
 8952SOL    HW138492   0.314   2.541   7.749  2.5993  1.2596 -2.9989
 8952SOL    HW238493   0.290   2.634   7.637 -1.6643  0.5147 -0.2550
 8953SOL     OW38494   1.135   4.509   4.856 -0.4085 -0.3689 -0.8171
 8953SOL    HW138495   1.101   4.441   4.798 -0.8045 -1.1974  0.3753
 8953SOL    HW238496   1.162   4.576   4.794  2.5282 -1.1397 -0.3841
 8954SOL     OW38497   3.684   4.234   4.888  0.0181  0.1201 -0.4514
 8954SOL    HW138498   3.759   4.214   4.832 -0.6265  0.4734 -1.4589
 8954SOL    HW238499   3.689   4.164   4.953 -1.1595  0.5473  0.0966
 8955SOL     OW38500   2.387   2.520   2.765 -0.6160 -0.1366  0.3488
 8955SOL    HW138501   2.307   2.480   2.798  0.0876 -1.5524  0.3480
 8955SOL    HW238502   2.445   2.501   2.839 -1.0665 -0.4573  0.6153
 8956SOL     OW38503   2.347   2.321   3.240  0.1669 -0.0930 -0.8432
 8956SOL    HW138504   2.343   2.226   3.249  1.2051  0.0932  1.5885
 8956SOL    HW238505   2.271   2.350   3.290  2.1599 -0.8617  2.6418
 8957SOL     OW38506   0.094   0.925   8.079 -0.1372  0.5318  0.0937
 8957SOL    HW138507   0.142   0.848   8.112 -0.1118  0.5614  0.1255
 8957SOL    HW238508   0.003   0.893   8.084  0.9650 -2.5079  0.5820
 8958SOL     OW38509   1.575   0.293   6.020  0.2150 -0.7640  0.4000
 8958SOL    HW138510   1.669   0.306   6.008 -0.4374  0.3616 -3.3350
 8958SOL    HW238511   1.536   0.373   5.985 -0.1771 -1.1784 -0.0890
 8959SOL     OW38512   1.332   2.797  11.970  0.2678  0.2278  0.3024
 8959SOL    HW138513   1.404   2.739  11.992  1.8301  1.4708 -1.6197
 8959SOL    HW238514   1.324   2.855  12.046 -0.2174 -1.1348  1.2905
 8960SOL     OW38515   4.438   4.463   8.726 -0.3817  0.4660 -0.0124
 8960SOL    HW138516   4.355   4.455   8.773 -0.0434 -0.0900  0.4762
 8960SOL    HW238517   4.398   4.463   8.639 -1.4884  1.6629  0.4888
 8961SOL     OW38518   3.808   3.580   0.277  0.1611  0.2653  0.0080
 8961SOL    HW138519   3.794   3.522   0.202 -1.2207  1.3571 -0.5710
 8961SOL    HW238520   3.728   3.631   0.264 -0.8032 -2.0507 -3.0260
 8962SOL     OW38521   2.153   2.760   9.968 -0.3498 -0.0830 -0.2863
 8962SOL    HW138522   2.167   2.668   9.947 -0.8709  0.0910 -1.3677
 8962SOL    HW238523   2.232   2.780  10.019  0.0623 -1.0806 -0.5331
 8963SOL     OW38524   2.516   2.976  16.080  0.0106  0.5262 -0.4168
 8963SOL    HW138525   2.483   3.045  16.137 -0.3886 -1.5593  1.8437
 8963SOL    HW238526   2.514   3.013  15.992  1.3666  0.8432 -0.3156
 8964SOL     OW38527   4.684   3.440  11.461  0.0868  0.2317  0.1652
 8964SOL    HW138528   4.701   3.509  11.525 -0.8349 -0.8250  1.5342
 8964SOL    HW238529   4.651   3.489  11.385 -1.0130  0.2368  0.6475
 8965SOL     OW38530   4.059   1.353   7.619 -0.5552  0.3365 -0.3034
 8965SOL    HW138531   4.082   1.370   7.711  0.3628  0.1601 -0.5014
 8965SOL    HW238532   4.105   1.271   7.601 -0.7861  0.3831 -1.0953
 8966SOL     OW38533   2.749   1.827   5.729  0.3444 -0.0652  0.0229
 8966SOL    HW138534   2.665   1.789   5.753  0.4759 -1.3344 -1.5564
 8966SOL    HW238535   2.793   1.745   5.707 -0.8433 -0.8928  0.8041
 8967SOL     OW38536   1.905   2.332   8.185  0.5704 -0.3089 -0.0862
 8967SOL    HW138537   1.993   2.299   8.204 -0.2031 -0.7595  2.7088
 8967SOL    HW238538   1.920   2.425   8.201 -0.2288 -0.1245 -0.4305
 8968SOL     OW38539   3.347   1.726  15.392  0.3469  0.0404 -0.7257
 8968SOL    HW138540   3.410   1.748  15.323  2.5241 -1.1858  0.8577
 8968SOL    HW238541   3.388   1.778  15.461  1.4059 -0.3128 -1.0947
 8969SOL     OW38542   4.724   2.894   9.427 -0.7626  0.3105 -0.3392
 8969SOL    HW138543   0.037   2.857   9.499 -0.8770 -1.4367 -1.1587
 8969SOL    HW238544   4.651   2.937   9.472 -1.8454 -0.1897 -1.6169
 8970SOL     OW38545   4.075   4.045   8.642  0.1364  0.3057 -0.6263
 8970SOL    HW138546   4.018   4.024   8.568 -0.7904 -0.3658  0.2765
 8970SOL    HW238547   4.063   3.976   8.707 -2.9410  1.1110 -0.3328
 8971SOL     OW38548   2.221   1.454   5.165  0.1358  0.2067  0.4041
 8971SOL    HW138549   2.218   1.549   5.155  1.9879  0.4760  2.4114
 8971SOL    HW238550   2.275   1.428   5.090 -2.5732 -0.0546 -1.4306
 8972SOL     OW38551   4.044   1.877  12.646 -0.3043 -0.5372  0.1420
 8972SOL    HW138552   3.981   1.898  12.576  0.7041 -1.8101 -1.1513
 8972SOL    HW238553   4.006   1.934  12.712 -0.6525 -0.6071  0.0030
 8973SOL     OW38554   0.085   2.891   8.407  0.4851 -0.6441 -0.0600
 8973SOL    HW138555   0.176   2.918   8.390  0.6917 -1.7532 -0.6955
 8973SOL    HW238556   0.071   2.827   8.338 -0.5474 -0.4730  0.0002
 8974SOL     OW38557   4.293   0.136   0.524 -0.0948  0.4518  0.1913
 8974SOL    HW138558   4.301   0.210   0.583  2.3182 -0.7872  1.4441
 8974SOL    HW238559   4.205   0.105   0.546  0.5379 -0.8400  0.9025
 8975SOL     OW38560   2.525   4.445   7.070  0.1035 -1.3136 -0.3126
 8975SOL    HW138561   2.446   4.393   7.055  0.6531 -1.2867 -3.2846
 8975SOL    HW238562   2.531   4.478   6.981 -2.3823  0.7640  0.3126
 8976SOL     OW38563   0.915   4.373   9.791  0.0065 -0.3629  0.2184
 8976SOL    HW138564   0.926   4.369   9.886 -0.6870  2.1836  0.4238
 8976SOL    HW238565   0.996   4.407   9.753  0.7284 -1.8515  0.4640
 8977SOL     OW38566   3.322   0.896   4.984 -0.6169  0.2546  0.2436
 8977SOL    HW138567   3.295   0.804   4.978 -1.3865  0.5958 -1.6054
 8977SOL    HW238568   3.287   0.927   4.900  1.4250  1.0243 -0.3030
 8978SOL     OW38569   4.404   4.151   5.563 -0.1065  0.0399 -0.2670
 8978SOL    HW138570   4.367   4.075   5.519 -0.1146 -0.5856  0.8326
 8978SOL    HW238571   4.371   4.136   5.652  0.9146  0.3853  0.1748
 8979SOL     OW38572   2.340   4.216  13.914 -0.1100  0.5303  0.6167
 8979SOL    HW138573   2.381   4.202  13.828 -1.5474 -0.7828  0.1576
 8979SOL    HW238574   2.278   4.285  13.890  1.4576  0.9954 -2.1463
 8980SOL     OW38575   2.014   3.846   7.671  0.3972 -0.3999  0.5746
 8980SOL    HW138576   2.058   3.922   7.631  1.5436 -0.7634  1.1673
 8980SOL    HW238577   1.962   3.896   7.734 -0.6307  0.5419 -1.0052
 8981SOL     OW38578   2.495   1.584   7.297  0.8095 -0.0123  0.0454
 8981SOL    HW138579   2.558   1.636   7.247  1.2636 -1.1075 -0.5417
 8981SOL    HW238580   2.414   1.594   7.247  0.5858  2.9152  1.0048
 8982SOL     OW38581   2.368   0.948   3.391  0.6151  0.0934 -0.5863
 8982SOL    HW138582   2.282   0.975   3.425  0.6124 -1.4349  0.6050
 8982SOL    HW238583   2.407   0.889   3.456  1.2780  0.0918 -0.9850
 8983SOL     OW38584   4.432   3.714  11.423 -0.3645  0.1017 -0.1841
 8983SOL    HW138585   4.471   3.747  11.342 -1.7207  0.1251 -0.8276
 8983SOL    HW238586   4.513   3.709  11.474 -0.3243 -1.5811 -0.4149
 8984SOL     OW38587   2.604   1.584   7.865  0.1152  0.0134  0.1353
 8984SOL    HW138588   2.524   1.631   7.889  0.5685  1.3686 -1.0085
 8984SOL    HW238589   2.614   1.588   7.770 -0.8375 -0.1338  0.0278
 8985SOL     OW38590   2.770   2.603   8.402  0.2209  0.2603 -0.1809
 8985SOL    HW138591   2.798   2.537   8.465  0.1253  0.0665 -0.3420
 8985SOL    HW238592   2.816   2.682   8.431  0.8325  0.5330 -1.8651
 8986SOL     OW38593   4.467   3.455  14.260 -0.2992 -0.3093  0.1410
 8986SOL    HW138594   4.542   3.476  14.205 -1.1908  0.8173 -0.6485
 8986SOL    HW238595   4.509   3.406  14.331 -0.8334 -0.7638  0.1383
 8987SOL     OW38596   2.818   0.569   5.876 -0.2383 -0.0867  0.1934
 8987SOL    HW138597   2.833   0.592   5.968  1.7478 -0.4181 -0.0455
 8987SOL    HW238598   2.793   0.479   5.897 -2.0283 -0.3670 -3.1484
 8988SOL     OW38599   2.471   1.132   4.422 -0.4906  0.3840  0.6479
 8988SOL    HW138600   2.474   1.200   4.490 -0.0002 -0.2972  1.3055
 8988SOL    HW238601   2.392   1.086   4.450 -0.3765 -0.1353  0.1178
 8989SOL     OW38602   0.595   1.457  16.599  0.3936 -0.1848 -0.1889
 8989SOL    HW138603   0.556   1.504  16.526 -2.0899 -0.5636  0.8964
 8989SOL    HW238604   0.527   1.478  16.663  1.1359 -0.0410  0.5546
 8990SOL     OW38605   3.364   0.872  15.221 -0.5628  0.2905  0.1131
 8990SOL    HW138606   3.366   0.932  15.147 -0.3686  1.2413  0.8994
 8990SOL    HW238607   3.347   0.927  15.298 -0.6625  0.7994 -0.2785
 8991SOL     OW38608   3.332   3.961  10.339  0.8827 -0.3895  0.0348
 8991SOL    HW138609   3.401   4.027  10.341  2.1527 -1.7300 -0.0295
 8991SOL    HW238610   3.284   4.015  10.402  0.1884  0.0922 -0.9000
 8992SOL     OW38611   4.153   3.763   8.443 -0.8266  0.2019  0.3711
 8992SOL    HW138612   4.242   3.745   8.473 -0.3650  1.5510 -0.1651
 8992SOL    HW238613   4.150   3.859   8.434 -0.3186  0.0544 -1.2847
 8993SOL     OW38614   1.044   0.848   2.876  0.3006 -0.0218  0.0464
 8993SOL    HW138615   0.997   0.811   2.951 -1.9384  2.0130 -0.3558
 8993SOL    HW238616   1.105   0.778   2.852  0.4901  0.5751 -1.2120
 8994SOL     OW38617   4.652   1.879   8.354 -0.3296 -0.7070 -0.0175
 8994SOL    HW138618   4.671   1.839   8.439 -0.1611 -0.7306 -0.0669
 8994SOL    HW238619   4.718   1.948   8.349  0.2707 -1.2571  0.4083
 8995SOL     OW38620   0.666   4.195   7.138  0.3318 -0.6577  0.1075
 8995SOL    HW138621   0.684   4.201   7.044  1.6354  0.9179  0.4650
 8995SOL    HW238622   0.580   4.155   7.125  0.4174 -0.1069 -2.2047
 8996SOL     OW38623   1.083   0.793   6.919  0.3355  0.0878 -0.2727
 8996SOL    HW138624   1.178   0.785   6.911  0.2359  0.1405 -1.5187
 8996SOL    HW238625   1.064   0.700   6.906 -0.9639 -0.0102  2.3127
 8997SOL     OW38626   3.434   0.731  12.250  0.2607 -0.0469  0.4703
 8997SOL    HW138627   3.431   0.739  12.154 -2.2002  0.4442  0.5946
 8997SOL    HW238628   3.475   0.814  12.276 -0.2789  0.1322  0.7483
 8998SOL     OW38629   3.949   3.239   0.353  0.0597 -0.4137  0.4995
 8998SOL    HW138630   3.868   3.209   0.312  1.1907  0.0772 -2.0531
 8998SOL    HW238631   4.002   3.184   0.296  1.2409  2.6668 -1.3330
 8999SOL     OW38632   1.265   0.187   5.367  0.3826 -0.1746  0.4739
 8999SOL    HW138633   1.224   0.113   5.410 -0.6572  0.8693  1.2766
 8999SOL    HW238634   1.310   0.134   5.302  2.0146  1.9245 -0.1393
 9000SOL     OW38635   2.893   0.539  14.356  0.5486  0.2934 -0.3461
 9000SOL    HW138636   2.803   0.571  14.355  0.7693  0.9050 -0.5101
 9000SOL    HW238637   2.926   0.581  14.435 -0.4721  0.0100  0.2305
 9001SOL     OW38638   1.307   0.785   4.818 -0.4275  0.2640  0.9280
 9001SOL    HW138639   1.382   0.765   4.762 -2.3090  0.6877 -1.7820
 9001SOL    HW238640   1.281   0.695   4.840  0.2963 -0.3881 -0.8782
 9002SOL     OW38641   1.777   0.261   7.705 -0.1540  0.0107  0.0788
 9002SOL    HW138642   1.817   0.183   7.744 -1.0194 -0.6285 -0.3092
 9002SOL    HW238643   1.687   0.260   7.737  0.6115  1.5220  2.2678
 9003SOL     OW38644   1.504   0.889   2.716 -0.5784  0.0135  0.5648
 9003SOL    HW138645   1.453   0.917   2.792  2.4044  1.5819  1.9746
 9003SOL    HW238646   1.436   0.885   2.648  1.0216 -0.7063 -1.0118
 9004SOL     OW38647   0.776   1.839   8.687 -0.3196 -0.0154 -0.2795
 9004SOL    HW138648   0.741   1.858   8.774  0.5718  0.0436  0.0616
 9004SOL    HW238649   0.870   1.844   8.700 -0.1619  3.1566 -2.8084
 9005SOL     OW38650   4.061   2.462   7.928 -0.5870  0.1027  0.0065
 9005SOL    HW138651   4.079   2.508   8.010  2.4883  1.3963 -1.3770
 9005SOL    HW238652   4.040   2.371   7.949 -0.0482 -0.0250  0.0086
 9006SOL     OW38653   0.668   0.602   8.267  0.0844 -0.6958 -0.0987
 9006SOL    HW138654   0.595   0.561   8.313  0.9808 -1.3631  0.7403
 9006SOL    HW238655   0.707   0.535   8.211  2.2684  0.4434  0.0645
 9007SOL     OW38656   0.818   2.788   3.492  0.0224 -0.6962 -0.0241
 9007SOL    HW138657   0.726   2.774   3.469 -0.1089  1.3548 -0.7554
 9007SOL    HW238658   0.843   2.842   3.417 -0.8408 -3.3097 -2.2418
 9008SOL     OW38659   3.055   2.760  11.055 -0.0050 -0.6461  0.0035
 9008SOL    HW138660   3.029   2.758  10.963  0.3731 -1.3541 -0.0875
 9008SOL    HW238661   3.003   2.688  11.092  0.5058 -0.2062  1.5698
 9009SOL     OW38662   1.247   3.063   2.672  0.3871 -0.4662  0.0779
 9009SOL    HW138663   1.328   3.040   2.627 -0.2489 -0.5226 -1.0501
 9009SOL    HW238664   1.186   3.067   2.598  1.0257  2.2629 -0.2927
 9010SOL     OW38665   0.085   0.537   9.934  0.4693  0.0863  0.7499
 9010SOL    HW138666   0.065   0.455   9.979  0.1051  0.2835  0.9498
 9010SOL    HW238667   0.108   0.605   9.997 -0.7976 -0.9725  2.3672
 9011SOL     OW38668   2.543   0.264   7.177  0.2668  0.1608  0.2832
 9011SOL    HW138669   2.510   0.203   7.111  1.0364 -0.2132  0.2411
 9011SOL    HW238670   2.603   0.318   7.126  0.3943 -1.4486 -1.2844
 9012SOL     OW38671   1.236   0.426   6.101  0.3726  0.0810 -0.1150
 9012SOL    HW138672   1.233   0.522   6.109  0.7934  0.0013  0.8922
 9012SOL    HW238673   1.275   0.410   6.186  2.2457 -0.7188 -1.1215
 9013SOL     OW38674   0.720   4.232   7.535 -0.2218 -0.0567  0.3397
 9013SOL    HW138675   0.714   4.136   7.539  0.3536 -0.0626  1.0291
 9013SOL    HW238676   0.814   4.247   7.536 -0.1325 -0.6385  1.0436
 9014SOL     OW38677   2.078   4.312   5.945  0.3888  0.1379 -0.2267
 9014SOL    HW138678   2.002   4.260   5.919  1.6638 -2.0294  0.3677
 9014SOL    HW238679   2.102   4.348   5.860  0.3593  2.0892  0.6038
 9015SOL     OW38680   2.011   2.030   4.694  0.1244  0.1832 -0.4758
 9015SOL    HW138681   1.975   1.950   4.730 -0.8866  1.2565  0.8872
 9015SOL    HW238682   1.947   2.088   4.735 -0.9161  1.8310 -4.3508
 9016SOL     OW38683   1.043   4.440   2.734 -0.1151  0.0015 -0.3582
 9016SOL    HW138684   0.976   4.501   2.702  0.6308  0.6309 -0.7011
 9016SOL    HW238685   1.061   4.477   2.821  0.3723 -1.3817  0.1185
 9017SOL     OW38686   3.530   2.722   4.756  0.1897  0.2940 -0.1773
 9017SOL    HW138687   3.538   2.750   4.847  0.2795 -1.8554  0.4677
 9017SOL    HW238688   3.445   2.764   4.741 -0.1440 -1.0359 -2.1032
 9018SOL     OW38689   3.000   0.305   0.711 -0.0111 -0.6032  0.4511
 9018SOL    HW138690   3.024   0.258   0.632 -0.5567 -2.2022  1.2448
 9018SOL    HW238691   3.044   0.264   0.785  1.1076  1.6345  1.0348
 9019SOL     OW38692   1.838   1.291   5.329  0.2627  0.0200  0.5685
 9019SOL    HW138693   1.806   1.327   5.246  0.4420  1.1823  1.0008
 9019SOL    HW238694   1.807   1.201   5.325 -0.3632  0.1802  1.5526
 9020SOL     OW38695   0.886   0.115  16.907 -0.1896 -0.2931 -0.2114
 9020SOL    HW138696   0.873   0.125  17.002 -0.5493  0.0051 -0.2932
 9020SOL    HW238697   0.982   0.113  16.903 -0.2862 -1.7038 -2.0994
 9021SOL     OW38698   3.994   4.259   8.273  0.7197  0.4046  0.2719
 9021SOL    HW138699   4.071   4.310   8.246 -1.3373  2.8131 -1.0694
 9021SOL    HW238700   4.041   4.194   8.326 -0.3003 -2.0044 -1.8079
 9022SOL     OW38701   1.941   1.309  13.885 -0.0789  0.1457  0.4144
 9022SOL    HW138702   1.961   1.337  13.975 -0.4497  4.3567 -0.8374
 9022SOL    HW238703   2.031   1.280  13.865  0.0970  1.1847 -0.2836
 9023SOL     OW38704   2.486   3.115  17.522  0.1613  0.2026 -0.4034
 9023SOL    HW138705   2.405   3.076  17.555  0.6801 -0.5707 -0.0409
 9023SOL    HW238706   2.512   3.059  17.449  2.4436 -0.1542  0.6954
 9024SOL     OW38707   0.252   3.520   9.662 -0.2434  0.4999 -0.1635
 9024SOL    HW138708   0.261   3.572   9.582 -0.2218  0.6316 -0.0743
 9024SOL    HW238709   0.326   3.553   9.712 -1.7018  3.1938  0.2340
 9025SOL     OW38710   4.701   0.342   6.259  0.2743  0.5012  0.7336
 9025SOL    HW138711   4.649   0.407   6.307 -2.4989 -1.2998  0.2250
 9025SOL    HW238712   4.720   0.285   6.334  0.6372 -0.7234 -0.2990
 9026SOL     OW38713   0.044   3.733   7.282 -0.0778  0.0231  1.1534
 9026SOL    HW138714   0.023   3.641   7.265  3.9394 -0.8848  1.1233
 9026SOL    HW238715   4.700   3.772   7.254  0.8388 -0.1780 -1.7811
 9027SOL     OW38716   4.710   0.140  17.631 -0.0794  0.2100  0.0208
 9027SOL    HW138717   4.711   0.121  17.537 -1.2564 -0.2006  0.0960
 9027SOL    HW238718   4.738   0.051  17.653 -0.9842 -0.5931 -2.0867
 9028SOL     OW38719   3.954   0.693  12.830  0.5938  0.5506 -0.3915
 9028SOL    HW138720   3.999   0.667  12.910 -1.7469 -0.1383  0.6998
 9028SOL    HW238721   3.993   0.628  12.772 -0.3379 -0.7861  0.4806
 9029SOL     OW38722   0.804   4.147   9.675  0.1158  0.4319  0.3400
 9029SOL    HW138723   0.847   4.217   9.724 -1.3060  0.8271  1.0153
 9029SOL    HW238724   0.879   4.100   9.639 -0.2138 -0.4491  0.8221
 9030SOL     OW38725   3.528   4.584   1.171  0.2871 -0.4331  0.1765
 9030SOL    HW138726   3.586   4.659   1.159  0.0335 -0.2105  0.3405
 9030SOL    HW238727   3.480   4.588   1.089 -1.0539  0.2017  0.9901
 9031SOL     OW38728   1.634   0.805   1.001  0.4009 -0.0296 -0.6982
 9031SOL    HW138729   1.722   0.767   1.002  1.4721  2.4673  0.3929
 9031SOL    HW238730   1.647   0.866   0.928 -0.1652  2.2122  1.0785
 9032SOL     OW38731   0.608   4.624   9.462  0.1586 -0.1060  0.2023
 9032SOL    HW138732   0.697   4.594   9.483  0.1608 -0.8642 -0.8725
 9032SOL    HW238733   0.601   4.710   9.504  1.7056 -0.5557  1.4086
 9033SOL     OW38734   2.134   2.564   8.008 -0.0937  0.0626  0.3097
 9033SOL    HW138735   2.060   2.618   8.034  2.4984  3.5267  0.3719
 9033SOL    HW238736   2.173   2.555   8.095  1.2711  3.5640  0.0506
 9034SOL     OW38737   0.341   2.126   0.434 -0.5829 -0.2409  0.1992
 9034SOL    HW138738   0.382   2.128   0.347  2.2081  0.7031  1.5169
 9034SOL    HW238739   0.248   2.111   0.420 -0.3821 -0.2963 -1.0587
 9035SOL     OW38740   0.938   3.685   5.262  0.5243  0.2153  0.4028
 9035SOL    HW138741   0.892   3.701   5.344  0.5494  0.6457  0.3295
 9035SOL    HW238742   1.024   3.669   5.301  0.6883 -1.0259 -0.4522
 9036SOL     OW38743   2.849   1.954   3.136 -0.0565  0.3900 -0.5476
 9036SOL    HW138744   2.910   1.889   3.172 -0.8072 -1.1584 -2.0501
 9036SOL    HW238745   2.852   2.028   3.196 -2.5476  0.7850 -0.9206
 9037SOL     OW38746   0.068   2.493   6.285 -0.2012  0.4056  0.1134
 9037SOL    HW138747   4.729   2.497   6.341  1.4571 -0.4754  2.4547
 9037SOL    HW238748   0.034   2.435   6.216  1.0494 -0.7375  0.4547
 9038SOL     OW38749   1.527   1.556   2.712  0.4777  0.6890 -0.1186
 9038SOL    HW138750   1.587   1.582   2.642 -0.3153 -0.6123 -1.2909
 9038SOL    HW238751   1.588   1.510   2.770  0.4409 -2.7968 -2.8695
 9039SOL     OW38752   4.443   1.088   1.040 -0.4681  0.0997  0.3228
 9039SOL    HW138753   4.468   1.150   1.108 -1.0170  1.2848 -0.5469
 9039SOL    HW238754   4.495   1.118   0.966  1.4086 -3.3807  0.2274
 9040SOL     OW38755   3.079   0.507  15.799 -0.1673 -0.1168  0.2408
 9040SOL    HW138756   3.162   0.554  15.799 -0.2814  0.0740  0.9921
 9040SOL    HW238757   3.020   0.579  15.820 -0.9373 -1.2703  2.0912
 9041SOL     OW38758   3.694   2.019   4.303 -0.0200  0.2758 -0.1326
 9041SOL    HW138759   3.692   2.056   4.392 -1.5029 -0.9285  0.3483
 9041SOL    HW238760   3.601   2.023   4.280  0.4624 -2.3275 -2.5460
 9042SOL     OW38761   2.240   1.440   2.327  0.2628  0.5056  0.0436
 9042SOL    HW138762   2.198   1.464   2.244 -1.9916 -0.8574  0.8195
 9042SOL    HW238763   2.294   1.368   2.293  1.7606  0.9497  1.4456
 9043SOL     OW38764   1.329   1.286   8.717 -0.0197 -0.2332  0.0083
 9043SOL    HW138765   1.251   1.278   8.662  0.0349 -2.5197  0.2638
 9043SOL    HW238766   1.329   1.198   8.755  0.1140  0.0953  0.7623
 9044SOL     OW38767   2.990   1.791  11.362  0.9004 -0.0324 -0.3788
 9044SOL    HW138768   3.033   1.747  11.289 -0.3304 -2.0023  0.0965
 9044SOL    HW238769   2.901   1.758  11.375  1.1559 -0.9354 -0.9161
 9045SOL     OW38770   1.878   2.643   0.454  0.0341  0.1384 -0.2621
 9045SOL    HW138771   1.960   2.596   0.440 -0.9995 -1.3266 -1.3551
 9045SOL    HW238772   1.851   2.593   0.531  1.7800 -2.7403 -1.5286
 9046SOL     OW38773   1.794   3.138   3.178 -0.3535 -0.4218 -0.1711
 9046SOL    HW138774   1.757   3.189   3.106  0.6426 -0.7485 -0.9103
 9046SOL    HW238775   1.852   3.206   3.211 -1.0835 -0.5085  1.2619
 9047SOL     OW38776   0.655   1.031   4.114  0.2730  0.6254 -0.0200
 9047SOL    HW138777   0.628   1.120   4.091  1.2889  0.7770 -0.6186
 9047SOL    HW238778   0.570   0.991   4.133  1.3648 -0.6409  2.1734
 9048SOL     OW38779   1.496   1.313   3.943  0.0559  0.2419  0.3962
 9048SOL    HW138780   1.503   1.364   3.862  0.2682 -0.8903 -0.3026
 9048SOL    HW238781   1.401   1.313   3.957 -0.1107 -1.1613 -0.6432
 9049SOL     OW38782   3.244   2.495  16.936 -0.4510 -0.2323  0.5067
 9049SOL    HW138783   3.312   2.543  16.984  0.6933  0.6028 -1.9623
 9049SOL    HW238784   3.233   2.425  17.001 -1.2010  0.7318  1.4061
 9050SOL     OW38785   0.228   2.760   9.088 -0.1872 -0.1680  0.2338
 9050SOL    HW138786   0.152   2.729   9.137 -0.7755  0.6449 -0.1842
 9050SOL    HW238787   0.295   2.736   9.152  0.4142 -1.8272 -0.9848
 9051SOL     OW38788   4.097   2.216   4.349 -0.3189 -0.0086 -0.1604
 9051SOL    HW138789   4.085   2.296   4.297 -0.2739  0.7465  1.0029
 9051SOL    HW238790   4.047   2.234   4.428 -0.2777  2.9676 -0.8105
 9052SOL     OW38791   2.776   4.417   3.404 -0.1501  0.1656 -0.1164
 9052SOL    HW138792   2.726   4.392   3.326  1.3937  1.2057 -1.4540
 9052SOL    HW238793   2.848   4.355   3.410 -0.4472 -0.0546  1.0103
 9053SOL     OW38794   3.396   4.568   8.498  0.2350 -0.0116 -0.3823
 9053SOL    HW138795   3.343   4.488   8.506  2.1605 -1.3814 -1.1855
 9053SOL    HW238796   3.460   4.563   8.568 -2.4131  1.2334  2.1428
 9054SOL     OW38797   3.535   0.489  15.819  0.2546 -0.0899 -0.3104
 9054SOL    HW138798   3.489   0.545  15.881  0.3699 -0.7130  0.3327
 9054SOL    HW238799   3.584   0.439  15.884  0.6241  1.7407  0.8086
 9055SOL     OW38800   1.946   3.963   4.601  0.5241 -0.1738  0.1049
 9055SOL    HW138801   1.917   4.024   4.533 -1.4942 -2.4534 -1.0677
 9055SOL    HW238802   2.040   3.949   4.587  0.3830 -1.6339  0.7220
 9056SOL     OW38803   0.833   0.730   8.764  0.4232 -0.1186 -0.3972
 9056SOL    HW138804   0.897   0.659   8.762  1.2089  0.5312  1.2525
 9056SOL    HW238805   0.878   0.800   8.812 -1.9001  0.6510  0.6847
 9057SOL     OW38806   3.567   4.254   6.786  0.3988 -0.0878 -0.3632
 9057SOL    HW138807   3.511   4.294   6.852 -0.3563  0.7754 -1.5229
 9057SOL    HW238808   3.506   4.261   6.713 -0.7733 -3.1528  0.3078
 9058SOL     OW38809   3.366   1.685   8.185 -0.3171 -0.1735  0.5376
 9058SOL    HW138810   3.377   1.734   8.103 -0.0850  2.7145  2.2627
 9058SOL    HW238811   3.344   1.595   8.164 -0.2601  0.1361 -0.8704
 9059SOL     OW38812   3.901   0.607   9.787 -0.5155 -1.0586 -0.4319
 9059SOL    HW138813   3.912   0.525   9.836 -1.1571 -1.1360 -0.4241
 9059SOL    HW238814   3.977   0.659   9.813 -0.6914 -0.5583 -0.9195
 9060SOL     OW38815   0.975   1.940   2.135  0.0052 -0.1177  0.2775
 9060SOL    HW138816   0.917   1.969   2.065 -0.5628  0.5739  1.0254
 9060SOL    HW238817   1.029   1.883   2.082 -0.5285  0.7937 -1.2392
 9061SOL     OW38818   2.716   2.107   1.395  0.6303  0.0696 -0.6763
 9061SOL    HW138819   2.625   2.109   1.368  1.2406  1.2374 -2.6853
 9061SOL    HW238820   2.711   2.087   1.489 -0.5110  2.5126 -0.2302
 9062SOL     OW38821   2.296   0.432   1.746  0.4380  0.2308  0.1051
 9062SOL    HW138822   2.265   0.359   1.800 -2.1191  2.0669  1.1082
 9062SOL    HW238823   2.284   0.401   1.656 -0.6404 -0.0564  0.3556
 9063SOL     OW38824   2.694   1.204   5.420 -0.4509 -0.0054 -0.3827
 9063SOL    HW138825   2.676   1.143   5.348 -1.7134  0.0750 -0.1344
 9063SOL    HW238826   2.613   1.186   5.467 -0.1159  0.0215  0.1931
 9064SOL     OW38827   4.220   2.617   4.756  0.9123 -0.0539 -0.1683
 9064SOL    HW138828   4.267   2.689   4.798  0.1289  0.4112 -0.1024
 9064SOL    HW238829   4.270   2.595   4.677 -0.4786  0.5792 -1.2201
 9065SOL     OW38830   0.269   3.506   2.818 -0.0054 -0.0035 -0.0804
 9065SOL    HW138831   0.206   3.455   2.767  2.0097 -1.8996 -0.7022
 9065SOL    HW238832   0.318   3.540   2.743 -3.0902  0.6843 -1.7629
 9066SOL     OW38833   3.388   2.899  10.063  0.1556 -0.2479 -0.1276
 9066SOL    HW138834   3.358   2.947  10.141 -1.9180 -0.3096 -0.9014
 9066SOL    HW238835   3.302   2.864  10.041  0.6726 -1.5364 -0.0810
 9067SOL     OW38836   1.347   2.749   5.490 -0.1672 -0.2941 -0.1126
 9067SOL    HW138837   1.431   2.790   5.470 -0.8012 -0.1287 -2.4253
 9067SOL    HW238838   1.297   2.816   5.537  1.7718  0.7463  0.4457
 9068SOL     OW38839   1.358   4.057  14.189 -0.3951  0.5757 -0.2594
 9068SOL    HW138840   1.432   4.000  14.168  0.0303  0.1075  2.4377
 9068SOL    HW238841   1.317   4.046  14.103 -1.3668 -0.2266  0.3088
 9069SOL     OW38842   4.335   2.470   2.875 -0.9661  0.2536 -0.5379
 9069SOL    HW138843   4.404   2.414   2.842  0.4725  1.1737  0.9077
 9069SOL    HW238844   4.274   2.466   2.802 -1.9329  2.0724  0.1586
 9070SOL     OW38845   1.315   0.385   0.009  0.5162 -0.2360 -0.1917
 9070SOL    HW138846   1.402   0.416   0.033 -0.5334  2.3125  0.3488
 9070SOL    HW238847   1.265   0.467   0.015  1.4105  0.2910  0.0245
 9071SOL     OW38848   0.191   2.074   6.573 -0.2159 -0.4718  0.3284
 9071SOL    HW138849   0.219   1.996   6.621 -1.0655 -0.5559  0.6903
 9071SOL    HW238850   0.269   2.092   6.521 -0.2360 -0.0426  0.4447
 9072SOL     OW38851   2.150   4.685  16.131 -0.1168 -0.0342 -0.0645
 9072SOL    HW138852   2.066   4.667  16.089 -1.0290  0.2887  1.6304
 9072SOL    HW238853   2.175   4.597  16.159 -1.1142 -0.1948  0.3098
 9073SOL     OW38854   2.399   2.055   7.301 -0.0332  0.0345 -0.5334
 9073SOL    HW138855   2.357   2.141   7.300  1.5412  0.7854 -1.7698
 9073SOL    HW238856   2.369   2.014   7.382  0.4778 -1.5966 -1.1559
 9074SOL     OW38857   0.478   0.215   7.383 -0.5819  0.6342  0.2987
 9074SOL    HW138858   0.544   0.155   7.348  0.5390  0.1115  3.2782
 9074SOL    HW238859   0.523   0.292   7.347  1.4434 -0.0210  1.3902
 9075SOL     OW38860   3.726   1.282   8.030  0.4609  0.6419  0.1737
 9075SOL    HW138861   3.738   1.187   8.034  1.7976  0.7922 -0.2276
 9075SOL    HW238862   3.778   1.290   7.950 -0.6086  0.1835 -0.5580
 9076SOL     OW38863   2.038   1.269   3.424  0.1430  0.0403 -0.1685
 9076SOL    HW138864   1.952   1.237   3.397  2.0370 -3.7444 -1.6055
 9076SOL    HW238865   2.048   1.326   3.347  0.6973  1.9665  1.3146
 9077SOL     OW38866   1.382   1.783   3.323  0.0413  0.3424  0.0673
 9077SOL    HW138867   1.449   1.717   3.303 -0.0668  0.3594 -0.3547
 9077SOL    HW238868   1.375   1.761   3.416  1.3819  0.0677  0.1046
 9078SOL     OW38869   2.067   0.223   8.198  0.3158  0.1551 -0.3398
 9078SOL    HW138870   1.988   0.277   8.203  0.6441  0.6507 -0.5318
 9078SOL    HW238871   2.095   0.249   8.110  2.4006  1.2439  0.6679
 9079SOL     OW38872   3.062   3.833   1.371 -0.2494  0.7914  0.0377
 9079SOL    HW138873   3.112   3.751   1.369  0.1709  1.0786 -1.3842
 9079SOL    HW238874   3.090   3.879   1.292  1.2698 -1.8060 -0.9373
 9080SOL     OW38875   1.360   4.472   9.290 -0.6679  1.0369  0.3630
 9080SOL    HW138876   1.453   4.494   9.293 -0.2687 -0.6814  0.1235
 9080SOL    HW238877   1.323   4.550   9.332 -0.0235 -0.1672  3.2341
 9081SOL     OW38878   3.249   1.121   1.179  0.0721  0.2340 -0.5958
 9081SOL    HW138879   3.334   1.132   1.136  0.4964  0.7947  0.3840
 9081SOL    HW238880   3.230   1.213   1.195  2.3056  0.9500 -1.9895
 9082SOL     OW38881   0.845   2.832  11.075  0.4037 -0.0557  0.3802
 9082SOL    HW138882   0.904   2.814  11.148  0.0656 -0.1220  0.6419
 9082SOL    HW238883   0.778   2.765  11.092  1.0555 -0.2125  2.3232
 9083SOL     OW38884   1.490   3.040   6.629  0.3681  0.2838  0.1025
 9083SOL    HW138885   1.558   3.047   6.562 -0.2415  1.7503 -0.3479
 9083SOL    HW238886   1.416   3.014   6.575 -1.3259  1.5816  1.7774
 9084SOL     OW38887   2.242   4.524   6.950  0.4063  0.1298 -0.5434
 9084SOL    HW138888   2.157   4.543   6.911  1.2185  2.0565 -1.3415
 9084SOL    HW238889   2.253   4.429   6.942 -0.4169  0.1125 -1.2990
 9085SOL     OW38890   0.736   0.270   1.815 -0.6310 -0.5286  0.4908
 9085SOL    HW138891   0.772   0.292   1.729  1.2715  0.9332  1.6643
 9085SOL    HW238892   0.645   0.249   1.791 -0.6048 -2.5654  2.1716
 9086SOL     OW38893   0.270   0.036   7.833  0.5339 -0.2874 -0.2435
 9086SOL    HW138894   0.285   0.130   7.820  2.6707 -0.5837 -0.0080
 9086SOL    HW238895   0.268   4.735   7.746 -1.3324  0.2179 -0.4306
 9087SOL     OW38896   0.629   0.188   4.211  0.5067 -0.5099  0.2335
 9087SOL    HW138897   0.595   0.232   4.133  0.5330 -1.4837 -0.3318
 9087SOL    HW238898   0.616   0.255   4.278  1.5312 -0.4633  0.3835
 9088SOL     OW38899   2.716   0.794   6.492  0.2151 -0.3485  0.5607
 9088SOL    HW138900   2.776   0.853   6.538  1.6375  0.0748 -1.8144
 9088SOL    HW238901   2.671   0.748   6.563  0.0497  0.8112  1.2084
 9089SOL     OW38902   3.593   2.392  15.144 -0.0455 -0.2147 -0.2385
 9089SOL    HW138903   3.573   2.469  15.091 -3.4877 -0.0555  1.2405
 9089SOL    HW238904   3.552   2.329  15.085 -1.1105 -1.1190  1.4566
 9090SOL     OW38905   2.061   3.192  14.804  0.2123 -0.4043 -0.1043
 9090SOL    HW138906   2.010   3.116  14.830  1.7368 -1.2533  0.4171
 9090SOL    HW238907   2.041   3.190  14.711  0.5950  1.0264 -0.2207
 9091SOL     OW38908   3.445   0.281   2.792 -1.0907  0.0515 -0.1252
 9091SOL    HW138909   3.428   0.299   2.700  1.6704  1.6537 -0.3156
 9091SOL    HW238910   3.364   0.327   2.818 -0.1499  0.8110  1.4454
 9092SOL     OW38911   4.691   0.149  12.504  0.6195  0.3081 -0.5182
 9092SOL    HW138912   4.695   0.066  12.552  0.7812 -0.4467 -1.8075
 9092SOL    HW238913   4.601   0.144  12.473  0.4830  0.6548 -0.1619
 9093SOL     OW38914   3.786   4.482   7.674  0.5539  0.2071  0.0701
 9093SOL    HW138915   3.752   4.446   7.756 -0.2039 -2.1835 -1.2786
 9093SOL    HW238916   3.836   4.405   7.646 -0.1674 -0.7043  1.2567
 9094SOL     OW38917   0.626   2.170   5.176  0.2221  0.0203  0.0602
 9094SOL    HW138918   0.647   2.078   5.189 -1.2280 -0.5509 -1.5299
 9094SOL    HW238919   0.579   2.185   5.258  0.0760  0.3007 -0.0741
 9095SOL     OW38920   1.254   4.542   7.156 -0.3029 -0.8879 -0.0037
 9095SOL    HW138921   1.227   4.626   7.118 -0.7605 -0.9994  0.0802
 9095SOL    HW238922   1.260   4.574   7.246  0.5366  0.3749 -0.4971
 9096SOL     OW38923   0.093   0.688   4.373  0.0102 -0.1293 -0.3573
 9096SOL    HW138924   0.179   0.672   4.411 -1.1124 -0.2483  2.1377
 9096SOL    HW238925   0.077   0.597   4.348  0.1659 -0.1396 -0.4197
 9097SOL     OW38926   3.859   3.657   9.605 -0.2006 -0.0342 -0.1908
 9097SOL    HW138927   3.937   3.623   9.562 -0.6429 -1.9896  0.5106
 9097SOL    HW238928   3.862   3.599   9.682 -0.7033  1.2684  0.8179
 9098SOL     OW38929   1.346   3.968  16.651 -0.0042 -0.1238  0.2392
 9098SOL    HW138930   1.440   3.950  16.650  0.0665  0.3601 -3.5472
 9098SOL    HW238931   1.316   3.914  16.578 -2.6203  3.4003 -1.2914
 9099SOL     OW38932   1.168   2.549   8.586  0.6729 -0.2101 -0.3862
 9099SOL    HW138933   1.075   2.555   8.566  0.8251  2.7172 -0.2409
 9099SOL    HW238934   1.180   2.457   8.610  1.4615  0.2100  0.8679
 9100SOL     OW38935   3.454   0.642   3.217 -0.1080  0.3956 -0.0381
 9100SOL    HW138936   3.516   0.654   3.288  0.6561  0.3318 -0.6896
 9100SOL    HW238937   3.507   0.672   3.142  0.9329  0.3183  0.6663
 9101SOL     OW38938   1.734   2.116   5.702  0.1012 -0.6408  0.2612
 9101SOL    HW138939   1.648   2.084   5.729 -0.0950 -1.4717 -1.3341
 9101SOL    HW238940   1.786   2.094   5.779  1.1362 -0.9312 -0.5121
 9102SOL     OW38941   4.246   4.701  13.809 -0.1538  0.7204 -0.1285
 9102SOL    HW138942   4.165   4.711  13.860  0.7213  0.0756  1.4043
 9102SOL    HW238943   4.299   0.028  13.855  0.1984 -0.5174  1.2453
 9103SOL     OW38944   2.688   1.617   6.403 -0.0108  0.1808 -0.7435
 9103SOL    HW138945   2.751   1.565   6.355  0.2751  1.2303 -1.5110
 9103SOL    HW238946   2.653   1.555   6.467  0.3754 -1.4974 -2.1723
 9104SOL     OW38947   2.557   4.192  16.196  0.1203  0.3373  0.1066
 9104SOL    HW138948   2.529   4.246  16.270  0.8116  0.2545  0.4299
 9104SOL    HW238949   2.581   4.109  16.238  1.0888  0.1293 -0.8755
 9105SOL     OW38950   3.814   1.981  15.340 -0.4498 -0.3701 -0.3150
 9105SOL    HW138951   3.892   1.928  15.324  0.5290  0.1251  2.8363
 9105SOL    HW238952   3.845   2.071  15.353  1.5218 -1.2190  0.8897
 9106SOL     OW38953   1.454   0.122   6.195 -0.2226 -0.2443  0.8478
 9106SOL    HW138954   1.380   0.176   6.224 -0.7852 -0.9093  0.6646
 9106SOL    HW238955   1.490   0.179   6.127 -1.1999  1.3389  1.6781
 9107SOL     OW38956   1.391   3.702   7.310  0.3459 -0.5592  0.1851
 9107SOL    HW138957   1.448   3.732   7.240 -0.1376 -0.7641 -0.2968
 9107SOL    HW238958   1.325   3.771   7.319 -0.4713 -1.3186  0.1164
 9108SOL     OW38959   0.647   0.134   5.552 -0.7182 -0.1352 -0.5195
 9108SOL    HW138960   0.672   0.104   5.464 -0.2486  1.3889 -0.9039
 9108SOL    HW238961   0.617   0.053   5.592 -0.8926  0.5604  0.7448
 9109SOL     OW38962   3.150   0.557   5.769  0.6655  0.1762 -0.0230
 9109SOL    HW138963   3.055   0.556   5.780  0.6881  0.4734  0.1994
 9109SOL    HW238964   3.163   0.487   5.705  0.6062 -1.6909  1.9911
 9110SOL     OW38965   1.298   3.936   6.644 -0.2679  0.6454 -0.1428
 9110SOL    HW138966   1.387   3.971   6.650  0.1326  0.1398 -2.9028
 9110SOL    HW238967   1.250   3.995   6.701  2.5908  0.4696  2.4881
 9111SOL     OW38968   2.888   2.082   3.360  0.2370 -0.5512 -0.3100
 9111SOL    HW138969   2.837   2.035   3.426 -0.7120  0.9369  0.0045
 9111SOL    HW238970   2.977   2.063   3.391  0.6770 -1.3106 -2.0113
 9112SOL     OW38971   0.434   1.510   2.974  0.6564  0.1611 -0.1746
 9112SOL    HW138972   0.358   1.567   2.985 -0.0754 -1.1440  1.6570
 9112SOL    HW238973   0.483   1.524   3.056 -1.3833  1.3406  0.8319
 9113SOL     OW38974   2.077   4.002   2.817  0.3904  0.1028  0.1066
 9113SOL    HW138975   2.139   3.944   2.860 -0.0958 -1.1584 -0.9045
 9113SOL    HW238976   2.111   4.004   2.727  1.2660 -0.3486  0.4321
 9114SOL     OW38977   0.499   0.323   2.516  0.4020 -0.3071 -0.6794
 9114SOL    HW138978   0.532   0.266   2.586 -0.6267  1.5433  1.3018
 9114SOL    HW238979   0.575   0.379   2.499 -0.4995  1.1300  0.0434
 9115SOL     OW38980   2.245   2.311  11.162  0.4488  0.6437  0.0374
 9115SOL    HW138981   2.267   2.394  11.205  0.5897 -0.1050  1.4078
 9115SOL    HW238982   2.307   2.249  11.201 -0.6343  1.4103  2.9155
 9116SOL     OW38983   2.351   4.035   2.493  0.1349 -0.1867  0.1978
 9116SOL    HW138984   2.373   3.957   2.544 -3.0257 -1.1012  0.1663
 9116SOL    HW238985   2.438   4.075   2.483 -0.8968  1.3316 -2.9182
 9117SOL     OW38986   3.883   3.570   3.344 -0.4562 -0.0039 -0.4913
 9117SOL    HW138987   3.854   3.530   3.262  4.8595  1.0279 -2.8707
 9117SOL    HW238988   3.966   3.523   3.354 -0.6295 -0.4680 -1.2147
 9118SOL     OW38989   2.872   4.008   7.464 -0.2019 -0.1396 -0.5290
 9118SOL    HW138990   2.916   3.925   7.482 -0.0703  0.1858  0.6772
 9118SOL    HW238991   2.780   3.982   7.459  0.2804 -1.5603 -1.9252
 9119SOL     OW38992   3.776   0.581  10.437 -0.8439  0.3167  0.7015
 9119SOL    HW138993   3.739   0.503  10.480  0.6604 -1.2988 -0.9383
 9119SOL    HW238994   3.798   0.534  10.356 -0.4633  1.0975  0.3582
 9120SOL     OW38995   1.617   1.529   6.999 -0.5836 -0.2947  0.1591
 9120SOL    HW138996   1.667   1.601   6.962  0.5859 -1.8365 -1.2575
 9120SOL    HW238997   1.603   1.568   7.085 -1.1586  1.3785 -0.7024
 9121SOL     OW38998   0.325   2.229  13.348 -0.0688 -0.3561  0.8370
 9121SOL    HW138999   0.308   2.215  13.255 -0.3037  0.2847  0.7870
 9121SOL    HW239000   0.301   2.142  13.381 -1.7453 -0.9898 -2.0993
 9122SOL     OW39001   3.308   1.067   8.608  0.4945 -0.2473  0.4309
 9122SOL    HW139002   3.382   1.048   8.551  1.3070  0.1349  1.3758
 9122SOL    HW239003   3.266   1.144   8.569  0.0868  0.0543  1.4477
 9123SOL     OW39004   3.360   2.008   5.841 -0.3493  0.2282  0.1360
 9123SOL    HW139005   3.413   1.929   5.826 -0.8258 -0.0426 -0.1523
 9123SOL    HW239006   3.308   1.978   5.916 -1.8747  1.0926 -0.5716
 9124SOL     OW39007   0.546   1.639   6.966 -0.3456  0.7256  0.0729
 9124SOL    HW139008   0.495   1.655   7.046 -2.1816 -1.1338 -0.7109
 9124SOL    HW239009   0.480   1.662   6.901 -0.4136  0.2280 -0.0390
 9125SOL     OW39010   3.211   0.340   6.455 -0.0426  0.1320  0.1989
 9125SOL    HW139011   3.161   0.339   6.536  1.5828 -0.0206  1.1845
 9125SOL    HW239012   3.166   0.278   6.397  1.7121 -1.0041  0.0750
 9126SOL     OW39013   3.511   4.101   8.433  0.1810  0.1654  0.0275
 9126SOL    HW139014   3.475   4.016   8.408  0.6046  0.4998 -1.6830
 9126SOL    HW239015   3.575   4.120   8.364  1.6967 -4.0381  0.2419
 9127SOL     OW39016   0.150   3.007   3.694 -0.9038 -0.9021 -0.7140
 9127SOL    HW139017   0.211   2.969   3.631  0.3761 -1.3524  0.7965
 9127SOL    HW239018   0.080   3.038   3.636  0.4370  1.0913 -1.2641
 9128SOL     OW39019   4.424   3.095   4.861  0.3784 -0.6383 -0.4523
 9128SOL    HW139020   4.455   3.079   4.772 -0.3197 -0.4669 -0.7250
 9128SOL    HW239021   4.489   3.162   4.884  0.5142 -1.5075  1.6941
 9129SOL     OW39022   2.824   2.777  12.903 -0.1239  0.2138  0.8087
 9129SOL    HW139023   2.780   2.845  12.853  0.2300 -0.7400 -0.8038
 9129SOL    HW239024   2.757   2.746  12.965 -0.4939  1.6911  1.1480
 9130SOL     OW39025   1.827   2.349   5.011  0.0761  0.1178 -0.0473
 9130SOL    HW139026   1.897   2.339   5.076 -0.1017 -0.3795  0.0635
 9130SOL    HW239027   1.748   2.352   5.066 -0.0830  1.3962 -0.3378
 9131SOL     OW39028   3.892   1.460   0.459  1.0654  0.3651 -0.3642
 9131SOL    HW139029   3.831   1.464   0.534 -0.0295  1.2264 -1.3065
 9131SOL    HW239030   3.933   1.545   0.447  0.5601  0.4948 -1.1468
 9132SOL     OW39031   2.580   2.687   5.773 -0.5674  0.3469  0.3086
 9132SOL    HW139032   2.487   2.694   5.796 -0.8954  1.6552 -1.3740
 9132SOL    HW239033   2.578   2.690   5.677 -4.1728  0.0157  0.3725
 9133SOL     OW39034   1.223   1.558   3.186  0.0676  0.5892 -0.4808
 9133SOL    HW139035   1.217   1.653   3.199  2.6664  0.7999 -0.7916
 9133SOL    HW239036   1.305   1.535   3.143  0.7156 -0.1077  1.1098
 9134SOL     OW39037   2.859   3.245   6.235 -0.1896 -0.1906 -0.4391
 9134SOL    HW139038   2.925   3.182   6.207 -1.7159 -1.3525 -1.4058
 9134SOL    HW239039   2.844   3.310   6.166  0.0503  1.5756  1.1544
 9135SOL     OW39040   4.341   2.299   8.708  0.3821  0.5194 -0.3531
 9135SOL    HW139041   4.288   2.378   8.718  2.2797  1.6438  0.9862
 9135SOL    HW239042   4.298   2.253   8.636  0.7798 -0.2989 -0.0666
 9136SOL     OW39043   3.662   2.126  15.544  0.1990 -0.3624 -0.2135
 9136SOL    HW139044   3.646   2.125  15.639  0.7937  0.8205 -0.1101
 9136SOL    HW239045   3.734   2.063  15.537 -0.7428 -1.7399  2.2269
 9137SOL     OW39046   3.839   0.241   6.262  0.5449  0.1116 -0.0101
 9137SOL    HW139047   3.858   0.152   6.232 -0.2102 -0.0616  0.0174
 9137SOL    HW239048   3.760   0.263   6.213 -0.5430 -0.0934  1.6075
 9138SOL     OW39049   2.360   4.415   8.210  0.7119 -0.1395  0.1935
 9138SOL    HW139050   2.286   4.355   8.215  0.3670  0.2204 -0.6064
 9138SOL    HW239051   2.372   4.440   8.302  0.1836  1.7688 -0.2520
 9139SOL     OW39052   3.570   4.662   8.268 -0.4194  0.2198 -0.0912
 9139SOL    HW139053   3.659   4.680   8.298 -0.0587 -1.4825 -0.1650
 9139SOL    HW239054   3.524   4.613   8.336  0.8015 -2.0427 -0.8918
 9140SOL     OW39055   2.327   1.132   4.793  0.4847 -0.1759  0.2053
 9140SOL    HW139056   2.399   1.069   4.786 -0.8116 -1.8385  2.0360
 9140SOL    HW239057   2.366   1.200   4.848  0.8340 -0.4808  0.3394
 9141SOL     OW39058   0.686   3.848   6.863 -0.7127 -0.5154  0.0217
 9141SOL    HW139059   0.768   3.799   6.865  0.8145  2.1399  0.8074
 9141SOL    HW239060   0.649   3.840   6.951  2.0908 -0.2765  1.1902
 9142SOL     OW39061   1.795   4.280   8.081  0.1039  0.3824 -0.3512
 9142SOL    HW139062   1.783   4.230   8.000  3.1212 -0.2742 -0.4287
 9142SOL    HW239063   1.839   4.209   8.129 -1.9579 -0.9742 -0.4678
 9143SOL     OW39064   4.546   2.677   3.784  0.0749  0.2638  0.5800
 9143SOL    HW139065   4.452   2.691   3.791  0.0324  1.0632 -1.4549
 9143SOL    HW239066   4.559   2.612   3.715 -0.3960  0.6452  0.1296
 9144SOL     OW39067   3.199   4.227   2.975  0.6106  0.4433  0.5212
 9144SOL    HW139068   3.185   4.133   2.984  0.4275  0.3548 -0.7485
 9144SOL    HW239069   3.202   4.244   2.881  2.0633  0.1946  0.5255
 9145SOL     OW39070   2.534   2.808   3.658  0.2394 -0.6692  0.3916
 9145SOL    HW139071   2.590   2.745   3.704  2.3385  0.2405 -0.9205
 9145SOL    HW239072   2.499   2.864   3.727  1.7003  0.5880  0.1108
 9146SOL     OW39073   2.167   1.429   6.645 -0.3872 -0.2969  0.3641
 9146SOL    HW139074   2.205   1.371   6.712 -1.5227 -0.5218  0.8016
 9146SOL    HW239075   2.095   1.371   6.620 -0.2564 -1.2424  2.1837
 9147SOL     OW39076   4.205   2.418   8.338 -0.1492  0.3217  0.0257
 9147SOL    HW139077   4.188   2.343   8.395  0.3541 -0.3517 -0.7134
 9147SOL    HW239078   4.301   2.416   8.341 -0.2303 -3.2131  0.2272
 9148SOL     OW39079   1.968   1.731  12.911  0.0457  0.0517  0.2370
 9148SOL    HW139080   1.984   1.715  13.004  0.7690 -0.8423 -0.0385
 9148SOL    HW239081   2.037   1.682  12.867  2.0287  3.0514  0.0489
 9149SOL     OW39082   2.629   2.065   8.202  0.0694 -0.0707 -0.0644
 9149SOL    HW139083   2.707   2.120   8.193  1.2490 -2.1088 -2.4446
 9149SOL    HW239084   2.667   1.981   8.175 -1.0112 -0.0449 -1.6866
 9150SOL     OW39085   3.727   0.717   8.352 -1.0585 -0.3229  0.5214
 9150SOL    HW139086   3.735   0.812   8.342  0.7218 -0.4028  1.2969
 9150SOL    HW239087   3.696   0.708   8.442  1.3755  0.5659  1.4373
 9151SOL     OW39088   2.658   4.574   6.279  0.5052  0.3530  0.3882
 9151SOL    HW139089   2.709   4.606   6.204 -2.3805  0.8180 -1.3667
 9151SOL    HW239090   2.612   4.503   6.235 -0.7832  0.2071  1.9477
 9152SOL     OW39091   3.964   2.759   7.175  0.2344 -0.2536 -0.5198
 9152SOL    HW139092   3.971   2.683   7.118 -1.3735 -2.3317  2.0237
 9152SOL    HW239093   4.051   2.750   7.215  0.1073 -0.9845 -0.4170
 9153SOL     OW39094   0.255   2.232  11.994 -0.2597  0.8365 -0.5849
 9153SOL    HW139095   0.231   2.147  11.959  2.4707 -0.6685  1.2405
 9153SOL    HW239096   0.209   2.288  11.932  1.1799  0.2168 -2.1997
 9154SOL     OW39097   2.587   0.622   5.337  0.4573 -0.2676 -0.0517
 9154SOL    HW139098   2.663   0.587   5.290 -0.6782 -0.6655 -1.6112
 9154SOL    HW239099   2.564   0.689   5.273 -2.7084 -1.5153 -0.2174
 9155SOL     OW39100   2.413   1.411  16.027 -0.0030 -0.0418  0.1098
 9155SOL    HW139101   2.394   1.320  16.052  0.2043 -0.4522 -1.2306
 9155SOL    HW239102   2.341   1.454  16.072  0.2628 -0.0554  0.5484
 9156SOL     OW39103   3.106   0.978  17.746  0.3822  0.2270  0.1888
 9156SOL    HW139104   3.011   0.983   0.003  0.2500 -0.6113 -0.6151
 9156SOL    HW239105   3.110   0.956  17.653 -0.2589  0.9257 -0.0059
 9157SOL     OW39106   2.485   4.195   5.441  0.0094  0.5694 -0.0869
 9157SOL    HW139107   2.506   4.181   5.349  2.4283 -0.5173  0.6168
 9157SOL    HW239108   2.468   4.289   5.447  2.0747  0.9248  0.2590
 9158SOL     OW39109   3.146   2.229   8.775 -0.5481  0.3667 -0.1710
 9158SOL    HW139110   3.125   2.160   8.712  0.4928 -2.4396  2.5514
 9158SOL    HW239111   3.237   2.254   8.760  0.0607 -1.2364  0.9196
 9159SOL     OW39112   2.465   1.132  13.548  0.4084 -0.1606 -0.3887
 9159SOL    HW139113   2.458   1.051  13.498 -2.3008 -1.2405  1.7658
 9159SOL    HW239114   2.385   1.171  13.512  0.5811  0.2926 -0.2821
 9160SOL     OW39115   1.222   0.986   8.193  0.3398 -0.9412 -0.2531
 9160SOL    HW139116   1.192   0.903   8.155 -0.9113 -0.4336 -0.3749
 9160SOL    HW239117   1.188   0.977   8.282 -0.3761  0.8822 -0.3467
 9161SOL     OW39118   3.492   0.335   7.247  0.9403  0.0540  0.0833
 9161SOL    HW139119   3.455   0.250   7.275 -0.9729  1.1739  0.9756
 9161SOL    HW239120   3.581   0.328   7.281  1.6103  0.3950 -1.6096
 9162SOL     OW39121   1.328   3.427   5.676 -0.4978  0.0489  0.2720
 9162SOL    HW139122   1.345   3.469   5.591 -3.6107 -0.3240 -0.5596
 9162SOL    HW239123   1.409   3.381   5.695 -0.0697  0.2517 -1.0585
 9163SOL     OW39124   0.686   3.548   5.394  0.0175 -0.8657  0.6164
 9163SOL    HW139125   0.623   3.494   5.442  0.2989 -1.5395  0.2357
 9163SOL    HW239126   0.712   3.477   5.334 -0.6772 -1.5103  1.0809
 9164SOL     OW39127   0.097   2.148   1.214  0.3017  0.5589 -0.0698
 9164SOL    HW139128   0.056   2.231   1.187 -1.0178 -0.2535 -0.5617
 9164SOL    HW239129   0.181   2.179   1.246  1.3067 -0.9732 -1.2274
 9165SOL     OW39130   3.188   4.638   5.929  0.6346 -0.0875  0.2475
 9165SOL    HW139131   3.255   4.700   5.959  0.8900  0.0538 -0.6153
 9165SOL    HW239132   3.205   4.568   5.992  1.0189 -0.9817 -0.8446
 9166SOL     OW39133   0.420   3.995   2.907 -0.0805  0.9011  1.0037
 9166SOL    HW139134   0.423   3.901   2.920  1.3383  0.8528  0.2672
 9166SOL    HW239135   0.325   3.998   2.894 -0.1610  1.7811  1.7645
 9167SOL     OW39136   1.440   0.657   3.357 -0.2478 -0.0459  0.9357
 9167SOL    HW139137   1.468   0.594   3.291  0.7094 -0.0136  1.3134
 9167SOL    HW239138   1.380   0.603   3.409 -3.0602  0.7488 -1.4568
 9168SOL     OW39139   0.048   0.667   2.158 -0.9418 -0.3057 -0.1280
 9168SOL    HW139140   0.137   0.667   2.121  0.3672  0.9295  3.0066
 9168SOL    HW239141   4.732   0.631   2.089 -1.9747 -0.5470  0.8284
 9169SOL     OW39142   1.541   3.949   5.428 -0.0552  0.1657 -0.0000
 9169SOL    HW139143   1.519   3.857   5.413  0.6386 -0.4940  3.0127
 9169SOL    HW239144   1.635   3.948   5.413  0.1985  0.9430  1.5953
 9170SOL     OW39145   0.913   1.778  16.549  0.1901  0.2182 -0.1735
 9170SOL    HW139146   0.829   1.812  16.519  0.3193  0.8472  0.1894
 9170SOL    HW239147   0.935   1.829  16.627  1.5143 -0.6735  0.0574
 9171SOL     OW39148   1.118   3.315  10.621 -0.2466  0.2228 -0.4193
 9171SOL    HW139149   1.082   3.397  10.654 -0.2175 -0.3078  0.9628
 9171SOL    HW239150   1.207   3.319  10.657 -0.2037  2.2884 -0.7764
 9172SOL     OW39151   4.119   4.239  11.386 -0.3951 -0.2685  0.1047
 9172SOL    HW139152   4.066   4.306  11.342  0.8554  0.9092  0.4224
 9172SOL    HW239153   4.129   4.278  11.472 -1.3857  1.9707 -0.7849
 9173SOL     OW39154   1.489   0.060   2.650 -0.0305  0.0131 -0.0992
 9173SOL    HW139155   1.489   0.156   2.647  0.5597  0.0366  0.5336
 9173SOL    HW239156   1.550   0.043   2.578  1.9573  2.3091  1.0274
 9174SOL     OW39157   4.643   2.905   6.830  0.3415  0.0886 -0.2195
 9174SOL    HW139158   4.692   2.987   6.828 -0.5512  0.6713  3.2433
 9174SOL    HW239159   4.702   2.846   6.877 -0.4854  1.7940  2.9250
 9175SOL     OW39160   2.398   1.699   5.071 -0.0590  0.1354 -0.2975
 9175SOL    HW139161   2.464   1.769   5.075  1.5271 -1.4079  0.5420
 9175SOL    HW239162   2.319   1.750   5.057 -0.7757 -0.8116  0.3564
 9176SOL     OW39163   4.441   0.627   8.925 -0.2094 -0.1441 -0.1005
 9176SOL    HW139164   4.517   0.591   8.971  2.2294  0.8464 -3.3189
 9176SOL    HW239165   4.396   0.661   9.002 -0.1249 -2.3067  0.9106
 9177SOL     OW39166   0.787   0.167  15.517  0.3963  0.5080  0.3026
 9177SOL    HW139167   0.834   0.103  15.463 -2.1557 -1.5449  0.5805
 9177SOL    HW239168   0.851   0.176  15.587  1.1789  2.5139 -0.6413
 9178SOL     OW39169   1.972   0.889   1.724  0.7178 -0.1272 -0.1166
 9178SOL    HW139170   1.977   0.793   1.716 -0.8200 -0.3814  2.1860
 9178SOL    HW239171   2.000   0.923   1.639 -1.1240  0.7473 -0.3617
 9179SOL     OW39172   4.585   1.822  12.620  0.4505  0.4950  0.8445
 9179SOL    HW139173   4.526   1.871  12.563  0.4785 -3.3937 -2.5037
 9179SOL    HW239174   4.519   1.779  12.672  0.7936 -0.8013  0.2010
 9180SOL     OW39175   2.258   4.710   7.332 -0.3201 -0.4319  0.0532
 9180SOL    HW139176   2.195   4.730   7.263  0.9779 -0.4482 -1.1561
 9180SOL    HW239177   2.336   4.681   7.283  0.0073  0.2889  0.1459
 9181SOL     OW39178   2.142   2.029   1.655 -0.1298 -0.2994  0.2333
 9181SOL    HW139179   2.065   2.079   1.681  0.7290  1.8404 -1.3605
 9181SOL    HW239180   2.127   2.025   1.561  1.3637  0.7096 -0.0549
 9182SOL     OW39181   3.625   4.100   9.653 -0.4494  0.6186  0.0852
 9182SOL    HW139182   3.532   4.123   9.643 -0.5522 -0.1524 -0.7113
 9182SOL    HW239183   3.612   4.034   9.722  0.2757  1.0901  0.6757
 9183SOL     OW39184   4.661   1.049   6.992 -0.0793 -0.2574  0.0223
 9183SOL    HW139185   0.006   1.091   6.975  0.1816 -0.5608  0.5555
 9183SOL    HW239186   4.622   1.098   7.064 -2.1208 -1.2134 -0.4106
 9184SOL     OW39187   1.744   0.566   2.347  0.8213 -0.6015 -0.5441
 9184SOL    HW139188   1.746   0.635   2.413  0.5949 -0.5114 -0.6320
 9184SOL    HW239189   1.687   0.607   2.281 -0.7139 -1.5047  0.2239
 9185SOL     OW39190   0.926   2.867   6.209 -0.0047  0.9544 -0.2333
 9185SOL    HW139191   0.881   2.901   6.287 -2.8596 -1.3599 -0.8688
 9185SOL    HW239192   0.849   2.845   6.156 -1.6958 -1.1650  3.1365
 9186SOL     OW39193   0.899   2.202   1.561  0.3479  0.1610  0.2456
 9186SOL    HW139194   0.976   2.154   1.592 -1.2189 -0.6790  2.8532
 9186SOL    HW239195   0.838   2.132   1.539  0.0007  0.0484  1.5318
 9187SOL     OW39196   3.773   3.656  10.070 -0.2511 -0.8103  0.1669
 9187SOL    HW139197   3.724   3.602  10.132  0.0991  0.5352  1.6090
 9187SOL    HW239198   3.721   3.733  10.092  1.4453  0.4775 -0.3124
 9188SOL     OW39199   2.294   3.710   0.992 -0.5042  0.2975 -0.6934
 9188SOL    HW139200   2.287   3.683   0.901 -0.8582  2.5712 -1.3284
 9188SOL    HW239201   2.374   3.762   0.997  0.7343 -1.6904  0.4104
 9189SOL     OW39202   2.040   0.800  14.812  0.0104 -0.0933 -0.0584
 9189SOL    HW139203   2.102   0.812  14.884  2.8351  2.6523 -2.9633
 9189SOL    HW239204   1.965   0.765  14.860  0.4990 -1.0714 -0.0030
 9190SOL     OW39205   2.690   0.591   1.269  0.0284  1.5435 -0.6012
 9190SOL    HW139206   2.745   0.545   1.206  0.6715  1.7910 -0.2232
 9190SOL    HW239207   2.736   0.579   1.352  0.3622  0.9774 -0.8729
 9191SOL     OW39208   4.616   1.299  13.974  0.0268  0.5419 -0.4573
 9191SOL    HW139209   4.693   1.348  13.944 -0.8190  1.5499 -0.9863
 9191SOL    HW239210   4.598   1.229  13.911  2.0995 -1.1924  0.8866
 9192SOL     OW39211   3.643   2.311   4.293  0.1374  0.2949  0.1852
 9192SOL    HW139212   3.583   2.240   4.273  0.1714  0.6620 -1.1830
 9192SOL    HW239213   3.721   2.284   4.244 -0.2526 -1.7726  0.7070
 9193SOL     OW39214   2.221   0.507   2.269  0.4883  0.7148  0.0070
 9193SOL    HW139215   2.315   0.495   2.279  0.1387 -1.3242  0.8439
 9193SOL    HW239216   2.183   0.423   2.293  3.2181 -0.6315 -0.3915
 9194SOL     OW39217   1.917   3.829   8.276 -0.2839 -0.3065  0.1227
 9194SOL    HW139218   1.862   3.781   8.214 -0.2964  1.4047 -1.1911
 9194SOL    HW239219   1.942   3.903   8.219 -1.4116  2.1127  2.7640
 9195SOL     OW39220   2.857   3.280   7.553 -0.5831  0.1614  0.0329
 9195SOL    HW139221   2.868   3.189   7.524 -1.4817  0.5979 -1.7210
 9195SOL    HW239222   2.894   3.339   7.488  3.2387 -1.7697  0.4608
 9196SOL     OW39223   3.905   1.207   2.229 -0.0445  0.3375  0.7711
 9196SOL    HW139224   3.951   1.226   2.147  0.1216  2.8104  1.4284
 9196SOL    HW239225   3.976   1.157   2.271 -1.6950 -0.9247  2.0375
 9197SOL     OW39226   1.254   4.042   0.984  0.3815  1.2163 -0.0473
 9197SOL    HW139227   1.322   3.977   0.996  1.2470  2.3273  1.0061
 9197SOL    HW239228   1.226   4.026   0.894  0.0052 -2.3944  0.7361
 9198SOL     OW39229   1.973   1.688  13.203  0.1179 -0.4510  0.0151
 9198SOL    HW139230   2.025   1.690  13.283  1.2947 -3.3518 -0.6611
 9198SOL    HW239231   1.962   1.593  13.190  0.6333 -0.6152  0.7993
 9199SOL     OW39232   0.967   1.583   2.434 -0.0638  0.5229 -0.2109
 9199SOL    HW139233   0.952   1.598   2.527  0.8768 -2.2709  0.4133
 9199SOL    HW239234   0.945   1.490   2.429 -0.5887  0.5699  1.4210
 9200SOL     OW39235   1.378   0.207  11.299  0.1188  0.2596 -0.1642
 9200SOL    HW139236   1.415   0.294  11.316 -1.5100  0.8661  0.2906
 9200SOL    HW239237   1.461   0.161  11.287  0.8860  1.0722  2.0593
 9201SOL     OW39238   4.176   1.074   8.137  0.3529  0.1024  0.4860
 9201SOL    HW139239   4.250   1.036   8.185  1.3965  1.6618  0.1066
 9201SOL    HW239240   4.213   1.152   8.094  2.0983 -1.3830 -0.7219
 9202SOL     OW39241   4.193   2.550   6.743  1.1783 -0.3316  0.3366
 9202SOL    HW139242   4.174   2.464   6.783 -1.6062  0.3883  0.5809
 9202SOL    HW239243   4.185   2.527   6.650 -1.6299 -1.8527  0.9485
 9203SOL     OW39244   3.395   0.578   8.672  0.1956  0.3159  0.1488
 9203SOL    HW139245   3.359   0.573   8.584 -1.6698  0.3535  0.9027
 9203SOL    HW239246   3.383   0.488   8.701  0.9245  0.6220  1.4206
 9204SOL     OW39247   3.923   3.763   2.325 -0.4432 -0.3728 -0.9096
 9204SOL    HW139248   3.950   3.673   2.343 -0.0948  0.1024  0.9567
 9204SOL    HW239249   3.869   3.774   2.403  0.5104 -0.2382 -0.2607
 9205SOL     OW39250   2.602   4.135   9.550 -0.4826 -0.2181  0.4602
 9205SOL    HW139251   2.599   4.063   9.612 -1.8664  1.0746  1.8618
 9205SOL    HW239252   2.558   4.100   9.472 -0.4572 -0.8187  0.7150
 9206SOL     OW39253   0.449   0.993   6.805 -0.2379 -0.1892 -0.5901
 9206SOL    HW139254   0.453   0.903   6.838 -0.0194  0.1092  0.1907
 9206SOL    HW239255   0.540   1.013   6.828  0.1142 -0.8799 -1.3597
 9207SOL     OW39256   2.178   1.163   6.249 -0.1709  0.4431 -0.4278
 9207SOL    HW139257   2.268   1.193   6.259 -0.0419 -0.2558  0.5653
 9207SOL    HW239258   2.130   1.246   6.253  1.4513  1.3815 -0.7922
 9208SOL     OW39259   1.536   4.323  14.090  0.0428  0.1001  0.0897
 9208SOL    HW139260   1.590   4.277  14.025 -0.4538 -1.2112  0.6240
 9208SOL    HW239261   1.474   4.251  14.097  0.8909 -0.5989  0.3854
 9209SOL     OW39262   1.048   0.040   9.476  0.7284 -0.2993  0.4004
 9209SOL    HW139263   1.070   0.021   9.567 -1.1641 -1.4217  0.6060
 9209SOL    HW239264   1.032   0.134   9.484  0.4140 -0.3716  0.5929
 9210SOL     OW39265   0.978   3.483  12.368 -0.4901  0.3263 -0.0563
 9210SOL    HW139266   0.936   3.445  12.445 -0.8835 -0.1990 -0.5319
 9210SOL    HW239267   1.060   3.437  12.386 -0.9799 -0.0668  1.1799
 9211SOL     OW39268   1.989   3.252  11.327 -0.0775  0.0294 -0.1501
 9211SOL    HW139269   1.989   3.342  11.360  1.8152 -0.9130  2.4340
 9211SOL    HW239270   1.901   3.219  11.348  0.6884 -2.0437 -0.2093
 9212SOL     OW39271   4.130   3.052  16.634 -0.4465 -0.6907 -0.3727
 9212SOL    HW139272   4.050   3.000  16.638 -1.9145  1.6288  0.3522
 9212SOL    HW239273   4.140   3.061  16.540 -1.8857  2.7035 -0.2031
 9213SOL     OW39274   2.054   4.487   2.496 -0.0848  0.6178 -0.5165
 9213SOL    HW139275   1.960   4.490   2.480 -0.2514 -0.1240  0.3582
 9213SOL    HW239276   2.062   4.523   2.584  0.6585 -1.8669  0.4319
 9214SOL     OW39277   4.443   3.908   9.787  0.3166  0.1286 -0.0003
 9214SOL    HW139278   4.514   3.898   9.723  0.3678 -0.4949  0.1536
 9214SOL    HW239279   4.370   3.877   9.733  0.3915 -0.1859  0.0750
 9215SOL     OW39280   1.191   0.625   2.910 -0.8239 -0.1559  0.2425
 9215SOL    HW139281   1.222   0.654   2.995  0.8422 -0.7247 -0.1833
 9215SOL    HW239282   1.181   0.532   2.928  2.7966 -0.2130  1.9022
 9216SOL     OW39283   0.699   4.431   6.915  1.0642  0.3152  0.1708
 9216SOL    HW139284   0.751   4.462   6.842 -0.4491 -1.6659 -1.7368
 9216SOL    HW239285   0.662   4.347   6.887 -0.7598  0.5702  1.7620
 9217SOL     OW39286   2.404   4.462  14.227 -0.6129 -0.1581 -0.8333
 9217SOL    HW139287   2.311   4.455  14.206  0.0451 -2.3318 -3.0588
 9217SOL    HW239288   2.404   4.555  14.250 -2.6726 -0.2577 -0.4591
 9218SOL     OW39289   1.598   3.487   2.146 -0.1236 -0.3974  0.5364
 9218SOL    HW139290   1.547   3.450   2.074  2.4670  1.2713 -2.1857
 9218SOL    HW239291   1.641   3.553   2.092 -2.6507  0.0681 -0.9119
 9219SOL     OW39292   2.813   2.351   1.054 -0.1465 -0.2674  0.2604
 9219SOL    HW139293   2.896   2.317   1.089  1.4195  2.7690 -0.5226
 9219SOL    HW239294   2.856   2.372   0.971  2.5318 -0.7600  1.5062
 9220SOL     OW39295   0.729   3.363   5.182 -0.0802 -0.3557 -0.2467
 9220SOL    HW139296   0.667   3.342   5.112 -1.0189  0.1077  0.4523
 9220SOL    HW239297   0.771   3.279   5.202 -0.7801  0.0344  2.8637
 9221SOL     OW39298   2.874   2.601   4.034  0.4517 -0.1343 -0.3144
 9221SOL    HW139299   2.950   2.588   3.977  1.6274 -2.2306  1.7306
 9221SOL    HW239300   2.892   2.682   4.081 -1.3300  1.1628 -1.8383
 9222SOL     OW39301   1.478   3.903   3.191  0.2228 -0.3172 -0.8434
 9222SOL    HW139302   1.435   3.865   3.114  0.0810  0.8123 -1.3207
 9222SOL    HW239303   1.440   3.848   3.260  0.7595  1.4251  0.8532
 9223SOL     OW39304   3.955   3.887  10.076  0.4275 -0.8660 -0.2761
 9223SOL    HW139305   4.032   3.845  10.038 -0.1917 -0.3033 -2.1453
 9223SOL    HW239306   3.898   3.811  10.090 -2.2758  1.5859  2.0728
 9224SOL     OW39307   2.267   4.721  17.377  0.2810 -0.2201  0.0866
 9224SOL    HW139308   2.289   0.044  17.307  0.4319 -2.4879 -1.8401
 9224SOL    HW239309   2.272   0.035  17.457  2.3809  0.9282 -0.7948
 9225SOL     OW39310   1.156   2.614   4.130  0.2063 -0.3797  0.0209
 9225SOL    HW139311   1.135   2.553   4.201 -0.5662 -1.1502 -0.8807
 9225SOL    HW239312   1.182   2.550   4.064  0.1379  0.4430 -0.7950
 9226SOL     OW39313   0.556   4.448   9.955 -0.3109  0.2912 -0.0116
 9226SOL    HW139314   0.592   4.532   9.926 -0.5729  0.3468 -0.1723
 9226SOL    HW239315   0.478   4.434   9.901  0.7462  0.2343 -1.5346
 9227SOL     OW39316   2.754   3.467  15.635 -0.0497 -0.5268  0.5164
 9227SOL    HW139317   2.824   3.519  15.674 -1.1748  1.1225  0.3268
 9227SOL    HW239318   2.810   3.411  15.581  0.2524  1.1541 -0.9090
 9228SOL     OW39319   3.935   4.416   1.689  0.1905  0.1882 -0.2657
 9228SOL    HW139320   3.929   4.362   1.768 -1.7715  1.5872  0.5394
 9228SOL    HW239321   3.934   4.347   1.623  2.0550 -0.9691  0.8937
 9229SOL     OW39322   1.726   4.044   4.103 -0.1028 -0.4094  0.1823
 9229SOL    HW139323   1.644   4.088   4.125 -0.1954 -0.7486  0.5207
 9229SOL    HW239324   1.707   3.991   4.026  1.8150 -2.3408  1.0335
 9230SOL     OW39325   2.333   2.455   3.599  0.5022  0.4300  0.4256
 9230SOL    HW139326   2.309   2.495   3.683  0.0256  0.2069  0.3989
 9230SOL    HW239327   2.246   2.418   3.584  1.0176 -0.1556 -1.0852
 9231SOL     OW39328   1.018   1.754  16.079 -0.4633  0.7912 -0.1650
 9231SOL    HW139329   0.930   1.725  16.103  0.9962 -1.0077  3.2385
 9231SOL    HW239330   1.063   1.671  16.058  0.9527  0.7960  2.7426
 9232SOL     OW39331   3.207   4.047  14.590 -0.2318 -0.2879  1.1974
 9232SOL    HW139332   3.180   4.135  14.614 -0.8105  0.1292 -0.9533
 9232SOL    HW239333   3.269   4.065  14.519 -1.9262  0.0445 -0.1955
 9233SOL     OW39334   1.437   3.816   6.095 -0.2281  0.0840  0.5219
 9233SOL    HW139335   1.396   3.840   6.012  0.7796  1.3267  0.3737
 9233SOL    HW239336   1.494   3.744   6.068 -0.6149 -0.8750  2.2733
 9234SOL     OW39337   4.385   4.333   7.437  0.8512 -0.2917 -0.0446
 9234SOL    HW139338   4.476   4.360   7.452  1.3593 -2.0038  0.0373
 9234SOL    HW239339   4.390   4.345   7.343  2.1827  0.1682  0.0713
 9235SOL     OW39340   4.704   1.610   7.401  0.0652 -0.0205 -0.6634
 9235SOL    HW139341   0.018   1.556   7.459  0.0015  1.2947  0.6292
 9235SOL    HW239342   4.714   1.692   7.450 -0.7288 -0.1083 -0.3547
 9236SOL     OW39343   1.167   1.317   8.267  0.1004 -0.2324  0.6119
 9236SOL    HW139344   1.239   1.307   8.205 -1.3682  1.3706 -1.3658
 9236SOL    HW239345   1.181   1.408   8.295 -1.2706  0.2847 -0.4214
 9237SOL     OW39346   0.243   3.771   6.748 -0.0959  0.4629 -0.4940
 9237SOL    HW139347   0.307   3.840   6.760  0.2935 -0.2339  1.3782
 9237SOL    HW239348   0.163   3.823   6.756 -0.8845 -0.3049 -3.4523
 9238SOL     OW39349   0.530   0.217   1.622 -0.0020  0.2903 -0.9266
 9238SOL    HW139350   0.450   0.257   1.589  0.2253 -0.7040 -2.7394
 9238SOL    HW239351   0.490   0.132   1.642 -1.7107  0.9295 -1.6504
 9239SOL     OW39352   1.999   0.376   7.269  0.0691 -0.3721 -0.1274
 9239SOL    HW139353   2.086   0.405   7.242  0.4963 -0.9231  0.6518
 9239SOL    HW239354   2.006   0.385   7.364  1.7354  0.6512 -0.3525
 9240SOL     OW39355   4.358   3.027   6.036 -0.7469  0.1091 -0.3199
 9240SOL    HW139356   4.366   2.955   6.098 -0.3957 -1.7189 -2.5056
 9240SOL    HW239357   4.424   2.997   5.974 -0.0507 -0.8103  0.8654
 9241SOL     OW39358   0.924   2.319   4.110 -0.1723  0.1142 -0.6853
 9241SOL    HW139359   0.860   2.380   4.074  0.3132  0.9307 -0.1583
 9241SOL    HW239360   0.877   2.245   4.148  1.0013  0.5032  1.5500
 9242SOL     OW39361   0.751   3.688   8.420  0.0357  0.0095  0.4109
 9242SOL    HW139362   0.704   3.757   8.374  0.4609 -0.4078 -0.6664
 9242SOL    HW239363   0.678   3.643   8.463 -0.3299 -1.3071 -1.5507
 9243SOL     OW39364   1.789   1.406   7.331 -0.1813  0.6949 -0.2324
 9243SOL    HW139365   1.862   1.366   7.377  0.8203 -0.2356 -2.6450
 9243SOL    HW239366   1.712   1.376   7.380 -0.0736 -1.7859 -1.6294
 9244SOL     OW39367   4.309   3.877   4.801  0.5972 -0.2121  0.0408
 9244SOL    HW139368   4.351   3.962   4.816 -0.8942  0.8057 -1.5825
 9244SOL    HW239369   4.228   3.890   4.850  0.4655 -1.4704  0.1375
 9245SOL     OW39370   0.932   2.885   4.730 -0.1482  0.2962 -0.0214
 9245SOL    HW139371   0.939   2.929   4.646 -1.6656 -0.8851 -0.7669
 9245SOL    HW239372   1.015   2.837   4.733 -1.4538 -2.0604 -2.0064
 9246SOL     OW39373   2.745   2.246   2.499 -0.1928  0.6288 -0.1942
 9246SOL    HW139374   2.746   2.315   2.434 -0.0408  1.0889  0.2950
 9246SOL    HW239375   2.650   2.237   2.502  0.0657 -1.8284  1.1001
 9247SOL     OW39376   2.671   0.573  16.513 -0.1852  0.0529 -0.2571
 9247SOL    HW139377   2.607   0.632  16.552  0.2511 -0.9680  1.9906
 9247SOL    HW239378   2.682   0.614  16.427  0.1692 -0.6540 -0.5501
 9248SOL     OW39379   0.418   2.494   4.244  0.7604  0.6424 -0.3673
 9248SOL    HW139380   0.438   2.545   4.165  0.3389  0.0704 -0.8492
 9248SOL    HW239381   0.505   2.490   4.284 -1.1100 -0.1214  3.5975
 9249SOL     OW39382   0.183   2.049   8.647  0.5324  0.5931  0.1235
 9249SOL    HW139383   0.122   2.084   8.583 -1.0400 -0.8734  0.8179
 9249SOL    HW239384   0.152   2.081   8.731  1.4244 -0.4383  0.8489
 9250SOL     OW39385   3.999   3.014  14.174  0.0103  0.3036 -0.4627
 9250SOL    HW139386   4.022   3.040  14.264 -1.0827 -0.5249  0.0572
 9250SOL    HW239387   3.904   3.001  14.178  0.2063 -1.4252 -1.6726
 9251SOL     OW39388   0.650   2.221  11.357 -0.1526 -0.0411  0.3711
 9251SOL    HW139389   0.693   2.306  11.369 -1.9244  0.9463 -0.2724
 9251SOL    HW239390   0.724   2.168  11.326 -0.5551 -0.2185 -0.2988
 9252SOL     OW39391   4.528   2.473   4.034 -0.3111  0.2340 -0.5856
 9252SOL    HW139392   4.442   2.432   4.031  0.5146 -1.5923  1.3518
 9252SOL    HW239393   4.505   2.547   3.977 -0.9659  2.7738  2.9992
 9253SOL     OW39394   4.076   4.036   7.960  0.3883  0.5282 -0.2647
 9253SOL    HW139395   4.075   3.955   7.908 -1.2399  0.4515 -0.1222
 9253SOL    HW239396   4.167   4.059   7.941  0.1299  1.7819  0.0611
 9254SOL     OW39397   1.719   4.203   6.537  0.2388  0.6587 -0.5417
 9254SOL    HW139398   1.806   4.215   6.574  1.9058 -3.2283 -3.2189
 9254SOL    HW239399   1.734   4.206   6.443 -0.3293 -3.1878 -0.7718
 9255SOL     OW39400   4.051   2.996  10.456  0.0838 -0.1317 -0.1925
 9255SOL    HW139401   4.017   3.057  10.391 -1.4498  0.5645  1.2769
 9255SOL    HW239402   4.078   3.051  10.529 -2.5058  2.3951 -1.1651
 9256SOL     OW39403   0.559   3.729   4.316 -0.1107  0.4388  0.3301
 9256SOL    HW139404   0.545   3.677   4.237  1.1747 -0.2796  0.5632
 9256SOL    HW239405   0.601   3.666   4.375  1.0664 -0.1416 -1.1197
 9257SOL     OW39406   4.493   3.863  16.896 -0.1513  0.4314  0.0244
 9257SOL    HW139407   4.492   3.885  16.803 -1.2384 -0.1255 -0.0955
 9257SOL    HW239408   4.529   3.774  16.902  0.6544  0.9077  2.2318
 9258SOL     OW39409   2.400   3.093   2.624 -0.1671  0.4476  0.6858
 9258SOL    HW139410   2.421   3.183   2.602 -0.2565  0.6754  1.5301
 9258SOL    HW239411   2.393   3.090   2.720 -2.0947 -0.8813  0.5071
 9259SOL     OW39412   1.882   1.033   8.389  0.5778 -0.3397  0.3378
 9259SOL    HW139413   1.973   1.049   8.415  0.8944 -1.4085 -0.1149
 9259SOL    HW239414   1.891   1.030   8.294 -0.8301 -0.0620  0.1953
 9260SOL     OW39415   4.129   0.319   4.589 -0.2835  0.0242 -0.2105
 9260SOL    HW139416   4.167   0.319   4.501  0.0200 -0.6004 -0.0828
 9260SOL    HW239417   4.154   0.406   4.622  0.3975 -0.4090  0.4242
 9261SOL     OW39418   0.500   0.550   3.301  0.1463  0.1092  0.1639
 9261SOL    HW139419   0.437   0.524   3.234  1.0860  1.5992 -1.2919
 9261SOL    HW239420   0.537   0.465   3.322  0.5461  0.3927  0.6124
 9262SOL     OW39421   2.989   0.631  14.581  0.0876  0.0163 -0.5818
 9262SOL    HW139422   3.076   0.601  14.605 -1.2244 -2.7199  0.7044
 9262SOL    HW239423   2.944   0.633  14.665  1.0493 -1.2898 -0.0511
 9263SOL     OW39424   1.422   4.719   6.819  0.5517  0.4696 -0.5056
 9263SOL    HW139425   1.492   4.710   6.755  0.6481  0.4960 -0.4024
 9263SOL    HW239426   1.471   0.047   6.866  1.2817  0.4915 -1.3024
 9264SOL     OW39427   0.627   0.903   2.654  0.5161 -0.4664 -0.3057
 9264SOL    HW139428   0.696   0.839   2.640 -0.2815 -1.3948  0.0044
 9264SOL    HW239429   0.577   0.881   2.576 -0.4571 -2.0224  0.7465
 9265SOL     OW39430   0.375   1.473   3.376 -0.0797  0.4608  0.5204
 9265SOL    HW139431   0.429   1.425   3.314 -0.5654  1.7206 -0.8855
 9265SOL    HW239432   0.380   1.561   3.338 -0.5040  1.1660  2.0775
 9266SOL     OW39433   3.389   2.432   8.089 -0.1085 -0.2285  0.0749
 9266SOL    HW139434   3.413   2.353   8.136  0.4116 -0.0529  0.1119
 9266SOL    HW239435   3.334   2.394   8.021 -1.2428  0.5472  0.5631
 9267SOL     OW39436   3.441   1.881  11.846  0.3379 -0.0708  0.3099
 9267SOL    HW139437   3.427   1.927  11.763  0.9643 -1.5658 -0.6189
 9267SOL    HW239438   3.413   1.955  11.901 -1.1191 -0.9999  0.8209
 9268SOL     OW39439   0.296   3.060   9.663  0.1715 -0.1850  0.0223
 9268SOL    HW139440   0.202   3.064   9.679  0.2922  1.1897  0.4158
 9268SOL    HW239441   0.326   3.062   9.754 -1.2629  1.9383  0.4500
 9269SOL     OW39442   4.365   3.073  13.320  0.4184  0.4437 -0.3729
 9269SOL    HW139443   4.433   3.012  13.351 -1.3359 -1.3367  0.0081
 9269SOL    HW239444   4.399   3.106  13.237  3.3933  0.4756  0.8530
 9270SOL     OW39445   3.190   1.792   8.739  0.0480  0.6205  0.1092
 9270SOL    HW139446   3.133   1.719   8.764  0.4291  0.0117 -0.7862
 9270SOL    HW239447   3.274   1.746   8.732  0.1109  0.8323 -0.5508
 9271SOL     OW39448   1.989   3.850   5.514  0.5197  0.2934 -0.1335
 9271SOL    HW139449   2.004   3.884   5.602 -1.9599 -0.0178  0.4084
 9271SOL    HW239450   1.941   3.769   5.531 -0.1913  1.0842  1.5952
 9272SOL     OW39451   1.017   2.645  10.417  0.2251  0.0887  0.1809
 9272SOL    HW139452   0.993   2.698  10.341  0.6793 -0.6247 -0.4688
 9272SOL    HW239453   1.047   2.717  10.473  0.3086 -0.7241  1.1795
 9273SOL     OW39454   0.432   1.360  11.899 -0.1431 -0.5867 -0.2444
 9273SOL    HW139455   0.423   1.382  11.806  0.5239 -0.3564 -0.2598
 9273SOL    HW239456   0.400   1.438  11.945  0.4767  0.0307 -0.8341
 9274SOL     OW39457   4.656   3.073   2.248  0.1282 -0.4350 -0.1061
 9274SOL    HW139458   4.566   3.048   2.230  0.2133 -0.5803 -0.3349
 9274SOL    HW239459   4.693   2.997   2.292 -1.0068 -0.3626  0.9530
 9275SOL     OW39460   2.942   2.507   3.004  0.2412 -0.1729  0.1002
 9275SOL    HW139461   2.863   2.503   2.950  1.1185 -0.7743 -1.1303
 9275SOL    HW239462   2.988   2.430   2.972  0.3655  0.2243 -0.6785
 9276SOL     OW39463   0.394   0.207  13.221  0.5531 -0.7607  0.6337
 9276SOL    HW139464   0.392   0.256  13.138 -1.4338  1.6759  2.1127
 9276SOL    HW239465   0.467   0.249  13.267  0.8763  1.3579 -1.8090
 9277SOL     OW39466   0.412   1.208   8.308 -0.0912  0.2523 -0.4424
 9277SOL    HW139467   0.440   1.177   8.222  0.1913  3.0994 -1.3754
 9277SOL    HW239468   0.323   1.173   8.313  0.1311 -0.0082  1.7482
 9278SOL     OW39469   2.040   0.229   8.481 -0.4747  0.2092  0.1634
 9278SOL    HW139470   2.116   0.187   8.441 -2.4778 -2.0196 -1.2892
 9278SOL    HW239471   1.969   0.168   8.462  0.9452 -1.3420 -0.1124
 9279SOL     OW39472   1.144   3.762  11.827  0.1924 -0.0813 -0.4918
 9279SOL    HW139473   1.188   3.696  11.773 -0.2299 -0.8266  0.0802
 9279SOL    HW239474   1.198   3.760  11.906  0.4695  1.0682 -0.6421
 9280SOL     OW39475   4.252   2.814  16.704  0.0925  0.1665  0.0252
 9280SOL    HW139476   4.326   2.819  16.764  0.6979 -0.3703 -0.6866
 9280SOL    HW239477   4.225   2.906  16.695  4.7986  1.4437 -1.0838
 9281SOL     OW39478   1.612   2.906   3.316 -0.2005  0.2434  0.8240
 9281SOL    HW139479   1.582   2.995   3.335  2.1235  1.4913 -1.2449
 9281SOL    HW239480   1.696   2.909   3.270 -0.0499  1.1962  1.1654
 9282SOL     OW39481   3.635   1.570   5.485 -0.3691  0.2180  0.2040
 9282SOL    HW139482   3.589   1.583   5.401 -0.7237 -1.5368  0.1332
 9282SOL    HW239483   3.565   1.569   5.550 -0.1532 -4.7160  0.3278
 9283SOL     OW39484   2.776   0.069  15.756 -0.1022  0.2283 -0.4201
 9283SOL    HW139485   2.706   0.105  15.811  1.6460  0.2631  1.7879
 9283SOL    HW239486   2.805   0.153  15.720  2.7368  0.2782  1.9817
 9284SOL     OW39487   3.218   1.647   0.118  0.1619  0.3097  0.1272
 9284SOL    HW139488   3.186   1.727   0.160  2.0881  0.0758  1.9974
 9284SOL    HW239489   3.162   1.575   0.148  0.8261  0.2622  1.2445
 9285SOL     OW39490   3.048   0.232   1.680  0.0050  0.5171  0.1012
 9285SOL    HW139491   3.100   0.286   1.739  1.6435 -1.5299  0.5502
 9285SOL    HW239492   3.005   0.170   1.740 -0.9940 -1.6903 -2.9455
 9286SOL     OW39493   3.411   3.833   2.294  0.4106  0.2763 -0.0520
 9286SOL    HW139494   3.391   3.858   2.204  0.1052 -0.5800 -0.2154
 9286SOL    HW239495   3.389   3.913   2.343 -0.8828 -0.7372  1.0251
 9287SOL     OW39496   0.697   4.351  14.046 -0.1371 -0.3247  0.1298
 9287SOL    HW139497   0.657   4.298  14.115  0.6262  0.0308  0.8402
 9287SOL    HW239498   0.627   4.364  13.982 -1.1099  0.9684  1.4622
 9288SOL     OW39499   3.406   0.629   9.138  0.1715 -0.4501  0.6064
 9288SOL    HW139500   3.482   0.571   9.137  0.7707  0.3708 -1.1515
 9288SOL    HW239501   3.341   0.572   9.098 -0.0275  2.0731 -2.6579
 9289SOL     OW39502   1.181   2.697   1.025  0.2959  0.2427  0.3326
 9289SOL    HW139503   1.159   2.773   0.972 -0.9199 -0.0991  0.3423
 9289SOL    HW239504   1.155   2.732   1.110 -1.1128  0.0727 -0.0361
 9290SOL     OW39505   1.247   3.581   4.428 -0.0230  0.2765 -0.8600
 9290SOL    HW139506   1.252   3.493   4.391 -0.7087 -0.3956  0.6589
 9290SOL    HW239507   1.178   3.618   4.373 -0.7415  0.3987  0.1265
 9291SOL     OW39508   4.723   4.481   6.090 -0.2368  0.0878 -0.0595
 9291SOL    HW139509   4.699   4.557   6.037 -0.7734 -0.0144  0.0271
 9291SOL    HW239510   4.664   4.413   6.057  1.6797 -1.3329 -0.5602
 9292SOL     OW39511   3.307   0.620   3.997 -0.7223 -0.0446  0.0953
 9292SOL    HW139512   3.388   0.586   4.036  1.8528  2.6975 -2.9323
 9292SOL    HW239513   3.252   0.598   4.073 -0.0336 -0.0049  0.6107
 9293SOL     OW39514   2.305   3.219   8.232 -0.3980 -0.0852 -0.3318
 9293SOL    HW139515   2.331   3.298   8.280  0.4331 -0.3049 -0.4246
 9293SOL    HW239516   2.284   3.267   8.152 -1.9329 -1.5098 -0.7912
 9294SOL     OW39517   1.963   1.908   7.355  0.5250 -0.1852  0.7431
 9294SOL    HW139518   1.882   1.958   7.353 -1.1939 -2.9346  1.2978
 9294SOL    HW239519   2.004   1.942   7.435  1.3135 -0.2640  0.3807
 9295SOL     OW39520   2.810   4.649   8.951  0.1508  0.4608  0.8133
 9295SOL    HW139521   2.893   4.694   8.965  0.1405  0.4447  0.9318
 9295SOL    HW239522   2.755   4.727   8.947  0.5528  0.7440  0.8324
 9296SOL     OW39523   2.650   0.476   9.435  0.2698 -0.7703  0.4085
 9296SOL    HW139524   2.700   0.552   9.405 -1.1807 -0.8789 -2.2491
 9296SOL    HW239525   2.710   0.437   9.499  1.2736 -1.1274 -0.7511
 9297SOL     OW39526   3.638   3.167   3.122  0.0651 -0.3976  1.1312
 9297SOL    HW139527   3.589   3.087   3.101  1.2391 -0.7006 -0.4597
 9297SOL    HW239528   3.678   3.179   3.036  0.4801 -0.1009  1.3622
 9298SOL     OW39529   2.662   1.803   4.984 -0.9808  0.1815  0.4338
 9298SOL    HW139530   2.670   1.891   4.947 -0.9275 -0.6505 -1.5041
 9298SOL    HW239531   2.724   1.796   5.057 -0.4003  2.0426  0.1312
 9299SOL     OW39532   4.713   4.101   5.527  0.2141  0.5995  0.0696
 9299SOL    HW139533   0.002   4.047   5.602 -0.8748 -1.0258 -0.6927
 9299SOL    HW239534   4.619   4.092   5.513  0.1383  1.2839  0.1348
 9300SOL     OW39535   2.156   4.469   7.358 -0.3584 -0.1076  0.1392
 9300SOL    HW139536   2.213   4.545   7.347 -0.8891  0.0369 -1.6900
 9300SOL    HW239537   2.077   4.496   7.312 -0.9996  0.1953  1.4377
 9301SOL     OW39538   0.775   2.446   2.737 -0.3026 -0.0355  0.2997
 9301SOL    HW139539   0.814   2.418   2.655  0.1593  2.2933 -0.2690
 9301SOL    HW239540   0.779   2.541   2.728  1.2396 -0.1255  0.0320
 9302SOL     OW39541   1.169   2.568   1.485 -0.1907 -0.5844 -0.0181
 9302SOL    HW139542   1.129   2.600   1.566  1.0747 -1.2282  0.8710
 9302SOL    HW239543   1.260   2.564   1.516 -0.1610 -1.6045 -0.2493
 9303SOL     OW39544   0.049   3.155   9.749  0.0514  0.1699  0.3299
 9303SOL    HW139545   0.097   3.225   9.793 -0.3452  2.1226 -2.3208
 9303SOL    HW239546   4.713   3.194   9.703 -0.1848  0.0268  0.5958
 9304SOL     OW39547   3.164   3.730   6.966  0.9857  0.0413  0.2105
 9304SOL    HW139548   3.255   3.759   6.975  0.9989 -0.5161  1.8467
 9304SOL    HW239549   3.119   3.746   7.049  2.2898  1.7931  0.6035
 9305SOL     OW39550   4.457   1.497   3.214  1.0545 -0.6245 -0.1433
 9305SOL    HW139551   4.438   1.405   3.232 -1.2532  0.0137  0.7150
 9305SOL    HW239552   4.432   1.507   3.122 -0.5085  0.3685  0.3896
 9306SOL     OW39553   3.485   1.956   1.581  0.0203  0.1627 -0.1342
 9306SOL    HW139554   3.571   1.991   1.559 -0.0861 -0.1267 -1.0247
 9306SOL    HW239555   3.440   2.037   1.603 -1.4035 -0.2259 -1.5668
 9307SOL     OW39556   2.878   3.836   6.294 -0.5805 -0.0611 -0.0537
 9307SOL    HW139557   2.955   3.890   6.311 -0.0557 -0.6434 -0.5941
 9307SOL    HW239558   2.887   3.842   6.199 -0.7149 -0.8476 -0.1158
 9308SOL     OW39559   1.251   0.841  14.389  0.2567 -0.1128 -0.3620
 9308SOL    HW139560   1.328   0.785  14.379  1.2502  1.1557  0.2083
 9308SOL    HW239561   1.281   0.914  14.443  0.6499 -0.4334 -0.1451
 9309SOL     OW39562   3.904   1.801   7.499  0.4439 -0.0646 -0.0155
 9309SOL    HW139563   3.879   1.728   7.556 -0.5796 -0.1692 -0.5930
 9309SOL    HW239564   3.964   1.764   7.435  0.8176  0.1168  0.2297
 9310SOL     OW39565   2.015   2.215  15.108  0.2696  0.4057  0.1028
 9310SOL    HW139566   2.109   2.232  15.116  0.3570 -1.0864  2.2338
 9310SOL    HW239567   1.980   2.221  15.197 -2.3811  0.3590 -0.9358
 9311SOL     OW39568   4.230   1.087   5.872 -0.1666 -0.3502  0.1278
 9311SOL    HW139569   4.146   1.042   5.872  0.6900 -1.9476 -0.4579
 9311SOL    HW239570   4.292   1.016   5.885  2.6662  2.3227  1.4578
 9312SOL     OW39571   3.201   4.717   2.674 -0.1450  0.3790 -0.0631
 9312SOL    HW139572   3.106   4.708   2.665  0.1240 -0.9291 -1.6850
 9312SOL    HW239573   3.208   0.064   2.717 -1.9120 -0.6866  2.3534
 9313SOL     OW39574   1.063   1.318  16.774  0.2092  0.2869  0.4364
 9313SOL    HW139575   0.986   1.339  16.721  0.6975 -1.9570 -1.1602
 9313SOL    HW239576   1.121   1.394  16.771  0.7237 -0.1948 -1.5205
 9314SOL     OW39577   2.588   1.692   7.567  0.6398 -0.4595  0.0666
 9314SOL    HW139578   2.530   1.752   7.614  0.2382  0.6639 -1.8485
 9314SOL    HW239579   2.591   1.711   7.473 -2.5671  1.9236  0.4383
 9315SOL     OW39580   2.720   0.444   7.060  0.1726 -0.4691  0.1028
 9315SOL    HW139581   2.752   0.384   6.992 -2.3551 -2.9122  1.0933
 9315SOL    HW239582   2.805   0.457   7.101  0.2374  0.8999 -0.4607
 9316SOL     OW39583   2.153   4.594   1.756  0.3114 -0.0146  0.0003
 9316SOL    HW139584   2.152   4.498   1.757 -2.4448  0.0133 -1.3101
 9316SOL    HW239585   2.138   4.614   1.664  0.6048  0.0739 -0.0287
 9317SOL     OW39586   3.537   3.321  12.605 -0.0489  0.2543 -0.3515
 9317SOL    HW139587   3.620   3.348  12.565 -0.2980  2.9234  0.9486
 9317SOL    HW239588   3.500   3.408  12.594  2.9304  1.6528  0.6751
 9318SOL     OW39589   2.970   1.074   9.685 -0.0012  0.1412 -0.2933
 9318SOL    HW139590   2.983   0.998   9.629  1.5528  0.1688  0.0062
 9318SOL    HW239591   2.890   1.052   9.732 -0.5170  1.5629 -0.5130
 9319SOL     OW39592   1.207   2.578   3.749  0.7108  0.3508  0.0874
 9319SOL    HW139593   1.176   2.622   3.670  0.6086 -0.8124 -0.5155
 9319SOL    HW239594   1.269   2.646   3.776 -0.3793  0.5875  1.9565
 9320SOL     OW39595   0.664   1.317  12.196 -0.0767 -0.3401 -0.1761
 9320SOL    HW139596   0.759   1.333  12.199  0.0721 -0.6927 -3.1864
 9320SOL    HW239597   0.629   1.397  12.157 -2.0793 -1.3280 -0.3838
 9321SOL     OW39598   3.303   3.236   2.789  0.5930  0.4225 -0.0374
 9321SOL    HW139599   3.307   3.146   2.757 -0.9570 -0.1713  1.4102
 9321SOL    HW239600   3.374   3.247   2.852 -1.7888  0.3374  2.6816
 9322SOL     OW39601   4.700   2.243  15.174 -0.2141  0.0564  0.3013
 9322SOL    HW139602   4.633   2.301  15.138  1.3673  0.4032 -2.0407
 9322SOL    HW239603   4.695   2.258  15.269 -2.5851 -0.0037  0.1863
 9323SOL     OW39604   4.081   4.161   5.144  0.4321  1.1080 -0.0805
 9323SOL    HW139605   4.154   4.206   5.102 -0.1374  1.8151 -0.3014
 9323SOL    HW239606   4.015   4.230   5.152 -1.8772 -1.0812 -0.4021
 9324SOL     OW39607   1.355   0.286   5.773 -0.4588 -0.3821  0.1916
 9324SOL    HW139608   1.370   0.366   5.824  0.0348  0.8729 -1.9579
 9324SOL    HW239609   1.388   0.308   5.686 -2.7057 -0.1618 -0.6015
 9325SOL     OW39610   1.527   2.315   7.146  0.5749 -0.2306 -0.5888
 9325SOL    HW139611   1.524   2.263   7.226 -0.8024  1.3461  0.3982
 9325SOL    HW239612   1.433   2.321   7.133  0.4750 -0.2922  0.1183
 9326SOL     OW39613   0.471   4.253   7.955 -0.3973 -0.4798  0.6768
 9326SOL    HW139614   0.559   4.241   7.991  0.4427 -1.4724 -1.7306
 9326SOL    HW239615   0.424   4.254   8.039  0.3285  0.4297  1.0741
 9327SOL     OW39616   2.512   2.196   6.692  0.2212  0.1283  0.6070
 9327SOL    HW139617   2.501   2.157   6.605  0.7556 -0.7547  0.9275
 9327SOL    HW239618   2.469   2.281   6.685  2.3911  1.0286 -1.9998
 9328SOL     OW39619   1.089   2.063   6.557  0.0337 -0.1055 -0.1827
 9328SOL    HW139620   1.053   2.037   6.643  0.3476  1.8707  0.5482
 9328SOL    HW239621   1.074   1.980   6.511 -2.5197  0.7001 -0.8438
 9329SOL     OW39622   2.354   0.412  14.006  0.1734 -0.3947 -0.3562
 9329SOL    HW139623   2.330   0.372  13.922 -0.5581  1.6593 -1.1243
 9329SOL    HW239624   2.409   0.486  13.981  0.5480 -0.5588 -0.0087
 9330SOL     OW39625   2.538   3.618   4.288 -0.0081  0.2702  0.8467
 9330SOL    HW139626   2.519   3.706   4.320 -2.2629 -0.6908  2.2122
 9330SOL    HW239627   2.466   3.596   4.229  1.3715  1.0777 -1.1069
 9331SOL     OW39628   3.866   3.955   8.148  0.8255  0.4920  0.3296
 9331SOL    HW139629   3.851   3.862   8.127 -0.1052  0.9053 -0.8657
 9331SOL    HW239630   3.939   3.973   8.090  0.1263  0.5823 -0.5298
 9332SOL     OW39631   0.686   0.749   3.717 -0.0393 -0.3223  0.1794
 9332SOL    HW139632   0.740   0.801   3.658  2.1221 -2.4603  0.3154
 9332SOL    HW239633   0.712   0.788   3.800 -0.6761  0.0643  0.2019
 9333SOL     OW39634   2.597   2.720   5.497 -0.2712 -0.6724 -0.0382
 9333SOL    HW139635   2.543   2.699   5.420 -0.7785  0.3435  0.0417
 9333SOL    HW239636   2.666   2.653   5.492  1.1230  0.6339  2.1309
 9334SOL     OW39637   3.893   2.379   8.480 -0.2989 -0.0868  0.5558
 9334SOL    HW139638   3.804   2.376   8.516 -0.9872 -1.6100 -1.2759
 9334SOL    HW239639   3.909   2.471   8.462 -0.8927 -0.3374 -1.2961
 9335SOL     OW39640   1.255   3.243   7.464  0.0793  0.1176 -0.0318
 9335SOL    HW139641   1.323   3.308   7.482  0.1484  0.8047 -2.7247
 9335SOL    HW239642   1.187   3.271   7.525  0.2459 -0.2495  0.3193
 9336SOL     OW39643   0.560   4.141   5.883  0.3078 -0.2566 -0.1915
 9336SOL    HW139644   0.565   4.163   5.790  1.1743 -0.3852 -0.1756
 9336SOL    HW239645   0.479   4.192   5.891  0.1079 -1.2102  3.8587
 9337SOL     OW39646   3.937   3.660  15.099  0.4774  0.0279 -0.4137
 9337SOL    HW139647   4.005   3.592  15.105 -0.1132 -0.5355 -0.1065
 9337SOL    HW239648   3.981   3.736  15.061  0.6047  1.0082  1.6720
 9338SOL     OW39649   2.405   4.163   6.409  0.2054 -0.2375  0.3604
 9338SOL    HW139650   2.373   4.225   6.474  1.0042  0.1513  0.3917
 9338SOL    HW239651   2.326   4.132   6.366  0.4436  0.3026 -0.4752
 9339SOL     OW39652   4.373   1.151   5.302 -0.3129 -0.3258  0.2175
 9339SOL    HW139653   4.355   1.081   5.240  0.5022  0.4969 -0.9563
 9339SOL    HW239654   4.344   1.227   5.251  1.5839  0.6754  0.6247
 9340SOL     OW39655   3.050   2.855   4.595 -0.9113 -0.2723 -0.0437
 9340SOL    HW139656   3.079   2.936   4.552  1.0027 -0.9146  0.0195
 9340SOL    HW239657   2.974   2.883   4.645 -1.3003  0.5408 -1.0887
 9341SOL     OW39658   0.774   0.423   4.808  0.6813  0.0942  0.0079
 9341SOL    HW139659   0.803   0.428   4.899  0.7792  0.9285 -0.0731
 9341SOL    HW239660   0.856   0.440   4.762  0.3569 -0.2256 -0.6963
 9342SOL     OW39661   1.873   3.085   2.301 -0.1700  0.1103 -0.6132
 9342SOL    HW139662   1.790   3.131   2.313 -0.2332  0.0336 -0.7546
 9342SOL    HW239663   1.874   3.062   2.208  0.6481 -1.3309 -0.2307
 9343SOL     OW39664   0.033   3.955   9.079 -0.5420  0.1769  0.2598
 9343SOL    HW139665   0.030   4.042   9.039 -1.3687  0.2443  0.4610
 9343SOL    HW239666   0.114   3.962   9.128 -1.0966 -0.9830  1.3478
 9344SOL     OW39667   1.278   1.639  12.521  0.2538  0.1420 -0.1376
 9344SOL    HW139668   1.236   1.701  12.581  0.4020 -1.2568  1.4303
 9344SOL    HW239669   1.350   1.600  12.570  0.9711  0.3877 -1.0035
 9345SOL     OW39670   3.946   2.741  16.419 -0.3537 -0.0864 -0.2960
 9345SOL    HW139671   3.939   2.732  16.324 -0.6485 -1.0023 -0.1886
 9345SOL    HW239672   3.956   2.834  16.436  3.0945 -0.4069 -0.5980
 9346SOL     OW39673   2.013   3.631   7.868  0.7527 -0.0071 -0.3909
 9346SOL    HW139674   2.039   3.700   7.807  0.4671  0.0119 -0.4887
 9346SOL    HW239675   1.946   3.585   7.818  2.7969 -2.3145 -1.0081
 9347SOL     OW39676   1.818   3.344   2.947  0.0711 -0.0807 -0.1841
 9347SOL    HW139677   1.845   3.349   2.855  1.6711 -1.6099  0.1980
 9347SOL    HW239678   1.905   3.328   2.983  0.3887 -0.9897 -1.3439
 9348SOL     OW39679   2.965   1.136   0.597  0.3057  0.0054  0.1474
 9348SOL    HW139680   2.958   1.086   0.678 -1.6248 -0.3856 -0.2544
 9348SOL    HW239681   2.903   1.205   0.621 -0.9188 -1.1076  0.2122
 9349SOL     OW39682   0.777   0.549  11.703  0.1104 -0.1861  0.1227
 9349SOL    HW139683   0.702   0.513  11.751  0.6047  0.3595  1.2976
 9349SOL    HW239684   0.752   0.523  11.615  0.8745  3.2730 -1.1053
 9350SOL     OW39685   4.281   0.788   4.681  0.3372 -0.2747  0.3137
 9350SOL    HW139686   4.239   0.704   4.662 -0.4445 -0.0141  0.8757
 9350SOL    HW239687   4.225   0.828   4.748  2.5935  2.9342  0.2411
 9351SOL     OW39688   1.355   2.460  10.308 -0.3546  0.0339 -0.6436
 9351SOL    HW139689   1.382   2.509  10.386  1.5175 -1.1707 -0.5378
 9351SOL    HW239690   1.385   2.372  10.331 -1.1665  0.0914  0.6045
 9352SOL     OW39691   0.687   3.907   5.905 -0.8226 -0.1583  0.1465
 9352SOL    HW139692   0.692   3.888   5.999 -1.0924 -0.2441  0.1440
 9352SOL    HW239693   0.630   3.984   5.900  0.0006  0.2850 -2.5837
 9353SOL     OW39694   2.642   3.777   6.724 -0.4263  0.3397 -0.4866
 9353SOL    HW139695   2.586   3.790   6.800 -0.0852  3.1596 -0.7163
 9353SOL    HW239696   2.661   3.683   6.723 -1.5348  0.1047  1.6049
 9354SOL     OW39697   3.540   2.063  15.262  0.3706  0.0850  0.1841
 9354SOL    HW139698   3.631   2.055  15.292  0.6163 -2.9802 -1.3940
 9354SOL    HW239699   3.559   2.070  15.168  0.4418 -3.0460 -0.0212
 9355SOL     OW39700   2.966   3.985   4.147  0.4847  0.0805 -0.1406
 9355SOL    HW139701   2.897   3.922   4.167 -0.6729  1.9139  1.5980
 9355SOL    HW239702   3.024   3.965   4.220  0.4912  0.5863 -0.0064
 9356SOL     OW39703   2.810   2.037  16.312  0.0041 -0.2225  0.7292
 9356SOL    HW139704   2.833   1.958  16.264  1.5829  0.7654 -0.1441
 9356SOL    HW239705   2.789   2.095  16.239 -2.1841 -2.2107 -0.2520
 9357SOL     OW39706   4.045   4.368  15.821 -0.0872 -0.0705  0.6714
 9357SOL    HW139707   4.043   4.285  15.774 -3.0325 -0.1114  0.8554
 9357SOL    HW239708   4.113   4.421  15.782 -0.7552 -0.4456 -0.9920
 9358SOL     OW39709   3.582   0.285   6.167  0.0722 -0.6124  0.1763
 9358SOL    HW139710   3.545   0.272   6.254 -0.8337  2.6166  0.2878
 9358SOL    HW239711   3.560   0.375   6.141  0.8874 -0.6493 -0.6359
 9359SOL     OW39712   2.165   2.447  10.931  0.7421 -0.2766 -0.3173
 9359SOL    HW139713   2.147   2.383  10.862 -1.6255 -0.5400  0.5256
 9359SOL    HW239714   2.193   2.398  11.009 -0.3202 -2.3149 -1.2092
 9360SOL     OW39715   2.857   2.235   2.141  0.0918 -0.5533 -0.3045
 9360SOL    HW139716   2.839   2.262   2.050 -1.6824  0.8411  0.4532
 9360SOL    HW239717   2.789   2.275   2.195  2.5425  1.6706  1.1284
 9361SOL     OW39718   0.121   1.192   8.218 -0.4800  0.2815 -0.3002
 9361SOL    HW139719   0.100   1.102   8.194  1.9358 -0.4304  0.2679
 9361SOL    HW239720   0.111   1.241   8.136  2.8729  1.6340  0.1074
 9362SOL     OW39721   4.590   3.608  16.892 -0.6842 -0.2784 -0.4390
 9362SOL    HW139722   4.563   3.549  16.962  1.9743 -0.4815  0.4059
 9362SOL    HW239723   4.584   3.552  16.814  0.8704 -0.2046 -0.6087
 9363SOL     OW39724   1.934   1.251  16.234  0.6931 -0.3104  0.0223
 9363SOL    HW139725   1.857   1.304  16.216  1.0065  0.6710  1.6055
 9363SOL    HW239726   1.900   1.199  16.307 -0.9593  0.4605 -0.2202
 9364SOL     OW39727   3.014   1.926   5.697  0.1596 -0.1772  0.0780
 9364SOL    HW139728   2.939   1.973   5.734 -0.3213 -0.7411 -0.1843
 9364SOL    HW239729   3.033   1.997   5.636 -0.8546  0.5555  0.6057
 9365SOL     OW39730   1.896   1.859   3.001 -0.6946  0.1850  0.5402
 9365SOL    HW139731   1.904   1.766   2.981  0.6506 -0.3018  3.3721
 9365SOL    HW239732   1.802   1.871   3.017 -0.7414 -0.8469  1.0035
 9366SOL     OW39733   3.370   0.686  15.412  0.0925  0.1848 -0.2571
 9366SOL    HW139734   3.382   0.747  15.339  3.0319 -1.8868 -1.4845
 9366SOL    HW239735   3.406   0.733  15.487  1.3249 -3.7693  1.6447
 9367SOL     OW39736   2.749   1.469  13.271  0.3619 -0.6562 -0.4600
 9367SOL    HW139737   2.805   1.417  13.329 -0.3881 -1.2648 -0.2826
 9367SOL    HW239738   2.799   1.472  13.190  1.9283  2.4186  0.5717
 9368SOL     OW39739   1.276   4.730   2.318  0.1986  1.1634  0.2233
 9368SOL    HW139740   1.353   4.713   2.264 -0.4518  2.0380 -0.9481
 9368SOL    HW239741   1.266   4.650   2.371  0.7908 -0.0484 -1.5148
 9369SOL     OW39742   2.516   0.103  16.725 -0.3509 -0.5980 -0.5303
 9369SOL    HW139743   2.543   0.157  16.651 -2.3837  0.1610 -0.7076
 9369SOL    HW239744   2.425   0.098  16.695 -0.2884  0.6592 -0.8994
 9370SOL     OW39745   4.048   2.402  16.323 -0.3300 -0.0293 -0.2728
 9370SOL    HW139746   4.059   2.495  16.302  0.5354  0.4312  2.2566
 9370SOL    HW239747   4.114   2.389  16.391  2.3968  0.1484 -2.8936
 9371SOL     OW39748   1.949   2.617   8.229 -0.0406 -0.5308 -0.0465
 9371SOL    HW139749   2.040   2.606   8.257  0.3438 -0.5283 -1.2840
 9371SOL    HW239750   1.953   2.706   8.195 -1.2765 -0.4058  0.1261
 9372SOL     OW39751   2.356   1.652   2.750 -0.3206 -0.1334 -0.2726
 9372SOL    HW139752   2.304   1.720   2.793 -1.0614 -0.4663 -0.6591
 9372SOL    HW239753   2.351   1.581   2.814  1.7480 -0.9583 -1.0436
 9373SOL     OW39754   3.607   4.055   8.157  0.0561  0.0208 -0.1401
 9373SOL    HW139755   3.687   4.041   8.106  0.1969 -0.7488  0.2876
 9373SOL    HW239756   3.560   3.972   8.142  0.2052 -0.0232 -0.3746
 9374SOL     OW39757   4.680   3.761   5.949 -0.3322  0.4118  0.2388
 9374SOL    HW139758   4.629   3.840   5.966 -2.3194 -0.6936 -0.5251
 9374SOL    HW239759   4.609   3.709   5.911  1.7863 -1.9644 -0.4702
 9375SOL     OW39760   1.268   2.964  15.851 -0.0488 -0.3108 -0.1566
 9375SOL    HW139761   1.249   2.920  15.768 -3.0664  3.3291 -1.3946
 9375SOL    HW239762   1.177   2.990  15.864 -0.0860 -0.3597 -0.3253
 9376SOL     OW39763   3.158   4.689   5.646 -0.2900  0.2938  0.4639
 9376SOL    HW139764   3.242   4.664   5.606 -0.6050  1.3722 -0.8503
 9376SOL    HW239765   3.192   4.690   5.736 -0.5134 -0.7819  0.5598
 9377SOL     OW39766   1.492   4.061   6.971  0.0959  0.6549 -0.0651
 9377SOL    HW139767   1.548   4.138   6.965 -2.4349  2.4945 -0.2956
 9377SOL    HW239768   1.500   4.030   6.880  0.4834 -2.2897  0.9631
 9378SOL     OW39769   1.671   2.048   2.593  0.3055  0.1128  0.0838
 9378SOL    HW139770   1.698   1.988   2.524  1.1384  1.4977 -0.8023
 9378SOL    HW239771   1.758   2.056   2.632  0.6167  0.7057 -0.7251
 9379SOL     OW39772   3.038   2.367   4.382 -0.3231 -0.0115 -1.0797
 9379SOL    HW139773   3.099   2.412   4.324  0.9177  0.4426  0.5618
 9379SOL    HW239774   2.982   2.439   4.409 -0.6835 -0.9569  0.7047
 9380SOL     OW39775   2.948   1.330   9.574 -0.4929  0.3390 -0.3975
 9380SOL    HW139776   2.953   1.250   9.626 -0.7472 -0.8840 -2.2641
 9380SOL    HW239777   3.035   1.334   9.536 -0.5465 -1.1130 -0.6586
 9381SOL     OW39778   0.936   2.717   0.524  0.0334 -0.9117 -0.0291
 9381SOL    HW139779   0.953   2.737   0.432  1.6810 -1.8608  0.0690
 9381SOL    HW239780   0.971   2.628   0.528  0.8750 -0.6294 -1.0500
 9382SOL     OW39781   2.395   0.822   9.619  0.3179  0.3447 -0.1137
 9382SOL    HW139782   2.427   0.803   9.531  0.0515  0.2180 -0.1806
 9382SOL    HW239783   2.410   0.916   9.629 -0.5352  0.4605  0.0111
 9383SOL     OW39784   3.770   3.309   9.570 -0.0816  0.6104 -0.1378
 9383SOL    HW139785   3.758   3.274   9.659 -0.2122 -0.1993 -0.4733
 9383SOL    HW239786   3.691   3.358   9.546 -1.0304 -1.2159 -0.7047
 9384SOL     OW39787   3.054   3.327   4.979  0.4256 -0.3088  0.1636
 9384SOL    HW139788   3.005   3.409   4.976 -0.3199 -0.7889 -0.5538
 9384SOL    HW239789   3.035   3.284   4.896  0.7184  1.0321 -0.5877
 9385SOL     OW39790   3.656   2.269   5.162 -0.7935 -0.2648  0.3005
 9385SOL    HW139791   3.635   2.362   5.163  0.9625  0.1351 -1.3909
 9385SOL    HW239792   3.572   2.237   5.195 -0.9768  0.5439  0.6104
 9386SOL     OW39793   2.466   2.804   3.232 -0.4323 -0.2675 -0.3170
 9386SOL    HW139794   2.528   2.783   3.162  1.3444  2.4123  0.4600
 9386SOL    HW239795   2.542   2.836   3.281 -0.6902 -1.9924  1.2368
 9387SOL     OW39796   4.306   1.486   3.565 -0.3023  0.7675  0.6460
 9387SOL    HW139797   4.308   1.538   3.484 -0.6512 -0.8692 -0.4296
 9387SOL    HW239798   4.371   1.419   3.543 -0.8572  0.1585  0.8510
 9388SOL     OW39799   0.560   4.273   0.305 -0.1789 -0.4096  0.0422
 9388SOL    HW139800   0.497   4.341   0.329 -0.2967 -0.6280  0.3509
 9388SOL    HW239801   0.610   4.328   0.245 -1.9617 -0.5065 -1.5413
 9389SOL     OW39802   0.113   0.605   7.186 -0.0201 -0.3521  0.2438
 9389SOL    HW139803   0.207   0.613   7.169 -0.2183 -2.0353 -1.6327
 9389SOL    HW239804   0.074   0.677   7.136 -0.8477  1.3730  3.3857
 9390SOL     OW39805   4.508   4.465   3.334  0.1010  0.5007 -0.4307
 9390SOL    HW139806   4.431   4.501   3.379 -0.9088 -1.9493 -0.2293
 9390SOL    HW239807   4.484   4.377   3.304  1.3007  0.4156 -1.1489
 9391SOL     OW39808   2.411   2.815   5.061 -0.5879  0.0651  0.1787
 9391SOL    HW139809   2.501   2.783   5.063 -0.5289  0.2133 -0.0896
 9391SOL    HW239810   2.369   2.801   4.976 -1.3917  2.1700  0.2241
 9392SOL     OW39811   2.300   2.246   4.238 -0.6935 -1.1986 -0.0553
 9392SOL    HW139812   2.288   2.341   4.230  2.1806 -0.9294 -1.1322
 9392SOL    HW239813   2.381   2.236   4.288  1.5478  2.4540 -2.8902
 9393SOL     OW39814   1.940   0.196  16.274 -0.6827 -0.2447 -0.4323
 9393SOL    HW139815   1.857   0.176  16.318  0.0284  0.3656  1.1821
 9393SOL    HW239816   1.899   0.219  16.191 -0.5209  0.8774 -0.2043
 9394SOL     OW39817   2.172   1.693   7.414 -0.1418 -0.7788 -0.6249
 9394SOL    HW139818   2.202   1.662   7.329  3.0066  2.5909 -0.7204
 9394SOL    HW239819   2.116   1.763   7.381 -0.1467 -0.5598 -0.1486
 9395SOL     OW39820   4.127   4.569   8.439 -0.3103 -0.8878  0.6092
 9395SOL    HW139821   4.138   4.521   8.356  1.1222 -1.2310  1.0012
 9395SOL    HW239822   4.203   4.626   8.448 -0.9065  0.2373 -1.4036
 9396SOL     OW39823   2.758   0.727  16.283  0.0375  0.3619  0.2257
 9396SOL    HW139824   2.792   0.667  16.216  4.1666  2.7794  0.1666
 9396SOL    HW239825   2.832   0.767  16.328 -0.1133 -0.9625  1.6371
 9397SOL     OW39826   0.950   4.667  10.654 -0.3331  0.5110  0.0353
 9397SOL    HW139827   0.964   4.577  10.685 -0.7664  0.5482  0.3281
 9397SOL    HW239828   0.877   4.663  10.592  0.1687 -1.3152 -0.4479
 9398SOL     OW39829   2.690   0.573  15.931  0.2838 -0.4411  0.1075
 9398SOL    HW139830   2.725   0.520  16.002  1.9356 -0.2128 -0.5275
 9398SOL    HW239831   2.700   0.510  15.859  0.7185 -1.1393  0.7775
 9399SOL     OW39832   0.377   3.601   2.121 -0.1881  0.2156 -0.0778
 9399SOL    HW139833   0.415   3.647   2.046  0.1800 -2.6409 -1.6428
 9399SOL    HW239834   0.419   3.649   2.192 -1.2796 -0.5008  1.0449
 9400SOL     OW39835   2.344   0.810  14.570  0.1027 -0.7877 -0.3146
 9400SOL    HW139836   2.367   0.726  14.610 -2.9979 -1.6168 -0.3197
 9400SOL    HW239837   2.312   0.783  14.485 -0.1242  2.8657 -1.3686
 9401SOL     OW39838   4.184   2.041   8.349  0.7990 -0.3193 -0.8408
 9401SOL    HW139839   4.097   2.017   8.317  0.5051 -0.4784  0.0725
 9401SOL    HW239840   4.240   1.972   8.312  2.3619 -0.0604  1.0628
 9402SOL     OW39841   3.461   1.669   1.693  0.0822 -0.5159 -0.4118
 9402SOL    HW139842   3.505   1.644   1.612 -0.8941  0.2207 -1.1556
 9402SOL    HW239843   3.419   1.753   1.676 -0.2482 -0.5991 -0.0215
 9403SOL     OW39844   0.701   4.181   3.286  0.5256 -0.6654  0.3822
 9403SOL    HW139845   0.709   4.123   3.362 -2.5712 -0.8344  0.5892
 9403SOL    HW239846   0.606   4.185   3.274  0.7724  0.7903 -1.0848
 9404SOL     OW39847   1.120   0.586  12.512  0.3355 -0.8043 -0.1252
 9404SOL    HW139848   1.064   0.624  12.581  1.1374 -0.6847  0.4602
 9404SOL    HW239849   1.110   0.643  12.436 -4.7039 -1.7005 -0.1445
 9405SOL     OW39850   0.514   1.112   7.363 -0.3918 -0.8541  0.1629
 9405SOL    HW139851   0.488   1.032   7.409  2.0710  0.2569  3.5151
 9405SOL    HW239852   0.533   1.168   7.439 -1.6287 -0.1928 -0.0205
 9406SOL     OW39853   2.112   0.331   6.079  0.2339  0.0877 -0.4904
 9406SOL    HW139854   2.192   0.381   6.069 -0.8246  1.6644 -1.0363
 9406SOL    HW239855   2.096   0.317   6.172 -0.1444 -2.9499 -1.0114
 9407SOL     OW39856   4.311   1.615   8.283  1.0503 -0.9869  0.0697
 9407SOL    HW139857   4.300   1.667   8.362 -1.8600 -1.1620 -0.2252
 9407SOL    HW239858   4.407   1.609   8.289  1.0368 -1.1975  0.0841
 9408SOL     OW39859   2.136   2.322   7.488  0.1371  0.7308  0.5153
 9408SOL    HW139860   2.210   2.302   7.431 -0.8996 -3.3467  0.6177
 9408SOL    HW239861   2.066   2.366   7.440 -0.1210  1.9554  2.0155
 9409SOL     OW39862   2.211   3.297  17.697  0.0255  0.1811 -0.3924
 9409SOL    HW139863   2.212   3.270  17.606 -1.1030 -2.5833  0.4135
 9409SOL    HW239864   2.145   3.366  17.704 -0.4901 -0.2385 -1.1053
 9410SOL     OW39865   3.238   2.818   8.635 -0.4746 -0.1208 -0.3131
 9410SOL    HW139866   3.191   2.886   8.587  1.5236 -0.1966 -2.3623
 9410SOL    HW239867   3.320   2.811   8.586 -0.4806 -1.2265 -0.1776
 9411SOL     OW39868   3.361   4.286   6.971 -0.0986 -0.3131 -0.0056
 9411SOL    HW139869   3.288   4.228   6.950 -0.4111 -0.7660  2.2965
 9411SOL    HW239870   3.359   4.287   7.067  4.1438 -0.7709  0.1098
 9412SOL     OW39871   2.870   0.905   3.674  0.9630 -0.2748  0.1394
 9412SOL    HW139872   2.867   0.966   3.747  0.9434 -0.3886  0.2326
 9412SOL    HW239873   2.935   0.846   3.711  2.2946  0.7526 -0.5260
 9413SOL     OW39874   3.547   3.075   4.615  1.1459 -0.3619 -0.3896
 9413SOL    HW139875   3.481   3.144   4.615  0.3479 -1.1371 -1.7838
 9413SOL    HW239876   3.496   3.005   4.574  1.6067 -0.4798 -0.7585
 9414SOL     OW39877   0.737   1.457  11.897 -0.1010 -0.0944  0.6055
 9414SOL    HW139878   0.645   1.441  11.875 -0.0360 -1.9657  1.6980
 9414SOL    HW239879   0.732   1.519  11.969 -1.6496  0.8882 -0.3328
 9415SOL     OW39880   1.872   1.958   3.685 -0.6447  0.1161 -0.3150
 9415SOL    HW139881   1.867   1.910   3.768  0.8166 -2.5429 -1.7607
 9415SOL    HW239882   1.779   1.965   3.666 -0.5645 -0.0058 -0.7464
 9416SOL     OW39883   3.637   3.494   9.104 -0.0788  0.6028  0.1835
 9416SOL    HW139884   3.560   3.549   9.096  1.1401  1.8295 -2.9688
 9416SOL    HW239885   3.711   3.549   9.129 -0.2528  0.7275  0.4212
 9417SOL     OW39886   0.877   3.883   4.310  0.4747  0.0487  0.6022
 9417SOL    HW139887   0.796   3.895   4.360  0.0556  0.5641 -0.2049
 9417SOL    HW239888   0.839   3.845   4.232  0.3118  1.1691  0.1393
 9418SOL     OW39889   0.751   1.915  12.831 -0.0759  0.4630 -0.4946
 9418SOL    HW139890   0.817   1.983  12.843  0.3532 -0.4251  2.2517
 9418SOL    HW239891   0.717   1.906  12.921  0.6818 -1.4310 -0.3962
 9419SOL     OW39892   0.595   0.176   7.998 -0.1371 -0.2392 -0.4391
 9419SOL    HW139893   0.682   0.214   7.992  0.8983 -2.6260 -0.4491
 9419SOL    HW239894   0.614   0.087   8.027 -0.4595  0.1102  0.8212
 9420SOL     OW39895   4.035   0.276   7.534 -0.0483  0.0124  0.2586
 9420SOL    HW139896   3.948   0.238   7.518 -0.4626  1.3207 -0.6295
 9420SOL    HW239897   4.004   0.357   7.576 -0.7518 -1.2346  2.1336
 9421SOL     OW39898   3.812   3.302   5.751  0.4771  0.0881  0.4356
 9421SOL    HW139899   3.861   3.364   5.805  0.6447  1.3043 -1.0923
 9421SOL    HW239900   3.725   3.343   5.745 -0.0068 -0.8019  1.4436
 9422SOL     OW39901   4.443   0.848   7.967 -0.1602  0.5053 -0.3518
 9422SOL    HW139902   4.481   0.792   7.899  0.5204 -0.8106  1.1212
 9422SOL    HW239903   4.504   0.838   8.039  1.8640  1.1883 -1.9910
 9423SOL     OW39904   0.368   3.929   5.390  0.2487 -0.5651 -0.5583
 9423SOL    HW139905   0.383   3.849   5.441  0.6373  1.3471  2.3006
 9423SOL    HW239906   0.360   3.890   5.303 -2.1384  0.7814 -0.9262
 9424SOL     OW39907   3.779   1.044   5.640  0.7382  0.1050  0.5628
 9424SOL    HW139908   3.873   1.049   5.657  0.8123 -1.1029  0.4898
 9424SOL    HW239909   3.766   1.136   5.615  3.1387  0.3852  0.2970
 9425SOL     OW39910   3.096   1.835   2.870 -0.2162  0.0743  0.5053
 9425SOL    HW139911   3.133   1.772   2.808  1.5914  1.8615 -0.2506
 9425SOL    HW239912   3.023   1.877   2.825  0.4194 -0.7631 -1.3008
 9426SOL     OW39913   4.392   2.816   6.220 -0.3002  0.5256  0.2714
 9426SOL    HW139914   4.455   2.774   6.162 -0.3542  0.8084  0.0062
 9426SOL    HW239915   4.323   2.749   6.226  1.0896 -0.7851  1.5840
 9427SOL     OW39916   1.590   3.085   0.121  0.0633 -0.3820  0.4576
 9427SOL    HW139917   1.655   3.149   0.150 -1.1930  1.4245 -0.6743
 9427SOL    HW239918   1.575   3.036   0.202  0.1671  0.2936  0.8833
 9428SOL     OW39919   4.625   2.133   3.733 -0.3864 -0.5607  0.1070
 9428SOL    HW139920   4.555   2.178   3.685  1.2123  0.0305 -1.6306
 9428SOL    HW239921   4.689   2.134   3.662  1.7568  0.6932  2.0581
 9429SOL     OW39922   2.816   1.576  12.676 -0.4644 -0.2088 -0.4319
 9429SOL    HW139923   2.835   1.668  12.695  0.2272  0.0511 -2.3855
 9429SOL    HW239924   2.730   1.569  12.718 -0.0529  0.7321  0.5827
 9430SOL     OW39925   3.456   2.170   8.524  0.4378  0.4062  0.3624
 9430SOL    HW139926   3.513   2.112   8.575  0.4944  2.5000  2.6796
 9430SOL    HW239927   3.410   2.221   8.591 -0.0180  1.5858 -0.8565
 9431SOL     OW39928   0.576   3.779  10.226  0.0697  0.5354  0.2502
 9431SOL    HW139929   0.485   3.766  10.199  0.5262 -0.3704 -0.8133
 9431SOL    HW239930   0.585   3.727  10.306 -0.4166 -0.4070 -0.3185
 9432SOL     OW39931   1.507   2.743  13.679  0.2464 -0.1412 -0.1910
 9432SOL    HW139932   1.507   2.829  13.637  0.9283  0.3191  0.7517
 9432SOL    HW239933   1.412   2.736  13.693  0.2833  0.4772  0.3866
 9433SOL     OW39934   1.161   0.498   3.273  0.0981  0.5147  0.1519
 9433SOL    HW139935   1.181   0.484   3.366  1.1657 -1.0717 -0.3278
 9433SOL    HW239936   1.130   0.589   3.278 -0.3671  0.3262  0.7082
 9434SOL     OW39937   2.353   4.582   6.142  0.4076 -0.3754  0.2407
 9434SOL    HW139938   2.262   4.555   6.132  0.6225 -0.3794 -1.6904
 9434SOL    HW239939   2.401   4.500   6.135  0.9272 -0.0370 -0.0986
 9435SOL     OW39940   0.832   4.358   3.545 -0.0005 -0.2901 -0.3921
 9435SOL    HW139941   0.780   4.286   3.507  0.6226 -1.0714  0.2319
 9435SOL    HW239942   0.909   4.313   3.579 -0.8833 -0.7752  0.9941
 9436SOL     OW39943   3.256   1.207  16.823 -0.5987 -0.3647 -0.3591
 9436SOL    HW139944   3.334   1.152  16.814 -0.6269 -0.4548 -0.0260
 9436SOL    HW239945   3.251   1.243  16.734  1.1881  0.3599 -0.1747
 9437SOL     OW39946   1.964   1.103   6.868 -0.0364  0.4071 -0.0375
 9437SOL    HW139947   2.058   1.097   6.851 -0.2339 -1.9412 -0.2175
 9437SOL    HW239948   1.957   1.080   6.960 -2.3110 -0.2433 -0.3738
 9438SOL     OW39949   2.798   0.296  14.619 -0.4690  0.4365  0.8093
 9438SOL    HW139950   2.873   0.344  14.583 -2.0564 -0.3684 -3.5457
 9438SOL    HW239951   2.835   0.211  14.644  0.3162  0.0267 -1.7436
 9439SOL     OW39952   3.861   4.423   8.979 -0.6768  0.1435 -1.3102
 9439SOL    HW139953   3.893   4.412   9.069  0.1546  0.1030 -1.6161
 9439SOL    HW239954   3.893   4.347   8.932  1.5056  0.3552 -0.1459
 9440SOL     OW39955   2.565   1.231   7.153  0.2657  0.5897 -1.1839
 9440SOL    HW139956   2.559   1.217   7.059 -0.1099 -0.3741 -1.0137
 9440SOL    HW239957   2.657   1.206   7.156 -0.0083 -0.5170 -2.2077
 9441SOL     OW39958   1.625   3.938  11.682 -0.3557 -0.4957 -0.3357
 9441SOL    HW139959   1.547   3.885  11.665 -1.4605  0.7163  0.9558
 9441SOL    HW239960   1.677   3.935  11.602  0.6889  1.8378  0.2503
 9442SOL     OW39961   3.313   2.203  14.658  0.4826  0.2567  0.3370
 9442SOL    HW139962   3.341   2.243  14.741 -1.3768 -2.2546  2.1841
 9442SOL    HW239963   3.238   2.258  14.635 -0.7069 -1.2371  0.6174
 9443SOL     OW39964   0.674   0.937  16.146 -0.1021  0.4389 -0.2301
 9443SOL    HW139965   0.724   0.993  16.205 -0.0160  0.3320 -0.2001
 9443SOL    HW239966   0.695   0.976  16.061  0.6591 -1.8670 -1.1051
 9444SOL     OW39967   4.414   0.944  11.774 -0.1559 -0.5853  0.1840
 9444SOL    HW139968   4.336   0.911  11.729 -0.5161  1.3418 -0.6018
 9444SOL    HW239969   4.413   0.893  11.855  2.0564  2.8592  2.3576
 9445SOL     OW39970   0.964   2.097   6.088  0.1398  0.1043 -0.2261
 9445SOL    HW139971   1.047   2.063   6.121  0.8953  1.1324 -1.0744
 9445SOL    HW239972   0.986   2.188   6.069 -2.1218  0.5182 -0.8979
 9446SOL     OW39973   2.887   0.549  14.864  0.0628 -0.5856  0.1168
 9446SOL    HW139974   2.814   0.610  14.857 -0.2497 -0.8002  1.5516
 9446SOL    HW239975   2.943   0.603  14.921  1.0329 -2.4924  0.9469
 9447SOL     OW39976   0.498   4.614   8.403 -0.1610 -0.2460  0.7284
 9447SOL    HW139977   0.429   4.680   8.395  0.4602  0.3964  0.6386
 9447SOL    HW239978   0.450   4.562   8.467  0.6838 -0.8581  0.8758
 9448SOL     OW39979   0.150   4.547  17.525 -0.0621  1.2482 -0.0857
 9448SOL    HW139980   0.112   4.510  17.446 -0.7606 -1.9448  1.7493
 9448SOL    HW239981   0.200   4.468  17.546 -1.5702  0.8864  2.0946
 9449SOL     OW39982   1.146   3.342   6.991  0.0130  0.0073 -0.5123
 9449SOL    HW139983   1.193   3.380   6.917  1.2185 -2.1567 -0.8860
 9449SOL    HW239984   1.222   3.301   7.033  0.4522  0.4330 -0.9011
 9450SOL     OW39985   0.431   4.066   0.147  0.1104 -0.4512 -0.3989
 9450SOL    HW139986   0.452   4.127   0.217 -0.5308 -1.8857  1.0577
 9450SOL    HW239987   0.502   4.001   0.145 -0.8367 -1.5008  0.4890
 9451SOL     OW39988   4.721   2.448   4.902 -0.5352 -0.3312 -0.2787
 9451SOL    HW139989   4.676   2.452   4.986 -0.8444 -1.0032 -0.4064
 9451SOL    HW239990   0.069   2.422   4.931  0.3925  2.4504 -0.6357
 9452SOL     OW39991   4.084   1.668  14.882  0.2619 -0.4197 -0.3733
 9452SOL    HW139992   4.056   1.671  14.790  0.8368  1.5094 -0.5051
 9452SOL    HW239993   4.010   1.618  14.915  1.5810 -1.4506  0.9851
 9453SOL     OW39994   4.142   2.344   3.723  0.0556 -0.6388 -0.4098
 9453SOL    HW139995   4.142   2.314   3.814  0.0343  2.4612  0.6282
 9453SOL    HW239996   4.202   2.291   3.672 -0.2186 -0.6274 -0.7449
 9454SOL     OW39997   4.087   4.066   3.806  0.0837 -0.0065  0.1786
 9454SOL    HW139998   4.116   4.095   3.719  0.4851  2.3630  1.1182
 9454SOL    HW239999   4.123   3.978   3.793 -0.3221 -0.1111 -0.2613
 9455SOL     OW40000   3.936   4.046  13.936  0.2908 -0.2373  0.1290
 9455SOL    HW140001   4.001   4.013  13.874 -2.0915 -1.4550 -1.7420
 9455SOL    HW240002   3.975   4.026  14.021  0.2734  1.7876  0.6041
 9456SOL     OW40003   3.103   0.530  13.541  0.5071 -0.0179  0.2940
 9456SOL    HW140004   3.127   0.565  13.456  0.4107  0.9496  0.6649
 9456SOL    HW240005   3.180   0.549  13.595 -0.4759 -0.4826  1.8815
 9457SOL     OW40006   3.243   0.171   8.243  0.1847  0.1273 -0.6520
 9457SOL    HW140007   3.179   0.241   8.233  1.4798  0.7402 -4.8572
 9457SOL    HW240008   3.209   0.107   8.180 -2.9752 -0.5149  1.6982
 9458SOL     OW40009   4.524   3.294   9.744 -0.1008  0.5486 -0.9120
 9458SOL    HW140010   4.436   3.307   9.779  0.3937  1.0811  0.1441
 9458SOL    HW240011   4.567   3.379   9.756  2.6433 -0.8411 -0.8098
 9459SOL     OW40012   4.607   2.592   4.329 -0.5797 -0.8281 -0.1726
 9459SOL    HW140013   4.611   2.678   4.287  0.6340 -0.1958  1.2419
 9459SOL    HW240014   4.651   2.541   4.261 -1.3953 -0.2768 -1.1056
 9460SOL     OW40015   0.071   4.213  11.510  0.5415  0.1062  0.0785
 9460SOL    HW140016   0.063   4.308  11.512 -2.3579 -0.1413 -0.7255
 9460SOL    HW240017   0.050   4.186  11.599  0.7432 -1.9901 -0.5176
 9461SOL     OW40018   2.262   3.699   6.126 -0.4203  0.0335 -0.0139
 9461SOL    HW140019   2.309   3.743   6.055  0.1723  0.8664  0.8852
 9461SOL    HW240020   2.180   3.747   6.122 -1.6797 -2.2362 -0.9298
 9462SOL     OW40021   0.047   3.213   2.594  0.4810 -0.5447  0.1282
 9462SOL    HW140022   4.700   3.188   2.561  0.1659 -0.4772  0.8932
 9462SOL    HW240023   0.095   3.134   2.569  0.6287  0.1061 -1.6072
 9463SOL     OW40024   1.574   0.460   1.705  0.1451 -0.3472  0.2180
 9463SOL    HW140025   1.649   0.502   1.747 -1.0009 -1.1440  3.0490
 9463SOL    HW240026   1.495   0.491   1.748 -0.1257  0.1343 -0.6176
 9464SOL     OW40027   2.339   3.774  10.948  0.4924  0.2199 -0.1466
 9464SOL    HW140028   2.374   3.689  10.974 -1.8046 -0.0131  2.2605
 9464SOL    HW240029   2.418   3.828  10.941 -0.3861  1.8973  2.7939
 9465SOL     OW40030   1.748   1.737   1.851  0.1603 -0.3078 -0.8142
 9465SOL    HW140031   1.834   1.770   1.823  0.9002 -0.9830  0.6723
 9465SOL    HW240032   1.762   1.716   1.943  0.2193  1.2725 -0.4705
 9466SOL     OW40033   2.470   4.510   5.393  0.6641  0.6775  0.2270
 9466SOL    HW140034   2.443   4.578   5.454 -0.3884  1.7655 -1.4515
 9466SOL    HW240035   2.541   4.558   5.351  0.6599 -0.0800 -0.6627
 9467SOL     OW40036   0.154   2.257   5.120  0.0567  0.0697  0.1104
 9467SOL    HW140037   0.205   2.201   5.061 -1.4478  0.5738 -1.6713
 9467SOL    HW240038   0.097   2.193   5.164  1.4960  1.4219  3.9420
 9468SOL     OW40039   2.257   0.496   8.192  0.8732 -0.1950 -0.8154
 9468SOL    HW140040   2.173   0.539   8.175  1.4711  1.9535  1.5620
 9468SOL    HW240041   2.304   0.498   8.109 -0.0019 -1.7622 -1.3493
 9469SOL     OW40042   1.933   1.542   8.991 -0.1150  0.1551  0.2534
 9469SOL    HW140043   1.862   1.603   9.012 -1.4937 -0.9880 -1.1079
 9469SOL    HW240044   1.988   1.555   9.068  0.3750 -2.1214  0.3035
 9470SOL     OW40045   2.697   0.425   0.888 -0.0926 -0.0505 -0.2228
 9470SOL    HW140046   2.631   0.445   0.821  0.5646 -1.2291 -1.2190
 9470SOL    HW240047   2.771   0.473   0.852 -1.5029  1.2790 -1.3535
 9471SOL     OW40048   0.554   2.257   1.128  0.1759 -0.3340  0.4969
 9471SOL    HW140049   0.578   2.189   1.065 -1.5221 -0.3251 -0.1850
 9471SOL    HW240050   0.639   2.279   1.165  0.5287 -0.9497  0.0536
 9472SOL     OW40051   0.387   1.152   8.593  0.6793  0.1753  0.5103
 9472SOL    HW140052   0.413   1.167   8.501  0.3388 -0.7948  0.2638
 9472SOL    HW240053   0.302   1.109   8.581 -0.5553  2.8146 -0.3305
 9473SOL     OW40054   2.907   2.045  12.226 -0.0836 -0.0370 -0.2493
 9473SOL    HW140055   2.993   2.077  12.256 -0.1247 -1.7503  1.7079
 9473SOL    HW240056   2.845   2.077  12.292  0.8032  0.7427  0.2094
 9474SOL     OW40057   4.483   2.665   5.709  0.3618  0.1867 -0.1025
 9474SOL    HW140058   4.558   2.660   5.649  1.3063  0.8407  1.0274
 9474SOL    HW240059   4.510   2.598   5.772  1.2916  0.3217 -0.3585
 9475SOL     OW40060   4.559   0.764   4.414 -0.4591  0.7552 -0.5184
 9475SOL    HW140061   4.615   0.722   4.479  0.8576  0.8204 -1.6210
 9475SOL    HW240062   4.596   0.853   4.411 -0.1257  0.6393  0.1873
 9476SOL     OW40063   1.396   2.586   6.470 -0.2298  0.2727  0.0705
 9476SOL    HW140064   1.437   2.627   6.393  0.1873 -0.1813  0.0563
 9476SOL    HW240065   1.464   2.593   6.537  0.5425  3.0220 -0.9978
 9477SOL     OW40066   1.080   0.319  16.154  0.4080  0.2583 -1.0520
 9477SOL    HW140067   1.027   0.378  16.208  0.9498  0.6836 -0.9859
 9477SOL    HW240068   1.014   0.262  16.116 -0.9440  0.1121  1.5223
 9478SOL     OW40069   1.293   0.380  14.305  0.5715  0.0770 -0.2938
 9478SOL    HW140070   1.266   0.405  14.217  1.4687  0.8027 -0.3592
 9478SOL    HW240071   1.216   0.404  14.357  1.3518  0.3350  0.7420
 9479SOL     OW40072   0.289   1.903  16.037 -0.3180  0.1218 -0.1471
 9479SOL    HW140073   0.233   1.939  16.106  0.5569 -0.2611  0.7500
 9479SOL    HW240074   0.304   1.986  15.992 -0.1595  0.5397  0.6700
 9480SOL     OW40075   0.435   2.054   4.449  0.2932  0.1705  0.5270
 9480SOL    HW140076   0.363   2.090   4.501  0.4690 -0.7263  1.4014
 9480SOL    HW240077   0.499   2.116   4.484 -0.8950  0.9451  1.3070
 9481SOL     OW40078   1.748   3.259   7.432  0.5026 -0.2101 -0.3562
 9481SOL    HW140079   1.796   3.180   7.459 -0.6312 -1.2819 -1.4652
 9481SOL    HW240080   1.662   3.241   7.469  0.2949  1.3283 -0.1228
 9482SOL     OW40081   2.247   3.297  12.270 -0.2540  0.0004  0.0862
 9482SOL    HW140082   2.165   3.306  12.221 -0.9057 -1.7603  0.8402
 9482SOL    HW240083   2.267   3.387  12.292  2.5281 -0.7094  0.4140
 9483SOL     OW40084   0.346   3.617   8.205  0.0397  0.1326 -0.1690
 9483SOL    HW140085   0.301   3.595   8.286 -1.2667  2.6816 -0.1908
 9483SOL    HW240086   0.292   3.563   8.148 -2.5111  0.5422  1.8825
 9484SOL     OW40087   0.005   2.689   0.132 -0.5229 -0.2723 -0.0585
 9484SOL    HW140088   0.006   2.646   0.217  0.9457  0.9063  0.5191
 9484SOL    HW240089   0.051   2.771   0.153  1.2948 -1.4548  0.5939
 9485SOL     OW40090   1.002   0.961   7.967 -0.4260  0.2488 -0.5363
 9485SOL    HW140091   0.925   0.909   7.945 -0.5578  0.4674 -0.5839
 9485SOL    HW240092   0.972   1.042   8.009 -0.2814 -0.8237  1.6543
 9486SOL     OW40093   3.638   2.837  13.166 -0.1688 -0.3607 -0.1749
 9486SOL    HW140094   3.682   2.753  13.168 -0.0584 -0.2630  1.3396
 9486SOL    HW240095   3.707   2.895  13.134  0.2306 -0.6465  0.1820
 9487SOL     OW40096   4.473   4.399  13.469 -0.3578 -0.3217  0.0521
 9487SOL    HW140097   4.490   4.304  13.473  1.9679  0.0467 -1.1447
 9487SOL    HW240098   4.485   4.416  13.376 -3.4753 -2.6895 -0.7794
 9488SOL     OW40099   1.622   1.171   4.250  0.6285  0.1019  0.2415
 9488SOL    HW140100   1.670   1.088   4.244  0.7348  0.1291  0.7074
 9488SOL    HW240101   1.661   1.227   4.183  1.1759  0.9806  1.3017
 9489SOL     OW40102   0.940   4.128   1.327  0.0350  0.2848  0.0645
 9489SOL    HW140103   0.919   4.103   1.237 -0.0735  1.5687 -0.2554
 9489SOL    HW240104   1.036   4.126   1.321 -0.0020  0.0901 -0.4915
 9490SOL     OW40105   3.892   1.223  14.921  0.5497  0.1582 -0.0616
 9490SOL    HW140106   3.837   1.204  14.845 -2.4371  0.7853  1.9001
 9490SOL    HW240107   3.933   1.138  14.939  0.5616 -0.2153 -1.8474
 9491SOL     OW40108   0.639   2.743   5.306  0.4885 -0.2244 -0.2768
 9491SOL    HW140109   0.650   2.709   5.395  1.3238 -4.5306 -1.9936
 9491SOL    HW240110   0.659   2.834   5.325  0.9422 -0.3231 -0.2964
 9492SOL     OW40111   0.487   0.628   7.662  0.2793  0.4132 -0.5353
 9492SOL    HW140112   0.560   0.680   7.695  1.2719 -1.2749 -0.0750
 9492SOL    HW240113   0.537   0.547   7.667 -1.1054 -0.6870 -4.6376
 9493SOL     OW40114   2.488   0.517   2.365  0.0507 -0.4183 -0.1399
 9493SOL    HW140115   2.533   0.457   2.423 -0.8204 -1.5617 -0.6588
 9493SOL    HW240116   2.473   0.591   2.424 -1.4405 -0.2819 -0.6879
 9494SOL     OW40117   0.010   4.401  17.335 -0.1070  0.7858  0.0246
 9494SOL    HW140118   0.089   4.353  17.310  0.0332  0.5357  0.9437
 9494SOL    HW240119   4.684   4.346  17.291 -1.1346  0.1430  2.2974
 9495SOL     OW40120   0.977   2.088   7.177 -0.1306 -0.6850 -0.1111
 9495SOL    HW140121   0.925   2.014   7.207 -0.6248  0.1740  1.1897
 9495SOL    HW240122   0.908   2.150   7.152 -0.3250 -1.0146 -0.3836
 9496SOL     OW40123   4.198   2.279   9.044 -0.0465  0.0315  0.4385
 9496SOL    HW140124   4.209   2.189   9.072 -0.1583 -0.2240 -0.3404
 9496SOL    HW240125   4.104   2.292   9.060 -0.0136  0.4971  0.2626
 9497SOL     OW40126   0.525   2.831  12.449 -0.0281 -0.1918  0.0450
 9497SOL    HW140127   0.535   2.755  12.392 -2.6348  0.2322 -0.9502
 9497SOL    HW240128   0.451   2.804  12.503 -0.6828  2.9552  0.7425
 9498SOL     OW40129   1.913   4.612   9.117  0.6576  0.2576 -0.0144
 9498SOL    HW140130   1.854   4.545   9.084  3.0027 -1.2592 -1.1733
 9498SOL    HW240131   1.888   4.699   9.085 -2.0893 -0.5802 -0.0960
 9499SOL     OW40132   0.985   1.932   4.551 -0.0407 -0.2964  0.6370
 9499SOL    HW140133   0.908   1.896   4.506  0.8029 -1.7930  0.4078
 9499SOL    HW240134   1.043   1.928   4.475  1.1507 -2.7978  1.6944
 9500SOL     OW40135   4.250   2.273   6.319 -0.1555  0.2078 -0.8684
 9500SOL    HW140136   4.192   2.229   6.257 -1.2734  0.7829 -0.2327
 9500SOL    HW240137   4.283   2.198   6.368 -1.0270  0.8903  0.7662
 9501SOL     OW40138   2.100   3.664   7.423  0.1563  0.1165  0.3257
 9501SOL    HW140139   2.128   3.735   7.366 -1.2658 -1.3712 -2.2234
 9501SOL    HW240140   2.008   3.686   7.439 -0.9663 -2.0705 -3.1651
 9502SOL     OW40141   1.161   0.742   6.183 -0.0095 -0.2770 -0.1775
 9502SOL    HW140142   1.122   0.813   6.131  0.9708  1.0544  0.9074
 9502SOL    HW240143   1.255   0.759   6.174 -0.1154  0.3608 -0.0838
 9503SOL     OW40144   4.099   0.200   9.295  0.1813  0.1304 -0.0028
 9503SOL    HW140145   4.129   0.131   9.355 -0.6278 -0.0467  0.1942
 9503SOL    HW240146   4.103   0.158   9.209  2.7184  1.5973 -0.5946
 9504SOL     OW40147   2.658   4.733   2.209 -0.5500  0.1264 -0.4616
 9504SOL    HW140148   2.650   4.705   2.300 -1.7541  0.3716 -0.4993
 9504SOL    HW240149   2.582   0.052   2.204 -0.8808 -0.4641 -2.5022
 9505SOL     OW40150   0.841   0.154   6.027 -0.1208 -0.0239 -0.7375
 9505SOL    HW140151   0.930   0.181   6.004  0.0152 -1.6044 -2.0418
 9505SOL    HW240152   0.830   0.089   5.958 -0.4826 -1.5940  0.7925
 9506SOL     OW40153   0.308   2.081   0.154  0.1777 -0.1110 -0.4973
 9506SOL    HW140154   0.240   2.022   0.187  0.3816  0.3369  0.7332
 9506SOL    HW240155   0.255   2.154   0.122  0.8340  0.3464 -0.5447
 9507SOL     OW40156   4.589   2.601   7.191 -0.0003 -0.3821 -0.0883
 9507SOL    HW140157   4.550   2.581   7.276 -0.7414 -1.3432 -0.6487
 9507SOL    HW240158   4.679   2.626   7.211 -0.3629 -0.7343  1.9428
 9508SOL     OW40159   2.521   2.257   8.699 -0.4566 -0.2655 -0.1377
 9508SOL    HW140160   2.613   2.260   8.727 -0.6849  2.1494  0.3783
 9508SOL    HW240161   2.516   2.317   8.625 -0.4238  0.6866  0.6275
 9509SOL     OW40162   3.649   1.344   4.340 -0.4686 -0.3495  0.1608
 9509SOL    HW140163   3.667   1.259   4.300  2.3433 -0.3326  1.3615
 9509SOL    HW240164   3.722   1.386   4.293  0.1390 -2.6594 -0.9458
 9510SOL     OW40165   2.785   0.889   8.075  0.4817 -0.3650  0.2103
 9510SOL    HW140166   2.789   0.861   7.984 -0.7428  2.3415 -0.6666
 9510SOL    HW240167   2.821   0.977   8.065  0.6066 -0.4329  0.0791
 9511SOL     OW40168   4.315   2.226   8.097  0.0893 -0.6648  0.4616
 9511SOL    HW140169   4.354   2.312   8.083 -2.0075  0.0968 -0.7062
 9511SOL    HW240170   4.223   2.240   8.073  0.3821  0.8670  0.2653
 9512SOL     OW40171   2.266   3.164   4.426  0.3209 -0.3011 -0.0603
 9512SOL    HW140172   2.238   3.200   4.510 -2.1133 -0.7838 -0.6673
 9512SOL    HW240173   2.251   3.237   4.365 -0.8000 -0.0153  0.5663
 9513SOL     OW40174   0.354   4.501  17.027  0.0214  0.6107 -0.4477
 9513SOL    HW140175   0.281   4.481  16.968 -0.8577  0.4199  0.7039
 9513SOL    HW240176   0.315   4.567  17.084 -0.2993  1.7186 -1.9226
 9514SOL     OW40177   3.073   1.212   3.532 -0.1578  0.9700  0.1294
 9514SOL    HW140178   3.038   1.248   3.451  2.3948 -0.9139 -1.8312
 9514SOL    HW240179   2.996   1.228   3.587 -1.4101  0.9483 -1.6418
 9515SOL     OW40180   1.342   0.754   6.865 -0.8773 -0.5522  0.2065
 9515SOL    HW140181   1.362   0.795   6.949  1.2331 -2.0787  0.4432
 9515SOL    HW240182   1.415   0.699   6.838 -2.6919 -2.0764 -1.5856
 9516SOL     OW40183   0.318   2.587   6.900 -0.7687  0.0993 -0.0549
 9516SOL    HW140184   0.364   2.667   6.923  0.1575 -0.1079 -1.1703
 9516SOL    HW240185   0.316   2.536   6.981  0.9937 -1.0394 -0.7074
 9517SOL     OW40186   0.975   2.503   7.908 -0.3260  0.0972 -0.3943
 9517SOL    HW140187   0.994   2.594   7.887 -1.1459  0.4300  0.2928
 9517SOL    HW240188   0.917   2.511   7.983 -0.5414  1.9948 -0.7672
 9518SOL     OW40189   4.495   2.865   4.437 -0.1569  0.1212  0.4935
 9518SOL    HW140190   4.558   2.860   4.366  0.4401 -0.6504  1.0790
 9518SOL    HW240191   4.419   2.888   4.383  0.1284  0.6990  0.3389
 9519SOL     OW40192   3.900   0.631   6.972  0.2245  0.4452 -0.2987
 9519SOL    HW140193   3.809   0.643   6.943  0.0352  2.1432  0.9816
 9519SOL    HW240194   3.921   0.544   6.936 -1.2980  1.5925 -3.9300
 9520SOL     OW40195   0.360   3.448  11.237  0.0378 -0.2994  0.1037
 9520SOL    HW140196   0.278   3.498  11.236 -1.8623 -3.4301  0.5068
 9520SOL    HW240197   0.362   3.417  11.146  2.0358  3.5110 -1.1850
 9521SOL     OW40198   0.294   3.980   8.202  0.4111 -0.1134  0.2690
 9521SOL    HW140199   0.351   4.055   8.184  0.2240 -0.0353 -0.0035
 9521SOL    HW240200   0.293   3.929   8.121 -1.8950 -0.1544  0.3260
 9522SOL     OW40201   4.676   3.614   3.485 -0.0902 -0.2766 -0.0081
 9522SOL    HW140202   4.734   3.595   3.559 -1.0795 -0.4897  0.7051
 9522SOL    HW240203   4.603   3.657   3.528  0.4514 -0.4205  1.0639
 9523SOL     OW40204   1.899   3.893   9.675 -0.3103 -0.6289  0.3632
 9523SOL    HW140205   1.903   3.827   9.606  1.5426  0.6605 -0.7489
 9523SOL    HW240206   1.942   3.954   9.616  0.4766 -1.3521  0.1898
 9524SOL     OW40207   0.623   3.809   8.009  0.1075 -0.2795  0.3467
 9524SOL    HW140208   0.602   3.821   8.102 -1.1238  0.2980 -0.0073
 9524SOL    HW240209   0.535   3.822   7.972 -0.4954 -1.2876  1.4018
 9525SOL     OW40210   0.822   2.594   3.196 -0.1947  0.3844 -0.6488
 9525SOL    HW140211   0.852   2.575   3.107  0.3900  0.1217 -0.3934
 9525SOL    HW240212   0.863   2.680   3.199 -1.3550  0.7945  2.7998
 9526SOL     OW40213   3.348   4.365   3.350 -0.2013  0.4062  0.9009
 9526SOL    HW140214   3.436   4.390   3.379 -0.1840  1.5570 -0.1561
 9526SOL    HW240215   3.372   4.354   3.258 -0.2854 -1.9251  1.1555
 9527SOL     OW40216   1.921   3.425   8.542  0.1178  0.4038  0.5323
 9527SOL    HW140217   2.014   3.407   8.528 -0.0284  0.8867 -1.0683
 9527SOL    HW240218   1.930   3.504   8.596 -0.0157  0.7906 -0.0113
 9528SOL     OW40219   0.229   4.466   6.499  0.1136 -0.0044 -0.2142
 9528SOL    HW140220   0.292   4.538   6.487  0.3302  0.0372  1.2148
 9528SOL    HW240221   0.267   4.395   6.447  1.3597  1.2105 -0.9800
 9529SOL     OW40222   0.379   4.620   5.188  0.2939  0.1613 -0.8242
 9529SOL    HW140223   0.441   4.669   5.134  0.9058  0.5063  0.2016
 9529SOL    HW240224   0.435   4.568   5.244 -2.0479 -3.2682 -1.6748
 9530SOL     OW40225   1.446   1.859   4.322 -0.5624  0.0331 -0.1354
 9530SOL    HW140226   1.459   1.800   4.248 -0.2751 -0.5922  0.4162
 9530SOL    HW240227   1.486   1.940   4.292  0.1489 -1.5956 -3.5316
 9531SOL     OW40228   0.937   2.710   2.147  0.0005 -0.9807  0.4758
 9531SOL    HW140229   0.895   2.688   2.230 -3.3566 -0.1503 -0.9647
 9531SOL    HW240230   1.010   2.768   2.168 -0.5648  0.0317 -0.3233
 9532SOL     OW40231   0.743   4.117   8.075  0.3000 -0.5385  0.0857
 9532SOL    HW140232   0.719   4.029   8.046  0.7150  0.6441 -3.8626
 9532SOL    HW240233   0.742   4.110   8.170 -0.6519 -0.4061  0.0896
 9533SOL     OW40234   0.500   2.068   5.853  0.2567  0.2018  0.2949
 9533SOL    HW140235   0.437   2.099   5.787 -0.1782  0.6174  0.9026
 9533SOL    HW240236   0.453   1.987   5.874 -0.2878 -0.1207 -2.1364
 9534SOL     OW40237   1.075   3.214  11.878 -0.6652  0.1188 -0.5118
 9534SOL    HW140238   1.035   3.243  11.796  1.6190  1.5660 -1.1317
 9534SOL    HW240239   1.000   3.180  11.927  1.7539 -2.2749  1.5367
 9535SOL     OW40240   2.490   3.306   1.723  0.2002  0.2228  0.0190
 9535SOL    HW140241   2.566   3.336   1.773  1.3594 -0.8228 -1.1054
 9535SOL    HW240242   2.416   3.348   1.765 -0.7157  0.0878 -1.4392
 9536SOL     OW40243   4.683   3.271   4.879  0.1265  0.1868  0.1476
 9536SOL    HW140244   4.689   3.294   4.786  0.2412  2.0485  0.6028
 9536SOL    HW240245   4.678   3.360   4.915  1.9533  0.2073  0.3837
 9537SOL     OW40246   3.502   0.967   5.798  0.1646 -0.0784  0.3338
 9537SOL    HW140247   3.425   0.912   5.781 -0.4691  0.4619  1.4717
 9537SOL    HW240248   3.529   1.005   5.714 -2.9433 -1.6819 -1.4170
 9538SOL     OW40249   1.851   2.552   2.154 -0.9200 -0.0904 -0.8551
 9538SOL    HW140250   1.901   2.603   2.218 -1.9942  2.1213 -1.7814
 9538SOL    HW240251   1.899   2.576   2.074 -0.9696 -0.2309 -0.9267
 9539SOL     OW40252   2.361   3.917  11.902  0.3488 -0.6601 -0.1619
 9539SOL    HW140253   2.431   3.915  11.966 -0.8338  0.5887  1.1674
 9539SOL    HW240254   2.300   3.855  11.942 -1.4306  2.3379  1.8097
 9540SOL     OW40255   3.653   4.059  14.113 -0.0326  0.2920 -0.2750
 9540SOL    HW140256   3.725   4.000  14.134 -0.6491 -1.3069 -2.6749
 9540SOL    HW240257   3.652   4.047  14.018 -1.4438 -0.0885 -0.2115
 9541SOL     OW40258   0.051   1.743  11.909  0.2084  0.1364  0.2054
 9541SOL    HW140259   0.047   1.737  12.004 -2.5885 -0.3416  0.0555
 9541SOL    HW240260   4.697   1.763  11.894  0.1811  2.2984  3.2703
 9542SOL     OW40261   3.932   0.605   9.503  0.6938  0.0336  0.2585
 9542SOL    HW140262   3.886   0.688   9.499 -0.5432 -0.6235  1.0577
 9542SOL    HW240263   3.912   0.581   9.593  1.5229 -2.8207 -0.3097
 9543SOL     OW40264   2.096   1.524  17.539 -0.2604 -0.2440  0.1108
 9543SOL    HW140265   2.095   1.461  17.467 -3.4809 -1.4232  1.1635
 9543SOL    HW240266   2.122   1.469  17.613 -0.0323  0.0565  0.2512
 9544SOL     OW40267   1.054   0.738  14.537  0.0566 -0.3517  0.2677
 9544SOL    HW140268   1.125   0.779  14.489 -0.7855 -0.4507 -1.0884
 9544SOL    HW240269   0.972   0.774  14.502  1.8399  0.8369 -2.6860
 9545SOL     OW40270   1.326   1.139   5.641 -0.2082  0.2811 -0.4697
 9545SOL    HW140271   1.269   1.084   5.696  0.4493 -2.0059 -2.0674
 9545SOL    HW240272   1.312   1.106   5.553  0.5032 -2.2412  0.3564
 9546SOL     OW40273   3.611   4.418   3.434  0.4364 -0.0993 -0.4093
 9546SOL    HW140274   3.670   4.444   3.363  1.2119  0.7404  0.5588
 9546SOL    HW240275   3.671   4.351   3.466 -1.8564 -2.6082 -1.3293
 9547SOL     OW40276   0.103   1.367   0.382  0.3761  0.5723  0.0395
 9547SOL    HW140277   0.043   1.353   0.455 -2.8333  0.9846 -2.5385
 9547SOL    HW240278   0.118   1.277   0.353 -0.0066 -0.0104  1.6546
 9548SOL     OW40279   4.439   3.755   2.521 -0.0854 -0.2415 -0.0777
 9548SOL    HW140280   4.449   3.811   2.445  0.3215  0.3204  0.3869
 9548SOL    HW240281   4.393   3.679   2.487 -3.5663  0.7604  2.3673
 9549SOL     OW40282   1.864   1.425   4.284  0.3112 -0.0149 -0.0541
 9549SOL    HW140283   1.882   1.421   4.190  0.5450 -0.1853 -0.0006
 9549SOL    HW240284   1.903   1.344   4.316  0.4679  0.9968  2.3359
 9550SOL     OW40285   3.770   2.240   2.083  0.0622  0.2349  0.0284
 9550SOL    HW140286   3.756   2.230   1.988  0.2821  0.8160 -0.0681
 9550SOL    HW240287   3.695   2.291   2.116  0.2704 -1.0287  2.4250
 9551SOL     OW40288   0.210   0.707   1.915 -0.4764 -0.0209  0.1398
 9551SOL    HW140289   0.207   0.803   1.923  0.7039  0.0665 -0.3338
 9551SOL    HW240290   0.288   0.689   1.862 -0.7994 -0.7615 -0.0750
 9552SOL     OW40291   0.289   0.247   9.697  0.3938  0.0296 -0.3837
 9552SOL    HW140292   0.295   0.342   9.707 -0.8660  0.1699 -0.9331
 9552SOL    HW240293   0.364   0.219   9.749  0.2204  0.0495 -0.1240
 9553SOL     OW40294   0.310   3.844   1.256 -0.7407 -0.3138  0.3327
 9553SOL    HW140295   0.255   3.903   1.204  1.0184 -0.4441 -1.6784
 9553SOL    HW240296   0.383   3.901   1.280 -0.0725 -1.1264  0.2312
 9554SOL     OW40297   0.610   2.957   3.351 -0.1029 -0.6694  0.0255
 9554SOL    HW140298   0.592   2.909   3.270 -1.7963 -1.4817  0.8842
 9554SOL    HW240299   0.593   3.049   3.332  0.9596 -0.1668  1.5298
 9555SOL     OW40300   4.686   1.550  16.375 -0.8153 -0.2198 -1.1191
 9555SOL    HW140301   4.712   1.593  16.293  2.5070 -0.8145 -0.3990
 9555SOL    HW240302   0.031   1.555  16.423 -1.4908  0.4331  0.0041
 9556SOL     OW40303   0.468   3.753   1.922 -0.3809 -0.1435 -0.2197
 9556SOL    HW140304   0.512   3.722   1.843  2.0389 -0.1805  1.1551
 9556SOL    HW240305   0.435   3.835   1.885  1.2261  0.1887 -0.9397
 9557SOL     OW40306   1.635   3.048  12.410  0.3556 -0.1387  0.6692
 9557SOL    HW140307   1.690   2.973  12.388 -0.4311 -0.2442 -0.9560
 9557SOL    HW240308   1.597   3.079  12.328  0.3250  0.6976  0.9991
 9558SOL     OW40309   2.565   2.894  17.325  0.3774  0.6487 -0.5407
 9558SOL    HW140310   2.483   2.849  17.342  0.6020  0.5203  0.1932
 9558SOL    HW240311   2.617   2.848  17.259 -0.2768 -1.0459  0.1486
 9559SOL     OW40312   0.285   3.236   3.024 -0.0312 -0.6043  0.2234
 9559SOL    HW140313   0.257   3.321   3.058 -1.2543 -1.0768  0.3965
 9559SOL    HW240314   0.343   3.279   2.961 -0.4527  0.3455  0.4803
 9560SOL     OW40315   1.247   2.567  11.033  0.0334  0.2617 -0.1316
 9560SOL    HW140316   1.301   2.521  11.097  0.2631  2.3845  1.1847
 9560SOL    HW240317   1.165   2.526  11.061 -1.4000  3.1212 -0.1213
 9561SOL     OW40318   2.395   2.722   1.323  0.8904  0.7009  0.0969
 9561SOL    HW140319   2.418   2.737   1.231 -1.2208  2.1005 -0.2093
 9561SOL    HW240320   2.482   2.743   1.359  1.8838  0.0914 -1.9262
 9562SOL     OW40321   0.058   2.247   1.727  0.0259 -0.6790 -0.1554
 9562SOL    HW140322   0.131   2.196   1.691 -0.5174 -0.8245 -1.0327
 9562SOL    HW240323   0.041   2.317   1.664 -1.1942 -2.8343 -2.2099
 9563SOL     OW40324   3.981   2.301   8.174 -0.2068  0.1617 -0.2311
 9563SOL    HW140325   4.006   2.225   8.227  1.6540  0.6517 -0.4157
 9563SOL    HW240326   4.042   2.366   8.209 -2.0711  1.1928  1.1155
 9564SOL     OW40327   3.316   1.916  17.549 -0.3010 -0.2803 -0.2252
 9564SOL    HW140328   3.358   1.838  17.515 -0.6318 -0.7753  0.4954
 9564SOL    HW240329   3.350   1.982  17.488 -0.7265  1.7242  1.6988
 9565SOL     OW40330   3.645   1.269   9.633 -0.0401  0.6133 -0.3180
 9565SOL    HW140331   3.725   1.312   9.603 -0.0330  0.1217 -0.9849
 9565SOL    HW240332   3.679   1.184   9.660 -0.2244  0.9180  0.8784
 9566SOL     OW40333   4.612   3.160  10.401  0.5440 -0.3485  0.4588
 9566SOL    HW140334   4.547   3.230  10.405 -1.4919 -2.0794 -2.7313
 9566SOL    HW240335   4.551   3.088  10.420 -0.1392 -0.0068 -0.4667
 9567SOL     OW40336   2.167   0.532   3.122  0.4362 -0.3971 -0.5708
 9567SOL    HW140337   2.184   0.620   3.156 -0.5823  0.1323 -1.4233
 9567SOL    HW240338   2.166   0.484   3.204 -0.7393 -0.7844 -0.8169
 9568SOL     OW40339   0.833   1.868   3.384  0.2318  0.1716  0.7891
 9568SOL    HW140340   0.790   1.953   3.398 -0.3163  0.6255 -3.6267
 9568SOL    HW240341   0.760   1.810   3.403  0.3964 -0.3160 -0.0625
 9569SOL     OW40342   0.843   2.646   9.750  0.2393 -0.7307  0.1670
 9569SOL    HW140343   0.915   2.699   9.784  0.5202 -0.7453 -0.4134
 9569SOL    HW240344   0.789   2.645   9.830 -0.4891  0.2212 -0.3048
   4.73873   4.73873  17.75284
