Membrane in water
40344
    1TMC1    C1    1   1.308   1.028  10.824  0.2045  0.5631 -0.2246
    1TMC1    C2    2   1.375   1.141  10.852 -0.5455  0.4237  0.0661
    1TMC1    C3    3   1.390   1.236  10.758 -0.3802 -0.7326  0.4607
    1TMC1    C4    4   1.256   1.006  10.702  0.9188 -0.0038 -0.0951
    1TMC1    C5    5   1.290   1.095  10.606  0.0552 -0.0037  0.0373
    1TMC1    C6    6   1.339   1.218  10.629  0.3348 -0.4931 -0.1959
    1TMC1     C    7   1.263   0.945  10.935  0.1966  0.1757  0.1444
    1TMC1     O    8   1.150   0.913  10.955 -0.3497  0.4113  0.4400
    1TMC1     H    9   1.419   1.151  10.950 -2.9768 -0.1160  1.2249
    1TMC1    H1   10   1.198   0.916  10.683  0.0877 -0.0632  2.6280
    1TMC1    H2   11   1.355   1.285  10.545  1.2524 -0.2464  0.1710
    1TMC1    C7   12   1.218   1.091  10.491 -0.0621 -0.0890 -0.5539
    1TMC1    C8   13   1.464   1.354  10.792 -0.5821  0.2714  0.1644
    1TMC1    O1   14   1.178   1.195  10.441  0.3793 -0.3934 -0.3255
    1TMC1    O2   15   1.540   1.377  10.887 -0.0923 -0.1088 -0.3480
    1TMC1    O3   16   1.284   0.989  10.426 -0.4306  0.3475 -1.1378
    1TMC1    H3   17   1.326   0.927  10.489 -2.4972  1.3071  1.1932
    1TMC1    O5   18   1.416   1.454  10.724  0.3013 -0.0638 -0.0228
    1TMC1    H5   19   1.347   1.435  10.656 -0.7572  0.8490  0.7961
    2MPD2     C   20   1.401   0.632  11.324  0.8901 -0.0298 -0.0083
    2MPD2    C1   21   1.284   0.697  11.294  0.8049 -0.3211 -0.7284
    2MPD2    C2   22   1.266   0.783  11.186 -0.8273  0.6151 -1.0969
    2MPD2    C3   23   1.372   0.803  11.101  0.2201  1.0919 -0.8656
    2MPD2    C4   24   1.489   0.725  11.119  0.0475 -0.2122  0.0497
    2MPD2    C5   25   1.503   0.644  11.231  0.9276 -0.3371  1.0129
    2MPD2     H   26   1.171   0.835  11.176 -0.5433  1.2779 -0.3277
    2MPD2    H1   27   1.566   0.724  11.043  1.8194  1.3800  1.8176
    2MPD2    H2   28   1.400   0.565  11.410  2.1105  3.1166  2.4241
    2MPD2    H3   29   1.594   0.588  11.248  0.7705 -0.6221  0.9195
    2MPD2     N   30   1.376   0.898  10.993 -0.6904  0.4824 -0.3211
    2MPD2    H5   31   1.459   0.912  10.937  0.0321 -1.9521  0.1201
    2MPD2    N1   32   1.161   0.690  11.364  0.1729  0.1979  0.5341
    2MPD2    H7   33   1.080   0.738  11.326 -0.8829  0.5788  3.2735
    3TMC1    C1   34   0.949   2.934  10.084  0.5355  0.7440  0.2679
    3TMC1    C2   35   1.069   2.978  10.140 -0.4173 -0.2151  0.1402
    3TMC1    C3   36   1.158   3.043  10.059 -0.2806 -0.4363  0.7085
    3TMC1    C4   37   0.927   2.948   9.951  0.5032 -0.6141  1.0059
    3TMC1    C5   38   1.022   3.005   9.872  0.0198  0.8650 -0.1386
    3TMC1    C6   39   1.143   3.050   9.920  0.2409 -0.4661 -0.5344
    3TMC1     C   40   0.836   2.877  10.162 -0.6847 -0.4297 -0.2960
    3TMC1     O   41   0.791   2.782  10.107  0.8063 -0.0447 -0.0970
    3TMC1     H   42   1.090   2.966  10.245 -0.0811  1.9079  0.3106
    3TMC1    H1   43   0.835   2.912   9.906 -1.1156  1.9021  2.2947
    3TMC1    H2   44   1.221   3.095   9.860  0.4661 -0.3633 -0.1633
    3TMC1    C7   45   1.001   3.037   9.735 -0.1934  0.2438 -0.5479
    3TMC1    C8   46   1.294   3.037  10.115 -0.5617  0.1006 -0.3675
    3TMC1    O1   47   1.055   3.140   9.697  0.6406 -0.5097  0.0134
    3TMC1    O2   48   1.330   2.932  10.169 -0.0475 -0.2234  0.0133
    3TMC1    O3   49   0.896   2.985   9.682  0.1157  0.3879 -0.1454
    3TMC1    H3   50   0.877   2.890   9.700  2.2721  0.2080  1.1449
    3TMC1    O5   51   1.374   3.114  10.030  0.3212  0.0070  0.1944
    3TMC1    H5   52   1.342   3.194   9.984  0.8021 -0.5416 -1.1165
    4MPD2     C   53   0.432   2.851  10.481  0.2571  0.1927 -0.0903
    4MPD2    C1   54   0.503   2.969  10.504  0.0533  0.3216  0.3370
    4MPD2    C2   55   0.613   2.994  10.423 -0.4977 -0.3806  0.4646
    4MPD2    C3   56   0.664   2.907  10.331 -0.3397 -0.1082 -0.0993
    4MPD2    C4   57   0.600   2.785  10.316 -0.3035 -1.0864  0.2615
    4MPD2    C5   58   0.489   2.758  10.395 -0.6177 -0.3419  0.2886
    4MPD2     H   59   0.665   3.088  10.440  1.6888 -1.6551  0.8585
    4MPD2    H1   60   0.623   2.711  10.240 -0.3653 -0.0452 -0.7831
    4MPD2    H2   61   0.341   2.813  10.528 -0.2409  1.2405 -0.2144
    4MPD2    H3   62   0.449   2.658  10.385  0.4160 -0.7772  0.5139
    4MPD2     N   63   0.786   2.948  10.263  0.7257 -0.3707 -0.3011
    4MPD2    H5   64   0.829   3.037  10.285  0.3521  0.1004 -1.4553
    4MPD2    N1   65   0.464   3.069  10.607  0.1158  0.3457  0.1418
    4MPD2    H7   66   0.514   3.158  10.608 -0.8511  0.9221 -3.2785
    5TCq1    O1   67   2.194   3.567  11.611 -0.5101 -0.6145  0.0481
    5TCq1    C1   68   2.084   3.491  11.592 -0.0128 -0.1650 -0.3858
    5TCq1    O2   69   2.085   3.400  11.510  0.0244 -0.5619 -0.0421
    5TCq1    C2   70   1.969   3.561  11.641 -0.0038 -0.3035 -0.2621
    5TCq1    C3   71   1.982   3.670  11.721  0.1630  0.7363 -0.7530
    5TCq1    C4   72   1.876   3.754  11.737 -0.2524 -1.2436  0.6540
    5TCq1    C5   73   1.749   3.729  11.678  0.1574  0.0675  0.1916
    5TCq1    C6   74   1.737   3.617  11.597 -0.0923  0.0053 -0.1681
    5TCq1    C7   75   1.848   3.531  11.583 -0.6408  1.0683 -0.6625
    5TCq1    C8   76   1.655   3.626  11.480 -0.5296  0.4016  0.0793
    5TCq1    O4   77   1.649   3.524  11.416 -0.1295 -0.2430  0.3472
    5TCq1    C9   78   1.884   3.855  11.839  0.0916  0.0657 -0.0504
    5TCq1    O5   79   1.955   3.832  11.943  0.0152  0.5888 -0.2631
    5TCq1    O6   80   1.778   3.920  11.851 -0.2756  0.6348  0.2609
    5TCq1    H1   81   2.262   3.526  11.553 -0.5547  1.2359 -1.3038
    5TCq1    H2   82   2.070   3.699  11.777  0.7758 -0.9129 -0.8656
    5TCq1    H3   83   1.664   3.793  11.694 -0.2219 -0.3984  0.0405
    5TCq1    H4   84   1.844   3.451  11.510 -2.4411 -0.6085  1.2578
    6MPD2     C   85   1.461   3.905  11.332  0.5760 -0.8129  0.3572
    6MPD2    C1   86   1.512   3.772  11.346 -0.8370  0.5800  0.8621
    6MPD2    C2   87   1.501   3.693  11.234 -0.1740 -0.6941 -0.0824
    6MPD2    C3   88   1.446   3.745  11.113  0.4679 -0.3860  0.8537
    6MPD2    C4   89   1.389   3.872  11.103 -0.2236  0.3594  0.0173
    6MPD2    C5   90   1.414   3.951  11.211  0.4128  0.4948 -0.1435
    6MPD2     H   91   1.535   3.590  11.228  0.4951 -0.5380  0.9343
    6MPD2    H1   92   1.347   3.914  11.013 -1.7995 -0.1218  0.5376
    6MPD2    H2   93   1.466   3.984  11.406  0.4967  1.1387 -1.7212
    6MPD2    H3   94   1.388   4.056  11.211 -2.4109 -0.2069 -0.8693
    6MPD2     N   95   1.445   3.657  11.001 -0.5058  0.3502  0.0845
    6MPD2    H5   96   1.498   3.571  11.007 -0.2573  0.5597  0.9941
    6MPD2    N1   97   1.593   3.747  11.458  0.0429 -0.9735 -0.3635
    6MPD2    H7   98   1.603   3.813  11.534 -0.8578 -1.9222  0.5821
    7TCq1    O1   99   4.109   3.566  12.898  0.0201 -0.5828  0.4327
    7TCq1    C1  100   4.001   3.634  12.854 -0.2875 -0.0879  0.4397
    7TCq1    O2  101   3.998   3.748  12.806  0.2996 -0.3519  0.2246
    7TCq1    C2  102   3.882   3.570  12.885  0.5601 -0.3324  0.2768
    7TCq1    C3  103   3.775   3.626  12.830  0.4119 -0.2781 -0.4244
    7TCq1    C4  104   3.649   3.589  12.871  0.8652  0.2461  0.4930
    7TCq1    C5  105   3.637   3.498  12.973  0.0708  0.3524  0.5062
    7TCq1    C6  106   3.754   3.434  13.020 -0.2809 -0.1178 -0.5394
    7TCq1    C7  107   3.874   3.480  12.986 -0.8431  0.2933 -0.4390
    7TCq1    C8  108   3.731   3.309  13.099 -0.0869 -0.7200  0.3202
    7TCq1    O4  109   3.807   3.275  13.189  0.0597 -0.1737  0.3353
    7TCq1    C9  110   3.536   3.668  12.826 -0.5387 -0.1994 -0.6751
    7TCq1    O5  111   3.562   3.775  12.761 -0.1350  0.0257  0.7068
    7TCq1    O6  112   3.433   3.651  12.893  0.0964 -0.4019 -0.2977
    7TCq1    H1  113   4.102   3.468  12.905  0.0542 -0.4819  1.8071
    7TCq1    H2  114   3.785   3.696  12.747 -1.7176  2.0602  1.2964
    7TCq1    H3  115   3.540   3.473  13.014 -0.8093  1.5569 -0.8645
    7TCq1    H4  116   3.964   3.441  13.031  0.4833  0.5990 -2.8419
    8MPD2     C  117   3.460   2.858  13.101  0.1596 -0.9291 -0.0206
    8MPD2    C1  118   3.567   2.896  13.180 -0.1524 -0.1946 -0.1441
    8MPD2    C2  119   3.627   3.022  13.159 -0.3421  0.2090  0.0762
    8MPD2    C3  120   3.576   3.112  13.067  0.0004 -0.0585  0.0031
    8MPD2    C4  121   3.462   3.066  12.999  0.6493 -0.1151 -0.0545
    8MPD2    C5  122   3.403   2.943  13.008 -0.4360  0.1553  0.1396
    8MPD2     H  123   3.726   3.046  13.198  0.1401  1.8405 -2.1781
    8MPD2    H1  124   3.422   3.131  12.922  2.1124 -0.2476 -0.9012
    8MPD2    H2  125   3.427   2.756  13.117 -0.2775 -0.7715  0.0794
    8MPD2    H3  126   3.321   2.910  12.946 -0.4837  0.1500  0.2051
    8MPD2     N  127   3.636   3.241  13.032 -0.4398  0.0832 -0.0662
    8MPD2    H5  128   3.584   3.300  12.968 -2.4217  1.3837  2.7056
    8MPD2    N1  129   3.623   2.800  13.265  0.1496 -0.0196 -0.3887
    8MPD2    H7  130   3.570   2.713  13.273  0.3064  0.0176  1.0325
    9TMC1    C1  131   1.274   1.745  10.475  0.1620  0.4756 -0.4597
    9TMC1    C2  132   1.407   1.740  10.452  0.4414  1.0002 -0.0354
    9TMC1    C3  133   1.478   1.854  10.423 -0.5723  0.1378 -0.1901
    9TMC1    C4  134   1.195   1.856  10.457 -0.1027 -0.1339 -0.3954
    9TMC1    C5  135   1.266   1.967  10.411  0.3074  1.0597  0.8632
    9TMC1    C6  136   1.406   1.965  10.401 -0.5450 -0.4573  0.6829
    9TMC1     C  137   1.222   1.623  10.534 -0.2286 -0.3118 -0.4499
    9TMC1     O  138   1.282   1.519  10.507  0.2640 -0.3551  0.0076
    9TMC1     H  139   1.457   1.653  10.490 -0.5633 -0.4193 -1.9377
    9TMC1    H1  140   1.087   1.854  10.465 -0.3426 -0.5676 -4.0366
    9TMC1    H2  141   1.456   2.057  10.376  1.5350 -1.6468  0.4431
    9TMC1    C7  142   1.183   2.091  10.416 -0.2177 -0.0308  0.1757
    9TMC1    C8  143   1.618   1.862  10.464  0.1633 -0.2234  0.2991
    9TMC1    O1  144   1.073   2.095  10.473  0.3290  0.2924 -0.4001
    9TMC1    O2  145   1.671   1.756  10.479  0.4210 -0.8313  0.0216
    9TMC1    O3  146   1.231   2.170  10.317 -0.1971  0.1798  0.2427
    9TMC1    H3  147   1.309   2.128  10.273 -1.7275 -1.8953 -0.5049
    9TMC1    O5  148   1.645   1.976  10.532  0.3976  0.6569  0.2912
    9TMC1    H5  149   1.589   2.055  10.549  0.7260  0.7631  0.9045
   10MPD2     C  150   1.091   1.421  10.716  1.3708 -0.0405  0.5158
   10MPD2    C1  151   1.089   1.554  10.732  0.8172 -0.9011 -0.5407
   10MPD2    C2  152   1.036   1.602  10.847  0.6943 -0.3079  0.2575
   10MPD2    C3  153   0.981   1.516  10.943  0.1902 -0.5802  0.0917
   10MPD2    C4  154   0.977   1.383  10.919 -0.0339  0.1196  0.1653
   10MPD2    C5  155   1.037   1.332  10.805 -0.8287  0.3455  0.1166
   10MPD2     H  156   1.050   1.708  10.866 -0.3566  0.0690 -1.1098
   10MPD2    H1  157   0.932   1.308  10.984  0.3290 -1.4137 -1.3292
   10MPD2    H2  158   1.122   1.369  10.626  2.4278  1.4520  0.0226
   10MPD2    H3  159   1.035   1.226  10.786  2.3924  0.3710 -0.2428
   10MPD2     N  160   0.933   1.554  11.069  0.1320 -0.2595 -0.3606
   10MPD2    H5  161   0.898   1.484  11.133 -0.0811  1.5691  1.5407
   10MPD2    N1  162   1.140   1.647  10.642  0.2570  0.2658  0.8244
   10MPD2    H7  163   1.124   1.741  10.675  0.9080 -0.1834  2.4658
   11TCq1    O1  164   1.207   2.101  14.801 -0.3778  0.6084  0.0786
   11TCq1    C1  165   1.220   1.970  14.779  0.4816  0.6892  0.0037
   11TCq1    O2  166   1.250   1.890  14.867 -0.0789  0.4796  0.8043
   11TCq1    C2  167   1.259   1.950  14.645 -0.5009  0.7990 -0.1953
   11TCq1    C3  168   1.329   2.050  14.578  0.2716 -0.0344 -0.5823
   11TCq1    C4  169   1.372   2.021  14.450 -0.2805 -0.0798  0.2629
   11TCq1    C5  170   1.339   1.903  14.385  0.3044  0.5828  0.7649
   11TCq1    C6  171   1.271   1.804  14.462 -0.0161 -0.1494  0.1534
   11TCq1    C7  172   1.230   1.827  14.589  0.1973 -0.6281  0.3745
   11TCq1    C8  173   1.218   1.696  14.383 -0.3103  0.5722  0.1314
   11TCq1    O4  174   1.116   1.656  14.431  0.0136  0.3385 -0.5083
   11TCq1    C9  175   1.449   2.123  14.379  0.7240  0.1029 -0.0604
   11TCq1    O5  176   1.490   2.099  14.262  0.2388  0.5879  0.3477
   11TCq1    O6  177   1.472   2.237  14.429  0.1936  0.3487  0.3504
   11TCq1    H1  178   1.161   2.147  14.727 -1.7759 -1.4952 -0.3508
   11TCq1    H2  179   1.357   2.143  14.627  0.4737 -0.0850 -0.6047
   11TCq1    H3  180   1.361   1.898  14.279  0.4146  0.7961  0.7785
   11TCq1    H4  181   1.182   1.746  14.643 -1.2293 -2.1486 -3.2014
   12MPD2     C  182   1.137   1.519  14.164  0.1790 -0.4343 -0.1228
   12MPD2    C1  183   1.259   1.585  14.163 -0.2987 -0.0363 -1.0785
   12MPD2    C2  184   1.352   1.563  14.060 -0.4171  0.4631 -0.4673
   12MPD2    C3  185   1.319   1.479  13.950 -0.3950 -0.2490  0.5386
   12MPD2    C4  186   1.196   1.419  13.954 -0.7174  0.5244 -0.6338
   12MPD2    C5  187   1.107   1.449  14.054 -0.1153 -0.1564 -0.3485
   12MPD2     H  188   1.441   1.625  14.055 -0.5255  0.8795  2.7062
   12MPD2    H1  189   1.155   1.355  13.877  2.4317  0.3293 -2.1512
   12MPD2    H2  190   1.058   1.518  14.239 -1.5263 -2.3482 -1.9522
   12MPD2    H3  191   1.010   1.400  14.054 -0.2289  0.0476  1.3028
   12MPD2     N  192   1.400   1.461  13.838  0.3371  0.9259  0.2402
   12MPD2    H5  193   1.361   1.420  13.754 -1.4857  2.0291  0.5532
   12MPD2    N1  194   1.294   1.665  14.267 -0.2696  0.5342  0.5512
   12MPD2    H7  195   1.385   1.709  14.257 -0.4620  0.7499 -0.2558
   13TCq1    O1  196   1.096   1.994   9.669  0.6509  0.1244 -0.3596
   13TCq1    C1  197   1.178   1.937   9.756 -0.0497  0.0499  0.3513
   13TCq1    O2  198   1.194   1.819   9.752 -0.0773 -0.3064  0.0128
   13TCq1    C2  199   1.145   2.002   9.885  0.5115 -0.0121 -0.4624
   13TCq1    C3  200   1.126   2.134   9.897 -0.0035  0.5294 -0.7604
   13TCq1    C4  201   1.064   2.191  10.003 -0.4967  0.6151 -0.7020
   13TCq1    C5  202   1.026   2.114  10.106 -0.1860  0.0409 -0.5372
   13TCq1    C6  203   1.047   1.973  10.102  0.0651  0.3227 -0.2288
   13TCq1    C7  204   1.108   1.916   9.988  0.2150 -0.5583  0.2534
   13TCq1    C8  205   0.977   1.893  10.198 -0.1122 -0.1478  0.2301
   13TCq1    O4  206   0.884   1.942  10.264 -0.6103  1.1053  0.5932
   13TCq1    C9  207   1.040   2.336  10.011 -0.2667 -0.2482 -0.0242
   13TCq1    O5  208   0.963   2.376  10.099 -0.4139 -0.7219  0.7500
   13TCq1    O6  209   1.078   2.399   9.907  0.1030  0.8622 -0.3049
   13TCq1    H1  210   1.082   2.088   9.691 -1.2198  0.4766 -2.9885
   13TCq1    H2  211   1.163   2.207   9.826 -0.9087 -0.0328 -1.8110
   13TCq1    H3  212   1.005   2.158  10.203  2.3759  1.9266 -0.8088
   13TCq1    H4  213   1.111   1.809   9.973  2.1193 -0.3535 -0.8751
   14MPD2     C  214   0.959   1.521  10.225 -0.7583  0.4125 -0.1317
   14MPD2    C1  215   0.939   1.654  10.261  0.5543 -0.4844 -0.6463
   14MPD2    C2  216   0.868   1.673  10.379 -0.4054 -0.0354 -0.0486
   14MPD2    C3  217   0.822   1.565  10.455 -0.0150  0.4183  0.2351
   14MPD2    C4  218   0.841   1.436  10.417  0.0577 -0.3533  0.0001
   14MPD2    C5  219   0.911   1.421  10.307  0.4770 -0.4200  0.6709
   14MPD2     H  220   0.851   1.770  10.424  1.8339  0.0701  0.6005
   14MPD2    H1  221   0.794   1.349  10.460 -3.9324  1.7879 -0.0246
   14MPD2    H2  222   1.014   1.498  10.134 -2.1078 -2.8706 -0.0812
   14MPD2    H3  223   0.916   1.320  10.268 -0.5652  0.2332 -1.1485
   14MPD2     N  224   0.752   1.600  10.578 -0.0747  0.2046 -0.2266
   14MPD2    H5  225   0.749   1.699  10.601  0.6034  0.4393 -1.1497
   14MPD2    N1  226   0.996   1.757  10.181 -0.0015  0.3545  0.1719
   14MPD2    H7  227   1.067   1.732  10.113 -0.7974  0.9351 -0.8883
   15TCq1    O1  228   3.694   2.242   2.033  0.3526  0.1379 -0.3039
   15TCq1    C1  229   3.697   2.230   1.898 -0.2165 -0.8684 -0.4363
   15TCq1    O2  230   3.775   2.159   1.833  0.6118 -0.1976 -0.5962
   15TCq1    C2  231   3.565   2.264   1.844  0.1225 -0.2397 -0.3932
   15TCq1    C3  232   3.466   2.286   1.937 -0.4475 -0.2013  0.7945
   15TCq1    C4  233   3.334   2.253   1.901 -1.4579  0.8311 -0.8013
   15TCq1    C5  234   3.311   2.189   1.779  0.2244 -0.3680 -0.1880
   15TCq1    C6  235   3.409   2.155   1.704 -0.5133 -0.0297 -0.7705
   15TCq1    C7  236   3.538   2.181   1.737  0.2696  1.1041 -0.2546
   15TCq1    C8  237   3.387   2.072   1.586  1.3086 -0.6848  0.4714
   15TCq1    O4  238   3.485   2.028   1.530 -0.4795 -0.0963 -0.1793
   15TCq1    C9  239   3.225   2.288   1.995  0.4124  0.3686 -0.2261
   15TCq1    O5  240   3.116   2.226   1.987 -0.1609 -0.0909  0.4657
   15TCq1    O6  241   3.254   2.361   2.097  0.8150 -0.2211 -0.0111
   15TCq1    H1  242   3.620   2.298   2.064 -0.4329 -0.7396 -0.5920
   15TCq1    H2  243   3.474   2.334   2.034  0.3078  1.2759 -0.0003
   15TCq1    H3  244   3.209   2.161   1.755  0.0576  0.8424 -0.8779
   15TCq1    H4  245   3.614   2.154   1.665  0.7545  1.7713  0.0045
   16MPD2     C  246   3.110   2.072   1.359  0.7165  0.1422  0.2723
   16MPD2    C1  247   3.230   2.029   1.415 -0.1925 -0.7100 -0.7441
   16MPD2    C2  248   3.290   1.915   1.365 -0.4367 -0.7955 -0.0473
   16MPD2    C3  249   3.241   1.862   1.243 -0.3990  0.3214 -0.7605
   16MPD2    C4  250   3.136   1.926   1.179 -0.5113 -0.0435  0.1307
   16MPD2    C5  251   3.076   2.031   1.236  0.3218  0.1162  0.0246
   16MPD2     H  252   3.381   1.871   1.405  2.2071  4.3604 -0.3170
   16MPD2    H1  253   3.107   1.906   1.076  2.0172 -1.2272 -0.3551
   16MPD2    H2  254   3.058   2.157   1.401 -0.7890 -0.2712 -0.7621
   16MPD2    H3  255   2.989   2.070   1.185 -1.7321 -0.9008  2.7701
   16MPD2     N  256   3.311   1.745   1.195 -0.1005 -0.0933 -0.8069
   16MPD2    H5  257   3.385   1.710   1.256 -1.6041 -1.3706  0.2851
   16MPD2    N1  258   3.272   2.097   1.529 -0.0758 -0.6955 -0.0118
   16MPD2    H7  259   3.221   2.177   1.565 -2.3388 -2.8098  1.4982
   17TMC1    C1  260   0.801   0.445  10.791 -0.1515  0.1088 -0.1568
   17TMC1    C2  261   0.760   0.365  10.686 -0.2509 -0.2728 -0.0203
   17TMC1    C3  262   0.694   0.258  10.718  0.2169 -0.2152 -0.0752
   17TMC1    C4  263   0.768   0.420  10.923 -0.6632  0.6589 -0.1518
   17TMC1    C5  264   0.702   0.299  10.946  0.4762 -0.1248 -0.8737
   17TMC1    C6  265   0.672   0.218  10.844 -0.1081  0.0597  0.3441
   17TMC1     C  266   0.808   0.587  10.753 -0.5785  0.1051  0.1065
   17TMC1     O  267   0.780   0.674  10.837  0.2747 -0.5580  0.5410
   17TMC1     H  268   0.773   0.384  10.580  0.0432  2.0811  0.4201
   17TMC1    H1  269   0.774   0.498  10.998  1.2047 -1.8879  2.3280
   17TMC1    H2  270   0.614   0.128  10.861  0.1299  0.3933  2.8088
   17TMC1    C7  271   0.635   0.284  11.071  0.2907  0.0133 -0.2457
   17TMC1    C8  272   0.657   0.173  10.612  0.2608  0.5650  0.1033
   17TMC1    O1  273   0.522   0.236  11.081 -0.5217 -1.1775  0.1712
   17TMC1    O2  274   0.562   0.199  10.537 -0.0615 -0.0036 -0.1962
   17TMC1    O3  275   0.735   0.294  11.170  0.6781 -0.4946  0.1461
   17TMC1    H3  276   0.819   0.331  11.134  1.8233 -2.1365  1.1081
   17TMC1    O5  277   0.715   0.051  10.635  0.2965  0.4203  1.1822
   17TMC1    H5  278   0.800   0.063  10.682  0.9795  0.5428 -0.0907
   18MPD2     C  279   0.844   0.852  10.621 -0.2714 -0.2011 -0.2265
   18MPD2    C1  280   0.897   0.729  10.572 -0.2771 -0.3492 -0.2504
   18MPD2    C2  281   0.945   0.738  10.443 -0.3741 -0.2239 -0.1098
   18MPD2    C3  282   0.964   0.855  10.372 -0.1872 -0.6706  0.2489
   18MPD2    C4  283   0.912   0.969  10.428  0.0999  0.1735  0.0334
   18MPD2    C5  284   0.843   0.969  10.549  0.4588 -0.2781  0.2165
   18MPD2     H  285   0.971   0.645  10.393 -1.3466  0.0372 -1.0881
   18MPD2    H1  286   0.904   1.057  10.364  2.2174  1.6166  1.7261
   18MPD2    H2  287   0.786   0.850  10.713 -0.6702 -0.9203 -0.4956
   18MPD2    H3  288   0.786   1.054  10.583 -1.2496 -2.1381  2.0332
   18MPD2     N  289   1.007   0.867  10.237  0.2557 -0.1262 -0.2395
   18MPD2    H5  290   1.000   0.951  10.182 -0.0398 -0.8128 -1.2409
   18MPD2    N1  291   0.874   0.600  10.633 -0.0556 -1.3552 -0.0336
   18MPD2    H7  292   0.890   0.512  10.585  1.8843  0.5606 -2.8664
   19TMC2    C1  293   3.349   1.880  13.546  0.2837 -0.0882 -0.2410
   19TMC2    C2  294   3.417   1.899  13.430  0.6508  0.3303  0.0885
   19TMC2    C3  295   3.411   1.799  13.337  0.6598 -0.2353 -0.3570
   19TMC2    C4  296   3.288   1.758  13.583  0.8082 -0.3576 -0.1235
   19TMC2    C5  297   3.294   1.659  13.490 -0.5587  0.4181 -0.2608
   19TMC2    C6  298   3.349   1.682  13.363  0.2485 -0.2220 -0.5531
   19TMC2     C  299   3.327   1.993  13.628 -0.7120  0.3320 -0.1672
   19TMC2     O  300   3.357   2.100  13.578 -0.1976  0.4224  0.0200
   19TMC2     H  301   3.454   1.995  13.396  1.1203  0.3143  0.5518
   19TMC2    H1  302   3.214   1.755  13.662 -1.2617 -1.2908 -2.0865
   19TMC2    H2  303   3.369   1.596  13.301 -1.4682 -0.6578 -0.5148
   19TMC2    C7  304   3.233   1.531  13.529 -0.5244  0.2507 -0.5442
   19TMC2    C8  305   3.518   1.787  13.240  0.7312  0.0742 -0.2696
   19TMC2    O1  306   3.232   1.447  13.440 -0.5573 -0.0980 -0.6408
   19TMC2    O2  307   3.564   1.674  13.224 -0.2598  0.0362  0.6043
   19TMC2    O5  308   3.583   1.901  13.224 -0.3339  0.2095  0.4340
   19TMC2    H5  309   3.523   1.978  13.214  0.5979  0.5538 -2.4523
   20MPD2     C  310   3.296   2.192  13.840 -0.3881 -0.1493 -0.1825
   20MPD2    C1  311   3.286   2.056  13.865 -0.4253 -0.2528  0.2124
   20MPD2    C2  312   3.285   2.008  13.996  0.0594 -0.3034 -0.2871
   20MPD2    C3  313   3.273   2.102  14.098  0.1818  0.3647 -0.3790
   20MPD2    C4  314   3.296   2.236  14.072  0.0311  0.2104  0.1725
   20MPD2    C5  315   3.307   2.277  13.943 -0.4148  0.1753  0.2783
   20MPD2     H  316   3.289   1.900  14.007  4.4933  0.1204  2.3639
   20MPD2    H1  317   3.294   2.312  14.149 -1.1810  0.8369 -0.4754
   20MPD2    H2  318   3.298   2.236  13.740 -0.6132  3.5348  1.4137
   20MPD2    H3  319   3.315   2.382  13.917 -0.3570 -0.0519 -0.6224
   20MPD2     N  320   3.265   2.069  14.238 -0.6375 -0.2300 -0.0731
   20MPD2    H5  321   3.260   2.142  14.309  0.7502  1.1617 -1.3936
   20MPD2    N1  322   3.290   1.962  13.756  0.1495 -0.6904  0.4344
   20MPD2    H7  323   3.285   1.864  13.782 -0.6329 -0.8172 -0.2022
   21TMC2    C1  324   0.811   1.932  14.260  0.1642  0.2355 -0.1371
   21TMC2    C2  325   0.879   1.826  14.201 -0.3751 -0.1673  0.0153
   21TMC2    C3  326   0.847   1.814  14.068 -0.2572  0.5069  0.2992
   21TMC2    C4  327   0.712   2.000  14.195 -0.2113 -0.1836  0.2650
   21TMC2    C5  328   0.677   1.966  14.066 -0.3261  0.2666  0.8565
   21TMC2    C6  329   0.740   1.868  14.005 -0.1849 -0.5015  0.3339
   21TMC2     C  330   0.817   1.941  14.404 -0.1808 -0.1430  0.5473
   21TMC2     O  331   0.737   2.021  14.455  0.0329 -0.6781  0.1846
   21TMC2     H  332   0.965   1.768  14.235 -0.0262  0.6494  0.5172
   21TMC2    H1  333   0.651   2.069  14.252  1.6503  0.2894  1.6975
   21TMC2    H2  334   0.716   1.839  13.903 -1.3973  1.6065  0.0277
   21TMC2    C7  335   0.547   2.006  14.018 -0.1968  0.0827  0.2903
   21TMC2    C8  336   0.892   1.698  14.005 -0.3949  0.6697  0.1434
   21TMC2    O1  337   0.488   1.929  13.938 -0.6874 -0.1408  0.4139
   21TMC2    O2  338   0.818   1.628  13.934  0.1689 -0.1337 -0.1024
   21TMC2    O5  339   1.015   1.737  13.973 -0.0825 -0.0656  0.2413
   21TMC2    H5  340   1.070   1.789  14.036 -2.4446  0.9266  1.4703
   22MPD2     C  341   0.924   1.789  14.880 -0.1116 -0.4628  0.4172
   22MPD2    C1  342   0.929   1.678  14.796  0.0064 -0.5252 -0.3588
   22MPD2    C2  343   0.916   1.690  14.657  0.2862  0.0085 -0.0421
   22MPD2    C3  344   0.874   1.815  14.608 -0.2722 -0.5183 -0.3289
   22MPD2    C4  345   0.868   1.926  14.694  0.0222  0.4224  0.2349
   22MPD2    C5  346   0.908   1.915  14.824 -0.1740  0.6905  1.1959
   22MPD2     H  347   0.948   1.614  14.587 -1.5891  0.0595 -0.9310
   22MPD2    H1  348   0.846   2.025  14.655  1.7798  1.1839  1.1802
   22MPD2    H2  349   0.928   1.784  14.988  0.3231 -1.9235  0.3342
   22MPD2    H3  350   0.904   2.004  14.887  1.3807 -0.5498  3.0255
   22MPD2     N  351   0.876   1.831  14.471 -0.5698 -0.5374 -0.4370
   22MPD2    H5  352   0.891   1.745  14.419  1.9517 -0.1525 -0.3409
   22MPD2    N1  353   0.954   1.549  14.847  0.0330  0.5665 -0.1404
   22MPD2    H7  354   0.945   1.471  14.782 -1.1050  0.5623  0.0379
   23TMC2    C1  355   1.779   3.501  14.572  0.0726  0.7347 -0.3539
   23TMC2    C2  356   1.779   3.592  14.468  0.1739 -0.1177  0.1581
   23TMC2    C3  357   1.676   3.588  14.384  0.2292 -0.3710 -0.3107
   23TMC2    C4  358   1.700   3.395  14.568 -0.2584 -0.2175  0.1396
   23TMC2    C5  359   1.598   3.393  14.478 -0.1543 -0.5967 -0.4745
   23TMC2    C6  360   1.580   3.494  14.392  0.6060 -0.4389 -0.2907
   23TMC2     C  361   1.881   3.482  14.680  0.8730 -0.6437 -0.2908
   23TMC2     O  362   1.885   3.384  14.755 -0.1530  0.1441  1.3234
   23TMC2     H  363   1.842   3.680  14.466 -1.2090  0.9150  3.5396
   23TMC2    H1  364   1.701   3.323  14.648 -0.3232 -0.7446 -0.3323
   23TMC2    H2  365   1.491   3.504  14.331  1.2407 -3.4192 -1.7233
   23TMC2    C7  366   1.498   3.293  14.496 -0.3001 -0.1974  0.9005
   23TMC2    C8  367   1.660   3.686  14.275 -0.0488  0.5677 -0.6143
   23TMC2    O1  368   1.516   3.216  14.590  0.0505 -0.2198  0.6367
   23TMC2    O2  369   1.549   3.703  14.223 -0.2642 -0.8700 -0.7801
   23TMC2    O5  370   1.765   3.763  14.259 -0.0370  0.1161 -0.1709
   23TMC2    H5  371   1.854   3.736  14.291  0.3844  0.8167 -0.7442
   24MPD2     C  372   2.269   3.676  14.947  0.9275  0.3150  0.1030
   24MPD2    C1  373   2.183   3.574  14.973  0.1218 -0.1964  0.5409
   24MPD2    C2  374   2.084   3.540  14.886  0.2425 -0.2080  0.6689
   24MPD2    C3  375   2.068   3.621  14.775 -0.1494 -0.1610  0.5334
   24MPD2    C4  376   2.138   3.736  14.760  0.0118  0.0984 -0.1315
   24MPD2    C5  377   2.246   3.756  14.844  0.4348  0.3364  0.1008
   24MPD2     H  378   2.019   3.454  14.901  0.5621 -0.6703 -0.5979
   24MPD2    H1  379   2.136   3.803  14.675 -0.1586  0.9609  0.5507
   24MPD2    H2  380   2.347   3.709  15.016  1.7192  1.3039 -1.2755
   24MPD2    H3  381   2.311   3.842  14.837 -0.2860  0.9547  0.9475
   24MPD2     N  382   1.965   3.590  14.677  0.1168 -0.3062 -0.4236
   24MPD2    H5  383   1.941   3.669  14.618 -3.0035 -2.1690 -1.6687
   24MPD2    N1  384   2.200   3.486  15.080  0.4690  0.1711 -0.8953
   24MPD2    H7  385   2.130   3.412  15.077  1.1424 -0.5470  1.5381
   25TMC2    C1  386   1.024   4.538  11.766  0.0279  0.5238 -0.0307
   25TMC2    C2  387   1.041   4.486  11.891 -0.3424  0.5090  0.5249
   25TMC2    C3  388   0.981   4.558  11.993 -0.7223 -0.1060 -0.3275
   25TMC2    C4  389   0.952   4.655  11.747 -0.3708 -0.0301  0.2244
   25TMC2    C5  390   0.892   4.717  11.855 -0.4141 -0.3468 -0.5742
   25TMC2    C6  391   0.899   4.670  11.979 -0.3199  0.4533 -0.4629
   25TMC2     C  392   1.068   4.445  11.665  0.3378 -0.1339  0.2325
   25TMC2     O  393   1.157   4.367  11.688  0.3062  0.2996  0.1037
   25TMC2     H  394   1.083   4.389  11.914  0.5649  1.0166  1.0194
   25TMC2    H1  395   0.929   4.684  11.645 -1.6854 -0.2525  0.4560
   25TMC2    H2  396   0.859   4.723  12.064  1.3479  1.5098 -0.3235
   25TMC2    C7  397   0.798   0.088  11.836 -0.3091  0.6845  0.2874
   25TMC2    C8  398   0.972   4.485  12.121  0.4700  0.8018  0.0000
   25TMC2    O1  399   0.701   0.096  11.913  0.0223  0.4079 -0.3853
   25TMC2    O2  400   0.890   4.507  12.204  0.7484  0.0373 -0.3829
   25TMC2    O5  401   1.094   4.448  12.149  0.5185 -0.2432 -0.0371
   25TMC2    H5  402   1.157   4.451  12.073 -0.5582 -1.9122 -0.9886
   26MPD2     C  403   0.969   4.146  11.263  0.3105 -0.1353  0.1336
   26MPD2    C1  404   0.866   4.236  11.274 -0.1481  0.3436 -0.2415
   26MPD2    C2  405   0.872   4.323  11.369 -0.0235 -0.1862 -0.0334
   26MPD2    C3  406   0.982   4.337  11.456 -0.1437  0.7308  0.0482
   26MPD2    C4  407   1.092   4.256  11.429  0.1586  0.3856 -0.4676
   26MPD2    C5  408   1.081   4.158  11.336  0.3283  0.5497  0.0011
   26MPD2     H  409   0.796   4.400  11.379 -0.8093 -0.4992 -3.4648
   26MPD2    H1  410   1.179   4.248  11.494  0.6561 -0.0401 -1.1750
   26MPD2    H2  411   0.972   4.058  11.200  1.1046 -0.6472  0.8885
   26MPD2    H3  412   1.161   4.087  11.318  1.2695  0.6893  3.6980
   26MPD2     N  413   0.977   4.430  11.562  0.1400 -0.1848  0.1568
   26MPD2    H5  414   0.892   4.483  11.576  0.4948  0.8635 -1.6771
   26MPD2    N1  415   0.757   4.212  11.186  0.1598 -0.8255  0.2124
   26MPD2    H7  416   0.780   4.160  11.102 -1.0222  0.2529 -0.7743
   27TMC2    C1  417   0.012   2.711  11.665  0.6118 -0.5379 -0.3122
   27TMC2    C2  418   0.095   2.708  11.557 -0.0415 -0.7511  0.4716
   27TMC2    C3  419   0.227   2.697  11.583  0.0165  0.3748  0.0894
   27TMC2    C4  420   0.051   2.755  11.791  0.2070 -0.5643 -0.5287
   27TMC2    C5  421   0.189   2.744  11.815  0.2402 -0.3613  0.0096
   27TMC2    C6  422   0.273   2.710  11.714 -0.7703  0.0457 -0.3231
   27TMC2     C  423   4.615   2.684  11.633 -0.0196 -0.1287  0.6443
   27TMC2     O  424   4.576   2.701  11.515 -0.5970 -0.2879  0.1794
   27TMC2     H  425   0.059   2.674  11.461  0.1373 -1.4398  0.6466
   27TMC2    H1  426   4.726   2.791  11.872  0.4081  1.6918 -1.3481
   27TMC2    H2  427   0.381   2.716  11.723 -0.8284  0.0895  0.3192
   27TMC2    C7  428   0.241   2.759  11.952 -0.4790 -0.1775  0.5933
   27TMC2    C8  429   0.322   2.654  11.479 -0.6346 -0.9362  0.5873
   27TMC2    O1  430   0.163   2.808  12.035  0.0679 -0.0654  0.0493
   27TMC2    O2  431   0.320   2.704  11.366 -0.3079 -0.4208  0.3628
   27TMC2    O5  432   0.400   2.554  11.519 -0.2326  0.4476 -0.5082
   27TMC2    H5  433   0.369   2.515  11.603  2.3814  0.5021  0.4561
   28MPD2     C  434   4.141   2.536  11.776 -0.3005 -0.4390  0.1479
   28MPD2    C1  435   4.212   2.567  11.889  0.2024 -0.4882  0.3752
   28MPD2    C2  436   4.354   2.577  11.876  0.6987  1.2605 -0.0313
   28MPD2    C3  437   4.414   2.591  11.755  0.8584 -0.4457 -0.3095
   28MPD2    C4  438   4.335   2.577  11.643  0.5014 -0.4570  0.3219
   28MPD2    C5  439   4.206   2.551  11.658  0.5718  0.5445  0.1496
   28MPD2     H  440   4.421   2.569  11.961  2.6058  0.4012 -1.6286
   28MPD2    H1  441   4.377   2.582  11.544 -1.9148 -1.3381 -0.7377
   28MPD2    H2  442   4.035   2.516  11.771 -0.0229 -2.1375  1.1005
   28MPD2    H3  443   4.146   2.553  11.568  0.6632 -0.6507  0.0612
   28MPD2     N  444   4.550   2.633  11.748  0.1419  0.4936  0.1639
   28MPD2    H5  445   4.603   2.635  11.835  1.2896 -2.3871 -0.4970
   28MPD2    N1  446   4.154   2.575  12.017 -0.4805  0.2956  0.4422
   28MPD2    H7  447   4.057   2.546  12.022 -0.9224  1.7527  0.2335
   29TMC2    C1  448   4.091   0.789  14.291 -0.5396 -0.2223 -0.2999
   29TMC2    C2  449   4.210   0.781  14.212  0.0320 -0.8137 -0.0408
   29TMC2    C3  450   4.299   0.877  14.250 -0.1505 -0.5797  0.0678
   29TMC2    C4  451   4.061   0.871  14.397 -0.4701 -0.2104 -0.3621
   29TMC2    C5  452   4.165   0.953  14.434  1.5190 -0.1777  0.0840
   29TMC2    C6  453   4.287   0.963  14.365  0.2688  0.6876  0.5204
   29TMC2     C  454   4.003   0.676  14.262  0.5450  0.2951  0.0406
   29TMC2     O  455   4.053   0.585  14.202  0.5256 -0.3933  0.2245
   29TMC2     H  456   4.234   0.725  14.122 -2.2178  0.3202 -1.3287
   29TMC2    H1  457   3.975   0.848  14.460 -0.4553  1.3434  0.2213
   29TMC2    H2  458   4.368   1.027  14.398  1.2191 -1.6130  2.6783
   29TMC2    C7  459   4.139   1.039  14.554  0.2983 -0.1152  0.4519
   29TMC2    C8  460   4.428   0.891  14.189  0.5672  0.3243  0.6681
   29TMC2    O1  461   4.025   1.070  14.574  0.0643  0.2248 -0.3837
   29TMC2    O2  462   4.504   0.984  14.221  0.5154  0.3568  0.4224
   29TMC2    O5  463   4.462   0.764  14.156  0.3698 -0.0959  0.1464
   29TMC2    H5  464   4.398   0.692  14.171 -0.5979  0.4941 -1.1849
   30MPD2     C  465   3.605   0.360  14.251  0.1829  0.1745 -0.0500
   30MPD2    C1  466   3.739   0.332  14.260  0.0066  0.0657  0.3537
   30MPD2    C2  467   3.823   0.443  14.282  0.1469 -0.2158  0.4865
   30MPD2    C3  468   3.781   0.573  14.296 -0.3213  0.7774  0.6514
   30MPD2    C4  469   3.647   0.601  14.284  0.1711 -0.0156 -0.1486
   30MPD2    C5  470   3.563   0.494  14.259  0.9959 -0.4816  0.2622
   30MPD2     H  471   3.928   0.420  14.291 -0.0411 -1.0117  0.5703
   30MPD2    H1  472   3.607   0.699  14.306 -1.0424 -0.0703 -2.1590
   30MPD2    H2  473   3.529   0.284  14.235  1.2024 -0.8194 -0.1779
   30MPD2    H3  474   3.455   0.506  14.259  1.0437 -0.0994 -1.1067
   30MPD2     N  475   3.873   0.683  14.312 -0.2107  0.0979  0.5962
   30MPD2    H5  476   3.835   0.769  14.351  1.7324  0.6311  1.3125
   30MPD2    N1  477   3.801   0.206  14.246 -0.1334  0.3610  0.1563
   30MPD2    H7  478   3.902   0.215  14.252 -0.4197  1.3418  3.3925
   31TMC2    C1  479   1.980   3.939  15.013  0.2678  0.6404  0.2425
   31TMC2    C2  480   1.890   3.842  14.974 -0.3187 -1.0946  0.3366
   31TMC2    C3  481   1.846   3.753  15.059  0.0568  0.5808  0.5220
   31TMC2    C4  482   2.054   3.923  15.128  0.3365  0.1957 -0.5975
   31TMC2    C5  483   2.020   3.813  15.208 -0.5419  0.2956 -0.2806
   31TMC2    C6  484   1.914   3.733  15.176 -0.3992  0.2242  0.3357
   31TMC2     C  485   1.998   4.056  14.928 -0.0736 -0.1514 -0.2468
   31TMC2     O  486   1.937   4.057  14.820  0.5125  0.0634 -0.6726
   31TMC2     H  487   1.838   3.843  14.879 -1.8890 -0.8291  1.2056
   31TMC2    H1  488   2.139   3.987  15.148  0.3600 -0.4693  1.3590
   31TMC2    H2  489   1.904   3.647  15.242 -2.5882 -0.1456 -0.4709
   31TMC2    C7  490   2.096   3.787  15.332 -0.4528 -0.4131 -0.0862
   31TMC2    C8  491   1.761   3.639  15.024  0.4916  0.5844 -0.6325
   31TMC2    O1  492   2.093   3.673  15.374 -0.4958 -0.6892 -0.5672
   31TMC2    O2  493   1.747   3.605  14.908  0.6472 -0.3122 -0.0791
   31TMC2    O5  494   1.720   3.568  15.123  0.1620  0.4747 -0.6812
   31TMC2    H5  495   1.723   3.621  15.205 -4.0155 -2.7514  1.5180
   32MPD2     C  496   2.267   4.472  14.778 -0.0250 -0.4483  0.1177
   32MPD2    C1  497   2.177   4.399  14.707 -0.1512 -0.6695  0.3455
   32MPD2    C2  498   2.118   4.290  14.766  0.3317 -0.1721 -0.0401
   32MPD2    C3  499   2.145   4.253  14.898  0.1231 -0.0964 -0.5026
   32MPD2    C4  500   2.240   4.332  14.964 -0.0755 -0.8970  0.1433
   32MPD2    C5  501   2.300   4.445  14.907  0.2387  0.1356  0.0086
   32MPD2     H  502   2.036   4.233  14.723 -1.5204  1.5732  1.1578
   32MPD2    H1  503   2.264   4.325  15.069 -1.2610 -0.4740  0.4463
   32MPD2    H2  504   2.310   4.565  14.742 -3.2178  1.0935  0.2397
   32MPD2    H3  505   2.366   4.511  14.962  1.0800 -0.2191 -0.5829
   32MPD2     N  506   2.101   4.137  14.966  0.2865 -0.8207  0.4469
   32MPD2    H5  507   2.146   4.122  15.055 -0.0799 -2.6063  0.3380
   32MPD2    N1  508   2.151   4.437  14.567 -0.2605  0.3804 -0.4888
   32MPD2    H7  509   2.220   4.501  14.528  2.8352 -1.6065  1.6877
   33TMC2    C1  510   0.996   1.443   9.263 -1.0258 -0.5568  0.4762
   33TMC2    C2  511   0.953   1.367   9.160  0.4352  0.2149  0.7174
   33TMC2    C3  512   0.998   1.398   9.035  0.2386 -0.7957 -1.0647
   33TMC2    C4  513   1.084   1.547   9.242  0.4363 -0.0561 -0.2006
   33TMC2    C5  514   1.130   1.576   9.118 -0.0908 -0.6870  0.1381
   33TMC2    C6  515   1.084   1.499   9.009  0.9509  0.2423  0.0163
   33TMC2     C  516   0.981   1.398   9.399 -0.3304 -0.6152 -0.6431
   33TMC2     O  517   0.953   1.279   9.408 -0.1266  0.9330 -0.2088
   33TMC2     H  518   0.907   1.273   9.189 -0.0131  0.1748 -0.1236
   33TMC2    H1  519   1.106   1.611   9.327  0.9629 -1.1364  0.4936
   33TMC2    H2  520   1.121   1.521   8.909  0.8918 -2.2325 -0.5573
   33TMC2    C7  521   1.236   1.671   9.107 -0.1862 -0.4518  0.9201
   33TMC2    C8  522   1.023   1.286   8.944  0.2808  0.5971  0.0607
   33TMC2    O1  523   1.284   1.721   9.206  0.4982  0.6990  0.2956
   33TMC2    O2  524   1.132   1.264   8.886  0.3053  0.2236  0.1842
   33TMC2    O5  525   0.917   1.204   8.961  0.3302 -0.1876  0.4677
   33TMC2    H5  526   0.847   1.251   9.012  2.2866  1.1947  1.8754
   34MPD2     C  527   1.112   1.398   9.892  0.0990 -0.0404 -0.3972
   34MPD2    C1  528   1.109   1.293   9.798  0.0950  0.2542 -0.3680
   34MPD2    C2  529   1.058   1.321   9.677  0.0539 -0.2234 -0.0984
   34MPD2    C3  530   1.038   1.455   9.635 -0.5114  0.2904 -0.8570
   34MPD2    C4  531   1.040   1.557   9.734  0.1069  0.2422 -0.0087
   34MPD2    C5  532   1.083   1.529   9.858 -0.0363  0.6496 -0.1823
   34MPD2     H  533   1.055   1.240   9.605 -0.2425 -0.1555 -0.1628
   34MPD2    H1  534   1.010   1.660   9.718  1.8283  0.5848 -1.0449
   34MPD2    H2  535   1.161   1.376   9.986 -2.3559  2.5999  1.4934
   34MPD2    H3  536   1.084   1.603   9.938 -0.2106  1.5215 -0.9917
   34MPD2     N  537   1.013   1.490   9.497 -0.6587  0.3321  0.5188
   34MPD2    H5  538   1.030   1.586   9.469 -0.2993  0.4457  1.1257
   34MPD2    N1  539   1.151   1.166   9.839  0.2488  0.6144 -0.8743
   34MPD2    H7  540   1.155   1.150   9.939 -0.0944  0.3951 -0.8935
   35TMC2    C1  541   2.549   2.151  11.353 -0.2265  0.1570 -0.7141
   35TMC2    C2  542   2.626   2.260  11.342  0.1318  0.6536  0.4004
   35TMC2    C3  543   2.599   2.341  11.235  0.0869 -0.3338 -0.3516
   35TMC2    C4  544   2.447   2.119  11.259  0.1229  0.0673  0.3098
   35TMC2    C5  545   2.433   2.207  11.151 -0.3547 -0.3563  0.1709
   35TMC2    C6  546   2.509   2.319  11.136 -0.0579 -0.0840  0.6488
   35TMC2     C  547   2.571   2.073  11.473  0.5311 -0.2321 -0.4310
   35TMC2     O  548   2.665   2.104  11.546  0.6246 -0.5542 -0.7698
   35TMC2     H  549   2.709   2.278  11.408 -0.3093  1.9326  0.6045
   35TMC2    H1  550   2.370   2.044  11.277 -1.3056  1.1272 -1.4120
   35TMC2    H2  551   2.503   2.385  11.050 -0.5953  1.4410  1.8655
   35TMC2    C7  552   2.340   2.173  11.046  0.3376 -0.0501  0.2387
   35TMC2    C8  553   2.712   2.436  11.208  0.1782 -0.4795 -0.5512
   35TMC2    O1  554   2.303   2.270  10.978  0.2590  0.2867 -0.3717
   35TMC2    O2  555   2.832   2.416  11.233 -0.0910  1.0178  0.0268
   35TMC2    O5  556   2.662   2.544  11.140 -0.0438 -0.4896  0.5505
   35TMC2    H5  557   2.566   2.532  11.153 -0.3735  4.0900  2.2386
   36MPD2     C  558   2.392   1.742  11.823 -0.3576  0.3878 -0.4108
   36MPD2    C1  559   2.506   1.824  11.829 -0.1493 -0.2680 -0.2768
   36MPD2    C2  560   2.541   1.903  11.719 -0.1558 -0.4489 -0.2139
   36MPD2    C3  561   2.470   1.892  11.598  0.5127 -0.0409  0.8252
   36MPD2    C4  562   2.360   1.801  11.597 -0.2804  0.5863 -0.2149
   36MPD2    C5  563   2.323   1.727  11.705  0.2418 -0.1118  0.5785
   36MPD2     H  564   2.623   1.974  11.729 -0.1556 -0.3232 -1.0964
   36MPD2    H1  565   2.299   1.790  11.508  3.6142  0.8855 -2.9281
   36MPD2    H2  566   2.358   1.691  11.912 -0.2891  1.1201  0.0296
   36MPD2    H3  567   2.241   1.658  11.696  1.2519 -0.9106 -2.5869
   36MPD2     N  568   2.474   1.977  11.487 -0.3841  0.0811  0.2544
   36MPD2    H5  569   2.402   1.960  11.419 -1.2348  1.9399  0.6971
   36MPD2    N1  570   2.566   1.850  11.953 -0.2613 -0.5761  1.1857
   36MPD2    H7  571   2.522   1.802  12.030 -0.9347 -2.2069 -0.2285
   37TMC2    C1  572   0.108   3.025  11.455 -0.0133 -0.1552  0.1570
   37TMC2    C2  573   4.724   2.988  11.408  0.4379  0.1415  1.0781
   37TMC2    C3  574   4.706   2.946  11.276  0.9005  0.7206 -0.1225
   37TMC2    C4  575   0.210   3.032  11.366  0.1489  0.2975 -0.4765
   37TMC2    C5  576   0.191   2.990  11.237  0.1090 -0.1016 -0.1215
   37TMC2    C6  577   0.070   2.947  11.186  0.3402  0.0256  0.1441
   37TMC2     C  578   0.127   3.077  11.590  0.6671  0.3955 -0.1769
   37TMC2     O  579   0.028   3.079  11.661  0.3413 -0.1355 -0.2374
   37TMC2     H  580   4.638   2.993  11.474  0.9127  1.0519  1.6206
   37TMC2    H1  581   0.301   3.080  11.399 -0.0100  0.0666  0.2988
   37TMC2    H2  582   0.052   2.905  11.087 -0.5818 -0.2877  0.4479
   37TMC2    C7  583   0.312   2.961  11.159  0.5430 -0.2120 -0.6220
   37TMC2    C8  584   4.573   2.913  11.235 -0.7791  0.7167  0.0307
   37TMC2    O1  585   0.410   3.007  11.219 -0.5930  0.5089 -0.0959
   37TMC2    O2  586   4.472   2.946  11.294 -0.9535  0.0115  1.0458
   37TMC2    O5  587   4.575   2.796  11.171  0.4340 -0.2611  0.5910
   37TMC2    H5  588   4.668   2.772  11.147  0.2710  0.9666 -1.2897
   38MPD2     C  589   0.408   3.086  12.028 -0.2368 -0.2845 -0.1928
   38MPD2    C1  590   0.492   3.049  11.922 -0.1163 -0.0667 -0.0857
   38MPD2    C2  591   0.432   3.040  11.801  0.1241 -0.6288 -0.0582
   38MPD2    C3  592   0.307   3.068  11.773  0.2105 -1.0086  0.7596
   38MPD2    C4  593   0.224   3.110  11.881  0.3664 -0.2592 -0.1046
   38MPD2    C5  594   0.276   3.108  12.010  0.1272  0.1872  0.5070
   38MPD2     H  595   0.493   3.005  11.718  1.0100 -0.9089  0.7096
   38MPD2    H1  596   0.118   3.132  11.873  0.7253  1.7539  0.7706
   38MPD2    H2  597   0.443   3.097  12.130  3.4772  0.3894 -1.5450
   38MPD2    H3  598   0.217   3.147  12.093 -0.0734  3.0197 -0.9636
   38MPD2     N  599   0.256   3.056  11.639  0.5164 -0.2570  0.4259
   38MPD2    H5  600   0.321   3.026  11.567 -0.1075 -0.1787 -0.1718
   38MPD2    N1  601   0.636   3.024  11.929 -0.3318  0.3992 -0.4036
   38MPD2    H7  602   0.680   3.004  11.840 -1.3434  2.0653 -1.2753
   39TMC2    C1  603   3.886   0.899   1.331  0.0829 -0.7200  0.3945
   39TMC2    C2  604   3.983   0.839   1.254  0.3230  0.0754 -0.2308
   39TMC2    C3  605   4.096   0.796   1.311  0.1377  0.3481 -0.2619
   39TMC2    C4  606   3.905   0.907   1.462  0.1027  0.1422  0.4395
   39TMC2    C5  607   4.014   0.860   1.519 -0.7177 -0.4438  0.0806
   39TMC2    C6  608   4.115   0.816   1.444 -0.4445  1.0340 -0.2923
   39TMC2     C  609   3.754   0.941   1.288  0.3040 -0.1899  0.0751
   39TMC2     O  610   3.665   0.965   1.371  0.0382  0.1539 -0.3242
   39TMC2     H  611   3.971   0.838   1.146 -0.0994  0.8437 -0.1954
   39TMC2    H1  612   3.832   0.952   1.529 -0.4456 -0.0657 -0.0184
   39TMC2    H2  613   4.210   0.787   1.487 -2.3581 -2.7840  1.3817
   39TMC2    C7  614   4.045   0.916   1.653  0.2951 -0.3485  0.0670
   39TMC2    C8  615   4.209   0.772   1.223 -0.1834  0.4054 -0.4172
   39TMC2    O1  616   3.957   0.921   1.738  0.3630  0.0061 -0.4546
   39TMC2    O2  617   4.224   0.816   1.110 -0.5242  0.3204  1.0071
   39TMC2    O5  618   4.299   0.692   1.282 -0.1660  0.1508 -0.1364
   39TMC2    H5  619   4.270   0.636   1.357  0.0125  1.6727  1.0711
   40MPD2     C  620   3.660   0.944   0.930 -0.1669  0.1078  0.1949
   40MPD2    C1  621   3.637   0.964   1.062  0.1307 -0.0900 -0.1983
   40MPD2    C2  622   3.508   1.002   1.106  0.5851 -1.0283 -0.2191
   40MPD2    C3  623   3.408   0.996   1.012  0.2553  0.7262 -0.4713
   40MPD2    C4  624   3.433   0.946   0.889  0.1330  0.0955  0.4372
   40MPD2    C5  625   3.555   0.931   0.847 -0.0473  0.1550 -0.0188
   40MPD2     H  626   3.485   1.020   1.211  2.6582  1.5230 -0.2209
   40MPD2    H1  627   3.369   0.959   0.803  1.7884  0.9073 -0.6605
   40MPD2    H2  628   3.756   0.948   0.879  0.7298 -2.3056  1.7101
   40MPD2    H3  629   3.573   0.926   0.741 -2.0933  0.0620 -0.3666
   40MPD2     N  630   3.281   1.052   1.026 -0.3101  0.1765 -0.1812
   40MPD2    H5  631   3.213   1.043   0.951 -0.3979 -0.5473 -0.0155
   40MPD2    N1  632   3.755   0.954   1.144 -0.9547 -0.2980 -0.4647
   40MPD2    H7  633   3.850   0.940   1.114 -0.4168  2.0390  0.0972
   41TMC2    C1  634   3.231   3.090  13.616 -0.7534  0.1417  0.2871
   41TMC2    C2  635   3.279   2.964  13.594  0.9597  0.0677  0.8059
   41TMC2    C3  636   3.281   2.915  13.469  0.3045 -0.1000 -0.1430
   41TMC2    C4  637   3.179   3.169  13.514 -0.1998 -0.8005  0.3038
   41TMC2    C5  638   3.176   3.110  13.389 -0.0588 -0.6838  0.2315
   41TMC2    C6  639   3.247   2.991  13.367 -0.3430  0.1597 -0.7716
   41TMC2     C  640   3.240   3.141  13.755  0.6127  0.3546  0.7808
   41TMC2     O  641   3.275   3.065  13.849  0.4275 -0.6143 -0.7468
   41TMC2     H  642   3.295   2.897  13.678 -0.6361 -1.5001 -0.1608
   41TMC2    H1  643   3.112   3.252  13.533  0.5999 -0.2614  0.7676
   41TMC2    H2  644   3.250   2.938  13.273 -0.2933 -1.2211  0.0136
   41TMC2    C7  645   3.104   3.181  13.279  0.5004  0.4007 -0.4281
   41TMC2    C8  646   3.329   2.782  13.454 -0.5397 -0.5654 -0.6003
   41TMC2    O1  647   3.053   3.288  13.311  0.2923  0.5021  0.5533
   41TMC2    O2  648   3.298   2.707  13.362 -0.9691  0.2135 -0.1029
   41TMC2    O5  649   3.448   2.780  13.521  0.0488  0.1377  0.0176
   41TMC2    H5  650   3.472   2.857  13.576 -0.5192  0.4950 -0.2336
   42MPD2     C  651   3.212   3.298  14.005 -0.4470 -0.0182  0.0256
   42MPD2    C1  652   3.217   3.354  13.875  0.1918  0.1984  0.4453
   42MPD2    C2  653   3.205   3.490  13.865  1.0249 -0.3363  0.8136
   42MPD2    C3  654   3.204   3.575  13.971  0.0513  0.1557 -0.0094
   42MPD2    C4  655   3.194   3.524  14.100  0.3081 -0.5945 -0.2885
   42MPD2    C5  656   3.196   3.382  14.112  0.3384  0.4034 -0.2342
   42MPD2     H  657   3.210   3.528  13.764 -1.2152  0.9597  1.1968
   42MPD2    H1  658   3.176   3.599  14.176  3.5001 -0.4056  0.2626
   42MPD2    H2  659   3.205   3.192  14.025 -1.5006 -0.4032 -2.4424
   42MPD2    H3  660   3.190   3.329  14.207  1.2508 -0.3135 -0.5805
   42MPD2     N  661   3.203   3.715  13.948 -0.0267 -0.1034  0.5324
   42MPD2    H5  662   3.185   3.781  14.024  2.0132  0.4184  0.5627
   42MPD2    N1  663   3.215   3.275  13.761  0.0620  0.4412 -0.4719
   42MPD2    H7  664   3.191   3.322  13.674 -3.1035  2.6862  1.5797
   43TMC2    C1  665   4.345   2.634   0.602  0.4762  0.0272 -0.0721
   43TMC2    C2  666   4.304   2.708   0.493  0.9686  0.1522  0.1261
   43TMC2    C3  667   4.343   2.837   0.492 -0.0884  0.0485  0.0195
   43TMC2    C4  668   4.420   2.675   0.706  0.5703 -0.0364 -0.3768
   43TMC2    C5  669   4.461   2.807   0.697 -0.1747 -0.1322 -0.2698
   43TMC2    C6  670   4.427   2.890   0.592 -0.2710 -0.1046  1.0975
   43TMC2     C  671   4.352   2.495   0.588 -0.3799 -0.1941 -0.5434
   43TMC2     O  672   4.449   2.436   0.630 -0.3055  0.5049 -0.4087
   43TMC2     H  673   4.249   2.676   0.405  0.8494  0.3474  0.1314
   43TMC2    H1  674   4.466   2.610   0.779  1.7184  1.0698 -0.1083
   43TMC2    H2  675   4.433   2.999   0.592 -1.1218 -0.0524 -2.3349
   43TMC2    C7  676   4.516   2.875   0.809 -0.3012 -0.1304 -0.5003
   43TMC2    C8  677   4.295   2.930   0.396  0.2027 -0.3449 -0.6653
   43TMC2    O1  678   4.579   2.981   0.786  0.2474  0.0315 -0.5699
   43TMC2    O2  679   4.260   3.041   0.438  0.0168  0.1083  0.0383
   43TMC2    O5  680   4.331   2.887   0.271  0.4593  0.3157  0.2598
   43TMC2    H5  681   4.375   2.800   0.261 -0.7819 -0.4579  1.6153
   44MPD2     C  682   4.108   2.060   0.495  0.0389 -0.3351  0.0741
   44MPD2    C1  683   4.244   2.084   0.487  0.6150 -0.3261 -0.0195
   44MPD2    C2  684   4.284   2.213   0.499  0.2287 -0.4500  0.4149
   44MPD2    C3  685   4.194   2.317   0.512 -0.3192 -0.3288 -0.8110
   44MPD2    C4  686   4.064   2.292   0.509  0.8321 -0.8051 -0.4114
   44MPD2    C5  687   4.021   2.167   0.501  0.3608 -0.3311  0.0433
   44MPD2     H  688   4.391   2.228   0.504 -0.0401  1.3593  0.6782
   44MPD2    H1  689   3.992   2.373   0.516  1.4927 -0.5105  3.0341
   44MPD2    H2  690   4.070   1.959   0.485  1.9653 -1.1473  0.9602
   44MPD2    H3  691   3.915   2.145   0.516  0.8323 -2.7298 -0.0329
   44MPD2     N  692   4.230   2.456   0.536  0.4008 -0.0351  0.1178
   44MPD2    H5  693   4.159   2.529   0.542  1.3686  0.9875 -0.7970
   44MPD2    N1  694   4.343   1.986   0.473  0.2180 -0.2572  0.2041
   44MPD2    H7  695   4.440   2.015   0.468  0.3220 -0.7558 -0.6992
   45TMC2    C1  696   4.679   2.425   9.663 -0.1803 -1.4275 -0.0338
   45TMC2    C2  697   4.695   2.323   9.748  0.5712 -0.3810 -0.3846
   45TMC2    C3  698   0.009   2.351   9.873  0.4569 -0.2149  0.4314
   45TMC2    C4  699   4.721   2.552   9.695  0.8445  0.2783 -0.8742
   45TMC2    C5  700   0.036   2.578   9.820 -0.1438  0.2362 -0.2065
   45TMC2    C6  701   0.059   2.470   9.915  0.8830 -0.6029 -0.2100
   45TMC2     C  702   4.590   2.401   9.553  0.6848 -0.1610  0.5561
   45TMC2     O  703   4.563   2.286   9.527 -0.5687  0.0174 -0.7572
   45TMC2     H  704   4.655   2.225   9.723 -3.7643  1.1231  0.8185
   45TMC2    H1  705   4.718   2.636   9.627  2.0641 -0.9038 -2.3810
   45TMC2    H2  706   0.101   2.488  10.013 -1.3794  0.5972  0.5316
   45TMC2    C7  707   0.066   2.706   9.875  1.1076 -0.0530 -0.1785
   45TMC2    C8  708   0.021   2.234   9.951 -0.5112  0.3143  0.2611
   45TMC2    O1  709   0.064   2.717   9.997  0.2314  1.2295 -0.6271
   45TMC2    O2  710   0.035   2.125   9.900 -0.2826  0.2174 -0.2538
   45TMC2    O5  711   0.027   2.271  10.079  0.2846 -0.4454  0.0446
   45TMC2    H5  712   4.733   2.360  10.105 -0.1941  0.3162 -3.0868
   46MPD2     C  713   4.413   2.435   9.323 -0.3387  0.1171  0.2720
   46MPD2    C1  714   4.438   2.534   9.412 -0.3973 -0.3232 -0.0703
   46MPD2    C2  715   4.369   2.653   9.403  0.4058  0.6362 -0.4136
   46MPD2    C3  716   4.273   2.682   9.311  0.3687  0.3078 -0.0390
   46MPD2    C4  717   4.231   2.583   9.228  0.0015  0.8828 -0.5340
   46MPD2    C5  718   4.310   2.465   9.231  0.9086  0.1102 -0.6136
   46MPD2     H  719   4.385   2.727   9.481 -0.2719 -1.2724  1.5342
   46MPD2    H1  720   4.163   2.593   9.145  0.4281 -1.8593 -1.1994
   46MPD2    H2  721   4.461   2.338   9.321  0.5590  0.5438  0.8628
   46MPD2    H3  722   4.295   2.396   9.148  0.1387 -1.7743  1.1013
   46MPD2     N  723   4.216   2.808   9.324 -1.1967 -0.7460  0.7288
   46MPD2    H5  724   4.258   2.870   9.393 -0.3688  1.3506 -1.6595
   46MPD2    N1  725   4.525   2.520   9.524 -0.1772 -0.3181  0.9489
   46MPD2    H7  726   4.537   2.606   9.577  2.0969 -1.3073  2.0064
   47TMC2    C1  727   3.257   3.633   9.225 -0.0023 -0.0816  0.1913
   47TMC2    C2  728   3.220   3.620   9.091  0.1802  0.3733  0.3003
   47TMC2    C3  729   3.322   3.607   9.002  0.0147  0.7086  1.0408
   47TMC2    C4  730   3.391   3.627   9.249  0.1383  0.7146  0.1576
   47TMC2    C5  731   3.487   3.603   9.158 -0.0194 -0.2051  0.1117
   47TMC2    C6  732   3.454   3.591   9.026  0.2799 -0.5156 -0.3302
   47TMC2     C  733   3.172   3.630   9.342  0.3573 -0.6647 -0.3226
   47TMC2     O  734   3.216   3.667   9.447 -0.1073  0.4845 -0.1676
   47TMC2     H  735   3.116   3.614   9.060 -0.3684 -0.9540  2.3976
   47TMC2    H1  736   3.425   3.639   9.351 -1.2108  1.2998  0.5474
   47TMC2    H2  737   3.514   3.552   8.944  0.5409 -1.6328  0.3972
   47TMC2    C7  738   3.622   3.581   9.205 -0.0760  0.3641 -0.2803
   47TMC2    C8  739   3.282   3.583   8.869 -0.5138  0.5061  0.3661
   47TMC2    O1  740   3.660   3.618   9.320  0.7969  0.0730  0.1800
   47TMC2    O2  741   3.172   3.541   8.832 -0.5608  0.3024 -0.0140
   47TMC2    O5  742   3.357   3.665   8.797 -0.9769  0.4242  1.0582
   47TMC2    H5  743   3.434   3.706   8.843  0.6914  0.6437 -1.9296
   48MPD2     C  744   2.968   3.581   9.538  0.1318 -0.7096 -0.2607
   48MPD2    C1  745   2.975   3.511   9.420 -0.3943  0.9080 -0.6058
   48MPD2    C2  746   2.883   3.411   9.399 -0.4855  0.0238  0.2724
   48MPD2    C3  747   2.806   3.365   9.506  0.5902 -0.4369 -0.2144
   48MPD2    C4  748   2.804   3.436   9.622 -0.1365 -0.0427  0.7811
   48MPD2    C5  749   2.879   3.546   9.634 -0.6337  0.0005  0.6377
   48MPD2     H  750   2.883   3.354   9.307  0.7299 -0.1472  0.3762
   48MPD2    H1  751   2.741   3.406   9.705 -0.3752  1.0668  0.9965
   48MPD2    H2  752   3.020   3.675   9.555  1.9524 -2.1127  1.9852
   48MPD2    H3  753   2.882   3.601   9.727  2.6867 -0.0652  0.5850
   48MPD2     N  754   2.728   3.240   9.491  0.5610 -0.3819  0.1258
   48MPD2    H5  755   2.729   3.193   9.402 -0.0821 -3.2070  1.6033
   48MPD2    N1  756   3.064   3.549   9.319  0.4047 -0.3143 -0.2244
   48MPD2    H7  757   3.052   3.494   9.235  0.4920  1.4819 -1.4230
   49TMC2    C1  758   0.609   0.187  10.174  0.3436 -1.0041  0.8319
   49TMC2    C2  759   0.665   0.129  10.062 -0.0759 -0.1705  0.4521
   49TMC2    C3  760   0.661   4.734  10.042  0.1038 -0.9399  0.1040
   49TMC2    C4  761   0.534   0.102  10.252  0.2156 -0.1231 -0.1629
   49TMC2    C5  762   0.541   4.709  10.237 -0.3001 -0.6300  0.1148
   49TMC2    C6  763   0.611   4.647  10.140  0.6678  0.0928  0.9085
   49TMC2     C  764   0.643   0.328  10.208  0.1798 -0.9609  0.1470
   49TMC2     O  765   0.738   0.377  10.152 -0.0019  0.7685  0.3023
   49TMC2     H  766   0.721   0.183   9.986 -2.6576  1.7001 -0.1490
   49TMC2    H1  767   0.468   0.139  10.330 -0.0980 -1.4744  0.2066
   49TMC2    H2  768   0.606   4.540  10.123  1.2203  0.4982 -1.8779
   49TMC2    C7  769   0.468   4.620  10.327 -0.3264  0.2905 -0.0955
   49TMC2    C8  770   0.749   4.683   9.941 -0.1897  0.2959  0.2008
   49TMC2    O1  771   0.455   4.502  10.291 -0.8334 -0.4393 -0.3403
   49TMC2    O2  772   0.807   0.018   9.855  0.3539 -0.3755  0.1180
   49TMC2    O5  773   0.740   4.552   9.932  0.0741  0.5395  0.2713
   49TMC2    H5  774   0.668   4.502   9.976 -1.3944  0.7034 -1.9430
   50MPD2     C  775   0.637   0.605  10.283 -0.1949 -0.8992  0.0582
   50MPD2    C1  776   0.584   0.501  10.362 -0.4526  0.3669 -0.0032
   50MPD2    C2  777   0.527   0.538  10.483  0.9726  0.3663 -0.3890
   50MPD2    C3  778   0.521   0.667  10.530  0.2005  0.0162 -0.1232
   50MPD2    C4  779   0.577   0.761  10.453  0.2880 -0.4342  0.1405
   50MPD2    C5  780   0.632   0.731  10.330 -0.6634  0.3962 -0.3671
   50MPD2     H  781   0.497   0.455  10.546 -1.0660  0.1431 -1.6352
   50MPD2    H1  782   0.585   0.863  10.489 -4.1894  0.7673 -2.2433
   50MPD2    H2  783   0.695   0.595  10.192  0.7667 -0.2157  0.5966
   50MPD2    H3  784   0.671   0.809  10.265 -1.4111 -0.2233 -1.5537
   50MPD2     N  785   0.475   0.705  10.657  0.1109  0.1030 -0.1484
   50MPD2    H5  786   0.466   0.804  10.679 -0.8879  0.0265 -0.2152
   50MPD2    N1  787   0.581   0.371  10.321 -0.0106 -0.2394  0.3831
   50MPD2    H7  788   0.518   0.306  10.367 -0.4145  0.9103  1.4548
   51TMC2    C1  789   2.984   0.718   1.705  0.0273 -0.1133  0.2709
   51TMC2    C2  790   3.112   0.753   1.663 -0.8775  0.1287 -0.0412
   51TMC2    C3  791   3.171   0.859   1.730  0.8529  0.2866  0.0488
   51TMC2    C4  792   2.908   0.790   1.787  0.2645 -0.2378 -0.4588
   51TMC2    C5  793   2.969   0.899   1.840  0.1887  0.1527 -0.2224
   51TMC2    C6  794   3.099   0.933   1.818  0.2493 -0.3257 -0.1778
   51TMC2     C  795   2.930   0.593   1.655  0.8661 -0.0895 -0.0615
   51TMC2     O  796   2.811   0.589   1.650 -0.3208 -0.0494 -0.1066
   51TMC2     H  797   3.165   0.691   1.591  0.6029  1.0969  0.2308
   51TMC2    H1  798   2.804   0.765   1.806  0.6923 -0.8348  1.0649
   51TMC2    H2  799   3.152   1.016   1.864 -3.0319  2.2641 -1.1281
   51TMC2    C7  800   2.874   0.999   1.893 -0.1166 -0.2517  0.3439
   51TMC2    C8  801   3.315   0.880   1.727  0.0158 -0.4914 -0.0523
   51TMC2    O1  802   2.759   0.963   1.912 -0.2214 -0.2706 -0.2182
   51TMC2    O2  803   3.373   0.921   1.623 -0.1544  0.1055  0.0285
   51TMC2    O5  804   3.361   0.883   1.852 -0.2103 -0.6763  0.3956
   51TMC2    H5  805   3.291   0.841   1.906  0.9034 -1.3785  1.2897
   52MPD2     C  806   2.960   0.088   1.582 -0.1192 -0.4047  1.2231
   52MPD2    C1  807   2.856   0.174   1.581 -0.5189  0.7592 -0.2623
   52MPD2    C2  808   2.879   0.308   1.607  0.6966 -0.5966 -0.0532
   52MPD2    C3  809   3.002   0.356   1.638  0.1447 -0.0685  0.2753
   52MPD2    C4  810   3.103   0.271   1.649  0.2708  0.2607  0.3735
   52MPD2    C5  811   3.083   0.134   1.629 -0.5807  0.7057 -0.1302
   52MPD2     H  812   2.791   0.371   1.616  1.7199  0.9907 -1.1465
   52MPD2    H1  813   3.201   0.307   1.682 -0.2839  1.7181  0.4314
   52MPD2    H2  814   2.951   4.719   1.582  0.4394 -0.4490 -0.2623
   52MPD2    H3  815   3.166   0.065   1.641 -1.6689 -0.7034 -0.8092
   52MPD2     N  816   3.022   0.493   1.660 -0.2680  0.5692 -0.1488
   52MPD2    H5  817   3.122   0.512   1.664  0.1609 -1.3928 -1.9915
   52MPD2    N1  818   2.723   0.134   1.553  0.0934 -0.1220  0.5142
   52MPD2    H7  819   2.662   0.215   1.548 -0.1670 -0.4705 -1.7512
   53TMC2    C1  820   1.026   2.769  10.996  0.3879  0.0384  0.0376
   53TMC2    C2  821   1.137   2.720  10.932 -0.0353 -0.1308  0.2584
   53TMC2    C3  822   1.245   2.689  11.008  0.4873  0.6847  0.2348
   53TMC2    C4  823   1.007   2.775  11.134 -0.4540  0.2122 -0.5040
   53TMC2    C5  824   1.118   2.734  11.209  0.4221 -0.4040 -0.1949
   53TMC2    C6  825   1.236   2.689  11.149 -0.3409 -0.3318 -0.6297
   53TMC2     C  826   0.905   2.756  10.920  0.2463 -0.6363 -0.7826
   53TMC2     O  827   0.906   2.659  10.848  0.3766 -0.3920  0.0976
   53TMC2     H  828   1.144   2.720  10.824 -0.7205  0.2056  0.2182
   53TMC2    H1  829   0.927   2.829  11.183  0.2641  0.2918  0.5896
   53TMC2    H2  830   1.325   2.660  11.204 -0.6451 -0.8600 -0.4138
   53TMC2    C7  831   1.146   2.795  11.336  0.3535 -0.0267  0.0323
   53TMC2    C8  832   1.336   2.592  10.962  0.3390 -0.5680 -0.0352
   53TMC2    O1  833   1.085   2.893  11.365 -1.0623 -0.3615 -0.0448
   53TMC2    O2  834   1.397   2.610  10.861 -0.1337  0.3963 -0.5609
   53TMC2    O5  835   1.292   2.471  11.009  0.0860  0.2458 -0.6119
   53TMC2    H5  836   1.244   2.483  11.094 -0.5588  1.1976 -1.1031
   54MPD2     C  837   0.628   2.742  10.820  0.2994 -0.6548  0.6579
   54MPD2    C1  838   0.656   2.806  10.937  0.2448  0.6047 -0.1961
   54MPD2    C2  839   0.555   2.859  11.016  0.2094 -0.4412  0.1616
   54MPD2    C3  840   0.419   2.833  10.979  0.1491  0.8966 -0.4523
   54MPD2    C4  841   0.395   2.765  10.863  0.3204 -0.5065 -0.1379
   54MPD2    C5  842   0.498   2.721  10.783  0.2470  0.2073 -0.1201
   54MPD2     H  843   0.580   2.921  11.101  4.2039 -0.3849 -1.0314
   54MPD2    H1  844   0.294   2.741  10.834  0.1471  0.1992 -0.1229
   54MPD2    H2  845   0.708   2.703  10.760  2.7606  0.7408  3.0227
   54MPD2    H3  846   0.461   2.659  10.703 -1.5854  0.0793  0.8151
   54MPD2     N  847   0.302   2.887  11.043  0.0585 -0.1623  0.0557
   54MPD2    H5  848   0.211   2.851  11.017  0.4379  0.3439 -1.9774
   54MPD2    N1  849   0.793   2.819  10.973  0.1130 -0.3611 -0.0848
   54MPD2    H7  850   0.812   2.902  11.028 -0.1881  0.4213 -1.1629
   55TMC2    C1  851   2.765   1.683   0.496  0.2461  1.0376 -0.3136
   55TMC2    C2  852   2.896   1.709   0.480 -0.8030  0.6073  0.3874
   55TMC2    C3  853   2.975   1.715   0.587 -0.2656 -0.9826  0.7178
   55TMC2    C4  854   2.710   1.648   0.615 -0.1372  0.1208  0.1007
   55TMC2    C5  855   2.799   1.628   0.718  0.3156 -0.0826  0.5417
   55TMC2    C6  856   2.934   1.653   0.699  0.9639 -0.1789 -0.5236
   55TMC2     C  857   2.680   1.756   0.412 -0.3915  0.6358  0.6054
   55TMC2     O  858   2.724   1.853   0.350  0.7408 -0.3164  0.7699
   55TMC2     H  859   2.926   1.736   0.380 -0.8873 -3.1243 -0.6517
   55TMC2    H1  860   2.611   1.604   0.624  1.1261 -2.5920  0.7222
   55TMC2    H2  861   2.990   1.633   0.789 -0.3137 -1.0843  0.0705
   55TMC2    C7  862   2.740   1.607   0.843 -1.4038 -0.5154  0.4089
   55TMC2    C8  863   3.116   1.734   0.558 -0.5890 -0.1675 -0.1126
   55TMC2    O1  864   2.813   1.554   0.931 -0.0697 -0.3565 -0.1494
   55TMC2    O2  865   3.151   1.704   0.446 -0.7272  0.5128  0.0708
   55TMC2    O5  866   3.180   1.703   0.674 -0.0933  0.4342 -0.4322
   55TMC2    H5  867   3.141   1.759   0.745  0.8607 -0.4765  0.7927
   56MPD2     C  868   2.330   1.680   0.326  0.0196  0.0814 -0.1535
   56MPD2    C1  869   2.439   1.758   0.338  0.1290  0.2640  0.1785
   56MPD2    C2  870   2.434   1.893   0.295 -0.0732  0.2017 -0.1240
   56MPD2    C3  871   2.313   1.942   0.245 -0.3309  0.7540  0.1087
   56MPD2    C4  872   2.211   1.856   0.215  0.2714 -0.6175 -0.1783
   56MPD2    C5  873   2.212   1.726   0.259  0.8248 -0.0568 -0.5671
   56MPD2     H  874   2.520   1.956   0.315 -0.6281  0.9766 -0.1996
   56MPD2    H1  875   2.124   1.894   0.161  1.7343  1.8856 -0.8054
   56MPD2    H2  876   2.339   1.573   0.345  0.0954 -0.0019 -0.6314
   56MPD2    H3  877   2.125   1.666   0.236 -1.9219  3.2415  1.1850
   56MPD2     N  878   2.301   2.082   0.214 -1.1542 -0.2183 -0.0348
   56MPD2    H5  879   2.385   2.137   0.228  0.8580 -2.9899 -1.0630
   56MPD2    N1  880   2.554   1.700   0.406 -0.0669  0.4666  0.1801
   56MPD2    H7  881   2.532   1.607   0.440 -0.0652  0.0123 -1.0436
   57TMC2    C1  882   0.980   1.848  13.654 -0.1478 -0.4460  0.1061
   57TMC2    C2  883   0.928   1.726  13.669 -0.7325  0.3529 -0.1931
   57TMC2    C3  884   1.010   1.616  13.669 -0.3060  0.2035  0.0635
   57TMC2    C4  885   1.107   1.867  13.616 -0.0023  0.6759  1.0748
   57TMC2    C5  886   1.184   1.757  13.609 -0.2989 -0.4009  0.1237
   57TMC2    C6  887   1.136   1.630  13.637  0.3454  0.1383 -0.5187
   57TMC2     C  888   0.898   1.965  13.689  0.1296  0.0456  0.2571
   57TMC2     O  889   0.775   1.941  13.689  0.0059  0.1493 -0.1714
   57TMC2     H  890   0.822   1.718  13.692  0.0160 -1.7427  2.5295
   57TMC2    H1  891   1.148   1.960  13.579  1.3416 -0.5334 -0.4591
   57TMC2    H2  892   1.201   1.544  13.626 -0.6092 -1.0379  3.0694
   57TMC2    C7  893   1.318   1.776  13.565 -0.6652  0.2839  0.1639
   57TMC2    C8  894   0.958   1.482  13.640  0.2630  0.1182 -0.0602
   57TMC2    O1  895   1.413   1.735  13.626 -0.8685  0.2184  0.0655
   57TMC2    O2  896   1.024   1.403  13.575 -0.3426  0.2280  0.3942
   57TMC2    O5  897   0.885   1.449  13.746 -0.1813 -0.1823 -0.0561
   57TMC2    H5  898   0.873   1.531  13.800  2.6257 -0.7186  1.3867
   58MPD2     C  899   0.785   2.463  13.810  0.2531  0.3876  0.4763
   58MPD2    C1  900   0.712   2.359  13.751  0.0995  0.1465  0.2632
   58MPD2    C2  901   0.773   2.240  13.724  0.0392 -0.7272 -0.6654
   58MPD2    C3  902   0.908   2.212  13.756  0.0880  0.3872  0.0224
   58MPD2    C4  903   0.984   2.314  13.813 -0.2888 -0.6332 -0.2019
   58MPD2    C5  904   0.921   2.437  13.831  0.3534 -0.1807 -0.1794
   58MPD2     H  905   0.725   2.163  13.665 -0.3243 -0.2289 -1.0159
   58MPD2    H1  906   1.089   2.303  13.835 -0.0609 -1.0614 -1.4789
   58MPD2    H2  907   0.738   2.557  13.838 -0.3512 -0.0062  0.7788
   58MPD2    H3  908   0.977   2.518  13.876 -0.5128  0.0217  0.5271
   58MPD2     N  909   0.966   2.082  13.725  0.0253 -0.4458 -0.4925
   58MPD2    H5  910   1.063   2.073  13.750  0.0268  0.2786 -0.2407
   58MPD2    N1  911   0.570   2.370  13.739 -0.2268  0.1648  0.2508
   58MPD2    H7  912   0.524   2.296  13.688  0.5638  0.2916 -0.6453
   59TMC2    C1  913   3.831   2.211  12.718  0.0727 -0.0903 -0.5545
   59TMC2    C2  914   3.742   2.232  12.814 -0.4276  0.5818  0.1445
   59TMC2    C3  915   3.609   2.183  12.806 -0.3154  1.0653 -0.0843
   59TMC2    C4  916   3.785   2.142  12.611 -0.1146  0.0610 -0.1237
   59TMC2    C5  917   3.655   2.108  12.598  0.4188 -0.0609  0.7969
   59TMC2    C6  918   3.563   2.128  12.697 -0.7026  0.7147 -0.6911
   59TMC2     C  919   3.940   2.300  12.694 -0.4070  0.3894 -0.2916
   59TMC2     O  920   4.000   2.304  12.588  0.0914  0.7957  0.5365
   59TMC2     H  921   3.762   2.282  12.908  0.9940 -2.9562  1.7666
   59TMC2    H1  922   3.857   2.095  12.543 -0.0094 -0.0203  0.0445
   59TMC2    H2  923   3.466   2.081  12.685  0.7839 -2.5081 -0.0077
   59TMC2    C7  924   3.625   2.007  12.494  0.1992 -0.0438 -0.1374
   59TMC2    C8  925   3.525   2.287  12.868  0.7813 -0.2538 -0.2443
   59TMC2    O1  926   3.714   1.922  12.468 -0.0438  0.1495 -0.0169
   59TMC2    O2  927   3.554   2.402  12.831  0.6212  0.1295  0.3220
   59TMC2    O5  928   3.396   2.247  12.856 -0.0011 -0.5860 -0.4196
   59TMC2    H5  929   3.371   2.161  12.896  1.7193 -0.0371  1.8667
   60MPD2     C  930   4.125   2.536  12.692  0.1260 -0.1785 -0.5765
   60MPD2    C1  931   4.096   2.461  12.805 -0.4909 -0.0104  0.4115
   60MPD2    C2  932   4.163   2.493  12.919  0.0081 -0.1272 -0.4384
   60MPD2    C3  933   4.265   2.587  12.923  0.2295 -0.2906  0.0837
   60MPD2    C4  934   4.307   2.653  12.808  0.4529  1.0532 -0.3737
   60MPD2    C5  935   4.238   2.619  12.694  0.1632 -0.7741  0.8337
   60MPD2     H  936   4.145   2.427  13.003 -0.5508 -2.1385 -2.1284
   60MPD2    H1  937   4.392   2.719  12.807  0.5843  0.8866 -0.0677
   60MPD2    H2  938   4.071   2.531  12.598 -1.0321  0.7407  0.0500
   60MPD2    H3  939   4.273   2.666  12.602 -0.1358  1.0348  1.6420
   60MPD2     N  940   4.354   2.611  13.031  0.0542 -0.2648  0.5497
   60MPD2    H5  941   4.437   2.665  13.009 -0.4961  0.2075 -0.3784
   60MPD2    N1  942   3.989   2.363  12.804  0.4097 -0.0953  0.0428
   60MPD2    H7  943   3.970   2.329  12.897 -0.1633  0.8358  0.2599
   61TMC2    C1  944   2.587   4.500  15.811 -0.7799  0.1078  0.1490
   61TMC2    C2  945   2.530   4.483  15.933  0.0197  0.2200 -0.0162
   61TMC2    C3  946   2.549   4.586  16.017 -0.1286 -0.2935  0.5607
   61TMC2    C4  947   2.649   4.611  15.766  0.2987 -0.1896  0.2133
   61TMC2    C5  948   2.650   4.720  15.846  0.2591  0.1862  0.6467
   61TMC2    C6  949   2.603   4.707  15.972 -0.5796 -0.4632  0.0950
   61TMC2     C  950   2.581   4.379  15.729 -0.1020  0.5632 -0.6076
   61TMC2     O  951   2.515   4.285  15.774 -0.8020  0.0333 -0.0834
   61TMC2     H  952   2.481   4.391  15.961  1.2096  0.3249  2.4181
   61TMC2    H1  953   2.685   4.620  15.664  0.2365  0.5721  0.2591
   61TMC2    H2  954   2.593   0.059  16.032 -0.5036  0.5920 -1.4800
   61TMC2    C7  955   2.739   0.082  15.809  0.1589 -0.2866 -0.4339
   61TMC2    C8  956   2.460   4.592  16.133 -0.2292 -0.0551 -1.3448
   61TMC2    O1  957   2.784   0.081  15.696  0.1273  0.2655 -0.8213
   61TMC2    O2  958   2.371   4.511  16.144  0.3778 -0.1014  0.0050
   61TMC2    O5  959   2.502   4.692  16.219  0.5473  0.1082 -0.7755
   61TMC2    H5  960   2.594   4.725  16.204 -0.6055  1.8062 -4.0589
   62MPD2     C  961   2.617   4.157  15.533  1.2676  0.3843  0.0713
   62MPD2    C1  962   2.673   4.286  15.517 -0.3502 -0.0636  0.1707
   62MPD2    C2  963   2.758   4.301  15.411  0.3932 -0.9391 -0.5050
   62MPD2    C3  964   2.789   4.200  15.320 -0.0998  0.1874  0.4676
   62MPD2    C4  965   2.727   4.074  15.338 -0.1647 -0.1623 -0.0430
   62MPD2    C5  966   2.644   4.053  15.443  0.9443 -0.4814  0.1138
   62MPD2     H  967   2.809   4.396  15.396 -0.6049 -0.0155  1.9869
   62MPD2    H1  968   2.738   3.991  15.269  1.7071  2.0917 -2.4769
   62MPD2    H2  969   2.548   4.132  15.613  1.3917 -0.2624 -0.0206
   62MPD2    H3  970   2.600   3.954  15.454  0.5148 -0.3142 -0.0850
   62MPD2     N  971   2.886   4.209  15.222  0.8661 -0.0419 -0.2513
   62MPD2    H5  972   2.887   4.133  15.155  3.5623  0.2564 -0.5686
   62MPD2    N1  973   2.653   4.393  15.608  0.6105 -0.1509  0.0881
   62MPD2    H7  974   2.698   4.480  15.583  0.2374 -0.1823 -0.7017
   63TMC2    C1  975   2.208   3.859  10.096  0.5535  0.5930 -0.3696
   63TMC2    C2  976   2.168   3.992  10.107 -0.8093  0.1417  0.7611
   63TMC2    C3  977   2.207   4.081  10.006 -1.0008 -0.3439 -0.5770
   63TMC2    C4  978   2.279   3.813   9.988  0.4853 -0.1482 -0.6129
   63TMC2    C5  979   2.307   3.896   9.885 -0.2345 -0.3195  0.0101
   63TMC2    C6  980   2.272   4.028   9.893  0.4347  0.1939 -0.1475
   63TMC2     C  981   2.156   3.763  10.193  0.5911 -0.1064 -0.0255
   63TMC2     O  982   2.067   3.815  10.264  0.6630  0.1539  0.8764
   63TMC2     H  983   2.126   4.019  10.202 -2.3675  1.6609 -0.3691
   63TMC2    H1  984   2.290   3.706   9.974 -2.1808 -0.5979  0.8408
   63TMC2    H2  985   2.288   4.102   9.815 -1.3116  0.6629 -0.0656
   63TMC2    C7  986   2.300   3.841   9.746  0.4814  0.0765 -0.1242
   63TMC2    C8  987   2.144   4.213   9.998 -0.1907  0.7958  0.0580
   63TMC2    O1  988   2.272   3.721   9.744  0.6909 -0.2590 -0.2428
   63TMC2    O2  989   2.115   4.274   9.892 -0.0798 -0.2253  0.1038
   63TMC2    O5  990   2.111   4.247  10.125 -0.1346 -0.1171  0.3529
   63TMC2    H5  991   2.173   4.202  10.187  0.7467  1.4854  0.6381
   64MPD2     C  992   2.078   3.317  10.412 -0.3521  0.2396  0.2034
   64MPD2    C1  993   2.132   3.291  10.291  0.4969 -0.6478 -0.3166
   64MPD2    C2  994   2.173   3.399  10.224  0.6096  0.5471 -0.2895
   64MPD2    C3  995   2.155   3.532  10.267  0.2337 -0.8607  0.5468
   64MPD2    C4  996   2.102   3.553  10.396 -0.1036 -0.1690  0.0289
   64MPD2    C5  997   2.072   3.440  10.466 -0.1976 -0.2501 -0.1827
   64MPD2     H  998   2.217   3.381  10.127 -1.1135  1.7446 -1.2886
   64MPD2    H1  999   2.088   3.646  10.449  0.5242 -0.1522  0.1667
   64MPD2    H2 1000   2.053   3.233  10.476 -1.0471  0.7735  0.6339
   64MPD2    H3 1001   2.038   3.450  10.568  2.2469 -0.8234  0.6860
   64MPD2     N 1002   2.206   3.633  10.190 -0.3936 -0.1057 -1.0355
   64MPD2    H5 1003   2.281   3.615  10.124 -0.2379  2.2939 -1.5389
   64MPD2    N1 1004   2.159   3.162  10.242  0.0703  0.1515  0.2199
   64MPD2    H7 1005   2.222   3.157  10.163 -2.2795 -3.0621 -1.3874
   65TMC2    C1 1006   3.133   3.398  15.600 -0.7806 -0.6710  0.2763
   65TMC2    C2 1007   3.126   3.341  15.727 -0.0650  0.5365  0.5944
   65TMC2    C3 1008   3.214   3.379  15.825 -0.0202 -0.6211 -0.1626
   65TMC2    C4 1009   3.244   3.481  15.578  0.3242 -0.2034  0.1945
   65TMC2    C5 1010   3.316   3.526  15.684  0.0540 -0.6800 -0.1723
   65TMC2    C6 1011   3.306   3.476  15.810 -0.1867  0.3530 -0.1315
   65TMC2     C 1012   3.037   3.360  15.497  0.4745 -0.0911 -0.7244
   65TMC2     O 1013   3.052   3.417  15.389  0.1418 -0.6392 -0.1729
   65TMC2     H 1014   3.059   3.257  15.743 -0.3157  0.2092 -2.1860
   65TMC2    H1 1015   3.252   3.530  15.481 -1.1763  2.6817  1.5029
   65TMC2    H2 1016   3.385   3.488  15.884 -2.0639 -0.1822  1.9410
   65TMC2    C7 1017   3.378   3.650  15.658  0.0481 -0.1789 -0.3094
   65TMC2    C8 1018   3.211   3.303  15.945 -0.0883  0.1286  0.1566
   65TMC2    O1 1019   3.418   3.685  15.545 -0.2836  0.3142 -0.3623
   65TMC2    O2 1020   3.178   3.187  15.937 -0.2365  0.2812  0.7037
   65TMC2    O5 1021   3.185   3.375  16.053 -0.3623 -0.1949  0.1161
   65TMC2    H5 1022   3.198   3.471  16.041  0.8572 -0.4327 -0.4768
   66MPD2     C 1023   2.778   3.105  15.493 -0.3215 -0.0134 -0.3038
   66MPD2    C1 1024   2.852   3.209  15.448 -0.2488  0.5199  0.3477
   66MPD2    C2 1025   2.800   3.276  15.342 -0.2771 -0.1922  0.3779
   66MPD2    C3 1026   2.688   3.233  15.274  0.8204 -0.3204 -0.5900
   66MPD2    C4 1027   2.618   3.121  15.318 -0.1896 -0.1572 -0.8908
   66MPD2    C5 1028   2.668   3.065  15.431 -0.3861  0.2753  0.5331
   66MPD2     H 1029   2.844   3.370  15.308  0.8109 -1.0544 -0.6048
   66MPD2    H1 1030   2.535   3.083  15.260  0.4235 -3.1172  0.1688
   66MPD2    H2 1031   2.799   3.046  15.581  0.5755  0.0582 -0.4732
   66MPD2    H3 1032   2.618   2.979  15.475 -1.8059  0.1490 -1.3277
   66MPD2     N 1033   2.652   3.299  15.155 -0.2671 -0.3451 -0.6293
   66MPD2    H5 1034   2.705   3.376  15.115  1.4327 -0.6736  1.0114
   66MPD2    N1 1035   2.965   3.250  15.527  0.2262 -0.0535  0.1790
   66MPD2    H7 1036   2.981   3.202  15.615  1.0036 -1.5209 -0.7581
   67TMC2    C1 1037   3.945   2.873  14.292  0.3224 -0.5369  0.0956
   67TMC2    C2 1038   3.912   3.003  14.292  0.9165  0.0707 -0.0858
   67TMC2    C3 1039   3.954   3.092  14.388  0.3978  0.1058 -0.2241
   67TMC2    C4 1040   4.035   2.823  14.387 -0.6754 -0.5512 -0.7163
   67TMC2    C5 1041   4.080   2.909  14.483  0.2549  0.6499 -0.6154
   67TMC2    C6 1042   4.045   3.040  14.485 -0.4132  1.3879 -0.5185
   67TMC2     C 1043   3.894   2.777  14.206  0.4916  0.0886  0.1835
   67TMC2     O 1044   3.946   2.670  14.190  0.0039  0.6131 -0.2480
   67TMC2     H 1045   3.867   3.048  14.204  2.6273  0.2744 -0.8642
   67TMC2    H1 1046   4.066   2.719  14.384 -2.0102 -0.9107 -2.0980
   67TMC2    H2 1047   4.101   3.109  14.546  0.1837 -1.0675  1.7367
   67TMC2    C7 1048   4.168   2.858  14.585 -0.0996 -0.9059 -0.4316
   67TMC2    C8 1049   3.924   3.228  14.385  0.4608  0.1056 -0.8144
   67TMC2    O1 1050   4.248   2.765  14.551 -0.2271  0.1710 -0.2677
   67TMC2    O2 1051   4.002   3.306  14.440  0.1448  0.1965  0.6362
   67TMC2    O5 1052   3.794   3.230  14.407 -0.0237 -0.1963 -0.0466
   67TMC2    H5 1053   3.751   3.145  14.384  1.4247 -1.2558  1.0837
   68MPD2     C 1054   3.726   2.661  13.989  0.1187  0.5852  0.4344
   68MPD2    C1 1055   3.679   2.741  14.090  0.4137  0.3581 -0.3981
   68MPD2    C2 1056   3.544   2.762  14.090  0.4860 -0.1997 -0.0295
   68MPD2    C3 1057   3.457   2.690  14.007  0.7594  0.2225 -0.8615
   68MPD2    C4 1058   3.508   2.598  13.912  0.5577 -0.0305  0.1203
   68MPD2    C5 1059   3.645   2.594  13.909 -0.1306  0.0883  0.3426
   68MPD2     H 1060   3.505   2.842  14.152 -0.0082 -0.6641  0.2597
   68MPD2    H1 1061   3.454   2.545  13.835 -1.3567 -1.1513  2.2270
   68MPD2    H2 1062   3.831   2.636  13.987 -0.4121 -1.8150  1.3327
   68MPD2    H3 1063   3.686   2.519  13.842 -1.3024  0.7230 -1.0784
   68MPD2     N 1064   3.321   2.717  13.991 -0.6572 -0.0760  0.0137
   68MPD2    H5 1065   3.291   2.690  13.899  1.2672  2.1457 -1.2718
   68MPD2    N1 1066   3.765   2.805  14.182  0.8175 -0.1630  0.4724
   68MPD2    H7 1067   3.728   2.884  14.234 -1.1401  0.4502 -1.8546
   69TMC2    C1 1068   1.780   3.517  12.375 -0.3131 -0.0236  1.1617
   69TMC2    C2 1069   1.758   3.654  12.366 -0.7583  0.4515 -0.1859
   69TMC2    C3 1070   1.771   3.711  12.238  0.0065 -0.5017  0.1395
   69TMC2    C4 1071   1.810   3.450  12.261  0.3597 -0.7376  0.3616
   69TMC2    C5 1072   1.826   3.512  12.139  0.9938 -0.1771  0.4836
   69TMC2    C6 1073   1.801   3.645  12.125 -0.1122 -0.5805  0.1106
   69TMC2     C 1074   1.751   3.445  12.502  0.5529 -0.3410  0.5161
   69TMC2     O 1075   1.711   3.330  12.493  0.0794  0.2640 -0.5900
   69TMC2     H 1076   1.728   3.706  12.456 -1.8597  0.8093 -0.7547
   69TMC2    H1 1077   1.813   3.344  12.284 -3.8256 -1.1512 -0.8851
   69TMC2    H2 1078   1.819   3.693  12.030  2.0033 -0.3616  0.6261
   69TMC2    C7 1079   1.787   3.428  12.032  0.2001 -0.6299  0.1659
   69TMC2    C8 1080   1.736   3.859  12.244  0.2809  0.7290 -0.1194
   69TMC2    O1 1081   1.773   3.306  12.053  0.2022 -0.4085  0.4235
   69TMC2    O2 1082   1.709   3.914  12.350 -0.0186  0.2884  0.1946
   69TMC2    O5 1083   1.819   3.912  12.155 -1.0835  0.1550 -0.1160
   69TMC2    H5 1084   1.836   3.861  12.074  0.5291  0.2149  0.1954
   70MPD2     C 1085   1.887   3.575  12.814 -0.0179 -0.0949  0.7740
   70MPD2    C1 1086   1.807   3.486  12.740  0.2937 -1.2084  0.0302
   70MPD2    C2 1087   1.754   3.373  12.798  0.5313  0.4099 -0.2480
   70MPD2    C3 1088   1.778   3.349  12.933  0.2128  0.6137  0.2363
   70MPD2    C4 1089   1.863   3.433  13.001  0.2328 -0.4209 -0.0469
   70MPD2    C5 1090   1.923   3.540  12.945 -0.5531 -0.0208  0.6425
   70MPD2     H 1091   1.692   3.310  12.736  0.2494  0.6033 -0.1624
   70MPD2    H1 1092   1.874   3.416  13.108  0.3890 -4.0985 -0.6579
   70MPD2    H2 1093   1.937   3.653  12.760 -2.6597  0.2651 -1.1424
   70MPD2    H3 1094   1.985   3.609  13.000 -0.7112  0.2735  0.4528
   70MPD2     N 1095   1.743   3.229  12.989 -0.5325 -0.3954  0.1795
   70MPD2    H5 1096   1.784   3.205  13.079 -1.4730 -2.4945  0.0522
   70MPD2    N1 1097   1.795   3.521  12.605  1.2012 -0.5053 -0.1705
   70MPD2    H7 1098   1.844   3.608  12.590  1.1520 -0.5689 -0.6761
   71TMC2    C1 1099   3.802   0.212   0.524  0.0467  0.1151 -0.7048
   71TMC2    C2 1100   3.894   0.139   0.459  0.3721  0.0518  0.1756
   71TMC2    C3 1101   3.991   0.079   0.538  0.9096 -0.0291 -0.4342
   71TMC2    C4 1102   3.802   0.226   0.656 -0.2224  0.2294  0.1599
   71TMC2    C5 1103   3.883   0.146   0.730  0.1535  0.5053  0.8736
   71TMC2    C6 1104   3.984   0.068   0.673  0.5472  0.5039 -0.4333
   71TMC2     C 1105   3.682   0.258   0.460  0.2695  0.3872  0.6382
   71TMC2     O 1106   3.604   0.310   0.534  0.5218 -0.4509  0.4383
   71TMC2     H 1107   3.903   0.143   0.352  0.1762 -0.3165  0.1466
   71TMC2    H1 1108   3.720   0.278   0.705  1.8766  1.0537  2.8429
   71TMC2    H2 1109   4.063   0.026   0.735  0.2253  0.1836 -0.2461
   71TMC2    C7 1110   3.887   0.164   0.876 -0.1917  0.3315  0.4683
   71TMC2    C8 1111   4.083   4.724   0.469  0.2163 -0.1480 -0.6266
   71TMC2    O1 1112   3.992   0.156   0.933  0.1390  0.7661  0.2904
   71TMC2    O2 1113   4.187   4.696   0.518 -0.2530  0.4219 -0.2324
   71TMC2    O5 1114   4.024   4.660   0.366 -0.6709  0.1398 -0.5865
   71TMC2    H5 1115   3.930   4.680   0.346 -0.9498 -0.1164  0.5037
   72MPD2     C 1116   3.424   0.399   0.049 -0.3541 -0.0383  0.0826
   72MPD2    C1 1117   3.407   0.442   0.178 -0.4400  0.0906 -0.0650
   72MPD2    C2 1118   3.488   0.385   0.271  0.5347  0.3992  0.2836
   72MPD2    C3 1119   3.576   0.282   0.243 -0.7405 -0.0974 -0.4510
   72MPD2    C4 1120   3.580   0.229   0.108  0.8118  0.4028 -0.0747
   72MPD2    C5 1121   3.511   0.293   0.012 -0.7132 -0.1519 -0.5013
   72MPD2     H 1122   3.487   0.430   0.369 -1.8557 -0.0339  0.4565
   72MPD2    H1 1123   3.654   0.152   0.088  0.1462  0.2921 -2.1057
   72MPD2    H2 1124   3.363   0.445  17.723 -1.7349 -0.3310  0.9914
   72MPD2    H3 1125   3.507   0.249  17.664 -0.7159 -1.1723 -0.0476
   72MPD2     N 1126   3.674   0.232   0.331 -0.4529  0.4337  0.3325
   72MPD2    H5 1127   3.749   0.171   0.298  1.2290  1.8598  1.4902
   72MPD2    N1 1128   3.318   0.544   0.214 -0.1899 -0.3241  0.0377
   72MPD2    H7 1129   3.321   0.576   0.310 -2.9141 -0.0430  0.0399
   73TMC2    C1 1130   3.600   1.410  14.102  0.2310  0.8367  0.1228
   73TMC2    C2 1131   3.504   1.320  14.138 -0.0180 -0.0297 -0.0003
   73TMC2    C3 1132   3.460   1.328  14.267  0.0174  0.0982 -0.5191
   73TMC2    C4 1133   3.656   1.494  14.199 -0.4293 -0.4356 -0.2037
   73TMC2    C5 1134   3.607   1.498  14.327 -0.3943 -0.2683  0.9719
   73TMC2    C6 1135   3.508   1.415  14.360  0.4347  0.1710 -0.9937
   73TMC2     C 1136   3.567   1.494  13.997 -0.4403 -0.2880 -0.2894
   73TMC2     O 1137   3.543   1.609  14.025  0.0891  0.5577 -0.2395
   73TMC2     H 1138   3.469   1.235  14.081  0.2120 -0.1977  0.1081
   73TMC2    H1 1139   3.741   1.559  14.180 -2.8067  2.5861 -0.4805
   73TMC2    H2 1140   3.452   1.417  14.453  0.2601 -0.9445 -1.0744
   73TMC2    C7 1141   3.595   1.638  14.383  0.0515  0.2261 -0.1494
   73TMC2    C8 1142   3.365   1.229  14.311  0.1500 -0.0164 -0.9250
   73TMC2    O1 1143   3.617   1.654  14.500  0.0207 -0.1432  0.0696
   73TMC2    O2 1144   3.304   1.167  14.228  0.0580 -0.4247 -0.3674
   73TMC2    O5 1145   3.404   1.168  14.421 -0.2399  0.1663  0.1949
   73TMC2    H5 1146   3.470   1.219  14.474 -0.9532  2.1771 -0.8504
   74MPD2     C 1147   3.644   1.596  13.515  0.5795 -0.0682  0.4223
   74MPD2    C1 1148   3.659   1.675  13.624  0.1686  0.0729 -0.3921
   74MPD2    C2 1149   3.619   1.612  13.739 -0.2488  0.0947  0.0119
   74MPD2    C3 1150   3.586   1.478  13.749 -0.0424  0.1319 -0.0695
   74MPD2    C4 1151   3.588   1.403  13.633 -0.4660 -0.7351 -0.2226
   74MPD2    C5 1152   3.613   1.464  13.515 -0.1723 -0.8730 -0.4050
   74MPD2     H 1153   3.638   1.671  13.828 -0.5017 -0.2823  0.3146
   74MPD2    H1 1154   3.546   1.303  13.638 -1.2517 -0.4512 -1.0712
   74MPD2    H2 1155   3.675   1.628  13.416  1.2760 -0.8866  0.3842
   74MPD2    H3 1156   3.604   1.415  13.418 -1.6620  0.4994 -0.9665
   74MPD2     N 1157   3.568   1.417  13.879 -0.5930  0.2991  0.1406
   74MPD2    H5 1158   3.574   1.316  13.885 -0.5081  0.2925 -0.0565
   74MPD2    N1 1159   3.709   1.811  13.622  0.3171 -0.3828 -0.4617
   74MPD2    H7 1160   3.758   1.828  13.535 -2.0184  0.4544 -1.6141
   75TMC2    C1 1161   3.132   2.845  14.003 -0.1048  0.3716  0.0286
   75TMC2    C2 1162   3.066   2.954  14.051  0.3599  0.3285 -0.0296
   75TMC2    C3 1163   2.954   2.994  13.979  0.4183  1.0232 -0.2644
   75TMC2    C4 1164   3.103   2.791  13.879  0.1935 -0.1387  0.2403
   75TMC2    C5 1165   2.992   2.840  13.808 -0.1714  0.3009 -0.7603
   75TMC2    C6 1166   2.912   2.938  13.853  0.3004  0.5530 -0.0188
   75TMC2     C 1167   3.241   2.791  14.072 -0.0270  0.4701  0.6383
   75TMC2     O 1168   3.267   2.826  14.188  0.1552  0.0164  0.2507
   75TMC2     H 1169   3.100   3.002  14.142 -0.9825  1.5720 -0.1982
   75TMC2    H1 1170   3.141   2.694  13.850  1.1918  0.2303  0.2994
   75TMC2    H2 1171   2.830   2.981  13.795  0.5617 -0.2959 -1.0282
   75TMC2    C7 1172   2.986   2.794  13.667  0.0671 -0.0104 -0.5303
   75TMC2    C8 1173   2.874   3.085  14.053 -0.1795 -0.1564 -0.3985
   75TMC2    O1 1174   3.046   2.693  13.647  0.3170  0.2663  0.1495
   75TMC2    O2 1175   2.913   3.141  14.153 -0.3148 -0.6595 -0.0771
   75TMC2    O5 1176   2.746   3.070  14.008 -0.7851  0.3531 -0.1918
   75TMC2    H5 1177   2.733   3.035  13.918  3.0383 -1.3053 -0.0843
   76TMC2    C1 1178   2.164   2.210  12.031 -1.0260  0.5634 -0.1022
   76TMC2    C2 1179   2.112   2.084  12.009  0.4922  0.2879  0.2282
   76TMC2    C3 1180   2.151   1.982  12.090 -0.7599 -0.4172  0.7612
   76TMC2    C4 1181   2.244   2.230  12.142 -0.6099  0.0654  0.2175
   76TMC2    C5 1182   2.288   2.118  12.220 -0.3810  0.3301  0.0887
   76TMC2    C6 1183   2.245   1.992  12.189  0.1899  0.1213 -0.6244
   76TMC2     C 1184   2.143   2.320  11.937 -0.9150 -0.8185 -0.8368
   76TMC2     O 1185   2.042   2.313  11.863  0.3163 -0.1925 -0.4596
   76TMC2     H 1186   2.033   2.071  11.936 -0.7033  0.7203  1.4417
   76TMC2    H1 1187   2.285   2.329  12.153 -4.2312  1.7368 -1.2489
   76TMC2    H2 1188   2.279   1.903  12.240  1.8014  2.4854  2.4495
   76TMC2    C7 1189   2.377   2.138  12.330  0.3967  0.3351 -0.4450
   76TMC2    C8 1190   2.114   1.858  12.030  0.7514  0.1573  0.0527
   76TMC2    O1 1191   2.392   2.041  12.402  0.0115 -0.1499 -0.1138
   76TMC2    O2 1192   2.110   1.843  11.907  0.3679 -0.2187  0.1510
   76TMC2    O5 1193   2.115   1.760  12.123  0.4590 -0.0226  0.1095
   76TMC2    H5 1194   2.102   1.782  12.218  1.5844 -1.7675  0.6634
   77MPD2     C 1195   2.347   2.565  11.548  0.3193  0.3775  0.9725
   77MPD2    C1 1196   2.224   2.593  11.613 -0.0615  0.1280  0.3427
   77MPD2    C2 1197   2.200   2.530  11.729  1.0297  0.3723  0.7560
   77MPD2    C3 1198   2.291   2.444  11.788  0.6676 -0.4593 -0.6891
   77MPD2    C4 1199   2.408   2.418  11.722  0.6521 -1.1226 -0.4926
   77MPD2    C5 1200   2.432   2.475  11.598  0.2870 -0.9194 -0.5584
   77MPD2     H 1201   2.105   2.542  11.781  1.3062  2.1670  0.8622
   77MPD2    H1 1202   2.476   2.345  11.766  0.5788 -1.2444 -0.5799
   77MPD2    H2 1203   2.386   2.610  11.458  1.5595 -1.6291  0.5063
   77MPD2    H3 1204   2.519   2.453  11.537  0.6952  2.6718 -1.2804
   77MPD2     N 1205   2.265   2.378  11.909  0.1249 -0.2171  0.4950
   77MPD2    H5 1206   2.343   2.333  11.955  0.1097 -1.8969 -1.1485
   77MPD2    N1 1207   2.140   2.696  11.569  0.0135  0.2902 -0.6087
   77MPD2    H7 1208   2.064   2.717  11.633  1.1626 -0.9226  1.1452
   78TMC2    C1 1209   3.710   0.629   1.797  0.2827  0.4663 -0.8257
   78TMC2    C2 1210   3.577   0.590   1.799 -0.3301 -0.6900  0.5177
   78TMC2    C3 1211   3.532   0.527   1.687  0.5683 -0.9063  0.5809
   78TMC2    C4 1212   3.782   0.614   1.680 -0.6926  0.0980 -0.0062
   78TMC2    C5 1213   3.724   0.549   1.573  1.0489 -0.6722 -0.6842
   78TMC2    C6 1214   3.599   0.504   1.574  0.8604  0.4305  0.4431
   78TMC2     C 1215   3.763   0.689   1.916 -0.8607  0.1920 -0.5772
   78TMC2     O 1216   3.685   0.739   1.999 -0.1106 -0.3470 -0.5973
   78TMC2     H 1217   3.506   0.628   1.872  1.6427  1.5602  1.2600
   78TMC2    H1 1218   3.889   0.633   1.677 -0.4494 -1.2870 -0.4603
   78TMC2    H2 1219   3.557   0.455   1.486 -0.8336  1.1425  0.8517
   78TMC2    C7 1220   3.794   0.551   1.447  0.4488 -0.3569  0.5682
   78TMC2    C8 1221   3.394   0.508   1.677 -0.6041 -0.3671 -0.1745
   78TMC2    O1 1222   3.912   0.532   1.455  0.4617 -0.2159 -0.4291
   78TMC2    O2 1223   3.315   0.502   1.769  0.3665 -0.1315  0.7460
   78TMC2    O5 1224   3.350   0.548   1.558 -0.9425  0.6514 -0.7410
   78TMC2    H5 1225   3.423   0.572   1.496  0.2005 -0.7713  0.0482
   79MPD1     C 1226   4.172   0.872   2.173  0.8114 -0.5363 -0.4014
   79MPD1    C1 1227   4.038   0.912   2.180  0.2476  0.1502  0.2391
   79MPD1    C2 1228   3.948   0.849   2.097  0.4918 -0.0131  0.0253
   79MPD1    C3 1229   3.992   0.758   1.999  0.7750  0.3054 -0.2255
   79MPD1    C4 1230   4.123   0.723   1.982 -0.8374 -0.5952 -0.5840
   79MPD1    C5 1231   4.214   0.779   2.073  0.0033  0.5805 -0.1147
   79MPD1     H 1232   3.843   0.862   2.119  0.1865  0.7391 -1.8028
   79MPD1    H1 1233   4.158   0.657   1.904 -0.1343 -3.0339  1.8149
   79MPD1    H2 1234   4.252   0.913   2.233  0.7049  1.5902 -1.7354
   79MPD1    H3 1235   4.318   0.750   2.059  0.1282  0.6697  0.6167
   79MPD1     N 1236   3.900   0.691   1.911  0.0116  0.5341  0.2937
   79MPD1    H5 1237   3.946   0.623   1.850 -2.1532 -0.8881  0.2478
   79MPD1    N1 1238   3.994   1.002   2.283 -0.0286 -0.4335 -0.1372
   79MPD1    H6 1239   3.906   1.049   2.262  0.6770  0.7455 -0.4557
   79MPD1    H7 1240   4.060   1.076   2.305 -1.4473  1.6174 -2.8946
   80TMC2    C1 1241   0.633   2.169  11.990 -0.2965  0.7339 -0.2520
   80TMC2    C2 1242   0.520   2.150  11.915  0.7138 -0.6126 -0.7307
   80TMC2    C3 1243   0.416   2.100  11.976 -0.1674 -0.9039  0.0919
   80TMC2    C4 1244   0.630   2.152  12.126 -0.1572 -0.1854  0.0429
   80TMC2    C5 1245   0.521   2.088  12.180  0.0415 -0.5209  0.1248
   80TMC2    C6 1246   0.410   2.059  12.104  0.1429 -0.4709  0.0777
   80TMC2     C 1247   0.748   2.253  11.943  0.8179  0.8587  0.5618
   80TMC2     O 1248   0.798   2.336  12.020 -0.1478 -0.2473  0.4034
   80TMC2     H 1249   0.513   2.192  11.815  0.6173  1.4843  0.1721
   80TMC2    H1 1250   0.712   2.181  12.190 -0.0640 -3.7774  1.5657
   80TMC2    H2 1251   0.325   2.009  12.150 -0.4741  1.2862  0.8412
   80TMC2    C7 1252   0.502   2.077  12.330  0.3801 -0.2087  0.4720
   80TMC2    C8 1253   0.296   2.079  11.894  0.2428 -0.8298 -0.5701
   80TMC2    O1 1254   0.389   2.059  12.378 -0.1670 -0.1317  0.5677
   80TMC2    O2 1255   0.304   2.052  11.780  0.0084 -0.1595 -0.0792
   80TMC2    O5 1256   0.186   2.100  11.964  0.2165 -0.0054  0.2205
   80TMC2    H5 1257   0.196   2.169  12.033  2.1613  0.0793 -0.1480
   81MPD2     C 1258   0.809   2.330  11.587  0.3088 -0.5494  0.0009
   81MPD2    C1 1259   0.826   2.344  11.723  0.1287 -0.1377  0.5480
   81MPD2    C2 1260   0.886   2.461  11.763 -0.1438  0.5997 -0.2103
   81MPD2    C3 1261   0.910   2.570  11.672 -0.3629  0.5385  0.0708
   81MPD2    C4 1262   0.885   2.557  11.537 -0.0256 -1.1364 -0.8657
   81MPD2    C5 1263   0.826   2.437  11.496  0.3332 -0.6860  0.0110
   81MPD2     H 1264   0.886   2.485  11.869  0.2247  2.0095 -0.5196
   81MPD2    H1 1265   0.903   2.635  11.463 -0.5918  1.4027  1.6440
   81MPD2    H2 1266   0.758   2.242  11.549  2.0629 -1.7763  0.5021
   81MPD2    H3 1267   0.803   2.413  11.393  1.6933 -1.1138 -0.1938
   81MPD2     N 1268   0.943   2.700  11.719  0.3228  0.1255  0.0046
   81MPD2    H5 1269   0.928   2.777  11.655  1.3896 -0.1617 -0.5868
   81MPD2    N1 1270   0.754   2.248  11.804 -0.3731 -0.4636  0.0740
   81MPD2    H7 1271   0.702   2.177  11.755 -0.0810 -0.4022 -0.3306
   82TMC2    C1 1272   4.023   2.105  10.631  0.6725 -0.0153  0.1057
   82TMC2    C2 1273   4.153   2.088  10.662 -0.2089 -0.0876 -0.6640
   82TMC2    C3 1274   4.195   2.108  10.793 -0.4511  0.2179  0.3773
   82TMC2    C4 1275   3.938   2.113  10.736 -0.2126  0.3378 -0.7832
   82TMC2    C5 1276   3.983   2.126  10.870 -0.0268  0.6260 -0.4020
   82TMC2    C6 1277   4.114   2.130  10.897  0.4383 -0.0582  0.1748
   82TMC2     C 1278   3.974   2.118  10.494 -0.5111 -0.5785  0.3566
   82TMC2     O 1279   3.853   2.097  10.473  0.2795 -0.4046 -0.2077
   82TMC2     H 1280   4.229   2.076  10.587  1.1106 -3.6099  1.2177
   82TMC2    H1 1281   3.831   2.103  10.724 -0.1178 -1.3682 -0.2262
   82TMC2    H2 1282   4.143   2.139  11.001  1.2852 -0.2801 -0.0388
   82TMC2    C7 1283   3.899   2.138  10.984 -0.0197 -0.0743  0.0767
   82TMC2    C8 1284   4.335   2.114  10.814 -0.0814  0.4377 -0.1580
   82TMC2    O1 1285   3.938   2.105  11.098 -0.2580 -0.1993  0.0122
   82TMC2    O2 1286   4.416   2.059  10.739 -0.0102  0.4895 -0.2149
   82TMC2    O5 1287   4.360   2.233  10.871 -0.1588 -0.4731 -0.8580
   82TMC2    H5 1288   4.291   2.268  10.932 -0.2830  1.6135 -2.1751
   83MPD2     C 1289   4.019   2.275   9.997  0.5678  0.4500 -0.1066
   83MPD2    C1 1290   3.920   2.206  10.065 -0.7508 -1.0488  0.4390
   83MPD2    C2 1291   3.940   2.170  10.201  0.9543 -0.4853 -0.0926
   83MPD2    C3 1292   4.053   2.202  10.273 -0.7543  0.4434 -0.7354
   83MPD2    C4 1293   4.151   2.268  10.202 -0.0921 -0.2451 -0.1730
   83MPD2    C5 1294   4.131   2.302  10.075  0.3922 -0.0450  0.5353
   83MPD2     H 1295   3.857   2.120  10.249 -0.4129  1.6669 -0.2468
   83MPD2    H1 1296   4.242   2.301  10.251  0.4119 -1.1762 -0.4798
   83MPD2    H2 1297   4.015   2.308   9.894  0.4922  0.8251  0.0169
   83MPD2    H3 1298   4.210   2.355  10.022  0.1862  1.9334  2.2256
   83MPD2     N 1299   4.066   2.183  10.413  0.4126  0.4900  0.4238
   83MPD2    H5 1300   4.159   2.205  10.448  1.4745 -0.6817 -1.7227
   83MPD2    N1 1301   3.796   2.202   9.998  0.6715  0.1597  0.8727
   83MPD2    H7 1302   3.793   2.258   9.913  1.2856 -1.0741  0.0222
   84TMC2    C1 1303   0.358   0.888  10.997 -0.7208  0.1573 -0.6601
   84TMC2    C2 1304   0.435   0.845  11.101 -0.5668 -0.2775  0.0377
   84TMC2    C3 1305   0.496   0.721  11.099  0.3267 -0.4610  0.0981
   84TMC2    C4 1306   0.347   0.808  10.884  0.1773  0.0423 -0.7616
   84TMC2    C5 1307   0.409   0.685  10.888  0.0915 -0.3998  0.6619
   84TMC2    C6 1308   0.481   0.640  10.994 -0.2745 -0.3806  0.5592
   84TMC2     C 1309   0.293   1.008  11.015 -0.4522  0.2279  0.6242
   84TMC2     O 1310   0.256   1.038  11.129 -0.1074 -0.0726  0.0690
   84TMC2     H 1311   0.429   0.894  11.198  0.3516 -0.4562  0.1848
   84TMC2    H1 1312   0.293   0.836  10.794  0.6569 -1.4655 -1.5103
   84TMC2    H2 1313   0.535   0.546  10.980 -0.1545 -0.4035  1.1683
   84TMC2    C7 1314   0.437   0.614  10.756 -0.0895 -1.1751 -0.2510
   84TMC2    C8 1315   0.593   0.684  11.202  0.5604 -0.3818 -0.3127
   84TMC2    O1 1316   0.449   0.494  10.756 -0.0302  1.0624 -0.2777
   84TMC2    O2 1317   0.636   0.569  11.207 -0.3715  0.4052 -0.3046
   84TMC2    O5 1318   0.652   0.786  11.254  0.9377 -0.7190 -0.3279
   84TMC2    H5 1319   0.607   0.872  11.238  1.6728 -0.3170 -0.2439
   85TMC2    C1 1320   1.763   4.690  16.350  0.1745 -0.3357 -0.0769
   85TMC2    C2 1321   1.859   4.736  16.428  0.2808  0.1004  0.0644
   85TMC2    C3 1322   1.957   0.078  16.375 -0.4673 -0.2862  0.3872
   85TMC2    C4 1323   1.748   4.720  16.216  0.0721 -0.2504 -0.3257
   85TMC2    C5 1324   1.853   0.054  16.167  0.5533  0.1194 -0.3244
   85TMC2    C6 1325   1.956   0.102  16.239  0.1417 -0.4550 -0.4350
   85TMC2     C 1326   1.640   4.684  16.421 -0.0834 -0.0042  0.6741
   85TMC2     O 1327   1.636   0.021  16.520 -0.0808  0.2498 -0.3351
   85TMC2     H 1328   1.867   4.715  16.534  2.6132  0.3203 -0.0535
   85TMC2    H1 1329   1.664   4.689  16.154 -0.9846  0.8346  0.5436
   85TMC2    H2 1330   2.021   0.165  16.179  0.5401  1.1377  1.6724
   85TMC2    C7 1331   1.862   0.062  16.028  0.4683  0.4467 -0.0460
   85TMC2    C8 1332   2.056   0.128  16.467 -0.1430  0.4573 -0.3726
   85TMC2    O1 1333   1.895   0.173  15.987 -0.6433 -0.0717 -0.4713
   85TMC2    O2 1334   2.065   0.093  16.584  0.0925  0.7970  0.6203
   85TMC2    O5 1335   2.156   0.182  16.394  0.3062  0.0992 -0.1336
   85TMC2    H5 1336   2.125   0.220  16.310  3.0621  0.1913 -1.1027
   86MPD2     C 1337   1.157   4.514  16.476  0.1558  0.2433 -0.7319
   86MPD2    C1 1338   1.220   4.424  16.395  0.0713 -0.3864  0.1313
   86MPD2    C2 1339   1.356   4.449  16.362 -0.6978  0.6112  0.1634
   86MPD2    C3 1340   1.425   4.560  16.411 -0.3006 -0.3106  0.5168
   86MPD2    C4 1341   1.356   4.646  16.494  0.1671  0.4796  0.0728
   86MPD2    C5 1342   1.219   4.627  16.517  0.5413 -0.1404  0.4147
   86MPD2     H 1343   1.400   4.380  16.291  0.2717  2.1606 -0.7390
   86MPD2    H1 1344   1.389   0.004  16.531 -1.4597  0.9525  0.2948
   86MPD2    H2 1345   1.053   4.499  16.502  0.8930  0.2049  2.2212
   86MPD2    H3 1346   1.162   4.706  16.563 -0.6597 -0.7914  0.0374
   86MPD2     N 1347   1.556   4.583  16.372  0.2868  0.1472 -0.6330
   86MPD2    H5 1348   1.592   4.521  16.302  1.2484  1.0566 -0.9442
   86MPD2    N1 1349   1.154   4.305  16.351  0.4410 -0.0836  0.3573
   86MPD2    H7 1350   1.222   4.243  16.309  0.1211  0.7972 -1.4889
   87TMC2    C1 1351   3.449   3.332   1.383  0.5659 -0.0693  0.5713
   87TMC2    C2 1352   3.493   3.261   1.493  0.3004 -0.0026 -1.0569
   87TMC2    C3 1353   3.480   3.329   1.612 -0.3856 -0.0557 -0.9141
   87TMC2    C4 1354   3.394   3.454   1.390 -0.2501 -0.2792 -0.9636
   87TMC2    C5 1355   3.408   3.520   1.513 -0.0909  0.4854  0.1577
   87TMC2    C6 1356   3.460   3.465   1.624 -0.3027  0.4596 -0.4131
   87TMC2     C 1357   3.484   3.280   1.250 -0.7703  0.6875  0.2653
   87TMC2     O 1358   3.443   3.341   1.151 -0.4012 -0.0291 -0.2391
   87TMC2     H 1359   3.525   3.158   1.490 -0.7520 -0.3809  1.0021
   87TMC2    H1 1360   3.361   3.504   1.300 -1.8917  1.3726  0.5404
   87TMC2    H2 1361   3.463   3.511   1.721  2.0980 -2.2430  0.7916
   87TMC2    C7 1362   3.314   3.636   1.539 -0.2670 -0.0645  0.3322
   87TMC2    C8 1363   3.524   3.254   1.731  0.1039 -0.0347  0.3571
   87TMC2    O1 1364   3.283   3.663   1.656 -0.4681  0.6683  0.5435
   87TMC2    O2 1365   3.464   3.257   1.840 -0.1611  0.5693 -0.2544
   87TMC2    O5 1366   3.635   3.187   1.698  0.3467 -0.7023  0.3710
   87TMC2    H5 1367   3.668   3.204   1.608 -1.2801  0.4181 -0.0016
   88MPD2     C 1368   3.087   3.812   1.521  0.1081 -0.4917 -0.3047
   88MPD2    C1 1369   3.182   3.807   1.417  0.0030  0.0520  0.4107
   88MPD2    C2 1370   3.176   3.893   1.310  0.4232 -0.2975 -0.5353
   88MPD2    C3 1371   3.081   3.999   1.307 -0.1663 -0.0464 -0.4241
   88MPD2    C4 1372   2.996   4.009   1.414  0.3689 -0.0237 -0.3543
   88MPD2    C5 1373   3.007   3.924   1.515  0.0438  1.0691 -0.5721
   88MPD2     H 1374   3.239   3.878   1.224  0.0192 -1.6852 -0.5797
   88MPD2    H1 1375   2.934   4.098   1.427  3.3904  1.8173  1.2276
   88MPD2    H2 1376   3.076   3.740   1.601  0.0856 -0.8898 -0.6637
   88MPD2    H3 1377   2.939   3.936   1.599 -0.9618  1.2107 -1.4107
   88MPD2     N 1378   3.074   4.096   1.211  0.0509  0.1304 -0.3814
   88MPD2    H5 1379   2.995   4.159   1.218  0.8395  1.4954 -3.7101
   88MPD2    N1 1380   3.279   3.698   1.418  0.3254 -0.7156 -0.2728
   88MPD2    H7 1381   3.339   3.673   1.340  1.4576  0.4389  0.2218
   89TMC2    C1 1382   4.583   1.546   1.697  0.2315  0.8666 -0.0510
   89TMC2    C2 1383   4.698   1.492   1.642  0.4243  0.1849 -0.5204
   89TMC2    C3 1384   0.008   1.574   1.545 -0.2992  0.0154  0.4921
   89TMC2    C4 1385   4.536   1.676   1.681 -0.2206  0.1907 -0.2090
   89TMC2    C5 1386   4.594   1.753   1.582  0.7501 -2.0113 -0.2835
   89TMC2    C6 1387   4.699   1.698   1.507 -1.0057  0.2753 -0.2468
   89TMC2     C 1388   4.522   1.465   1.800  0.3829 -0.1479  0.0416
   89TMC2     O 1389   4.512   1.518   1.906 -0.5374  0.4000 -0.0484
   89TMC2     H 1390   4.736   1.395   1.671  2.1017  0.9335 -0.2363
   89TMC2    H1 1391   4.431   1.694   1.703  0.0341  0.9532  0.3976
   89TMC2    H2 1392   0.024   1.750   1.437 -1.1516  1.6049  0.6042
   89TMC2    C7 1393   4.507   1.860   1.520  0.5727 -0.3325 -0.2334
   89TMC2    C8 1394   0.116   1.507   1.473  0.6453 -0.2869 -0.0114
   89TMC2    O1 1395   4.384   1.845   1.535 -0.1880 -0.0827 -0.1673
   89TMC2    O2 1396   0.210   1.470   1.539  0.5932 -0.0479  0.9080
   89TMC2    O5 1397   0.106   1.538   1.346  0.1047 -0.2105 -0.1544
   89TMC2    H5 1398   0.012   1.551   1.322  0.5364 -0.2474 -1.8142
   90MPD2     C 1399   4.175   1.088   1.873  0.2068  0.0245  0.0801
   90MPD2    C1 1400   4.211   1.093   1.739  0.5761  0.7882  0.2729
   90MPD2    C2 1401   4.311   1.178   1.704 -0.4591  0.2149  0.1850
   90MPD2    C3 1402   4.368   1.266   1.790  0.0795  0.0506 -0.3972
   90MPD2    C4 1403   4.330   1.275   1.920  0.5009  0.2088 -0.0580
   90MPD2    C5 1404   4.238   1.176   1.960 -0.6478 -0.3359  0.4809
   90MPD2     H 1405   4.346   1.184   1.602  0.1998 -2.7707  0.2393
   90MPD2    H1 1406   4.368   1.351   1.987  2.3021 -0.3845 -0.3892
   90MPD2    H2 1407   4.108   1.013   1.913 -0.7806  0.9339  0.1452
   90MPD2    H3 1408   4.212   1.170   2.065 -1.6496 -2.2090  0.1366
   90MPD2     N 1409   4.464   1.356   1.739  0.3894 -0.3034  0.8395
   90MPD2    H5 1410   4.491   1.342   1.642  1.1524  2.0832  0.7227
   90MPD2    N1 1411   4.161   0.995   1.643 -0.3346 -0.0440 -0.2495
   90MPD2    H7 1412   4.205   0.987   1.552  1.8016 -1.8391  0.9288
   91TMC2    C1 1413   0.772   0.835  16.399  0.1127  0.1827  0.5473
   91TMC2    C2 1414   0.812   0.767  16.511  0.4513  0.4588 -0.2275
   91TMC2    C3 1415   0.714   0.715  16.588 -0.8064 -0.0861 -0.6617
   91TMC2    C4 1416   0.643   0.836  16.354 -0.7013  0.7243  0.4727
   91TMC2    C5 1417   0.549   0.777  16.430  0.2073  0.3261  0.7564
   91TMC2    C6 1418   0.588   0.706  16.539  0.1475  0.3278  0.0278
   91TMC2     C 1419   0.855   0.812  16.284 -0.1162  0.7535  0.6184
   91TMC2     O 1420   0.791   0.793  16.183  0.3029  0.4699  0.1011
   91TMC2     H 1421   0.915   0.774  16.544  0.8724  0.5522 -1.5527
   91TMC2    H1 1422   0.613   0.899  16.271  1.9584 -0.6476 -1.5225
   91TMC2    H2 1423   0.501   0.684  16.600 -0.1805  1.5484 -0.0019
   91TMC2    C7 1424   0.446   0.706  16.349  0.4165  0.2105 -0.6284
   91TMC2    C8 1425   0.751   0.680  16.724  0.5184 -0.4070 -0.4028
   91TMC2    O1 1426   0.337   0.677  16.401 -0.3292  0.3822  0.2677
   91TMC2    O2 1427   0.858   0.720  16.771 -0.1805  0.0022  0.3446
   91TMC2    O5 1428   0.709   0.557  16.733 -0.2538 -0.3546 -0.5721
   91TMC2    H5 1429   0.637   0.537  16.669 -0.5797 -1.0290  0.0002
   92MPD2     C 1430   1.070   0.765  16.086  0.5667  0.1671 -0.5977
   92MPD2    C1 1431   1.091   0.807  16.214 -0.0395 -0.2253  0.3058
   92MPD2    C2 1432   1.220   0.824  16.259  0.6031  0.0467 -0.6283
   92MPD2    C3 1433   1.327   0.821  16.168 -0.1930 -0.0492  0.7227
   92MPD2    C4 1434   1.303   0.781  16.038 -0.2058  0.1362 -0.4224
   92MPD2    C5 1435   1.174   0.775  16.000 -0.3458 -0.5069  0.2314
   92MPD2     H 1436   1.227   0.852  16.363 -0.9446 -1.1196 -0.1965
   92MPD2    H1 1437   1.378   0.777  15.959  1.3502 -0.2954  1.0784
   92MPD2    H2 1438   0.970   0.750  16.047 -0.5621  0.1000  2.2615
   92MPD2    H3 1439   1.156   0.745  15.897 -0.9650  0.3054  0.0920
   92MPD2     N 1440   1.458   0.823  16.217 -0.8222  0.4544  0.1092
   92MPD2    H5 1441   1.461   0.817  16.318  1.0812  1.9370  0.1597
   92MPD2    N1 1442   0.990   0.824  16.310 -0.4341  0.8903 -0.3976
   92MPD2    H7 1443   1.026   0.847  16.402 -0.8518 -1.0122  0.2578
   93TMC2    C1 1444   3.042   0.789  13.950  0.5328 -0.4255  0.0422
   93TMC2    C2 1445   2.988   0.873  14.039  0.1416 -0.3338  0.5757
   93TMC2    C3 1446   3.065   0.934  14.138  0.3548  0.0965 -0.4501
   93TMC2    C4 1447   3.177   0.778  13.952  0.0528  0.9451 -0.5730
   93TMC2    C5 1448   3.250   0.836  14.047 -0.0803 -0.2627  0.0827
   93TMC2    C6 1449   3.201   0.920  14.145  0.2751  0.3474  0.4075
   93TMC2     C 1450   2.967   0.737  13.839 -0.0681  0.4981 -0.2500
   93TMC2     O 1451   3.037   0.676  13.757 -0.2768 -0.4232  0.1664
   93TMC2     H 1452   2.881   0.888  14.046  0.0506 -0.0363 -1.5512
   93TMC2    H1 1453   3.230   0.708  13.888  0.4987  1.3517 -0.6488
   93TMC2    H2 1454   3.254   0.940  14.237 -1.2817 -2.3141  1.8739
   93TMC2    C7 1455   3.395   0.815  14.037 -0.1288  0.0594 -0.1370
   93TMC2    C8 1456   2.997   0.984  14.247  0.2895 -0.2324 -0.5956
   93TMC2    O1 1457   3.428   0.753  13.942 -0.9212  0.0507 -0.0811
   93TMC2    O2 1458   2.875   0.966  14.250  0.2464  0.2544  1.0678
   93TMC2    O5 1459   3.054   1.103  14.275 -0.1910 -0.2560  0.4098
   93TMC2    H5 1460   3.145   1.123  14.245 -1.1550  1.3643 -1.4973
   94MPD2     C 1461   2.778   0.640  13.642 -0.3719  0.1137 -0.0451
   94MPD2    C1 1462   2.739   0.695  13.765 -0.0064 -1.1619 -0.4848
   94MPD2    C2 1463   2.610   0.700  13.805  0.1296  0.1224  0.5789
   94MPD2    C3 1464   2.514   0.640  13.728 -0.3925  0.4977 -0.1467
   94MPD2    C4 1465   2.548   0.587  13.605  0.2512  0.2191 -0.0665
   94MPD2    C5 1466   2.679   0.591  13.563  0.0465  0.6330 -0.5847
   94MPD2     H 1467   2.587   0.751  13.898 -0.6505 -0.2864  0.6167
   94MPD2    H1 1468   2.467   0.547  13.545  0.3470 -1.4925  0.9336
   94MPD2    H2 1469   2.879   0.632  13.604 -0.3616  0.0521 -0.0051
   94MPD2    H3 1470   2.697   0.545  13.467  0.9644  0.4794 -0.3363
   94MPD2     N 1471   2.383   0.601  13.773 -0.5629 -0.2346  1.3720
   94MPD2    H5 1472   2.327   0.549  13.706  2.1365  1.0139 -1.8707
   94MPD2    N1 1473   2.827   0.748  13.858 -0.2483  0.3121  0.5320
   94MPD2    H7 1474   2.794   0.799  13.939 -0.1348 -0.8588  1.3266
   95TMC2    C1 1475   3.050   3.893  15.549  0.2352 -0.1377 -0.1339
   95TMC2    C2 1476   3.033   3.802  15.648 -0.2370 -0.2208 -0.1017
   95TMC2    C3 1477   3.024   3.840  15.783 -0.1549 -0.4107 -0.0776
   95TMC2    C4 1478   3.061   4.025  15.576  0.3450 -0.2623  0.5165
   95TMC2    C5 1479   3.057   4.063  15.709 -0.6383 -0.2748  0.2025
   95TMC2    C6 1480   3.037   3.971  15.812  0.4222  0.2954 -0.1790
   95TMC2     C 1481   3.032   3.843  15.419  0.9318 -0.0224 -0.5198
   95TMC2     O 1482   2.962   3.743  15.409 -0.2743 -0.0331  0.0671
   95TMC2     H 1483   3.022   3.697  15.624  0.1400  0.0745 -1.5415
   95TMC2    H1 1484   3.066   4.100  15.498 -1.3119 -0.3238  0.3601
   95TMC2    H2 1485   3.038   4.006  15.914 -1.3733 -1.9676  0.6247
   95TMC2    C7 1486   3.030   4.205  15.731  0.1458  0.0350  0.2420
   95TMC2    C8 1487   3.004   3.734  15.888  0.1485  0.7784 -1.0163
   95TMC2    O1 1488   3.040   4.279  15.634  0.0294 -0.3835  0.6081
   95TMC2    O2 1489   3.014   3.613  15.861 -0.3018  0.5843  0.0519
   95TMC2    O5 1490   2.988   3.790  16.005  0.1310  0.1425 -0.3400
   95TMC2    H5 1491   2.949   3.880  16.002 -1.4229 -0.5523 -0.6722
   96MPD2     C 1492   3.066   3.861  14.909  0.1641 -0.7886  0.3555
   96MPD2    C1 1493   2.986   3.784  14.987  0.1954 -0.1214  0.7339
   96MPD2    C2 1494   2.996   3.799  15.123 -0.3417  0.1132  0.7157
   96MPD2    C3 1495   3.082   3.889  15.183  0.5057 -0.0059  0.2887
   96MPD2    C4 1496   3.158   3.969  15.097  0.1053 -0.0480 -0.1814
   96MPD2    C5 1497   3.149   3.952  14.963 -0.5986 -0.1232 -0.3156
   96MPD2     H 1498   2.931   3.745  15.192 -0.1181  1.2689  1.8218
   96MPD2    H1 1499   3.222   4.043  15.143 -0.4058  0.0661  0.3471
   96MPD2    H2 1500   3.071   3.858  14.801 -0.3553  3.5354  0.1912
   96MPD2    H3 1501   3.210   4.022  14.907 -0.3431  0.3655  0.5780
   96MPD2     N 1502   3.087   3.919  15.322  0.0028  0.5692 -0.8507
   96MPD2    H5 1503   3.142   4.000  15.350  1.1176 -0.5825  0.2886
   96MPD2    N1 1504   2.906   3.680  14.924 -0.0922 -0.0474  0.0090
   96MPD2    H7 1505   2.902   3.674  14.823  1.4370  0.0981 -0.0561
   97TMC2    C1 1506   0.690   0.908   0.525  0.0789 -1.1020  0.1473
   97TMC2    C2 1507   0.603   0.896   0.423 -0.6851  0.0375 -0.4073
   97TMC2    C3 1508   0.550   1.013   0.371  0.3574  0.4089 -0.7191
   97TMC2    C4 1509   0.727   1.031   0.578 -0.4178  0.5360  0.6450
   97TMC2    C5 1510   0.686   1.140   0.510 -0.2314  0.2394 -0.3278
   97TMC2    C6 1511   0.599   1.130   0.402 -0.0100  0.3676  0.6932
   97TMC2     C 1512   0.682   0.800   0.619  0.1635  0.4417 -0.1912
   97TMC2     O 1513   0.664   0.691   0.570 -0.8732  0.4473  0.5727
   97TMC2     H 1514   0.567   0.799   0.392  1.4309 -0.5338 -1.0345
   97TMC2    H1 1515   0.805   1.030   0.653  0.8204 -0.2069 -0.6498
   97TMC2    H2 1516   0.565   1.217   0.346 -0.2236 -0.3989 -0.3609
   97TMC2    C7 1517   0.747   1.266   0.545 -0.0157  0.0020  0.2150
   97TMC2    C8 1518   0.437   1.010   0.276  0.1110  0.9860 -0.2212
   97TMC2    O1 1519   0.848   1.269   0.611  0.9074 -0.6427 -0.1254
   97TMC2    O2 1520   0.416   0.914   0.207  0.3531  0.4474  0.3768
   97TMC2    O5 1521   0.388   1.135   0.243  0.1593 -0.1541  0.0559
   97TMC2    H5 1522   0.406   1.196   0.318 -0.0179  0.0783 -0.0919
   98MPD2     C 1523   0.686   0.642   1.113 -0.5905 -0.1315 -0.2581
   98MPD2    C1 1524   0.673   0.570   0.998 -0.2188 -0.2003  0.7457
   98MPD2    C2 1525   0.683   0.642   0.874 -0.8429  0.0404  0.0240
   98MPD2    C3 1526   0.706   0.776   0.868 -1.0245  0.0330  0.1608
   98MPD2    C4 1527   0.722   0.843   0.985  0.4115  0.3034 -0.0526
   98MPD2    C5 1528   0.713   0.774   1.105  0.7195  0.5571  0.2268
   98MPD2     H 1529   0.677   0.585   0.782 -0.2657  1.2499 -0.7590
   98MPD2    H1 1530   0.742   0.949   0.986  1.4377  0.1143 -0.1016
   98MPD2    H2 1531   0.693   0.592   1.209 -1.4279  0.5423  0.1487
   98MPD2    H3 1532   0.732   0.828   1.197  0.6378  0.1910  0.4633
   98MPD2     N 1533   0.697   0.845   0.749 -0.1157  0.7107 -0.1955
   98MPD2    H5 1534   0.684   0.945   0.761 -1.8492  0.1118  3.1101
   98MPD2    N1 1535   0.643   0.430   1.014 -0.4149  0.1523  0.7010
   98MPD2    H7 1536   0.622   0.400   1.109 -3.6874 -0.0690 -0.0962
   99TMC2    C1 1537   4.415   2.512   1.502 -0.2643 -0.0854  1.2426
   99TMC2    C2 1538   4.473   2.398   1.542  0.0023 -0.7480 -0.6295
   99TMC2    C3 1539   4.415   2.338   1.652  0.1298 -0.6646 -0.7934
   99TMC2    C4 1540   4.300   2.559   1.561 -0.1024  0.1540  0.2264
   99TMC2    C5 1541   4.246   2.486   1.659  0.9192  0.5881 -0.0519
   99TMC2    C6 1542   4.302   2.374   1.717 -0.2961 -0.7154 -0.3116
   99TMC2     C 1543   4.435   2.537   1.361  0.0771 -0.2755  0.0112
   99TMC2     O 1544   4.342   2.534   1.282 -0.3802 -0.3501  0.0052
   99TMC2     H 1545   4.551   2.356   1.480 -0.9677 -0.7995 -1.8072
   99TMC2    H1 1546   4.254   2.652   1.529 -0.4761  0.0875  0.5641
   99TMC2    H2 1547   4.256   2.307   1.789 -1.1462  1.3126  1.0327
   99TMC2    C7 1548   4.111   2.515   1.706 -0.1166 -0.2892  0.1558
   99TMC2    C8 1549   4.444   2.195   1.675  0.2387  0.3952  0.1711
   99TMC2    O1 1550   4.112   2.523   1.828  0.2692 -0.0494  0.4531
   99TMC2    O2 1551   4.354   2.115   1.703 -0.2164 -0.2351 -0.1925
   99TMC2    O5 1552   4.566   2.183   1.725 -0.3301  0.3129 -0.1174
   99TMC2    H5 1553   4.620   2.259   1.696  1.5663 -2.2055 -3.1704
  100MPD2     C 1554   4.704   2.767   1.276  1.0229  0.3610 -0.3382
  100MPD2    C1 1555   4.593   2.694   1.247  0.3922 -0.0291 -0.4323
  100MPD2    C2 1556   4.525   2.715   1.127  0.1608  0.0373 -0.0396
  100MPD2    C3 1557   4.575   2.802   1.039 -0.0945 -0.1800  0.8354
  100MPD2    C4 1558   4.686   2.871   1.061  0.1179  0.1285 -0.5943
  100MPD2    C5 1559   0.015   2.852   1.179 -0.4274  0.0959  0.3137
  100MPD2     H 1560   4.429   2.668   1.110 -0.7786  1.7858  0.4406
  100MPD2    H1 1561   4.731   2.932   0.984  2.0184  0.5089  0.8184
  100MPD2    H2 1562   0.022   2.750   1.368  0.6117 -0.6610 -0.2742
  100MPD2    H3 1563   0.107   2.909   1.188  0.2251 -1.0237  0.8351
  100MPD2     N 1564   4.503   2.800   0.920  0.6800  0.0527 -0.3031
  100MPD2    H5 1565   4.439   2.722   0.922  0.2485  0.4613  2.6567
  100MPD2    N1 1566   4.550   2.622   1.359  0.1117 -0.1498 -0.2100
  100MPD2    H7 1567   4.600   2.625   1.448 -1.9354 -0.1385  0.9536
  101TMC2    C1 1568   0.373   3.033  12.619 -0.2895 -0.5683  0.4234
  101TMC2    C2 1569   0.279   3.106  12.556  0.3358  0.7807  0.0992
  101TMC2    C3 1570   0.315   3.212  12.474 -0.7924  0.4938 -0.1475
  101TMC2    C4 1571   0.502   3.073  12.615 -0.0759 -0.1873  0.8856
  101TMC2    C5 1572   0.537   3.183  12.536 -0.7552  0.0309  0.2591
  101TMC2    C6 1573   0.440   3.252  12.466 -0.1600  0.0868 -0.1273
  101TMC2     C 1574   0.324   2.942  12.723  0.1187 -0.2684 -0.4496
  101TMC2     O 1575   0.203   2.949  12.759 -0.0344 -0.2711 -0.2106
  101TMC2     H 1576   0.174   3.082  12.569  0.1636  1.3587 -0.2463
  101TMC2    H1 1577   0.582   3.016  12.661 -0.3691 -0.7646  0.6801
  101TMC2    H2 1578   0.466   3.342  12.413  0.4522  1.4817  2.5251
  101TMC2    C7 1579   0.671   3.220  12.504 -0.2795 -0.1153  0.4316
  101TMC2    C8 1580   0.213   3.301  12.420  0.3353  0.8017 -0.2974
  101TMC2    O1 1581   0.689   3.300  12.413 -0.3394  0.1231  0.2231
  101TMC2    O2 1582   0.218   3.422  12.433 -0.2004  0.3536 -0.2349
  101TMC2    O5 1583   0.144   3.237  12.327 -0.4690 -0.2956 -0.1717
  101TMC2    H5 1584   0.162   3.141  12.329  2.0102  0.1238 -2.1889
  102MPD2     C 1585   0.447   2.604  12.783  0.5073  0.0672  0.5756
  102MPD2    C1 1586   0.378   2.724  12.820 -0.3007  0.2914  0.1692
  102MPD2    C2 1587   0.283   2.723  12.921 -0.8205  0.2951  0.2121
  102MPD2    C3 1588   0.245   2.608  12.980  0.7448 -0.0601 -0.6667
  102MPD2    C4 1589   0.297   2.490  12.928 -0.6763  0.1979  1.0949
  102MPD2    C5 1590   0.394   2.493  12.835  0.1847 -0.0425  0.5378
  102MPD2     H 1591   0.235   2.816  12.949  0.5443  0.9671  0.3474
  102MPD2    H1 1592   0.262   2.393  12.962  2.4092 -2.0762 -2.2417
  102MPD2    H2 1593   0.529   2.608  12.712  0.9006 -1.3025  0.9513
  102MPD2    H3 1594   0.441   2.398  12.814 -1.1694 -0.5002 -0.4017
  102MPD2     N 1595   0.154   2.613  13.081  0.0750 -0.4414  0.6804
  102MPD2    H5 1596   0.140   2.701  13.128  0.1885 -0.5119  0.8466
  102MPD2    N1 1597   0.411   2.840  12.745 -0.1305  0.7592  0.7094
  102MPD2    H7 1598   0.484   2.832  12.674 -0.4669 -2.9150  0.7723
  103TMC2    C1 1599   2.940   2.671  12.452 -0.1990  0.3138 -0.3054
  103TMC2    C2 1600   3.049   2.644  12.373 -0.6675 -0.0521  0.1085
  103TMC2    C3 1601   3.169   2.705  12.392 -0.1355 -0.2550 -0.1515
  103TMC2    C4 1602   2.956   2.755  12.565  0.2745 -0.1803 -0.9651
  103TMC2    C5 1603   3.079   2.808  12.595  0.3166 -0.2539  0.5078
  103TMC2    C6 1604   3.183   2.779  12.508  0.3657 -0.4350  0.1171
  103TMC2     C 1605   2.825   2.592  12.425  0.2028 -0.2510  0.3972
  103TMC2     O 1606   2.800   2.562  12.308 -0.4552 -0.2294  0.5230
  103TMC2     H 1607   3.030   2.573  12.293 -0.1794  0.1890 -0.2149
  103TMC2    H1 1608   2.863   2.779  12.614  1.0544 -2.2426  1.5286
  103TMC2    H2 1609   3.274   2.829  12.540  0.4242 -1.2311  1.1577
  103TMC2    C7 1610   3.092   2.907  12.704 -0.1381  0.1799 -0.8359
  103TMC2    C8 1611   3.287   2.697  12.308 -0.7618 -1.1602 -0.4003
  103TMC2    O1 1612   3.206   2.929  12.743 -0.3668 -0.4335 -0.7290
  103TMC2    O2 1613   3.378   2.775  12.318  0.1836 -0.2353 -0.2274
  103TMC2    O5 1614   3.232   2.669  12.185  0.0055  0.3376 -0.4989
  103TMC2    H5 1615   3.180   2.586  12.192  0.3893  0.0551 -1.0218
  104MPD2     C 1616   2.655   2.387  12.664  0.1273 -0.1861  0.2949
  104MPD2    C1 1617   2.686   2.442  12.543 -0.8660  0.0935 -0.2570
  104MPD2    C2 1618   2.605   2.399  12.438 -0.6387 -0.8455 -0.2704
  104MPD2    C3 1619   2.497   2.311  12.459  0.2111  1.1934  0.6444
  104MPD2    C4 1620   2.477   2.251  12.580 -0.4894 -0.3380 -0.6521
  104MPD2    C5 1621   2.554   2.292  12.685 -0.2759 -0.2181 -0.2227
  104MPD2     H 1622   2.626   2.439  12.339  0.7390  1.6929  1.0288
  104MPD2    H1 1623   2.409   2.169  12.597  0.3356 -1.2925 -1.9168
  104MPD2    H2 1624   2.710   2.417  12.752 -0.6642 -0.6992  0.9657
  104MPD2    H3 1625   2.544   2.240  12.780 -1.7399 -0.9160 -0.7507
  104MPD2     N 1626   2.439   2.264  12.339  0.1025 -0.1374  0.2371
  104MPD2    H5 1627   2.458   2.310  12.251  0.0329 -2.2788 -0.8914
  104MPD2    N1 1628   2.793   2.528  12.538 -0.0874 -0.2497 -0.1903
  104MPD2    H7 1629   2.844   2.548  12.623 -1.3509  0.7628  0.3440
  105TMC2    C1 1630   3.328   2.832   0.401  0.0292 -0.0729  0.0924
  105TMC2    C2 1631   3.229   2.929   0.409  0.4508 -0.2948 -0.2147
  105TMC2    C3 1632   3.237   3.014   0.518 -0.4089 -0.0528 -0.3538
  105TMC2    C4 1633   3.407   2.807   0.509  0.0415 -0.5168 -0.3244
  105TMC2    C5 1634   3.412   2.892   0.615  0.3950 -0.2226  0.6378
  105TMC2    C6 1635   3.329   3.000   0.620  0.3741  0.0588  0.3252
  105TMC2     C 1636   3.310   2.718   0.313  0.0615  0.3615  0.5531
  105TMC2     O 1637   3.207   2.653   0.300 -0.2913 -0.1567 -0.4437
  105TMC2     H 1638   3.158   2.954   0.332 -0.4889  0.9235  1.0411
  105TMC2    H1 1639   3.481   2.729   0.506 -0.1781 -0.6858 -1.6315
  105TMC2    H2 1640   3.326   3.071   0.701  0.8134  0.7136 -0.2376
  105TMC2    C7 1641   3.506   2.864   0.724 -0.5238 -0.4170 -0.5481
  105TMC2    C8 1642   3.115   3.098   0.542 -0.2744  0.1112 -0.4825
  105TMC2    O1 1643   3.585   2.772   0.702  0.0584  0.8590 -0.9925
  105TMC2    O2 1644   3.007   3.073   0.493  0.2995 -0.0623 -0.3211
  105TMC2    O5 1645   3.151   3.224   0.588 -0.2255 -0.3263 -0.1742
  105TMC2    H5 1646   3.246   3.239   0.604 -0.1368 -0.5143 -0.5192
  106MPD2     C 1647   3.565   2.369   0.048  0.2767  0.5752  0.1028
  106MPD2    C1 1648   3.630   2.492   0.033 -0.4122  0.0522 -0.3334
  106MPD2    C2 1649   3.578   2.591   0.110  0.5276  0.0229 -0.2304
  106MPD2    C3 1650   3.463   2.574   0.179  0.3988 -0.5498  0.6501
  106MPD2    C4 1651   3.391   2.459   0.179  0.2211 -1.0794 -0.2165
  106MPD2    C5 1652   3.455   2.352   0.129  0.7784 -0.1634 -0.3500
  106MPD2     H 1653   3.623   2.690   0.117 -0.6431  0.6584 -1.5895
  106MPD2    H1 1654   3.290   2.453   0.218  0.5501 -3.0728  0.3164
  106MPD2    H2 1655   3.596   2.283  17.739  1.5373 -0.1631  1.8074
  106MPD2    H3 1656   3.399   2.259   0.129 -1.2767  1.0528 -0.0187
  106MPD2     N 1657   3.429   2.690   0.255  0.8672  0.2893  0.5398
  106MPD2    H5 1658   3.497   2.764   0.267  1.5687 -0.2101 -0.3988
  106MPD2    N1 1659   3.746   2.511  17.705 -0.1600  0.4146 -0.2425
  106MPD2    H7 1660   3.782   2.606  17.713 -2.0223  1.1096 -0.0047
  107TMC2    C1 1661   4.654   1.720  11.368  0.0669  0.4936  0.0624
  107TMC2    C2 1662   4.663   1.856  11.375 -0.5205  0.6606  0.1371
  107TMC2    C3 1663   0.027   1.909  11.307  0.3306 -0.1415  0.1716
  107TMC2    C4 1664   4.731   1.646  11.285  0.5432 -0.6239  0.4373
  107TMC2    C5 1665   0.089   1.710  11.215  0.1187 -0.0739  0.3492
  107TMC2    C6 1666   0.115   1.842  11.230  0.2773 -0.2519  0.1440
  107TMC2     C 1667   4.567   1.658  11.470 -0.4619 -0.6443  0.4082
  107TMC2     O 1668   4.485   1.729  11.528 -0.3599  0.6119 -0.1174
  107TMC2     H 1669   4.599   1.905  11.448  0.0013  1.6888 -0.0923
  107TMC2    H1 1670   4.715   1.540  11.273 -0.6235 -0.6539  2.2585
  107TMC2    H2 1671   0.201   1.892  11.186 -1.0480  1.5994 -0.2968
  107TMC2    C7 1672   0.161   1.649  11.102  0.7086  0.0677  0.1573
  107TMC2    C8 1673   0.040   2.051  11.303 -0.8202 -0.6127  0.7234
  107TMC2    O1 1674   0.216   1.732  11.033 -0.2831 -0.1730 -0.5051
  107TMC2    O2 1675   0.143   2.106  11.265 -0.5047 -0.6098  0.0229
  107TMC2    O5 1676   4.654   2.095  11.270  0.2670  0.2196 -0.3406
  107TMC2    H5 1677   4.576   2.037  11.279  0.7846 -0.3558  0.4428
  108MPD2     C 1678   4.662   1.338  11.651 -0.1178 -0.1115  0.5488
  108MPD2    C1 1679   4.612   1.464  11.630 -0.0580  0.4214  0.3401
  108MPD2    C2 1680   4.561   1.527  11.742  0.5529 -0.0223  0.7777
  108MPD2    C3 1681   4.553   1.474  11.864  0.3039 -0.2773  0.5784
  108MPD2    C4 1682   4.588   1.340  11.881 -0.1427 -0.6079 -0.0937
  108MPD2    C5 1683   4.650   1.280  11.773  0.1872  0.3480 -0.7601
  108MPD2     H 1684   4.525   1.627  11.724 -2.8848 -1.5557 -0.8155
  108MPD2    H1 1685   4.568   1.292  11.976  0.3554 -1.0517 -0.2116
  108MPD2    H2 1686   4.705   1.283  11.569  0.1240  0.4084  0.3250
  108MPD2    H3 1687   4.675   1.175  11.784  0.8628  0.5320 -0.5592
  108MPD2     N 1688   4.497   1.536  11.979 -0.4016 -0.3053  0.1900
  108MPD2    H5 1689   4.497   1.483  12.066 -1.6274  0.9954  0.9758
  108MPD2    N1 1690   4.619   1.529  11.504 -0.5497 -0.0208 -0.4374
  108MPD2    H7 1691   4.678   1.479  11.438 -0.7301  1.1716 -1.5179
  109TMC2    C1 1692   4.477   4.610   0.101  0.2467 -0.0801 -0.1477
  109TMC2    C2 1693   4.435   4.492   0.041 -0.0404 -0.4282 -0.1488
  109TMC2    C3 1694   4.516   4.387   0.027 -0.5472  0.2328 -0.6728
  109TMC2    C4 1695   4.600   4.618   0.156 -0.0876 -0.8079 -0.0287
  109TMC2    C5 1696   4.681   4.506   0.136  0.8028 -0.4502 -0.1858
  109TMC2    C6 1697   4.643   4.387   0.079 -0.0182 -0.3471  0.1897
  109TMC2     C 1698   4.384   4.723   0.113  0.1724  0.0215 -0.6003
  109TMC2     O 1699   4.281   4.715   0.049  0.0892 -0.1056  0.0577
  109TMC2     H 1700   4.334   4.479   0.005 -0.4583  0.8520  0.5555
  109TMC2    H1 1701   4.652   4.712   0.159  0.6149 -1.2135  0.4578
  109TMC2    H2 1702   4.701   4.296   0.090 -0.2266 -0.7072 -1.7895
  109TMC2    C7 1703   0.086   4.514   0.194  0.5632 -0.3486  0.0030
  109TMC2    C8 1704   4.443   4.265   0.034 -0.0497 -0.8936  0.3433
  109TMC2    O1 1705   0.160   4.433   0.144 -0.1127  0.5136 -0.0381
  109TMC2    O2 1706   4.330   4.265   0.084 -0.7005  0.3794 -0.0055
  109TMC2    O5 1707   4.491   4.172  17.699 -0.1860 -0.7169  0.1783
  109TMC2    H5 1708   4.578   4.207  17.667 -1.2131  0.8536 -0.9215
  110MPD2     C 1709   4.202   0.367   0.413 -0.6142 -0.1505 -0.1375
  110MPD2    C1 1710   4.295   0.292   0.485 -0.1071 -0.5207 -0.1523
  110MPD2    C2 1711   4.368   0.196   0.420 -0.1080 -0.1286 -0.4600
  110MPD2    C3 1712   4.336   0.153   0.292 -0.1628 -0.1791 -0.9466
  110MPD2    C4 1713   4.246   0.230   0.219  0.2761 -0.0857  0.4606
  110MPD2    C5 1714   4.173   0.333   0.279  0.4848  0.2527 -0.1371
  110MPD2     H 1715   4.446   0.142   0.474 -0.5382  0.4402  0.7281
  110MPD2    H1 1716   4.226   0.228   0.113 -0.5931  2.6525  0.5594
  110MPD2    H2 1717   4.145   0.449   0.456 -0.2862  0.2372 -0.4531
  110MPD2    H3 1718   4.108   0.400   0.225  0.3704 -1.9052 -2.6938
  110MPD2     N 1719   4.412   0.043   0.235 -0.2556 -0.4352  0.3625
  110MPD2    H5 1720   4.490   0.003   0.287  0.8064  0.0409 -0.8756
  110MPD2    N1 1721   4.301   0.320   0.621  0.2197  0.7340  0.4106
  110MPD2    H7 1722   4.235   0.390   0.655  2.1930  2.6163  0.3675
  111TMC2    C1 1723   0.558   3.775  11.134  0.4157  0.3985  0.0258
  111TMC2    C2 1724   0.612   3.744  11.010 -0.3104  0.5358 -0.2032
  111TMC2    C3 1725   0.712   3.650  11.015 -1.2386 -0.4767  0.7171
  111TMC2    C4 1726   0.587   3.716  11.251 -0.3651  0.2686 -0.1878
  111TMC2    C5 1727   0.685   3.626  11.251 -0.0506 -0.4133  0.8372
  111TMC2    C6 1728   0.741   3.586  11.130 -0.7731 -0.3507  0.1528
  111TMC2     C 1729   0.424   3.823  11.126 -0.3760 -0.2596 -0.8511
  111TMC2     O 1730   0.381   3.817  11.011 -0.2076 -0.2022  1.2979
  111TMC2     H 1731   0.575   3.789  10.918  2.1747  1.1888 -0.8971
  111TMC2    H1 1732   0.545   3.745  11.346  1.8140 -0.2793  0.9339
  111TMC2    H2 1733   0.803   3.497  11.125 -1.4421 -0.8562  0.8088
  111TMC2    C7 1734   0.767   3.596  11.365 -0.2082  0.1657  0.0353
  111TMC2    C8 1735   0.769   3.592  10.889  0.2637 -0.0748  0.6892
  111TMC2    O1 1736   0.822   3.487  11.383  0.2116 -0.0952  0.3653
  111TMC2    O2 1737   0.881   3.551  10.893 -0.2748 -0.0890  0.0904
  111TMC2    O5 1738   0.654   3.528  10.845 -0.0771  0.3474 -0.3128
  111TMC2    H5 1739   0.573   3.581  10.865 -0.1178 -0.3414  1.2575
  112MPD2     C 1740   4.732   3.936  11.375  0.4044 -0.1404  0.3904
  112MPD2    C1 1741   0.017   3.865  11.260  0.5539 -0.3960  0.4331
  112MPD2    C2 1742   0.150   3.859  11.210 -0.0608  0.2584 -0.9830
  112MPD2    C3 1743   0.250   3.921  11.274 -0.5092 -0.3578  0.0549
  112MPD2    C4 1744   0.228   3.970  11.402  0.2891 -0.1999 -0.2352
  112MPD2    C5 1745   0.097   3.986  11.445  0.6240 -0.2717 -0.3067
  112MPD2     H 1746   0.166   3.799  11.121 -0.1803 -1.6287  0.2686
  112MPD2    H1 1747   0.311   3.999  11.466  0.3959  0.8094 -0.8318
  112MPD2    H2 1748   4.633   3.943  11.418  0.5028  2.9294  0.0892
  112MPD2    H3 1749   0.079   4.045  11.535  0.6892 -0.7030 -0.0093
  112MPD2     N 1750   0.382   3.891  11.235  0.2295 -0.2020  0.2190
  112MPD2    H5 1751   0.449   3.914  11.308 -0.5765 -0.9816  1.2134
  112MPD2    N1 1752   4.645   3.797  11.207 -0.6298  0.1206 -0.0425
  112MPD2    H7 1753   4.564   3.786  11.268  0.6936 -1.4552  1.4295
  113TMC2    C1 1754   2.877   2.694   0.566 -0.3719 -0.1664 -0.7791
  113TMC2    C2 1755   2.786   2.792   0.564 -0.5108 -0.1210 -0.7984
  113TMC2    C3 1756   2.655   2.760   0.561 -0.0549  0.4486 -0.6777
  113TMC2    C4 1757   2.847   2.558   0.561  0.5760 -0.2062  0.3785
  113TMC2    C5 1758   2.715   2.537   0.552  0.2219  0.2471 -0.1190
  113TMC2    C6 1759   2.612   2.628   0.556 -0.4338 -0.0818 -0.2931
  113TMC2     C 1760   3.000   2.736   0.630  0.0953 -0.1344 -1.2442
  113TMC2     O 1761   2.989   2.829   0.710 -0.3485  0.2111  0.0653
  113TMC2     H 1762   2.814   2.897   0.569 -2.4840  0.3059  1.3391
  113TMC2    H1 1763   2.916   2.474   0.561  1.9473  0.9154  2.1762
  113TMC2    H2 1764   2.514   2.586   0.571 -0.5929  0.6586  0.6905
  113TMC2    C7 1765   2.684   2.403   0.596 -0.2264  0.8623  0.2540
  113TMC2    C8 1766   2.558   2.856   0.608  0.1805 -0.1119 -0.5555
  113TMC2    O1 1767   2.629   2.329   0.517 -1.1192  0.5539 -0.1631
  113TMC2    O2 1768   2.589   2.960   0.662 -0.1078 -0.7898  0.1302
  113TMC2    O5 1769   2.437   2.805   0.592  0.5639 -0.2842 -0.1828
  113TMC2    H5 1770   2.433   2.757   0.506 -3.3851  0.9446 -0.6848
  114MPD2     C 1771   3.402   2.559   0.882 -0.3812  0.5098  0.0938
  114MPD2    C1 1772   3.318   2.666   0.907  0.6445 -0.2291 -0.6328
  114MPD2    C2 1773   3.234   2.707   0.812 -0.7355 -0.4859 -0.4351
  114MPD2    C3 1774   3.216   2.639   0.693  0.1352 -0.9281 -0.2858
  114MPD2    C4 1775   3.299   2.537   0.660 -0.1841 -0.0389 -0.4490
  114MPD2    C5 1776   3.392   2.508   0.751 -0.3800  0.6725  0.6640
  114MPD2     H 1777   3.171   2.790   0.843 -0.6287 -1.5733  2.7504
  114MPD2    H1 1778   3.288   2.478   0.569 -0.7375  0.4724 -0.7209
  114MPD2    H2 1779   3.478   2.518   0.947 -1.2633  0.8577  1.3514
  114MPD2    H3 1780   3.468   2.439   0.715 -0.5605  2.0456 -2.3454
  114MPD2     N 1781   3.103   2.650   0.612 -0.3773 -0.2612 -0.6432
  114MPD2    H5 1782   3.102   2.590   0.530  2.0785  0.4648 -1.2072
  114MPD2    N1 1783   3.325   2.734   1.030 -0.3981  0.0374  0.3868
  114MPD2    H7 1784   3.247   2.797   1.048 -0.6802 -0.2109  0.0347
  115TMC2    C1 1785   4.092   0.042  17.358 -0.4402 -0.3699  0.7182
  115TMC2    C2 1786   4.192   4.701  17.406 -0.6134 -0.0042 -0.2253
  115TMC2    C3 1787   4.283   0.009  17.488  0.4989 -0.0285 -0.0219
  115TMC2    C4 1788   4.085   0.172  17.374  0.2685 -0.3873 -0.0482
  115TMC2    C5 1789   4.185   0.223  17.447 -0.7644 -0.9403 -0.0676
  115TMC2    C6 1790   4.277   0.145  17.515  0.2242 -0.1326 -0.4336
  115TMC2     C 1791   3.977   4.702  17.310  0.1691 -0.2605  0.5134
  115TMC2     O 1792   3.955   4.590  17.362 -0.8331 -0.4061 -0.1561
  115TMC2     H 1793   4.188   4.596  17.378  1.5004 -0.5025  1.3550
  115TMC2    H1 1794   4.009   0.240  17.337 -0.4294 -1.8834 -1.4075
  115TMC2    H2 1795   4.349   0.190  17.582  2.0278 -0.5763 -2.0461
  115TMC2    C7 1796   4.213   0.367  17.437 -0.4968  0.0555 -0.2251
  115TMC2    C8 1797   4.421   4.714  17.457 -0.2895  0.4349  0.7341
  115TMC2    O1 1798   4.306   0.407  17.508  0.6400 -0.0553  0.4782
  115TMC2    O2 1799   4.500   0.043  17.392  0.8062 -0.2517  0.1211
  115TMC2    O5 1800   4.428   4.582  17.474  0.4263  0.2020  0.0603
  115TMC2    H5 1801   4.343   4.542  17.502 -0.0077  2.1308  1.4878
  116MPD2     C 1802   3.545   4.670  17.037 -0.3877 -0.4426  0.1667
  116MPD2    C1 1803   3.584   4.590  17.138 -0.1850  0.6442 -0.0055
  116MPD2    C2 1804   3.710   4.612  17.197 -0.0754 -0.0894  0.6422
  116MPD2    C3 1805   3.792   4.713  17.151  0.3910 -0.0425 -0.2020
  116MPD2    C4 1806   3.742   0.052  17.045  0.5742  0.3714  0.7483
  116MPD2    C5 1807   3.622   0.036  16.991  0.2195 -0.1295 -0.3333
  116MPD2     H 1808   3.730   4.547  17.282 -0.4431  0.4629  1.1486
  116MPD2    H1 1809   3.805   0.135  17.014 -0.1318  1.1248  1.3124
  116MPD2    H2 1810   3.445   4.659  16.997 -0.5405 -0.3245  0.5254
  116MPD2    H3 1811   3.581   0.103  16.916 -0.3643 -1.4319 -1.1717
  116MPD2     N 1812   3.913   0.023  17.207 -0.1945  0.4007  0.0026
  116MPD2    H5 1813   3.952   0.104  17.160 -0.4510  0.8775  0.6137
  116MPD2    N1 1814   3.497   4.488  17.183  0.0686 -0.3884 -0.3808
  116MPD2    H7 1815   3.408   4.493  17.136 -0.8738 -0.6903  1.3835
  117TMC2    C1 1816   2.586   0.957  13.567  0.4896  0.4652 -0.0395
  117TMC2    C2 1817   2.541   0.951  13.435  0.2467 -0.1324  0.0020
  117TMC2    C3 1818   2.640   0.950  13.340 -0.0561  0.7431 -0.0792
  117TMC2    C4 1819   2.717   0.975  13.597 -0.5172 -0.5734  0.9772
  117TMC2    C5 1820   2.808   0.988  13.496 -0.9427 -0.0058  0.4470
  117TMC2    C6 1821   2.767   0.963  13.368  0.4239 -0.1712 -0.7178
  117TMC2     C 1822   2.483   0.976  13.667 -0.0584 -0.2878 -0.6525
  117TMC2     O 1823   2.528   0.977  13.782 -0.7186  0.1104  0.7082
  117TMC2     H 1824   2.441   0.917  13.411 -1.1313  2.5075  1.9296
  117TMC2    H1 1825   2.745   0.960  13.701  0.1307  0.1860  0.9160
  117TMC2    H2 1826   2.836   0.980  13.286  0.6421 -0.0682 -0.5102
  117TMC2    C7 1827   2.910   1.084  13.522  0.5593  0.1938 -0.5793
  117TMC2    C8 1828   2.592   0.904  13.210  0.1052 -0.2980  0.7670
  117TMC2    O1 1829   2.950   1.142  13.423  0.0380  0.1444 -0.4501
  117TMC2    O2 1830   2.476   0.905  13.179  0.1726 -0.6357 -0.6367
  117TMC2    O5 1831   2.675   0.814  13.162  0.6529  0.0398  0.2412
  117TMC2    H5 1832   2.747   0.773  13.214  2.4981  2.8524 -0.0865
  118MPD2     C 1833   3.021   1.228  13.849  0.0229 -0.1398  0.4937
  118MPD2    C1 1834   3.008   1.221  13.716  0.0922 -0.0293 -0.1833
  118MPD2    C2 1835   3.073   1.321  13.644  0.2345 -0.5673 -0.2377
  118MPD2    C3 1836   3.144   1.414  13.713  1.1350  0.4382  0.0907
  118MPD2    C4 1837   3.156   1.412  13.849 -0.2054 -0.3045  0.3065
  118MPD2    C5 1838   3.089   1.318  13.920  0.2315 -0.1458  0.5229
  118MPD2     H 1839   3.078   1.309  13.536  0.1043  1.1325 -0.4244
  118MPD2    H1 1840   3.218   1.487  13.896 -0.6831  0.8120 -0.8215
  118MPD2    H2 1841   2.967   1.155  13.908  1.2050  0.4319  2.2797
  118MPD2    H3 1842   3.093   1.311  14.028 -0.1061  1.1199  0.6270
  118MPD2     N 1843   3.216   1.519  13.661  0.2282 -0.0503  0.9237
  118MPD2    H5 1844   3.250   1.588  13.728 -0.4747  1.3028 -0.1064
  118MPD2    N1 1845   2.933   1.116  13.660  0.6788  0.2802 -1.3266
  118MPD2    H7 1846   2.895   1.060  13.736  0.0128  3.9625  1.0576
  119TMC2    C1 1847   0.345   1.612  13.315 -0.2413  0.3245 -0.2028
  119TMC2    C2 1848   0.446   1.541  13.369  0.5547 -0.2731  0.2896
  119TMC2    C3 1849   0.442   1.511  13.500  0.5290 -0.1209  0.7031
  119TMC2    C4 1850   0.227   1.634  13.392  0.0295 -0.1587  0.1130
  119TMC2    C5 1851   0.226   1.594  13.523  0.5007  0.5542  0.1710
  119TMC2    C6 1852   0.334   1.535  13.581  0.4232 -0.3399 -0.0529
  119TMC2     C 1853   0.372   1.709  13.217 -0.5370  0.4381  0.1809
  119TMC2     O 1854   0.434   1.683  13.114 -0.4722  0.1063  0.1359
  119TMC2     H 1855   0.537   1.522  13.313  1.3820  1.0916  1.1791
  119TMC2    H1 1856   0.137   1.662  13.340  0.4001  0.3284 -0.2700
  119TMC2    H2 1857   0.321   1.492  13.679 -2.6474 -0.1060 -0.3506
  119TMC2    C7 1858   0.107   1.655  13.595 -0.0813 -0.1364  0.6314
  119TMC2    C8 1859   0.560   1.456  13.560 -0.5462  0.0972  0.2650
  119TMC2    O1 1860   0.006   1.665  13.530 -0.2789  0.4398 -0.1651
  119TMC2    O2 1861   0.619   1.362  13.511  0.3119 -0.5143 -0.1235
  119TMC2    O5 1862   0.567   1.508  13.686  0.0587 -0.2425 -0.8041
  119TMC2    H5 1863   0.507   1.586  13.690 -1.3143 -1.4336  1.6924
  120MPD2     C 1864   0.451   2.214  13.151 -0.5725  0.0326 -0.5731
  120MPD2    C1 1865   0.366   2.198  13.261 -0.3805  0.2477 -0.6284
  120MPD2    C2 1866   0.331   2.067  13.291  0.6766 -0.5711 -0.1275
  120MPD2    C3 1867   0.376   1.960  13.224  0.0433 -0.7542 -0.0668
  120MPD2    C4 1868   0.461   1.982  13.121 -0.1977  0.3956  0.9361
  120MPD2    C5 1869   0.498   2.110  13.083 -0.1077  0.6615  0.2506
  120MPD2     H 1870   0.271   2.042  13.377 -0.0055  2.1237  0.1581
  120MPD2    H1 1871   0.510   1.898  13.073 -0.5613  1.1133 -0.6667
  120MPD2    H2 1872   0.495   2.311  13.131  0.0149  0.3814  2.4339
  120MPD2    H3 1873   0.562   2.128  12.998  0.2194 -1.0704  0.1300
  120MPD2     N 1874   0.334   1.833  13.268 -0.0326  0.1666  0.7803
  120MPD2    H5 1875   0.276   1.831  13.352  0.4862  1.5593  1.1816
  120MPD2    N1 1876   0.319   2.311  13.342 -0.6017  0.1520 -0.1194
  120MPD2    H7 1877   0.355   2.405  13.326  1.3235 -0.4191  0.8450
  121TMC2    C1 1878   2.203   3.978  13.811  0.2175  0.1160  0.7277
  121TMC2    C2 1879   2.288   3.894  13.745  0.2945  0.3557 -0.3856
  121TMC2    C3 1880   2.265   3.754  13.755 -0.4594 -0.3266 -0.2293
  121TMC2    C4 1881   2.089   3.935  13.874  0.1415 -0.9081 -0.1197
  121TMC2    C5 1882   2.072   3.801  13.871 -0.3108 -0.1124  0.9036
  121TMC2    C6 1883   2.159   3.707  13.824  0.1978 -0.6787  0.8225
  121TMC2     C 1884   2.235   4.111  13.842 -0.0976 -0.3295  0.1432
  121TMC2     O 1885   2.223   4.143  13.962 -1.0865 -0.3150 -0.0299
  121TMC2     H 1886   2.379   3.928  13.696  0.9453 -0.6471  0.1382
  121TMC2    H1 1887   2.018   4.003  13.921  1.6198  1.3049 -1.1242
  121TMC2    H2 1888   2.133   3.602  13.815 -0.7875 -0.1005 -3.1812
  121TMC2    C7 1889   1.932   3.756  13.881  0.7833  0.0332  0.0378
  121TMC2    C8 1890   2.372   3.656  13.721  0.2503  0.1055  0.3185
  121TMC2    O1 1891   1.921   3.641  13.924  0.3421 -0.0393 -0.4026
  121TMC2    O2 1892   2.366   3.545  13.765 -0.2756  0.0333 -0.4302
  121TMC2    O5 1893   2.488   3.716  13.678  0.2520 -0.6287 -0.7357
  121TMC2    H5 1894   2.476   3.789  13.614  3.6080 -0.3998 -1.0883
  122MPD2     C 1895   2.364   4.396  13.827  0.9554  0.0110  0.1807
  122MPD2    C1 1896   2.345   4.308  13.724 -0.6435 -0.2728 -0.4133
  122MPD2    C2 1897   2.384   4.352  13.602 -0.3813  0.6574  0.6472
  122MPD2    C3 1898   2.442   4.478  13.580 -0.0410  0.7128  0.3662
  122MPD2    C4 1899   2.450   4.567  13.688 -0.1037 -0.3326  0.3634
  122MPD2    C5 1900   2.425   4.516  13.810  0.1378 -0.0713  0.5845
  122MPD2     H 1901   2.360   4.290  13.517  0.6304  0.1582  0.7269
  122MPD2    H1 1902   2.500   4.663  13.681 -0.5896 -0.1907 -1.1579
  122MPD2    H2 1903   2.336   4.364  13.927  1.2248  2.3008  0.9986
  122MPD2    H3 1904   2.458   4.572  13.897 -0.7544 -1.4573  1.7909
  122MPD2     N 1905   2.498   4.519  13.462  0.0545 -0.1871  0.1720
  122MPD2    H5 1906   2.550   4.606  13.458  0.2088 -0.4004 -2.7714
  122MPD2    N1 1907   2.294   4.169  13.732  0.0029  0.8080  0.4794
  122MPD2    H7 1908   2.291   4.123  13.642 -2.3640 -1.2609  1.5747
  123TMC2    C1 1909   4.726   1.984  10.912  0.2723 -0.3795  0.1010
  123TMC2    C2 1910   4.668   2.100  10.955  0.5572 -0.1711 -0.3745
  123TMC2    C3 1911   4.723   2.214  10.921 -0.5408 -0.2281 -0.2348
  123TMC2    C4 1912   0.109   1.977  10.858 -0.3056  0.7888  1.2362
  123TMC2    C5 1913   0.170   2.095  10.830  0.5146  0.1536 -0.6592
  123TMC2    C6 1914   0.110   2.215  10.862  0.1515  0.1349 -0.0134
  123TMC2     C 1915   4.648   1.869  10.937  0.1465 -0.2805 -0.4001
  123TMC2     O 1916   4.572   1.865  11.034 -0.3520  0.5754  0.1661
  123TMC2     H 1917   4.565   2.109  10.987  0.3456 -2.0481 -0.5149
  123TMC2    H1 1918   0.157   1.881  10.843 -0.2752  0.8919  0.6892
  123TMC2    H2 1919   0.159   2.309  10.840 -0.2811  0.4950  0.5384
  123TMC2    C7 1920   0.269   2.081  10.729 -0.3683 -0.3276 -0.3948
  123TMC2    C8 1921   4.681   2.336  10.986  0.2400  0.6531  0.0985
  123TMC2    O1 1922   0.242   1.986  10.659  0.2015  0.2111 -0.0573
  123TMC2    O2 1923   4.716   2.445  10.938 -0.0293  0.4162 -0.0071
  123TMC2    O5 1924   4.621   2.317  11.105 -0.0326  1.4060 -0.1442
  123TMC2    H5 1925   4.621   2.222  11.132  0.7202  1.2144 -0.8303
  124MPD2     C 1926   4.549   1.402  10.788  0.2127  0.2286  0.1776
  124MPD2    C1 1927   4.601   1.471  10.680  0.4450  0.1284  0.2234
  124MPD2    C2 1928   4.629   1.602  10.695  0.7366 -0.6131 -0.4851
  124MPD2    C3 1929   4.611   1.660  10.818  0.5975 -0.3271  0.0935
  124MPD2    C4 1930   4.552   1.593  10.921 -0.6754 -0.2807  0.1083
  124MPD2    C5 1931   4.528   1.458  10.910  0.1812  0.2545  0.3660
  124MPD2     H 1932   4.657   1.671  10.617  1.1510  0.1292  0.3219
  124MPD2    H1 1933   4.542   1.642  11.017 -0.3924 -0.2274  0.1089
  124MPD2    H2 1934   4.513   1.300  10.780 -1.9219  1.2509 -2.9928
  124MPD2    H3 1935   4.479   1.401  10.988 -1.7568 -0.6733 -1.5222
  124MPD2     N 1936   4.653   1.795  10.821 -0.0964 -0.2139  0.0417
  124MPD2    H5 1937   4.693   1.845  10.742 -0.4618  1.4668  0.9103
  124MPD2    N1 1938   4.622   1.403  10.558  0.0303 -0.1403 -0.7098
  124MPD2    H7 1939   4.624   1.301  10.558 -2.9444 -0.1952 -0.1120
  125TMC2    C1 1940   4.508   3.713   9.457 -0.5347 -0.7648  0.8309
  125TMC2    C2 1941   4.448   3.835   9.486  0.5379  0.7335  0.5597
  125TMC2    C3 1942   4.324   3.848   9.434 -0.3990  0.7891  0.4052
  125TMC2    C4 1943   4.452   3.609   9.388 -0.6136 -0.6300  0.6390
  125TMC2    C5 1944   4.328   3.633   9.337  0.0747 -0.7261  0.5964
  125TMC2    C6 1945   4.270   3.756   9.350  0.5164  0.0779 -0.0940
  125TMC2     C 1946   4.655   3.699   9.462  0.6291  0.1358  0.6693
  125TMC2     O 1947   4.714   3.624   9.387 -0.1220  0.1212 -0.0292
  125TMC2     H 1948   4.495   3.909   9.549 -0.0308 -0.0044  1.8470
  125TMC2    H1 1949   4.507   3.519   9.363  0.1180  0.0660 -0.2469
  125TMC2    H2 1950   4.174   3.788   9.310  0.5365 -1.8455 -1.7237
  125TMC2    C7 1951   4.263   3.533   9.259 -0.2241  0.0806  0.2557
  125TMC2    C8 1952   4.248   3.963   9.468  0.4376  0.8566  0.6053
  125TMC2    O1 1953   4.333   3.449   9.205  0.3498  0.5180  1.0105
  125TMC2    O2 1954   4.257   4.000   9.583 -0.4024  0.1865 -0.2617
  125TMC2    O5 1955   4.223   4.032   9.358  0.6990 -0.5620  0.1258
  125TMC2    H5 1956   4.264   4.004   9.274 -1.4950  0.9611 -1.4296
  126MPD1     C 1957   0.381   3.870   9.583  0.1139  0.0644  0.0964
  126MPD1    C1 1958   0.288   3.923   9.670  0.1331 -0.2974 -0.8673
  126MPD1    C2 1959   0.154   3.901   9.651  0.6109  0.3193 -0.0911
  126MPD1    C3 1960   0.110   3.829   9.540 -0.9211 -0.3755  0.5343
  126MPD1    C4 1961   0.210   3.788   9.447 -0.1899  0.1251  0.1620
  126MPD1    C5 1962   0.343   3.806   9.469  0.3918  0.3037  0.0169
  126MPD1     H 1963   0.088   3.918   9.735  0.1771 -0.1154 -0.3445
  126MPD1    H1 1964   0.188   3.727   9.359  3.4793  1.5029 -1.7013
  126MPD1    H2 1965   0.488   3.882   9.594 -0.1950  1.0800  2.0913
  126MPD1    H3 1966   0.415   3.778   9.394 -1.2294  3.1150 -2.6061
  126MPD1     N 1967   4.716   3.788   9.547 -0.7866  0.0817  0.4060
  126MPD1    H5 1968   4.653   3.835   9.612 -2.3689  1.1731 -1.9047
  126MPD1    N1 1969   0.325   3.982   9.789 -0.4641  0.0293 -0.9111
  126MPD1    H6 1970   0.408   4.040   9.776  0.7808 -1.4157  0.4250
  126MPD1    H7 1971   0.246   4.036   9.822  1.0378  0.1412  2.5630
  127TMC2    C1 1972   1.910   2.265   9.251  0.7155 -0.4618  0.4937
  127TMC2    C2 1973   1.892   2.192   9.366 -0.8608  0.0449  0.0250
  127TMC2    C3 1974   1.832   2.069   9.345  0.2968  0.2054  0.4861
  127TMC2    C4 1975   1.871   2.232   9.125 -0.3883 -0.3969 -0.7109
  127TMC2    C5 1976   1.821   2.105   9.109 -0.2927 -0.1601 -0.2446
  127TMC2    C6 1977   1.806   2.029   9.217 -0.3565  0.1124 -0.4916
  127TMC2     C 1978   1.995   2.385   9.261 -1.0379  0.0147 -0.2174
  127TMC2     O 1979   2.016   2.432   9.373 -0.1485 -0.3478  0.4139
  127TMC2     H 1980   1.925   2.232   9.461  1.2153  0.3378 -0.8103
  127TMC2    H1 1981   1.855   2.303   9.045  3.3899  0.5622 -0.5778
  127TMC2    H2 1982   1.778   1.924   9.207 -2.0189  0.4764  0.3058
  127TMC2    C7 1983   1.745   2.075   8.993 -0.8721  0.4251  0.5014
  127TMC2    C8 1984   1.766   2.002   9.455 -0.0421 -0.2118 -0.0664
  127TMC2    O1 1985   1.761   2.129   8.884  0.4651  0.4923 -0.0049
  127TMC2    O2 1986   1.674   1.921   9.438  0.0834 -0.6512  0.2412
  127TMC2    O5 1987   1.828   2.030   9.568 -0.0425  0.7367 -0.4792
  127TMC2    H5 1988   1.913   2.074   9.548  0.0243  2.8692  4.3653
  128MPD2     C 1989   2.171   2.563   8.994 -0.4866 -0.2993  0.5104
  128MPD2    C1 1990   2.149   2.522   9.120  0.3763 -0.1674  0.1122
  128MPD2    C2 1991   2.207   2.597   9.219 -0.8089 -0.3096 -0.3512
  128MPD2    C3 1992   2.308   2.692   9.196 -0.5747  0.2261  0.7420
  128MPD2    C4 1993   2.351   2.716   9.066  0.0644 -0.9704  0.0149
  128MPD2    C5 1994   2.272   2.655   8.967 -0.0702 -0.1571  0.6724
  128MPD2     H 1995   2.185   2.576   9.323 -0.3282 -0.5919 -0.3038
  128MPD2    H1 1996   2.434   2.772   9.026 -0.1253 -0.6058  0.1391
  128MPD2    H2 1997   2.128   2.511   8.908  1.3863 -1.4046  0.2510
  128MPD2    H3 1998   2.283   2.681   8.862  1.1653 -1.3842  0.4946
  128MPD2     N 1999   2.366   2.761   9.304  0.2912 -0.1612 -0.0016
  128MPD2    H5 2000   2.342   2.739   9.400 -0.4378  0.0322 -0.1410
  128MPD2    N1 2001   2.050   2.419   9.141  0.0794  0.5441 -0.3292
  128MPD2    H7 2002   2.034   2.358   9.061 -0.3721  1.6416 -1.0808
  129TMC2    C1 2003   1.604   4.101   1.167  0.5272  0.1124 -0.0073
  129TMC2    C2 2004   1.559   4.226   1.132 -0.1139 -0.0773  0.5545
  129TMC2    C3 2005   1.423   4.246   1.133 -0.2529 -0.0510 -0.3038
  129TMC2    C4 2006   1.514   3.996   1.192 -0.3910  0.2497  1.1134
  129TMC2    C5 2007   1.385   4.027   1.190 -0.2664 -0.8000  0.5251
  129TMC2    C6 2008   1.333   4.149   1.170  1.0257 -0.5878  0.1927
  129TMC2     C 2009   1.743   4.082   1.210 -0.6110  0.5823  0.6413
  129TMC2     O 2010   1.793   3.974   1.186  0.0483  0.1198 -0.9132
  129TMC2     H 2011   1.631   4.306   1.123 -0.3340  0.1210  0.5732
  129TMC2    H1 2012   1.546   3.896   1.216 -4.3941 -0.7518  2.2786
  129TMC2    H2 2013   1.226   4.151   1.154  1.5223  0.3003 -3.1323
  129TMC2    C7 2014   1.285   3.928   1.234  0.6309 -0.3057  0.6779
  129TMC2    C8 2015   1.375   4.387   1.117 -0.3631  0.1176 -0.3746
  129TMC2    O1 2016   1.173   3.963   1.265 -0.6626 -0.2423 -0.0657
  129TMC2    O2 2017   1.455   4.465   1.069  0.0352 -0.0192 -0.0260
  129TMC2    O5 2018   1.274   4.412   1.203 -0.1767 -0.1409 -0.0191
  129TMC2    H5 2019   1.227   4.337   1.245  0.8527 -1.7618 -1.7171
  130MPD2     C 2020   2.023   4.068   1.331  0.1423  0.1484  0.5265
  130MPD2    C1 2021   1.952   4.185   1.314  0.5018 -0.9738  0.2369
  130MPD2    C2 2022   2.024   4.299   1.346  0.2979  0.2368 -0.0835
  130MPD2    C3 2023   2.149   4.302   1.400  0.0463 -0.2748  0.8348
  130MPD2    C4 2024   2.214   4.186   1.421  0.1910  0.1189 -0.0545
  130MPD2    C5 2025   2.152   4.063   1.385 -0.1022 -0.4831  0.3619
  130MPD2     H 2026   1.977   4.393   1.322  0.4266  0.3313  0.0354
  130MPD2    H1 2027   2.313   4.172   1.462 -0.2499 -1.1511  0.5852
  130MPD2    H2 2028   1.989   3.969   1.303 -0.8032  0.7926 -0.6264
  130MPD2    H3 2029   2.204   3.970   1.405  1.7962  0.4282 -0.4326
  130MPD2     N 2030   2.206   4.429   1.426 -0.5468  0.1019 -0.2501
  130MPD2    H5 2031   2.141   4.503   1.399 -1.0984 -0.5569 -0.7066
  130MPD2    N1 2032   1.820   4.194   1.255 -0.2428  0.4145  0.3979
  130MPD2    H7 2033   1.765   4.279   1.265 -0.4198  0.1306  1.8124
  131TMC2    C1 2034   0.404   2.139  10.060  0.4542 -0.1238 -0.4259
  131TMC2    C2 2035   0.411   2.190  10.187  0.0515  0.1268  0.4681
  131TMC2    C3 2036   0.418   2.324  10.203  0.4621 -0.4817 -0.3538
  131TMC2    C4 2037   0.407   2.225   9.942 -0.2534 -0.5285  0.1178
  131TMC2    C5 2038   0.422   2.360   9.969 -0.4341 -0.3490 -0.1689
  131TMC2    C6 2039   0.442   2.403  10.102 -0.1824  0.5765  0.2192
  131TMC2     C 2040   0.356   2.002  10.052 -0.3385  0.1853  0.1273
  131TMC2     O 2041   0.284   1.970  10.141  0.1626  0.4120  0.0651
  131TMC2     H 2042   0.396   2.128  10.274 -0.4949  1.2376  1.1603
  131TMC2    H1 2043   0.403   2.192   9.839  0.8463  0.6634 -0.3020
  131TMC2    H2 2044   0.466   2.507  10.122  1.1330  0.4377 -0.6188
  131TMC2    C7 2045   0.411   2.443   9.855  0.0063 -0.1425  0.4591
  131TMC2    C8 2046   0.470   2.366  10.334 -0.1466 -0.3004  0.3563
  131TMC2    O1 2047   0.367   2.405   9.747  0.0636  0.5136 -0.5213
  131TMC2    O2 2048   0.384   2.390  10.419  0.2078  0.1533 -0.0632
  131TMC2    O5 2049   0.578   2.437  10.308  0.0503 -0.1757  0.8737
  131TMC2    H5 2050   0.634   2.398  10.237 -0.0958  0.5692  0.3451
  132MPD2     C 2051   0.421   1.754   9.789  0.0265 -0.8353  0.3529
  132MPD2    C1 2052   0.367   1.805   9.901  0.1557 -0.7253  1.0712
  132MPD2    C2 2053   0.287   1.724   9.979 -0.2322  1.0134 -0.2691
  132MPD2    C3 2054   0.251   1.595   9.941  0.3309 -0.2590  0.1330
  132MPD2    C4 2055   0.307   1.540   9.826  1.2031  0.4924  0.2127
  132MPD2    C5 2056   0.385   1.619   9.743 -0.1509 -0.7400  0.2784
  132MPD2     H 2057   0.255   1.750  10.079 -0.8484 -0.4636 -0.0746
  132MPD2    H1 2058   0.279   1.443   9.789 -2.7013  1.4774  0.5223
  132MPD2    H2 2059   0.480   1.812   9.719 -1.3561  0.9487  0.6739
  132MPD2    H3 2060   0.420   1.589   9.644 -1.6676 -0.7126 -0.2699
  132MPD2     N 2061   0.169   1.522  10.030  0.0709  0.1841 -0.2851
  132MPD2    H5 2062   0.146   1.566  10.118 -1.3364  0.9922 -1.0583
  132MPD2    N1 2063   0.393   1.943   9.934 -0.5886  0.3078  0.1372
  132MPD2    H7 2064   0.458   1.993   9.873  0.6922 -2.1695 -0.5234
  133TMC2    C1 2065   0.020   3.531   9.789  0.2663  0.6452 -0.6609
  133TMC2    C2 2066   0.125   3.492   9.708  0.1289 -0.4395 -0.0871
  133TMC2    C3 2067   0.250   3.538   9.735  0.1145 -0.2757 -0.1495
  133TMC2    C4 2068   0.044   3.612   9.895  0.1278 -0.9524 -0.6337
  133TMC2    C5 2069   0.170   3.660   9.916  0.2304 -0.2354  0.1076
  133TMC2    C6 2070   0.275   3.630   9.835  0.3886  0.3933 -0.5244
  133TMC2     C 2071   4.623   3.497   9.738  0.3991 -0.0730 -0.0261
  133TMC2     O 2072   4.617   3.412   9.650 -0.2474 -0.4480 -0.4524
  133TMC2     H 2073   0.101   3.421   9.630 -0.4095  0.9054 -1.1428
  133TMC2    H1 2074   4.703   3.630   9.968  0.2044  0.6079 -0.9291
  133TMC2    H2 2075   0.373   3.664   9.867 -0.6656  1.4765  1.6137
  133TMC2    C7 2076   0.201   3.719  10.047 -0.1923 -0.2181  0.4596
  133TMC2    C8 2077   0.357   3.509   9.649  0.1238  0.3859  0.1242
  133TMC2    O1 2078   0.144   3.677  10.146  0.3664 -0.2946  0.0742
  133TMC2    O2 2079   0.336   3.492   9.530 -0.0154 -0.4899 -0.3673
  133TMC2    O5 2080   0.452   3.439   9.720  0.7723  0.4858 -0.1093
  133TMC2    H5 2081   0.434   3.439   9.816 -0.6279  3.4538 -0.3705
  134MPD2     C 2082   4.307   3.671   9.808  0.1694 -0.3185 -0.3200
  134MPD2    C1 2083   4.381   3.566   9.767  0.0915  0.3543  0.3208
  134MPD2    C2 2084   4.328   3.453   9.712 -0.0596 -0.3781 -0.0747
  134MPD2    C3 2085   4.198   3.461   9.673  0.1525  0.3067 -0.5410
  134MPD2    C4 2086   4.119   3.568   9.708  0.0470  0.5139 -0.4268
  134MPD2    C5 2087   4.170   3.668   9.789 -1.3013 -0.4223  0.0036
  134MPD2     H 2088   4.383   3.364   9.685  1.9781  1.0580 -0.5825
  134MPD2    H1 2089   4.017   3.575   9.672 -0.3930 -0.3210  0.6663
  134MPD2    H2 2090   4.352   3.755   9.859  0.0986 -0.4545 -0.0347
  134MPD2    H3 2091   4.111   3.747   9.834 -1.3784 -0.0507 -0.7492
  134MPD2     N 2092   4.134   3.364   9.595 -0.0464 -0.2758  0.1922
  134MPD2    H5 2093   4.035   3.384   9.580  0.0248  0.5509  0.8537
  134MPD2    N1 2094   4.524   3.582   9.781 -0.5633  0.5873  0.3459
  134MPD2    H7 2095   4.549   3.669   9.827  0.9477 -0.6481  1.8580
  135TMC2    C1 2096   1.407   4.157   9.672  0.0825 -0.0304 -0.1681
  135TMC2    C2 2097   1.299   4.147   9.761  0.3067  0.3289 -0.2405
  135TMC2    C3 2098   1.290   4.030   9.838 -0.4065  0.2685  0.5643
  135TMC2    C4 2099   1.489   4.048   9.645 -0.5835 -0.2026  0.0772
  135TMC2    C5 2100   1.486   3.947   9.731  0.2421 -0.1815  0.7208
  135TMC2    C6 2101   1.389   3.940   9.833 -0.3170 -0.0545  0.9115
  135TMC2     C 2102   1.413   4.271   9.592 -0.4821 -0.1895 -0.1947
  135TMC2     O 2103   1.316   4.340   9.582  1.0291  0.1872 -0.8191
  135TMC2     H 2104   1.229   4.226   9.784  1.8574  0.4650  3.9282
  135TMC2    H1 2105   1.568   4.043   9.571  1.8718  0.0039  2.6779
  135TMC2    H2 2106   1.387   3.866   9.912  1.6828  1.7021  2.6176
  135TMC2    C7 2107   1.570   3.833   9.706 -0.5703  0.3393 -0.0788
  135TMC2    C8 2108   1.179   4.004   9.928 -0.1424 -0.3374 -0.1465
  135TMC2    O1 2109   1.628   3.822   9.597 -0.0946 -0.0102  0.7057
  135TMC2    O2 2110   1.194   3.926  10.017 -0.0285  0.0168  0.1579
  135TMC2    O5 2111   1.060   4.026   9.870  0.3602  0.0222 -0.1065
  135TMC2    H5 2112   1.081   4.060   9.781 -0.3951  1.8343  0.4114
  136MPD2     C 2113   1.502   4.501   9.408  0.2826 -0.3514 -0.1981
  136MPD2    C1 2114   1.580   4.403   9.463  0.1522 -0.4463 -0.0792
  136MPD2    C2 2115   1.712   4.395   9.409 -0.2803 -0.2488 -0.2057
  136MPD2    C3 2116   1.764   4.490   9.322  0.1034  0.3813  0.2666
  136MPD2    C4 2117   1.684   4.588   9.276 -0.3232 -0.1108 -1.1029
  136MPD2    C5 2118   1.553   4.591   9.319 -0.2562  0.4011 -0.0616
  136MPD2     H 2119   1.776   4.315   9.445  0.0509  0.6621  1.2317
  136MPD2    H1 2120   1.707   4.669   9.207  0.1663  1.8550  1.3526
  136MPD2    H2 2121   1.403   4.514   9.452  0.9090 -1.6467  1.6144
  136MPD2    H3 2122   1.487   4.672   9.290  0.0585  1.5403  2.4109
  136MPD2     N 2123   1.896   4.502   9.292 -0.3075 -0.1287 -0.0544
  136MPD2    H5 2124   1.915   4.589   9.245  1.0518 -0.5947 -0.3853
  136MPD2    N1 2125   1.536   4.288   9.542  0.0369 -0.1883  0.0825
  136MPD2    H7 2126   1.599   4.215   9.573 -1.5529 -2.3816 -1.9343
  137TMC2    C1 2127   1.520   3.181   9.232 -1.1015  0.1436  0.5430
  137TMC2    C2 2128   1.546   3.214   9.097 -0.4853  0.3253  0.1539
  137TMC2    C3 2129   1.560   3.345   9.064 -0.7394  0.5074  0.0139
  137TMC2    C4 2130   1.500   3.275   9.323  0.2727  0.5555  0.0349
  137TMC2    C5 2131   1.500   3.404   9.282 -0.4893  0.6504  0.1118
  137TMC2    C6 2132   1.530   3.439   9.154 -0.0751  0.1131 -0.1190
  137TMC2     C 2133   1.544   3.048   9.284  0.1543 -0.4553  0.3032
  137TMC2     O 2134   1.571   3.026   9.399 -0.2373 -0.2095  0.2183
  137TMC2     H 2135   1.579   3.139   9.026  0.3976  0.9821 -0.1210
  137TMC2    H1 2136   1.482   3.257   9.429  1.2050 -0.6675 -0.0109
  137TMC2    H2 2137   1.549   3.541   9.122  1.4767 -0.3720 -0.7530
  137TMC2    C7 2138   1.439   3.511   9.361 -0.6885 -0.0475 -0.5544
  137TMC2    C8 2139   1.572   3.380   8.926  0.1542 -0.3127  0.1079
  137TMC2    O1 2140   1.479   3.623   9.327 -0.4693  0.5402  0.0493
  137TMC2    O2 2141   1.673   3.346   8.864 -0.2827 -0.4290  0.0512
  137TMC2    O5 2142   1.472   3.454   8.897 -0.3304  0.2038  0.1193
  137TMC2    H5 2143   1.405   3.456   8.969 -1.5932  2.1844 -1.1068
  138MPD2     C 2144   1.506   2.729   9.105  0.4474  0.1425  0.2778
  138MPD2    C1 2145   1.543   2.814   9.206  0.3027 -0.5691 -0.3199
  138MPD2    C2 2146   1.607   2.752   9.313  0.0337 -0.1287  0.1382
  138MPD2    C3 2147   1.632   2.618   9.327  0.7401 -0.1032 -0.2544
  138MPD2    C4 2148   1.586   2.535   9.227  0.0601 -0.3350 -0.5341
  138MPD2    C5 2149   1.520   2.596   9.127  0.0288  0.5260  0.2002
  138MPD2     H 2150   1.633   2.820   9.392  5.0743 -0.9380 -0.8184
  138MPD2    H1 2151   1.595   2.426   9.227 -2.4072 -0.5241  1.0894
  138MPD2    H2 2152   1.469   2.764   9.010  0.9229 -1.4754 -0.4988
  138MPD2    H3 2153   1.483   2.533   9.047 -1.0381  2.1052 -0.5637
  138MPD2     N 2154   1.696   2.567   9.436  0.3107  0.2419 -0.1692
  138MPD2    H5 2155   1.733   2.634   9.503  0.5436 -0.4118  0.3651
  138MPD2    N1 2156   1.506   2.949   9.195  0.4486 -0.8141  0.3558
  138MPD2    H7 2157   1.456   2.959   9.108 -0.8462 -0.6722  1.1205
  139TMC2    C1 2158   2.657   1.369  13.643  0.2651  0.2082  0.5315
  139TMC2    C2 2159   2.765   1.447  13.640  0.1129  0.3698 -0.2290
  139TMC2    C3 2160   2.783   1.553  13.723  0.3408  0.5273 -0.0115
  139TMC2    C4 2161   2.557   1.410  13.730  0.4910 -0.8153 -0.2961
  139TMC2    C5 2162   2.582   1.513  13.823 -0.5125 -0.7774  0.5523
  139TMC2    C6 2163   2.695   1.588  13.820 -0.2229 -0.1114  0.4685
  139TMC2     C 2164   2.597   1.323  13.514 -0.2814  0.2020  0.0183
  139TMC2     O 2165   2.491   1.276  13.500  0.0063  0.7543  0.6274
  139TMC2     H 2166   2.847   1.433  13.570  0.0529  0.5001 -0.3253
  139TMC2    H1 2167   2.459   1.368  13.711 -0.5659  1.3302  0.3766
  139TMC2    H2 2168   2.708   1.687  13.862  2.1269 -0.3011  0.1898
  139TMC2    C7 2169   2.472   1.562  13.914  0.3146  0.3381  0.0846
  139TMC2    C8 2170   2.889   1.642  13.695 -0.4053 -0.1303  0.2602
  139TMC2    O1 2171   2.490   1.673  13.960 -0.8734  0.2586  0.7232
  139TMC2    O2 2172   2.927   1.664  13.580  0.4227 -0.0635 -0.1029
  139TMC2    O5 2173   2.919   1.717  13.804  0.4361 -0.3095  0.4276
  139TMC2    H5 2174   2.879   1.678  13.885  1.0331  1.2691  1.4746
  140MPD2     C 2175   2.786   1.283  13.195 -0.1281 -0.6861 -0.2683
  140MPD2    C1 2176   2.678   1.295  13.281  0.3653  0.1540 -0.2281
  140MPD2    C2 2177   2.552   1.285  13.220  0.1205  0.3077 -0.1187
  140MPD2    C3 2178   2.534   1.249  13.085 -0.2345 -0.5770  0.2229
  140MPD2    C4 2179   2.640   1.247  13.002  0.9371 -0.3013  0.1485
  140MPD2    C5 2180   2.762   1.266  13.057 -0.0575  0.2561 -0.0617
  140MPD2     H 2181   2.462   1.308  13.276 -1.5490 -2.6121 -1.5401
  140MPD2    H1 2182   2.637   1.231  12.895  1.1030 -0.4867  0.1713
  140MPD2    H2 2183   2.890   1.288  13.228  0.1328 -0.8548 -1.0745
  140MPD2    H3 2184   2.841   1.242  12.987  0.1584 -0.0435  0.2828
  140MPD2     N 2185   2.401   1.236  13.054 -0.6884  0.4548  0.0045
  140MPD2    H5 2186   2.331   1.236  13.127  1.1884 -0.6793  1.8090
  140MPD2    N1 2187   2.698   1.326  13.421  0.7486 -0.3271  0.0718
  140MPD2    H7 2188   2.793   1.356  13.439  0.4181  0.3968  0.5877
  141TMC2    C1 2189   3.232   3.911  13.836 -0.2864  0.1062 -0.5909
  141TMC2    C2 2190   3.281   3.983  13.735  0.4630 -0.5919  0.0276
  141TMC2    C3 2191   3.264   4.116  13.739 -0.4684  0.3872  0.1320
  141TMC2    C4 2192   3.172   3.972  13.950  0.1117  0.2733 -0.9202
  141TMC2    C5 2193   3.167   4.105  13.945  0.3263  0.6336  0.5260
  141TMC2    C6 2194   3.211   4.183  13.843  0.1143 -0.0220  0.4741
  141TMC2     C 2195   3.248   3.768  13.831  0.5900 -0.4425 -0.0403
  141TMC2     O 2196   3.321   3.725  13.745 -0.0019 -0.8319  0.0823
  141TMC2     H 2197   3.309   3.930  13.645  0.0289  0.8810 -0.9784
  141TMC2    H1 2198   3.115   3.927  14.030 -0.8163  0.8936 -1.2398
  141TMC2    H2 2199   3.219   4.290  13.856 -0.7618  0.0387  0.5184
  141TMC2    C7 2200   3.058   4.160  14.028 -0.4906  0.3381 -0.5235
  141TMC2    C8 2201   3.314   4.181  13.619  0.2004 -0.0989  0.8823
  141TMC2    O1 2202   2.988   4.248  13.975 -0.2001 -0.0078 -0.3527
  141TMC2    O2 2203   3.396   4.135  13.542 -0.4879  0.0173 -0.1638
  141TMC2    O5 2204   3.237   4.289  13.591 -0.5656 -1.0352  0.0626
  141TMC2    H5 2205   3.159   4.294  13.651 -1.1664  3.8213 -1.1439
  142TMC2    C1 2206   0.534   1.541  10.167 -0.0977 -0.2446  0.0256
  142TMC2    C2 2207   0.614   1.560  10.054 -0.1350 -0.0075 -0.5754
  142TMC2    C3 2208   0.663   1.690  10.036  0.2924  0.8876  0.7855
  142TMC2    C4 2209   0.506   1.635  10.257 -0.2910  0.2252  0.3652
  142TMC2    C5 2210   0.556   1.759  10.238 -0.0652  0.3699  0.1518
  142TMC2    C6 2211   0.641   1.782  10.130 -0.4617 -0.6348  0.4693
  142TMC2     C 2212   0.481   1.409  10.186  0.9617 -0.1849 -0.1972
  142TMC2     O 2213   0.524   1.330  10.107  0.0978 -0.3534 -0.4886
  142TMC2     H 2214   0.618   1.478   9.982 -0.3558 -1.4669  1.0850
  142TMC2    H1 2215   0.448   1.614  10.346  2.1991  1.7707  2.3145
  142TMC2    H2 2216   0.671   1.881  10.099 -1.3209  0.0832  1.9182
  142TMC2    C7 2217   0.531   1.849  10.343  0.1831  0.0494 -0.2835
  142TMC2    C8 2218   0.721   1.738   9.914  0.1334 -0.1815 -0.0181
  142TMC2    O1 2219   0.430   1.827  10.410  0.3080  0.0697 -0.6953
  142TMC2    O2 2220   0.753   1.856   9.890  0.0760 -0.3549  0.2414
  142TMC2    O5 2221   0.740   1.625   9.833 -0.5169 -0.0994 -0.6021
  142TMC2    H5 2222   0.687   1.545   9.855  0.3847 -0.5797 -0.2144
  143MPD2     C 2223   0.212   1.043  10.416  0.2177 -0.1248 -0.1587
  143MPD2    C1 2224   0.295   1.046  10.303 -0.3206  0.1906 -0.2567
  143MPD2    C2 2225   0.358   1.163  10.267  0.1624 -0.0636  0.1081
  143MPD2    C3 2226   0.345   1.276  10.338  0.2077  0.0956 -0.8520
  143MPD2    C4 2227   0.265   1.272  10.446 -0.6158 -0.0217 -0.1297
  143MPD2    C5 2228   0.198   1.163  10.483  0.1415 -0.1190 -0.0766
  143MPD2     H 2229   0.431   1.152  10.188  1.6308 -2.4442  1.8165
  143MPD2    H1 2230   0.242   1.360  10.505 -0.4912  0.6902 -1.1486
  143MPD2    H2 2231   0.164   0.956  10.460  0.4591  0.0595  0.4727
  143MPD2    H3 2232   0.151   1.167  10.581  0.1240  2.9159 -0.1914
  143MPD2     N 2233   0.404   1.396  10.296  0.6037  0.0518  0.6890
  143MPD2    H5 2234   0.384   1.485  10.341 -0.4813 -0.0048  0.3113
  143MPD2    N1 2235   0.309   0.926  10.232 -0.0018  0.7588 -0.8042
  143MPD2    H7 2236   0.260   0.848  10.274  0.9292  0.4264 -0.3158
  144TMC2    C1 2237   3.329   1.379   0.397  0.4554  0.5612 -0.3978
  144TMC2    C2 2238   3.397   1.355   0.284 -0.1403  0.3631 -0.5630
  144TMC2    C3 2239   3.517   1.403   0.263 -0.5414  0.6266  0.0245
  144TMC2    C4 2240   3.379   1.467   0.490 -0.0695  0.9484  0.3572
  144TMC2    C5 2241   3.510   1.512   0.465  0.5216 -0.2474  0.1440
  144TMC2    C6 2242   3.579   1.476   0.357  0.1738 -0.3093  0.1325
  144TMC2     C 2243   3.198   1.318   0.406  0.1412  0.2265  0.3481
  144TMC2     O 2244   3.161   1.246   0.310 -0.2868  0.2139 -0.1534
  144TMC2     H 2245   3.356   1.291   0.206 -2.4158  1.1859 -0.0563
  144TMC2    H1 2246   3.331   1.490   0.585 -0.4704  0.9292  0.1598
  144TMC2    H2 2247   3.671   1.531   0.341 -0.6440  0.5424 -1.7040
  144TMC2    C7 2248   3.587   1.559   0.574  0.4752  0.8133  0.8682
  144TMC2    C8 2249   3.610   1.357   0.161  0.5451  0.4031  0.1657
  144TMC2    O1 2250   3.702   1.524   0.573  0.6095  0.0331 -0.7222
  144TMC2    O2 2251   3.625   1.238   0.126 -0.1937 -0.0023 -0.4100
  144TMC2    O5 2252   3.647   1.462   0.097  0.1128 -0.4497  0.1657
  144TMC2    H5 2253   3.599   1.544   0.122  2.2414  1.1207 -0.9012
  145MPD2     C 2254   2.710   1.297   0.573 -0.2138 -0.4589 -0.5917
  145MPD2    C1 2255   2.768   1.295   0.446  0.5176 -0.3070  0.3167
  145MPD2    C2 2256   2.906   1.301   0.437  0.2698 -0.6944 -0.4246
  145MPD2    C3 2257   2.987   1.326   0.539 -0.5697  1.2475  0.3619
  145MPD2    C4 2258   2.930   1.332   0.666  0.3228  0.6445 -0.1018
  145MPD2    C5 2259   2.792   1.317   0.679 -0.7735 -0.1003  0.2823
  145MPD2     H 2260   2.947   1.300   0.337  1.7859  0.5601  0.1843
  145MPD2    H1 2261   2.986   1.360   0.754  0.2351 -3.3774  1.2312
  145MPD2    H2 2262   2.603   1.304   0.590  0.0919  3.0471 -0.1657
  145MPD2    H3 2263   2.746   1.322   0.777 -1.7674  2.4716 -0.3216
  145MPD2     N 2264   3.123   1.347   0.522 -0.5409  0.1422  0.0383
  145MPD2    H5 2265   3.185   1.378   0.596  0.5081 -0.3718 -0.6172
  145MPD2    N1 2266   2.692   1.287   0.328  0.2884  0.1796  0.6352
  145MPD2    H7 2267   2.737   1.252   0.244 -0.0355 -0.1909  0.6143
  146TMC2    C1 2268   4.691   4.164  12.359  0.0107 -0.6807 -0.5188
  146TMC2    C2 2269   4.586   4.181  12.273  0.4621 -0.1934  0.0038
  146TMC2    C3 2270   4.607   4.153  12.146  0.5266 -0.1628  0.0072
  146TMC2    C4 2271   0.077   4.124  12.320 -0.6397  0.5026  0.1318
  146TMC2    C5 2272   0.091   4.093  12.190 -0.4221  0.4003 -0.6328
  146TMC2    C6 2273   4.724   4.092  12.103 -0.2090  0.3816  0.1588
  146TMC2     C 2274   4.662   4.213  12.495  0.3596  0.0868  1.1305
  146TMC2     O 2275   4.590   4.314  12.510 -0.0279  0.0644 -0.0236
  146TMC2     H 2276   4.500   4.238  12.307  1.7565  2.0369 -0.4756
  146TMC2    H1 2277   0.159   4.148  12.387 -1.6135 -0.7951  1.7738
  146TMC2    H2 2278   4.737   4.056  12.001  4.3158  2.1994  0.0903
  146TMC2    C7 2279   0.214   4.038  12.146  0.4955 -0.0684  0.2231
  146TMC2    C8 2280   4.510   4.210  12.053 -0.2063  0.5142 -0.3491
  146TMC2    O1 2281   0.244   4.041  12.026 -0.3195  0.0614 -0.5248
  146TMC2    O2 2282   4.555   4.264  11.951  0.4843  0.4608 -0.5794
  146TMC2    O5 2283   4.381   4.186  12.080 -0.8774  0.3142  0.0609
  146TMC2    H5 2284   4.369   4.141  12.167 -1.0937  1.1116  0.4392
  147MPD2     C 2285   0.655   3.788  12.194  0.2241  1.0340 -0.2928
  147MPD2    C1 2286   0.590   3.788  12.315 -0.5489  0.2816  0.6841
  147MPD2    C2 2287   0.469   3.849  12.329 -0.0208  0.4228 -0.1881
  147MPD2    C3 2288   0.414   3.917  12.226 -0.3657 -0.2055  0.1668
  147MPD2    C4 2289   0.483   3.924  12.105  0.6411  0.2806  0.4618
  147MPD2    C5 2290   0.602   3.858  12.093 -0.4623 -0.7069 -0.0106
  147MPD2     H 2291   0.425   3.841  12.428 -1.4150 -1.5081 -0.9632
  147MPD2    H1 2292   0.448   3.971  12.014  0.0824 -0.0408  0.5080
  147MPD2    H2 2293   0.751   3.743  12.173 -0.8135 -0.1800 -2.4311
  147MPD2    H3 2294   0.649   3.865  11.995  1.8050 -0.5687  1.0927
  147MPD2     N 2295   0.288   3.978  12.246  0.3658  0.6243  0.3060
  147MPD2    H5 2296   0.244   3.962  12.336  1.1893 -0.2485  0.5497
  147MPD2    N1 2297   0.650   3.711  12.414  0.0589 -0.5084  0.4924
  147MPD2    H7 2298   0.736   3.663  12.391 -0.1179 -1.2415  1.3434
  148TMC2    C1 2299   4.106   2.782  10.600  0.1217  0.8597  0.0315
  148TMC2    C2 2300   4.126   2.814  10.727  0.0220  0.0964  0.0992
  148TMC2    C3 2301   4.193   2.728  10.812  1.0875  0.1775  0.1004
  148TMC2    C4 2302   4.162   2.674  10.542 -0.2184  0.1698 -0.4256
  148TMC2    C5 2303   4.239   2.597  10.624 -0.4501  0.7808  0.4212
  148TMC2    C6 2304   4.259   2.620  10.754  0.3406  0.6254 -0.0112
  148TMC2     C 2305   4.018   2.875  10.519 -0.2336  0.6020 -0.9555
  148TMC2     O 2306   4.002   2.986  10.565 -0.0083  0.5047 -1.0632
  148TMC2     H 2307   4.090   2.910  10.764 -0.8729 -0.1558 -0.1127
  148TMC2    H1 2308   4.149   2.652  10.437  0.9041 -1.4455 -0.2148
  148TMC2    H2 2309   4.303   2.546  10.820 -0.4192  1.6515  1.6660
  148TMC2    C7 2310   4.310   2.485  10.555  0.0865  0.2231 -0.2108
  148TMC2    C8 2311   4.206   2.751  10.958 -0.1965  0.0326 -0.3100
  148TMC2    O1 2312   4.257   2.443  10.455 -0.1919 -0.8844 -0.3413
  148TMC2    O2 2313   4.116   2.800  11.024  0.3136  0.1725 -0.4710
  148TMC2    O5 2314   4.318   2.692  11.004 -0.0621 -0.1815 -0.5827
  148TMC2    H5 2315   4.398   2.681  10.949  0.0947 -0.4070 -0.3099
  149MPD2     C 2316   3.825   3.024  10.338 -0.3993 -0.0926 -0.3495
  149MPD2    C1 2317   3.871   2.897  10.311  0.4134  1.4361  0.7202
  149MPD2    C2 2318   3.834   2.841  10.184 -0.0593 -0.2524 -0.2900
  149MPD2    C3 2319   3.769   2.915  10.084  0.2797 -0.3727  0.2603
  149MPD2    C4 2320   3.735   3.049  10.110 -0.0282 -0.7087 -0.5393
  149MPD2    C5 2321   3.766   3.095  10.235  0.0205 -0.5587 -0.0788
  149MPD2     H 2322   3.866   2.738  10.171  0.9757 -0.0573  0.7217
  149MPD2    H1 2323   3.689   3.119  10.042  1.3527  0.3935 -0.3341
  149MPD2    H2 2324   3.846   3.084  10.426 -0.5367 -3.4698  1.9712
  149MPD2    H3 2325   3.746   3.201  10.247 -0.6584 -0.9548  2.2913
  149MPD2     N 2326   3.739   2.868   9.953 -0.3726  0.6340 -0.2471
  149MPD2    H5 2327   3.676   2.926   9.900  0.1238  1.0396 -0.3969
  149MPD2    N1 2328   3.965   2.826  10.402 -0.2133  0.2822 -0.0463
  149MPD2    H7 2329   3.999   2.735  10.374  2.3233  1.5152 -0.9742
  150TMC2    C1 2330   1.509   2.183  12.012 -0.3339  0.3317  0.3291
  150TMC2    C2 2331   1.514   2.253  11.893  0.1801 -0.7048 -0.1534
  150TMC2    C3 2332   1.620   2.326  11.861 -0.1946  0.2042 -0.0058
  150TMC2    C4 2333   1.607   2.193  12.104 -0.3696 -0.4145 -0.0567
  150TMC2    C5 2334   1.713   2.267  12.067 -0.4785  0.2008 -0.7821
  150TMC2    C6 2335   1.725   2.328  11.947  0.6307  0.6431  0.0390
  150TMC2     C 2336   1.390   2.106  12.047  0.5347 -0.2172 -0.2947
  150TMC2     O 2337   1.369   2.076  12.164  0.3346  0.0883  0.5307
  150TMC2     H 2338   1.433   2.258  11.821 -0.2968  0.7967  0.5018
  150TMC2    H1 2339   1.600   2.143  12.200  1.5790 -0.8265 -0.1393
  150TMC2    H2 2340   1.803   2.403  11.941 -0.2438  1.5740  0.2692
  150TMC2    C7 2341   1.816   2.290  12.167  0.0860  0.3722  0.5190
  150TMC2    C8 2342   1.641   2.373  11.726 -0.3489  0.4063 -0.1309
  150TMC2    O1 2343   1.882   2.395  12.167  0.5627  0.5909  0.4903
  150TMC2    O2 2344   1.581   2.330  11.628  0.4299 -0.0441  0.3648
  150TMC2    O5 2345   1.676   2.506  11.746  0.2973  0.0766  0.4251
  150TMC2    H5 2346   1.680   2.524  11.842 -3.5280 -0.5000  0.6879
  151MPD2     C 2347   0.906   1.977  11.902  0.8118  0.3689  0.0453
  151MPD2    C1 2348   0.987   1.976  11.784  0.4879 -0.0200 -0.1808
  151MPD2    C2 2349   1.118   2.000  11.802  0.2304 -0.6920  0.4519
  151MPD2    C3 2350   1.179   2.034  11.921 -0.2671 -0.4181 -0.3585
  151MPD2    C4 2351   1.096   2.033  12.030  0.4681  0.3469 -0.2443
  151MPD2    C5 2352   0.965   2.002  12.020 -0.7424  0.1384 -0.7195
  151MPD2     H 2353   1.181   1.988  11.714  1.8113  2.2304  1.1802
  151MPD2    H1 2354   1.129   2.076  12.123 -0.4683  1.6611 -0.5227
  151MPD2    H2 2355   0.801   1.954  11.895  1.0762 -0.1986 -2.0672
  151MPD2    H3 2356   0.911   1.986  12.112  3.1687 -0.0072  1.5355
  151MPD2     N 2357   1.316   2.076  11.929  0.1440 -0.2023  0.1582
  151MPD2    H5 2358   1.363   2.098  11.842 -0.1769 -2.2915 -0.5168
  151MPD2    N1 2359   0.932   1.935  11.660  0.1592 -0.2710 -0.0797
  151MPD2    H7 2360   0.831   1.929  11.661  0.0762  0.8277 -2.6410
  152TMC2    C1 2361   2.032   2.055  13.330 -0.2350  0.4151  0.5063
  152TMC2    C2 2362   2.092   2.119  13.438 -0.0849  0.2267 -0.6222
  152TMC2    C3 2363   2.225   2.114  13.447 -0.4333  0.5736  0.2816
  152TMC2    C4 2364   2.112   1.997  13.230 -0.6396 -0.2595  0.0214
  152TMC2    C5 2365   2.243   1.988  13.245 -0.1687 -0.4188  0.6001
  152TMC2    C6 2366   2.305   2.049  13.351  0.0193  0.8022 -0.3484
  152TMC2     C 2367   1.899   2.098  13.285 -0.2546 -0.2316 -0.3275
  152TMC2     O 2368   1.888   2.117  13.165 -0.3853 -0.9254  0.4311
  152TMC2     H 2369   2.035   2.154  13.523  0.9380  0.9936 -0.2596
  152TMC2    H1 2370   2.068   1.955  13.141 -2.0554  1.2081  0.0429
  152TMC2    H2 2371   2.412   2.038  13.364 -0.5319 -1.8728  1.9405
  152TMC2    C7 2372   2.330   1.931  13.149 -0.2524 -0.7730  0.1659
  152TMC2    C8 2373   2.291   2.225  13.526  0.6423  0.3122  0.5140
  152TMC2    O1 2374   2.283   1.843  13.080 -0.4357 -0.0014 -0.5203
  152TMC2    O2 2375   2.280   2.220  13.647 -0.4801 -0.0414  0.6732
  152TMC2    O5 2376   2.398   2.250  13.449 -0.7365 -0.3897  0.7382
  152TMC2    H5 2377   2.370   2.241  13.356 -5.3057 -0.4026  2.0745
  153MPD2     C 2378   1.604   2.174  13.506 -0.4111  0.0254  0.1439
  153MPD2    C1 2379   1.683   2.173  13.389 -0.8068 -0.0869  0.2354
  153MPD2    C2 2380   1.625   2.209  13.264 -0.0727  0.7329 -0.9135
  153MPD2    C3 2381   1.492   2.242  13.250  0.3486 -0.2795 -0.3652
  153MPD2    C4 2382   1.410   2.240  13.362 -0.4918 -0.0061  0.4194
  153MPD2    C5 2383   1.466   2.208  13.481 -0.5033  0.7576  0.5144
  153MPD2     H 2384   1.680   2.204  13.171 -0.8273 -0.1704 -1.3129
  153MPD2    H1 2385   1.303   2.259  13.355 -0.6946  0.3863  4.5015
  153MPD2    H2 2386   1.640   2.154  13.607 -0.2555 -0.9491 -0.1047
  153MPD2    H3 2387   1.400   2.213  13.567  0.0102 -0.0868  0.9691
  153MPD2     N 2388   1.437   2.265  13.121 -0.1506 -0.4705 -0.2678
  153MPD2    H5 2389   1.507   2.275  13.048 -0.4348 -0.3698 -0.5244
  153MPD2    N1 2390   1.817   2.132  13.396 -0.5264 -0.1054 -0.6067
  153MPD2    H7 2391   1.846   2.096  13.487  0.4486  1.3945 -0.3263
  154TMC2    C1 2392   3.171   2.764  17.743 -0.2677  0.8510  0.2275
  154TMC2    C2 2393   3.277   2.817  17.681 -0.1233  0.1184  0.6212
  154TMC2    C3 2394   3.350   2.740  17.599 -0.0602  0.2299  0.0453
  154TMC2    C4 2395   3.139   2.629  17.723  0.0262 -0.3073 -0.3826
  154TMC2    C5 2396   3.212   2.559  17.633 -0.0268  0.2066 -0.4849
  154TMC2    C6 2397   3.329   2.607  17.584 -0.2623 -0.5090 -0.1436
  154TMC2     C 2398   3.077   2.857   0.052 -0.0445  0.0424 -0.8417
  154TMC2     O 2399   3.108   2.974   0.073 -0.1340  0.5588 -0.5525
  154TMC2     H 2400   3.285   2.925  17.678  2.7063 -0.0331  2.2105
  154TMC2    H1 2401   3.054   2.577   0.015  1.5021 -0.7241  2.0388
  154TMC2    H2 2402   3.394   2.547  17.521  0.7572  0.2123  0.2041
  154TMC2    C7 2403   3.175   2.418  17.622  0.4491 -0.0463  0.1564
  154TMC2    C8 2404   3.480   2.783  17.557 -0.7768  0.0966 -0.9201
  154TMC2    O1 2405   3.054   2.399  17.608 -0.1097 -0.5629 -0.7842
  154TMC2    O2 2406   3.568   2.701  17.531 -0.4537 -0.0413 -0.0892
  154TMC2    O5 2407   3.505   2.903  17.615 -0.0751  0.7035  0.4969
  154TMC2    H5 2408   3.439   2.966  17.582 -1.7347 -0.5374  1.4153
  155MPD2     C 2409   2.717   2.812   0.085 -0.5450  0.4341 -1.1690
  155MPD2    C1 2410   2.837   2.857   0.121 -0.4519 -0.4564  0.2359
  155MPD2    C2 2411   2.845   2.949   0.220 -0.4711  0.8973 -0.2270
  155MPD2    C3 2412   2.733   3.010   0.271 -1.1224  0.2457  0.0221
  155MPD2    C4 2413   2.608   2.959   0.242 -0.1982  0.0244 -0.3729
  155MPD2    C5 2414   2.600   2.858   0.152  0.3787 -0.3670 -0.0294
  155MPD2     H 2415   2.942   2.986   0.251 -0.0997 -1.0068  0.8965
  155MPD2    H1 2416   2.516   3.001   0.281 -0.4848 -2.9773  2.1919
  155MPD2    H2 2417   2.694   2.739   0.008  1.4409 -1.5742  0.1648
  155MPD2    H3 2418   2.498   2.840   0.122  0.8948 -0.6853 -1.5718
  155MPD2     N 2419   2.750   3.114   0.373  0.2441 -0.3621  0.1708
  155MPD2    H5 2420   2.836   3.119   0.427 -0.7572 -0.5404  1.7659
  155MPD2    N1 2421   2.947   2.800   0.061 -0.5954  0.2064 -0.1306
  155MPD2    H7 2422   2.931   2.712   0.012  1.3881 -0.3372  0.2168
  156TMC2    C1 2423   2.344   4.661  12.388  1.0498  0.2777  0.3402
  156TMC2    C2 2424   2.481   4.678  12.396 -0.2341  0.1240  0.6781
  156TMC2    C3 2425   2.555   4.628  12.297 -0.3141 -0.5112 -0.3722
  156TMC2    C4 2426   2.289   4.583  12.287 -0.5903 -0.3840 -0.5821
  156TMC2    C5 2427   2.372   4.524  12.198 -0.4806  0.0643 -0.1167
  156TMC2    C6 2428   2.505   4.548  12.199 -0.1316  0.5699 -0.6849
  156TMC2     C 2429   2.253   4.722  12.481  0.2632  0.2299  0.3509
  156TMC2     O 2430   2.134   4.718  12.448  0.1667 -0.1604  0.4888
  156TMC2     H 2431   2.531   4.715  12.484 -1.6950 -0.3325  1.7014
  156TMC2    H1 2432   2.182   4.568  12.281 -0.5137 -1.0657 -0.3197
  156TMC2    H2 2433   2.560   4.497  12.121 -0.7009  1.1907 -1.5005
  156TMC2    C7 2434   2.315   4.452  12.088 -0.1196  0.2672 -0.1817
  156TMC2    C8 2435   2.690   4.650  12.289  0.2615  0.0271 -0.3059
  156TMC2    O1 2436   2.376   4.353  12.046  0.7752 -0.6416  0.3003
  156TMC2    O2 2437   2.758   4.651  12.392  0.1334  0.0870  0.4151
  156TMC2    O5 2438   2.723   4.649  12.157 -0.3612 -0.2419 -0.1291
  156TMC2    H5 2439   2.655   4.670  12.090 -0.1088  1.5509  0.1763
  157MPD2     C 2440   2.319   0.175  12.787 -0.3058 -1.0173 -0.3837
  157MPD2    C1 2441   2.242   0.096  12.709  0.1388 -0.3482  0.5863
  157MPD2    C2 2442   2.102   0.090  12.722  0.0927 -0.2236  0.6011
  157MPD2    C3 2443   2.038   0.145  12.830 -0.0155 -0.5566 -0.7397
  157MPD2    C4 2444   2.119   0.229  12.909  0.4999 -0.3471  0.4550
  157MPD2    C5 2445   2.253   0.243  12.886  0.0466  0.0590 -0.0278
  157MPD2     H 2446   2.041   0.024  12.663 -0.2732  1.1423 -0.5492
  157MPD2    H1 2447   2.080   0.274  12.999  1.7721 -0.7174  1.1879
  157MPD2    H2 2448   2.424   0.176  12.761  0.2400 -0.3927  1.8208
  157MPD2    H3 2449   2.304   0.313  12.952  0.0503 -0.4430  0.5054
  157MPD2     N 2450   1.905   0.117  12.842  0.7415 -0.0753 -0.1795
  157MPD2    H5 2451   1.849   0.078  12.767 -0.1694  0.6806  0.1096
  157MPD2    N1 2452   2.309   0.028  12.601  0.4538 -0.1311  0.6010
  157MPD2    H7 2453   2.408   0.007  12.605  0.9804  2.1411 -0.5299
  158TMC2    C1 2454   2.572   2.610  13.480  0.6900 -0.0664  0.3505
  158TMC2    C2 2455   2.598   2.670  13.362  0.8575  0.2618 -0.3448
  158TMC2    C3 2456   2.493   2.723  13.295 -0.6941 -0.1368  0.3307
  158TMC2    C4 2457   2.448   2.593  13.530 -0.0665 -0.0579  0.7270
  158TMC2    C5 2458   2.343   2.639  13.452  0.1826  0.4759  0.4340
  158TMC2    C6 2459   2.365   2.721  13.342  0.1065 -0.6562  0.2156
  158TMC2     C 2460   2.692   2.570  13.548  0.1800 -0.1627  0.7717
  158TMC2     O 2461   2.782   2.531  13.474  0.0075  0.4722 -0.1993
  158TMC2     H 2462   2.699   2.679  13.322  1.4732 -1.3393  0.8642
  158TMC2    H1 2463   2.427   2.523  13.610  2.2000 -0.4773  0.9591
  158TMC2    H2 2464   2.282   2.753  13.281  2.4442  0.5326 -2.3027
  158TMC2    C7 2465   2.201   2.602  13.476 -0.0629 -0.2632 -0.1037
  158TMC2    C8 2466   2.513   2.742  13.155  0.4046  0.8570 -0.3545
  158TMC2    O1 2467   2.121   2.624  13.386 -0.3514 -0.9230 -0.2870
  158TMC2    O2 2468   2.601   2.682  13.092  0.3352  0.7170  0.1979
  158TMC2    O5 2469   2.456   2.861  13.139  0.5255 -0.0006 -0.1823
  158TMC2    H5 2470   2.419   2.910  13.215  2.7103  0.1021  0.7949
  159MPD2     C 2471   2.954   2.438  13.965 -0.0596 -0.6791  0.4868
  159MPD2    C1 2472   2.858   2.526  14.000  1.0204  0.4341 -0.0732
  159MPD2    C2 2473   2.767   2.571  13.902 -0.1238 -0.1760 -0.4178
  159MPD2    C3 2474   2.773   2.527  13.773  0.5308 -0.3578 -0.4086
  159MPD2    C4 2475   2.864   2.434  13.743 -0.5662  0.2586 -0.4449
  159MPD2    C5 2476   2.956   2.389  13.836 -0.2069  1.1664  0.0547
  159MPD2     H 2477   2.693   2.642  13.935 -2.1200 -2.4684  0.0530
  159MPD2    H1 2478   2.877   2.390  13.645  2.3284 -2.8980  1.3265
  159MPD2    H2 2479   3.024   2.389  14.031  1.9708  1.4181 -0.1026
  159MPD2    H3 2480   3.033   2.317  13.811 -1.4935 -0.4198  0.6998
  159MPD2     N 2481   2.681   2.579  13.677 -0.2836 -0.0466  0.0145
  159MPD2    H5 2482   2.599   2.627  13.713 -2.1895 -1.8482 -2.0084
  159MPD2    N1 2483   2.861   2.580  14.132  0.5537 -0.7044  0.7816
  159MPD2    H7 2484   2.918   2.531  14.200 -0.5004 -1.8594  0.8217
  160TMC2    C1 2485   1.799   2.013   1.525  0.1058  0.6900 -0.2488
  160TMC2    C2 2486   1.785   1.922   1.617  0.1279  0.0292  0.3971
  160TMC2    C3 2487   1.894   1.836   1.629 -0.3496  0.2123  0.2647
  160TMC2    C4 2488   1.917   2.037   1.451 -0.0704  0.0199  0.2659
  160TMC2    C5 2489   2.022   1.949   1.474  0.1430 -0.5379  0.1461
  160TMC2    C6 2490   2.000   1.841   1.545 -0.6453  0.1127  0.4602
  160TMC2     C 2491   1.729   2.137   1.555 -0.3602  0.6045 -0.4502
  160TMC2     O 2492   1.718   2.169   1.674  0.5564 -0.1607 -0.3654
  160TMC2     H 2493   1.713   1.921   1.697  3.1190  0.8330  3.1090
  160TMC2    H1 2494   1.918   2.114   1.375  1.4941 -0.2420  0.0263
  160TMC2    H2 2495   2.066   1.755   1.537  1.4069  1.7652 -0.2693
  160TMC2    C7 2496   2.144   1.952   1.393  0.2234  0.1268  0.1701
  160TMC2    C8 2497   1.896   1.736   1.733 -0.1376 -0.4758 -0.0051
  160TMC2    O1 2498   2.203   1.846   1.380  0.0292 -0.1680  0.4366
  160TMC2    O2 2499   1.822   1.735   1.832  0.3799  0.0962  0.4655
  160TMC2    O5 2500   1.926   1.617   1.667  0.6031  0.0128 -0.2698
  160TMC2    H5 2501   1.939   1.620   1.570 -0.0380  0.1441 -0.3508
  161MPD2     C 2502   1.606   2.395   1.550  0.3636  0.4688 -0.1698
  161MPD2    C1 2503   1.655   2.334   1.437  0.3174 -0.1764 -0.1806
  161MPD2    C2 2504   1.648   2.400   1.313 -0.2206  0.2761 -0.1445
  161MPD2    C3 2505   1.594   2.525   1.303  0.5370  0.4325  0.6789
  161MPD2    C4 2506   1.545   2.586   1.423 -0.0243 -0.1111  0.9955
  161MPD2    C5 2507   1.553   2.524   1.540  0.2455 -0.7048  0.6427
  161MPD2     H 2508   1.689   2.347   1.228 -0.2001  1.0975 -0.6428
  161MPD2    H1 2509   1.517   2.691   1.428 -1.8998 -0.6860  2.4537
  161MPD2    H2 2510   1.616   2.355   1.650 -0.0832 -0.3818 -0.4677
  161MPD2    H3 2511   1.510   2.570   1.628 -0.0019  0.8049 -0.2874
  161MPD2     N 2512   1.581   2.596   1.180  0.2057 -0.5957  0.4286
  161MPD2    H5 2513   1.563   2.696   1.187  2.3897 -0.2171  0.6074
  161MPD2    N1 2514   1.712   2.210   1.440  0.4850  0.1334  0.4859
  161MPD2    H7 2515   1.735   2.172   1.349 -0.1801  3.4863 -1.0850
  162TMC2    C1 2516   4.589   4.261   1.134  0.1021  1.0049 -0.1886
  162TMC2    C2 2517   4.515   4.363   1.184  0.1928  0.6583  0.4592
  162TMC2    C3 2518   4.576   4.452   1.272  0.4374  0.4409  0.0563
  162TMC2    C4 2519   4.719   4.245   1.172 -0.2353  0.7467  0.0582
  162TMC2    C5 2520   0.038   4.328   1.265  0.1511  0.8479 -0.4717
  162TMC2    C6 2521   4.702   4.434   1.319  0.6064  0.0986  0.5721
  162TMC2     C 2522   4.534   4.172   1.038  0.2821  0.8901 -0.0634
  162TMC2     O 2523   4.602   4.077   0.995 -0.0592  0.1765  0.1501
  162TMC2     H 2524   4.408   4.368   1.166 -0.0593 -0.9170  1.5161
  162TMC2    H1 2525   0.034   4.164   1.122 -0.5666  0.2987  0.4352
  162TMC2    H2 2526   0.008   4.485   1.403  1.7284 -1.9796  1.2464
  162TMC2    C7 2527   0.172   4.309   1.309 -0.0065 -0.1816  0.4152
  162TMC2    C8 2528   4.485   4.546   1.339 -0.0050  0.6034 -0.9509
  162TMC2    O1 2529   0.215   4.380   1.396  0.1320  0.1779 -0.4930
  162TMC2    O2 2530   4.515   4.598   1.446 -0.0671 -0.8508  0.3868
  162TMC2    O5 2531   4.416   4.619   1.243  0.4272  0.5319 -0.0619
  162TMC2    H5 2532   4.422   4.578   1.154  0.0617 -1.1035  0.6516
  163MPD2     C 2533   4.158   4.012   0.707 -0.3377  0.0131 -0.2149
  163MPD2    C1 2534   4.283   3.962   0.727  0.0477 -0.3302  0.0428
  163MPD2    C2 2535   4.364   4.013   0.833  0.3556 -0.6206 -0.1619
  163MPD2    C3 2536   4.315   4.115   0.913 -0.1270 -0.0077 -0.3584
  163MPD2    C4 2537   4.198   4.165   0.887  0.3261 -0.0375  0.3933
  163MPD2    C5 2538   4.118   4.114   0.785 -0.0315  0.3253 -0.0941
  163MPD2     H 2539   4.464   3.976   0.851  0.2882 -0.8714 -0.3007
  163MPD2    H1 2540   4.149   4.250   0.932  1.1373 -0.3487  1.8585
  163MPD2    H2 2541   4.089   3.966   0.637 -0.6917 -2.0433  1.4741
  163MPD2    H3 2542   4.017   4.152   0.776  0.4118  2.3094  3.3124
  163MPD2     N 2543   4.397   4.199   1.005 -0.1526  0.0075  0.2482
  163MPD2    H5 2544   4.350   4.278   1.049 -1.1872  0.7887 -2.2880
  163MPD2    N1 2545   4.319   3.850   0.650  1.0512  0.4364 -0.4608
  163MPD2    H7 2546   4.250   3.825   0.580  1.2723  2.6338 -1.4591
  164TMC2    C1 2547   0.329   3.154  10.787  0.0392 -0.1255  0.0790
  164TMC2    C2 2548   0.436   3.208  10.859 -0.8202 -0.3691 -0.5763
  164TMC2    C3 2549   0.397   3.267  10.976 -0.8492  0.2359  0.2153
  164TMC2    C4 2550   0.197   3.166  10.829  0.5027 -0.7962  0.2523
  164TMC2    C5 2551   0.172   3.224  10.950 -1.2850 -0.1559  0.0968
  164TMC2    C6 2552   0.271   3.272  11.031  0.7027  0.0958 -0.2524
  164TMC2     C 2553   0.349   3.052  10.682 -0.3645 -0.0672  0.5538
  164TMC2     O 2554   0.255   2.974  10.655  0.0454  0.3038 -0.2466
  164TMC2     H 2555   0.542   3.194  10.839 -0.7930  1.1604 -1.5283
  164TMC2    H1 2556   0.117   3.119  10.773 -0.2053  1.2096 -0.4207
  164TMC2    H2 2557   0.257   3.311  11.131 -2.3366 -2.1641  0.1961
  164TMC2    C7 2558   0.036   3.206  10.998  0.4802  0.2979 -0.2867
  164TMC2    C8 2559   0.515   3.317  11.055 -0.4214 -0.5538 -0.0491
  164TMC2    O1 2560   4.698   3.147  10.925 -0.4287 -0.1612  0.3891
  164TMC2    O2 2561   0.630   3.276  11.031  0.2383  0.1768  0.4296
  164TMC2    O5 2562   0.472   3.421  11.125 -0.7605  0.3924  0.5908
  164TMC2    H5 2563   0.381   3.438  11.094  0.5694  3.8111 -1.4564
  165TMC2    C1 2564   2.318   1.303   2.061  0.7090  0.6251 -0.2676
  165TMC2    C2 2565   2.238   1.238   1.978  0.2905  0.4778  0.2412
  165TMC2    C3 2566   2.127   1.305   1.928 -0.1442 -0.2008  0.1998
  165TMC2    C4 2567   2.306   1.429   2.092  0.1756  0.7131  0.2173
  165TMC2    C5 2568   2.227   1.503   2.009  0.7067 -0.0589 -0.0350
  165TMC2    C6 2569   2.131   1.441   1.934 -0.2798 -0.2224 -0.1823
  165TMC2     C 2570   2.454   1.269   2.020 -0.1501  0.4259 -0.0830
  165TMC2     O 2571   2.474   1.155   1.980 -0.0396 -0.3584 -0.1817
  165TMC2     H 2572   2.247   1.132   1.959 -0.4729  0.0459  2.3503
  165TMC2    H1 2573   2.380   1.483   2.150 -0.7633 -0.8949  2.9397
  165TMC2    H2 2574   2.067   1.495   1.866 -3.0676 -2.4222  0.7277
  165TMC2    C7 2575   2.274   1.628   1.963 -0.4130  0.0549  0.1860
  165TMC2    C8 2576   2.051   1.225   1.829 -0.4984 -0.4884  0.1569
  165TMC2    O1 2577   2.396   1.647   1.964 -0.0957  0.3123  0.1753
  165TMC2    O2 2578   2.105   1.137   1.765  0.2042  0.2102 -0.1595
  165TMC2    O5 2579   1.935   1.291   1.816  0.1571 -1.0105  0.2797
  165TMC2    H5 2580   1.913   1.357   1.885  0.4527  1.0022 -1.5188
  166MPD2     C 2581   2.918   1.359   1.820 -0.0705  0.1904 -0.2006
  166MPD2    C1 2582   2.860   1.244   1.883 -0.0607  0.4660  0.4116
  166MPD2    C2 2583   2.735   1.257   1.943 -0.5819  0.3181  0.6354
  166MPD2    C3 2584   2.657   1.371   1.937  1.0155 -0.1600  0.1788
  166MPD2    C4 2585   2.713   1.474   1.875  0.0696  0.3842  0.4775
  166MPD2    C5 2586   2.832   1.469   1.816  0.2479  0.6255 -0.2531
  166MPD2     H 2587   2.707   1.171   2.002 -0.7224  0.5016  0.8342
  166MPD2    H1 2588   2.655   1.565   1.864  0.7538  0.6587 -0.9268
  166MPD2    H2 2589   3.011   1.369   1.766 -0.6143  0.5733 -1.0672
  166MPD2    H3 2590   2.868   1.556   1.763 -0.6359  0.3337 -1.3356
  166MPD2     N 2591   2.527   1.378   1.986 -0.3798 -0.1380  0.7566
  166MPD2    H5 2592   2.474   1.464   1.976 -0.1555 -0.0158  0.6260
  166MPD2    N1 2593   2.930   1.125   1.872 -0.3379 -0.5303  0.5218
  166MPD2    H7 2594   3.024   1.128   1.833 -1.2823  2.0978 -1.5574
  167TMC2    C1 2595   0.095   2.628  12.578 -0.1089 -0.7219 -0.0712
  167TMC2    C2 2596   0.036   2.726  12.654  0.5948  0.4760 -0.4838
  167TMC2    C3 2597   4.703   2.680  12.765  0.0535 -0.1160 -0.3999
  167TMC2    C4 2598   0.073   2.498  12.595 -0.2146 -0.9606  1.1379
  167TMC2    C5 2599   4.730   2.464  12.693  0.5146  0.1272  0.5255
  167TMC2    C6 2600   4.673   2.545  12.782  0.1618  0.0953 -0.3300
  167TMC2     C 2601   0.189   2.664  12.476 -0.4848 -0.0928  0.0123
  167TMC2     O 2602   0.175   2.769  12.424  0.2303 -0.2518 -0.2517
  167TMC2     H 2603   0.066   2.825  12.622 -0.8896  0.5501 -1.6613
  167TMC2    H1 2604   0.127   2.428  12.531  0.3109  3.3126 -3.1462
  167TMC2    H2 2605   4.627   2.517  12.876 -0.1425 -0.2538 -0.5879
  167TMC2    C7 2606   4.695   2.314  12.687  0.4980  0.1360 -0.0691
  167TMC2    C8 2607   4.672   2.764  12.876  0.0628 -0.2626 -0.6935
  167TMC2    O1 2608   4.657   2.262  12.790 -0.0483 -0.3572 -0.7173
  167TMC2    O2 2609   4.585   2.740  12.957 -0.7029 -0.0281 -0.1969
  167TMC2    O5 2610   4.698   2.891  12.834 -0.6080 -0.5600  0.0001
  167TMC2    H5 2611   0.047   2.903  12.790 -1.1531  2.6329 -0.2408
  168MPD2     C 2612   0.461   2.479  12.312 -0.8083 -0.5105  0.4030
  168MPD2    C1 2613   0.359   2.570  12.323 -0.1597 -0.2071  0.4518
  168MPD2    C2 2614   0.327   2.652  12.211  0.0597 -0.1126  0.6901
  168MPD2    C3 2615   0.403   2.643  12.098  0.2024 -0.1543  0.6179
  168MPD2    C4 2616   0.501   2.554  12.091 -0.1788 -0.9209 -0.4123
  168MPD2    C5 2617   0.535   2.474  12.198  0.2030 -0.9779 -0.1841
  168MPD2     H 2618   0.235   2.708  12.209  0.6228  0.7631 -1.4457
  168MPD2    H1 2619   0.560   2.544  12.001 -2.0034  3.1813 -2.0339
  168MPD2    H2 2620   0.493   2.416  12.394 -1.9521 -3.1632 -1.1732
  168MPD2    H3 2621   0.620   2.407  12.196 -0.7214 -2.1105 -1.0921
  168MPD2     N 2622   0.361   2.694  11.976 -0.1431 -0.2312 -0.2504
  168MPD2    H5 2623   0.419   2.672  11.896 -1.5225  1.6477 -1.7396
  168MPD2    N1 2624   0.287   2.569  12.445 -0.1905 -0.0226 -0.0506
  168MPD2    H7 2625   0.307   2.493  12.509  0.9804  0.6207  0.3441
  169MPD1     C 2626   1.692   1.376   8.169 -0.2742 -0.6814  0.6089
  169MPD1    C1 2627   1.768   1.487   8.194 -0.0590  0.1721 -0.0044
  169MPD1    C2 2628   1.783   1.524   8.321 -0.0403 -0.4267 -0.4014
  169MPD1    C3 2629   1.728   1.451   8.429  0.4746  0.3273  0.6169
  169MPD1    C4 2630   1.661   1.333   8.405 -0.6362  0.0175  0.3358
  169MPD1    C5 2631   1.648   1.296   8.270  0.5510  0.9523  0.1023
  169MPD1     H 2632   1.838   1.617   8.334 -0.8449  0.1190 -0.8607
  169MPD1    H1 2633   1.604   1.276   8.477 -0.5071 -2.1047 -1.2169
  169MPD1    H2 2634   1.658   1.353   8.069  0.7601 -1.3650  0.4121
  169MPD1    H3 2635   1.587   1.210   8.247  2.3643 -0.3314  0.0398
  169MPD1     N 2636   1.739   1.506   8.563 -0.0014 -0.1882 -0.9212
  169MPD1    H5 2637   1.785   1.596   8.565 -1.5096  0.5671 -0.6717
  169MPD1    N1 2638   1.796   1.575   8.093  0.7879  0.1524 -0.5210
  169MPD1    H6 2639   1.873   1.640   8.110 -0.5786  0.8924  2.8992
  169MPD1    H7 2640   1.713   1.631   8.075  2.4470  2.4664 -1.0183
  170MPD1     C 2641   0.943   0.299  12.816 -1.0793 -0.3068 -0.3906
  170MPD1    C1 2642   0.963   0.297  12.955  0.1912  0.4615 -0.3385
  170MPD1    C2 2643   0.852   0.341  13.026  0.2839 -0.1994 -0.0360
  170MPD1    C3 2644   0.734   0.388  12.973  0.1398  0.4315 -0.4166
  170MPD1    C4 2645   0.728   0.410  12.834  0.2407 -0.0963 -0.6922
  170MPD1    C5 2646   0.833   0.354  12.762 -0.7856 -0.2139  0.7163
  170MPD1     H 2647   0.862   0.330  13.134  2.3273  2.2416  0.0143
  170MPD1    H1 2648   0.653   0.465  12.778  1.4927  1.3285 -0.9848
  170MPD1    H2 2649   1.018   0.265  12.746 -0.0505 -0.3627  0.7429
  170MPD1    H3 2650   0.824   0.374  12.656  4.8517 -0.7607  0.1391
  170MPD1     N 2651   0.631   0.434  13.058  0.0522 -0.7060  0.0258
  170MPD1    H5 2652   0.643   0.409  13.155 -0.5908 -1.0579  0.0163
  170MPD1    N1 2653   1.071   0.233  13.017  0.4233  0.4734 -0.1400
  170MPD1    H6 2654   1.146   0.232  12.948  0.2394  2.1452 -0.3775
  170MPD1    H7 2655   1.087   0.274  13.109  1.9503  1.0711 -0.6776
  171MPD1     C 2656   3.982   2.161  15.190 -0.2382  0.7086  0.0011
  171MPD1    C1 2657   3.974   2.051  15.108  0.4574  0.3801  0.8641
  171MPD1    C2 2658   4.017   1.926  15.163 -0.9042  0.0664 -0.3500
  171MPD1    C3 2659   4.078   1.920  15.283  0.3479  0.4141  0.2112
  171MPD1    C4 2660   4.093   2.035  15.358  0.0113 -0.1124  0.7133
  171MPD1    C5 2661   4.038   2.156  15.311  0.4265 -0.5695 -0.6831
  171MPD1     H 2662   4.001   1.838  15.102  2.4629 -1.0501  0.3606
  171MPD1    H1 2663   4.129   2.030  15.460 -0.8072 -0.3864  0.9956
  171MPD1    H2 2664   3.950   2.259  15.156  3.6873  1.5096 -1.3480
  171MPD1    H3 2665   4.045   2.249  15.366 -3.6567  0.6464 -2.2040
  171MPD1     N 2666   4.115   1.805  15.353  0.2357  0.0974  0.0214
  171MPD1    H5 2667   4.148   1.818  15.448 -0.0319  0.8439  0.0145
  171MPD1    N1 2668   3.901   2.048  14.985  0.0194 -0.1137 -0.5360
  171MPD1    H6 2669   3.939   1.974  14.927  1.0916 -0.2287  0.3074
  171MPD1    H7 2670   3.912   2.137  14.937 -2.1790 -0.5644 -1.8455
  172MPD1     C 2671   3.875   2.301   0.909 -0.1310 -0.0113  0.3108
  172MPD1    C1 2672   3.873   2.162   0.908 -0.2273  0.9037  0.8167
  172MPD1    C2 2673   3.790   2.102   0.814 -0.2563 -0.4431  0.3152
  172MPD1    C3 2674   3.716   2.186   0.725 -0.1603 -0.3829  0.3856
  172MPD1    C4 2675   3.723   2.323   0.727 -0.1341 -0.1652 -0.4804
  172MPD1    C5 2676   3.801   2.376   0.821  0.4481 -0.2383  0.4273
  172MPD1     H 2677   3.790   1.994   0.805 -1.6405 -0.3042 -1.2714
  172MPD1    H1 2678   3.687   2.387   0.647  2.3611  0.1473 -1.3563
  172MPD1    H2 2679   3.930   2.360   0.982  1.7820  1.1305 -2.0901
  172MPD1    H3 2680   3.813   2.484   0.823 -2.3177  0.0285  1.5065
  172MPD1     N 2681   3.635   2.143   0.624  0.3510  0.4045  0.8332
  172MPD1    H5 2682   3.581   2.217   0.580 -1.1802 -0.0529  1.9276
  172MPD1    N1 2683   3.972   2.083   0.975 -0.4769  0.2944  0.1276
  172MPD1    H6 2684   3.994   2.118   1.068 -0.1307  3.7953 -1.2612
  172MPD1    H7 2685   3.961   1.982   0.970 -0.5003  0.1913  2.1809
  173MPD1     C 2686   4.547   0.910  13.634 -0.2122  0.4259 -0.2151
  173MPD1    C1 2687   4.453   0.875  13.736 -0.2790 -0.0173 -0.8227
  173MPD1    C2 2688   4.490   0.769  13.826  0.5472 -0.0018 -0.0130
  173MPD1    C3 2689   4.618   0.706  13.821  0.6601  0.0730  0.0535
  173MPD1    C4 2690   4.707   0.752  13.727 -0.0952  0.4504  0.1013
  173MPD1    C5 2691   4.669   0.845  13.633 -0.2791  0.4970  0.5354
  173MPD1     H 2692   4.419   0.740  13.903 -0.1410 -0.9527 -0.9964
  173MPD1    H1 2693   0.074   0.726  13.720 -0.4444 -0.2890 -2.4877
  173MPD1    H2 2694   4.518   0.981  13.557 -0.3618  0.9648  0.3348
  173MPD1    H3 2695   4.738   0.878  13.556 -0.8614 -0.2616 -0.3091
  173MPD1     N 2696   4.660   0.609  13.911  0.3291  0.3742  0.1816
  173MPD1    H5 2697   4.595   0.593  13.988  0.3879  0.7497  0.3060
  173MPD1    N1 2698   4.333   0.946  13.738  0.2937 -0.2008 -0.4224
  173MPD1    H6 2699   4.343   1.044  13.710 -0.9175  0.3765  1.1550
  173MPD1    H7 2700   4.257   0.927  13.803 -0.0209  3.6877  0.3753
  174MPD1     C 2701   0.059   4.304  14.135 -0.0655 -0.7051  0.0446
  174MPD1    C1 2702   0.079   4.362  14.010  0.5398  0.5888  0.2914
  174MPD1    C2 2703   0.053   4.500  13.992 -0.1486  0.0420 -0.2404
  174MPD1    C3 2704   4.724   4.567  14.089 -0.3016 -0.1623  0.5184
  174MPD1    C4 2705   4.689   4.502  14.207 -0.2406 -0.1246  0.5642
  174MPD1    C5 2706   4.734   4.376  14.234 -0.8497 -0.0259  0.2769
  174MPD1     H 2707   0.075   4.542  13.894  1.1108 -0.4466 -0.1739
  174MPD1    H1 2708   4.648   4.561  14.288 -2.0271  0.4531 -0.7300
  174MPD1    H2 2709   0.088   4.202  14.153 -1.0817 -0.8747  0.7075
  174MPD1    H3 2710   4.709   4.335  14.331  0.3925  0.0769  0.6357
  174MPD1     N 2711   4.705   4.707  14.097  0.0533  0.0842 -0.5133
  174MPD1    H5 2712   4.648   0.000  14.175  0.8180 -0.0776  0.1218
  174MPD1    N1 2713   0.140   4.285  13.908  0.3101 -0.0179 -0.5760
  174MPD1    H6 2714   0.127   4.184  13.920  1.3353 -0.1975 -0.9938
  174MPD1    H7 2715   0.117   4.320  13.815 -0.4912  1.1348  0.0599
  175MPD1     C 2716   3.111   1.630  15.331  0.0566  0.9147  0.3030
  175MPD1    C1 2717   3.004   1.720  15.347  0.9322  0.5837  0.8595
  175MPD1    C2 2718   2.953   1.743  15.471  0.0566 -0.5846 -0.4613
  175MPD1    C3 2719   2.999   1.666  15.580 -0.0019  0.2154  0.2341
  175MPD1    C4 2720   3.111   1.588  15.566 -0.3728  0.2572 -0.0836
  175MPD1    C5 2721   3.170   1.573  15.439 -0.1077 -0.3525 -0.5703
  175MPD1     H 2722   2.875   1.817  15.486  0.6595 -0.6785  3.1244
  175MPD1    H1 2723   3.157   1.540  15.652 -0.0199  3.1086  1.3413
  175MPD1    H2 2724   3.149   1.602  15.233 -0.6805  0.3639  0.1723
  175MPD1    H3 2725   3.248   1.501  15.418  0.7042  0.0508  1.0677
  175MPD1     N 2726   2.942   1.679  15.709 -0.2721 -0.1952 -0.0852
  175MPD1    H5 2727   2.997   1.642  15.786 -1.1530  1.0532  1.1326
  175MPD1    N1 2728   2.959   1.792  15.237 -0.0460  0.1298 -0.0766
  175MPD1    H6 2729   2.857   1.795  15.242 -0.0206  0.1245  0.4426
  175MPD1    H7 2730   2.981   1.746  15.149  1.7062  0.7164  0.0466
  176MPD1     C 2731   4.492   3.819  17.317 -0.3561 -0.2033 -0.1640
  176MPD1    C1 2732   4.487   3.903  17.209 -0.1952 -0.1115  0.5358
  176MPD1    C2 2733   4.551   4.026  17.218 -0.1349 -0.5432 -0.0524
  176MPD1    C3 2734   4.596   4.071  17.340  0.6005 -0.5301 -0.1799
  176MPD1    C4 2735   4.585   3.989  17.452 -0.7863  0.2397 -0.0104
  176MPD1    C5 2736   4.537   3.861  17.437 -0.1475  0.1461  0.3212
  176MPD1     H 2737   4.563   4.096  17.136  0.4674  0.6916  1.0993
  176MPD1    H1 2738   4.614   4.026  17.550 -1.4885 -1.6502  0.9141
  176MPD1    H2 2739   4.453   3.718  17.310 -2.4862  0.6107 -0.1180
  176MPD1    H3 2740   4.540   3.791  17.520  1.7824  0.6489  0.6793
  176MPD1     N 2741   4.649   4.206  17.345 -0.3694  0.0572 -0.1736
  176MPD1    H5 2742   4.637   4.258  17.259  1.3426 -2.8665 -2.1838
  176MPD1    N1 2743   4.440   3.840  17.086 -0.3918 -0.2251 -0.1325
  176MPD1    H6 2744   4.365   3.774  17.106  1.5551 -2.7623 -1.0890
  176MPD1    H7 2745   4.410   3.902  17.012  0.0621 -1.1571 -1.0936
  177MPD1     C 2746   2.782   2.467  10.126 -0.1801  0.3403 -0.7619
  177MPD1    C1 2747   2.832   2.597  10.118 -0.2867  0.2556 -0.1205
  177MPD1    C2 2748   2.792   2.681  10.021 -0.4512  0.4247  0.5890
  177MPD1    C3 2749   2.685   2.643   9.948  0.4639 -0.2097 -0.4772
  177MPD1    C4 2750   2.622   2.523   9.960  0.1343  0.1245 -0.7299
  177MPD1    C5 2751   2.679   2.431  10.044 -0.4068 -0.0016 -0.5740
  177MPD1     H 2752   2.831   2.781  10.006 -2.3611  0.9654 -0.8153
  177MPD1    H1 2753   2.541   2.487   9.897 -0.0606 -0.3396 -0.2150
  177MPD1    H2 2754   2.830   2.387  10.181  0.7990  1.0088 -0.6418
  177MPD1    H3 2755   2.642   2.329  10.041  0.1703 -0.2316  0.4329
  177MPD1     N 2756   2.645   2.740   9.846  0.7342 -0.4325 -0.2874
  177MPD1    H5 2757   2.713   2.815   9.838 -0.4371  0.6896  0.2576
  177MPD1    N1 2758   2.950   2.621  10.187  0.8875 -0.0946  0.1816
  177MPD1    H6 2759   2.970   2.721  10.194  0.2956  0.1087 -1.0579
  177MPD1    H7 2760   2.940   2.590  10.283  2.5560  0.9911  0.7120
  178MPD1     C 2761   0.657   0.851  17.369  0.1664  0.0476  0.0302
  178MPD1    C1 2762   0.775   0.780  17.384  0.1722 -0.2420  0.7865
  178MPD1    C2 2763   0.767   0.641  17.397  0.5541  0.3405  1.3850
  178MPD1    C3 2764   0.646   0.572  17.400 -0.0096 -0.3436  0.2933
  178MPD1    C4 2765   0.532   0.642  17.378  0.5203  0.0671  0.3078
  178MPD1    C5 2766   0.535   0.778  17.370 -0.2016 -0.0821  0.4796
  178MPD1     H 2767   0.864   0.594  17.413  0.8191  0.3294 -0.3061
  178MPD1    H1 2768   0.437   0.590  17.385 -0.4254  1.6373 -0.8821
  178MPD1    H2 2769   0.645   0.956  17.345  1.5045  0.0801 -0.5172
  178MPD1    H3 2770   0.450   0.841  17.346  0.4199  0.6875  0.2948
  178MPD1     N 2771   0.647   0.432  17.415  0.4641 -0.4560  1.0562
  178MPD1    H5 2772   0.565   0.378  17.389  0.7312 -0.4302  0.1770
  178MPD1    N1 2773   0.907   0.836  17.359  0.3478  0.0292  0.2066
  178MPD1    H6 2774   0.975   0.793  17.422 -0.2339 -2.3475 -0.7563
  178MPD1    H7 2775   0.899   0.936  17.375 -2.3131  0.0212 -1.0147
  179MPD1     C 2776   0.580   2.909  14.992 -0.6448 -0.5320 -0.1435
  179MPD1    C1 2777   0.638   2.790  15.029  0.2001 -0.4295  0.9235
  179MPD1    C2 2778   0.589   2.718  15.138  0.4781  0.1227 -0.8882
  179MPD1    C3 2779   0.488   2.773  15.217  0.0290 -0.7654 -0.4543
  179MPD1    C4 2780   0.437   2.891  15.175  0.5399 -0.3655  0.0167
  179MPD1    C5 2781   0.480   2.954  15.061 -0.5058  0.1700 -0.0357
  179MPD1     H 2782   0.636   2.624  15.162  1.7879  1.1233  0.4520
  179MPD1    H1 2783   0.354   2.936  15.229 -0.8175 -2.1196 -0.5878
  179MPD1    H2 2784   0.618   2.961  14.905  0.7023 -0.2741  0.5966
  179MPD1    H3 2785   0.445   3.052  15.030 -0.6984  0.1900  0.2436
  179MPD1     N 2786   0.440   2.706  15.332  0.0328 -0.0555 -0.4777
  179MPD1    H5 2787   0.362   2.750  15.379  0.2266  0.4089 -0.5902
  179MPD1    N1 2788   0.729   2.726  14.947 -0.0122  0.1319  0.4014
  179MPD1    H6 2789   0.801   2.682  15.004  0.7492  0.7190 -0.1078
  179MPD1    H7 2790   0.763   2.779  14.867  3.5982 -0.0250  1.8066
  180MPD1     C 2791   4.197   4.096  14.571 -0.6059 -0.1735  0.8895
  180MPD1    C1 2792   4.330   4.106  14.545 -0.1892  0.4924 -0.1231
  180MPD1    C2 2793   4.382   4.065  14.417  0.2719 -0.0382  0.7328
  180MPD1    C3 2794   4.305   3.982  14.343  0.5602 -0.3479 -0.0682
  180MPD1    C4 2795   4.173   3.953  14.385  0.2588  1.0339  0.4544
  180MPD1    C5 2796   4.126   4.014  14.491  0.2677 -0.0683 -0.0883
  180MPD1     H 2797   4.481   4.099  14.389  0.1024  0.7811  1.1257
  180MPD1    H1 2798   4.111   3.882  14.332  0.0337  0.4233  1.5511
  180MPD1    H2 2799   4.152   4.146  14.656  0.3865  1.4243  0.4645
  180MPD1    H3 2800   4.023   3.987  14.515 -0.8079  1.9626 -2.5013
  180MPD1     N 2801   4.353   3.924  14.228  0.0682 -0.4182  0.9327
  180MPD1    H5 2802   4.450   3.935  14.200  0.0558 -1.7896  0.3342
  180MPD1    N1 2803   4.395   4.206  14.615 -0.3657  0.3886  0.0769
  180MPD1    H6 2804   4.496   4.201  14.603 -0.3249  1.8769 -0.2956
  180MPD1    H7 2805   4.369   4.201  14.713 -0.6601 -0.0500 -0.0234
  181MPD1     C 2806   0.681   0.225   9.475  0.5364  0.3585 -0.2019
  181MPD1    C1 2807   0.711   0.358   9.480 -0.0734  0.3005  0.0714
  181MPD1    C2 2808   0.847   0.395   9.476  0.6340  0.4262 -0.0311
  181MPD1    C3 2809   0.943   0.306   9.437 -0.4082 -0.1057 -0.0515
  181MPD1    C4 2810   0.910   0.170   9.425  0.2127 -0.0513 -0.4503
  181MPD1    C5 2811   0.778   0.135   9.444 -0.1451 -0.1907 -0.0204
  181MPD1     H 2812   0.863   0.502   9.482 -1.1360  0.7423 -1.0569
  181MPD1    H1 2813   0.992   0.099   9.418 -0.0290 -0.2633 -1.0824
  181MPD1    H2 2814   0.576   0.203   9.486 -0.1390  2.7513 -1.9540
  181MPD1    H3 2815   0.752   0.030   9.437  0.4965 -0.3504  0.0535
  181MPD1     N 2816   1.085   0.336   9.439  0.5998 -0.0503  0.6258
  181MPD1    H5 2817   1.147   0.269   9.395 -1.9764 -0.0043 -2.9729
  181MPD1    N1 2818   0.614   0.453   9.523  0.0034 -0.3462 -0.4553
  181MPD1    H6 2819   0.518   0.428   9.499 -0.2624  1.3716 -1.1616
  181MPD1    H7 2820   0.623   0.551   9.498 -2.0948 -0.2608 -0.8616
  182MPD1     C 2821   3.267   0.668   0.842 -0.7646 -0.2686  0.0048
  182MPD1    C1 2822   3.220   0.554   0.897  0.6761  0.3090 -0.2027
  182MPD1    C2 2823   3.090   0.554   0.946  0.4511 -0.0071 -0.9800
  182MPD1    C3 2824   3.001   0.661   0.926  0.5040 -0.4262  1.0788
  182MPD1    C4 2825   3.052   0.770   0.860  0.2498 -0.2478  0.3512
  182MPD1    C5 2826   3.181   0.766   0.813 -0.1416 -0.3035  0.7155
  182MPD1     H 2827   3.050   0.465   0.995  1.0976  1.2135  1.7731
  182MPD1    H1 2828   2.994   0.859   0.837  1.8037  0.1799 -1.8899
  182MPD1    H2 2829   3.370   0.688   0.814 -0.7669  0.2389  0.3706
  182MPD1    H3 2830   3.203   0.858   0.761  0.3596  0.6589  2.6467
  182MPD1     N 2831   2.874   0.678   0.981  0.2722 -0.1303  0.3296
  182MPD1    H5 2832   2.831   0.770   0.982  1.6473  0.5537 -1.8520
  182MPD1    N1 2833   3.310   0.447   0.917  0.6499  0.1554  0.1469
  182MPD1    H6 2834   3.269   0.356   0.896 -0.2667  0.8801 -1.2228
  182MPD1    H7 2835   3.391   0.450   0.855 -0.3221  0.3162 -1.1134
  183MPD1     C 2836   2.029   0.627   8.940 -0.6388 -1.0316  0.1803
  183MPD1    C1 2837   2.036   0.525   9.025 -0.8646  0.3599 -0.4555
  183MPD1    C2 2838   2.150   0.514   9.100 -0.1597  0.2201  0.1961
  183MPD1    C3 2839   2.243   0.614   9.105 -0.3344 -0.1036 -1.1418
  183MPD1    C4 2840   2.233   0.716   9.019 -0.2836  0.3101  0.0978
  183MPD1    C5 2841   2.128   0.720   8.930 -0.0102  0.2577 -0.8811
  183MPD1     H 2842   2.156   0.443   9.182 -1.0350  0.5233  0.5166
  183MPD1    H1 2843   2.316   0.780   8.990 -1.4078  0.1742 -3.3137
  183MPD1    H2 2844   1.945   0.636   8.872  1.0568 -1.5378 -2.0022
  183MPD1    H3 2845   2.129   0.809   8.869  2.6536  1.0379  0.2914
  183MPD1     N 2846   2.342   0.607   9.208  0.1012 -0.2710  0.7527
  183MPD1    H5 2847   2.333   0.532   9.276  1.7420 -0.4196  0.7964
  183MPD1    N1 2848   1.943   0.423   9.023 -0.2661 -0.1802 -0.5071
  183MPD1    H6 2849   1.929   0.377   9.113  0.4212  0.7822  0.0917
  183MPD1    H7 2850   1.859   0.457   8.978 -0.9448 -1.1974 -0.0132
  184MPD1     C 2851   2.240   3.144   9.362  0.3823 -0.0673 -0.6520
  184MPD1    C1 2852   2.214   3.238   9.271 -0.1174  0.3591 -0.3128
  184MPD1    C2 2853   2.284   3.355   9.275 -0.4989  0.5301  0.2538
  184MPD1    C3 2854   2.360   3.378   9.390 -0.8888 -0.1112 -0.6413
  184MPD1    C4 2855   2.359   3.291   9.497  0.7479  0.2652 -0.5424
  184MPD1    C5 2856   2.290   3.170   9.481 -0.5294  0.0584  0.8183
  184MPD1     H 2857   2.270   3.419   9.189  0.0292  0.8214  0.3844
  184MPD1    H1 2858   2.407   3.304   9.593 -2.0411 -1.1488  1.0295
  184MPD1    H2 2859   2.186   3.051   9.354  0.9850 -0.4159 -0.6284
  184MPD1    H3 2860   2.293   3.094   9.558  1.6521 -0.8640 -0.1840
  184MPD1     N 2861   2.445   3.489   9.409  0.4086  0.4045 -0.4761
  184MPD1    H5 2862   2.487   3.495   9.501  2.2055 -1.7495 -1.1439
  184MPD1    N1 2863   2.154   3.192   9.154  0.5654  0.0382 -0.1008
  184MPD1    H6 2864   2.104   3.266   9.107  1.9685  1.1120  0.1143
  184MPD1    H7 2865   2.080   3.126   9.178 -1.4302  1.7922 -1.5481
  185MPD1     C 2866   3.235   3.954   8.884  0.9671  0.4790  0.1081
  185MPD1    C1 2867   3.112   3.916   8.841 -0.4274  0.2688 -0.0952
  185MPD1    C2 2868   3.008   3.907   8.936 -0.7288  0.0313  0.3356
  185MPD1    C3 2869   3.038   3.915   9.070 -0.5481  0.4464 -0.0467
  185MPD1    C4 2870   3.162   3.953   9.113 -0.3597 -0.1455  0.0889
  185MPD1    C5 2871   3.254   3.986   9.016 -0.0332 -0.1875  0.5594
  185MPD1     H 2872   2.909   3.882   8.900 -0.8228  1.0779 -0.1365
  185MPD1    H1 2873   3.178   3.960   9.220  0.2300  1.9477 -0.1493
  185MPD1    H2 2874   3.318   3.970   8.817 -0.3445  3.1195 -0.8613
  185MPD1    H3 2875   3.355   4.013   9.043 -0.9465  3.5704  0.1896
  185MPD1     N 2876   2.939   3.902   9.167  0.6453 -0.5516 -0.0438
  185MPD1    H5 2877   2.979   3.901   9.260  0.0041  1.1502  0.2453
  185MPD1    N1 2878   3.087   3.906   8.702  0.7401 -0.3026 -0.2701
  185MPD1    H6 2879   3.166   3.863   8.654  0.1570 -1.5560 -0.1103
  185MPD1    H7 2880   3.008   3.843   8.691 -0.0179  1.2965 -4.2182
  186MPD1     C 2881   0.178   2.634  16.013  0.7063 -0.3370  0.0529
  186MPD1    C1 2882   0.199   2.750  15.940 -0.4438  0.5453  0.2817
  186MPD1    C2 2883   0.292   2.835  15.986 -0.9797  0.4499  0.1330
  186MPD1    C3 2884   0.355   2.822  16.109 -0.1940  0.1874  0.1030
  186MPD1    C4 2885   0.335   2.709  16.184  0.1316 -0.4558 -0.3688
  186MPD1    C5 2886   0.251   2.615  16.129  0.6771 -0.1856 -0.4842
  186MPD1     H 2887   0.303   2.923  15.925 -2.4268 -0.6226 -1.6860
  186MPD1    H1 2888   0.384   2.694  16.279 -0.7263 -0.9237 -0.0013
  186MPD1    H2 2889   0.103   2.560  15.986  0.7433  0.4349 -2.1764
  186MPD1    H3 2890   0.241   2.521  16.182  1.4291 -0.1866 -0.3456
  186MPD1     N 2891   0.431   2.921  16.177  0.3014 -0.8071  0.2471
  186MPD1    H5 2892   0.444   2.910  16.277 -0.9206  0.7392  0.5816
  186MPD1    N1 2893   0.125   2.770  15.822  0.8725  0.2424 -0.1600
  186MPD1    H6 2894   0.176   2.825  15.754 -0.0631  0.4638 -0.6774
  186MPD1    H7 2895   0.085   2.687  15.779 -0.9346 -0.0026  1.9964
  187MPD1     C 2896   0.429   0.461  17.658 -0.0630 -0.6689 -0.3026
  187MPD1    C1 2897   0.377   0.341  17.616 -0.2952  0.2925  0.1411
  187MPD1    C2 2898   0.264   0.349  17.543  0.0885 -0.5969 -0.1793
  187MPD1    C3 2899   0.190   0.462  17.535 -0.3465 -0.4767  0.2467
  187MPD1    C4 2900   0.237   0.575  17.596  0.5822 -0.4714 -0.0087
  187MPD1    C5 2901   0.362   0.573  17.646  0.3968  0.2480  0.1791
  187MPD1     H 2902   0.237   0.263  17.482  0.2905 -1.1296  0.4831
  187MPD1    H1 2903   0.177   0.665  17.588  1.2055  0.1544  2.4830
  187MPD1    H2 2904   0.527   0.463  17.704 -0.7909 -1.3127  1.3173
  187MPD1    H3 2905   0.403   0.666  17.683  0.6540  0.4987 -0.7472
  187MPD1     N 2906   0.066   0.475  17.465  0.1796 -0.7473 -0.4605
  187MPD1    H5 2907   0.023   0.567  17.464  2.2875  0.2534  0.1578
  187MPD1    N1 2908   0.461   0.230  17.613 -0.5865  0.7367 -0.1188
  187MPD1    H6 2909   0.535   0.234  17.682 -0.0615 -1.4265 -0.5646
  187MPD1    H7 2910   0.398   0.151  17.624 -0.0448  0.2584 -0.5139
  188MPD1     C 2911   4.550   4.342  10.821  0.6232  0.0313  0.0884
  188MPD1    C1 2912   4.409   4.321  10.822  0.8258 -0.3753  0.9854
  188MPD1    C2 2913   4.351   4.235  10.736 -0.4549  0.3946 -0.9443
  188MPD1    C3 2914   4.434   4.155  10.657 -0.1171 -0.5282 -0.4810
  188MPD1    C4 2915   4.569   4.166  10.661  0.1453 -0.3254  0.9511
  188MPD1    C5 2916   4.632   4.262  10.740 -0.1323 -0.0177 -0.1263
  188MPD1     H 2917   4.242   4.233  10.732 -0.4340 -2.9132 -0.2929
  188MPD1    H1 2918   4.638   4.119  10.591 -0.9196 -0.1979 -0.1900
  188MPD1    H2 2919   4.590   4.435  10.861  1.4435 -0.0821 -0.4742
  188MPD1    H3 2920   0.001   4.275  10.740 -0.1199 -0.0530  1.1831
  188MPD1     N 2921   4.388   4.058  10.568  0.4213  0.7943  0.7512
  188MPD1    H5 2922   4.459   4.022  10.505 -0.0480  0.8551  0.1859
  188MPD1    N1 2923   4.340   4.381  10.925  0.5387  0.3015  0.7563
  188MPD1    H6 2924   4.377   4.471  10.953 -0.5406  0.5129  1.4955
  188MPD1    H7 2925   4.240   4.385  10.905  0.5854 -1.0850  0.2003
  189MPD1     C 2926   1.884   1.373   0.950 -0.6112 -0.0348  0.2966
  189MPD1    C1 2927   1.761   1.320   0.934 -0.1559 -0.5913  0.2316
  189MPD1    C2 2928   1.662   1.382   0.848  0.0168 -0.1410  0.7449
  189MPD1    C3 2929   1.699   1.493   0.776 -0.6327 -0.1717 -0.1845
  189MPD1    C4 2930   1.828   1.543   0.786  0.2319 -0.0415  0.3907
  189MPD1    C5 2931   1.919   1.478   0.864  0.3659 -0.0022  0.5505
  189MPD1     H 2932   1.559   1.349   0.845 -0.3594  1.2041 -1.3621
  189MPD1    H1 2933   1.850   1.634   0.731 -0.8383 -0.9785 -1.5725
  189MPD1    H2 2934   1.967   1.338   1.010  1.0349  1.1565 -1.2814
  189MPD1    H3 2935   2.023   1.511   0.863  0.2490  0.4083  1.4651
  189MPD1     N 2936   1.592   1.561   0.709 -0.6643 -0.3017  0.2072
  189MPD1    H5 2937   1.500   1.520   0.715 -0.0732 -1.6934  0.0019
  189MPD1    N1 2938   1.715   1.231   1.037 -0.0241  0.0190  0.7535
  189MPD1    H6 2939   1.789   1.169   1.069 -0.0415 -0.3446  0.0749
  189MPD1    H7 2940   1.629   1.180   1.022 -1.2433  1.9035  1.2436
  190MPD1     C 2941   4.668   4.277  15.918  0.1562 -0.3018 -0.2220
  190MPD1    C1 2942   0.004   4.311  16.024  0.2064  0.0889 -0.0634
  190MPD1    C2 2943   0.138   4.339  16.000 -0.0245  0.7153 -0.0090
  190MPD1    C3 2944   0.198   4.341  15.870 -0.1857  0.1009 -0.7134
  190MPD1    C4 2945   0.109   4.315  15.768 -0.9777  0.3410  1.0040
  190MPD1    C5 2946   4.712   4.294  15.796  0.1135 -0.2043  0.0215
  190MPD1     H 2947   0.211   4.354  16.078  0.2309 -0.7035  0.0248
  190MPD1    H1 2948   0.137   4.315  15.663  1.2646  1.2103  1.5972
  190MPD1    H2 2949   4.565   4.249  15.937 -0.7744  3.4009  0.1740
  190MPD1    H3 2950   4.643   4.270  15.716 -0.1336  0.0904  0.1474
  190MPD1     N 2951   0.338   4.374  15.863 -0.5521  0.2931  0.5353
  190MPD1    H5 2952   0.389   4.397  15.948 -0.1096  0.6555  0.1726
  190MPD1    N1 2953   4.699   4.277  16.152  0.0475 -0.1667 -0.3221
  190MPD1    H6 2954   4.598   4.277  16.163  0.0470  0.8233 -0.3384
  190MPD1    H7 2955   4.732   4.335  16.229  1.6195  0.9496 -1.8246
  191MPD1     C 2956   4.313   0.429  12.612 -0.6388  0.0279  0.1016
  191MPD1    C1 2957   4.439   0.467  12.560  0.6370  0.4491  0.5756
  191MPD1    C2 2958   4.449   0.528  12.442 -0.0054 -0.1171 -0.4684
  191MPD1    C3 2959   4.338   0.555  12.371 -0.3319  0.0018 -0.2848
  191MPD1    C4 2960   4.216   0.514  12.423 -0.4180 -0.3717  0.6625
  191MPD1    C5 2961   4.201   0.451  12.540  0.5577  0.2703  0.6306
  191MPD1     H 2962   4.552   0.545  12.412 -0.5450  0.6613 -1.8720
  191MPD1    H1 2963   4.129   0.546  12.366  0.2227  1.7875  0.8987
  191MPD1    H2 2964   4.306   0.365  12.699  1.1154 -0.2198  0.0634
  191MPD1    H3 2965   4.105   0.414  12.572  0.8708  0.8024  2.1864
  191MPD1     N 2966   4.355   0.624  12.249 -0.2215  0.0719  0.0757
  191MPD1    H5 2967   4.447   0.654  12.218  0.4603  0.2958  2.3344
  191MPD1    N1 2968   4.550   0.408  12.619  0.6226  0.6426 -0.5215
  191MPD1    H6 2969   4.647   0.423  12.593  0.0278 -0.9500 -3.7198
  191MPD1    H7 2970   4.538   0.404  12.720 -1.3511  0.9850 -0.7280
  192MPD1     C 2971   3.904   0.979  11.308  0.2418 -0.0336 -0.7241
  192MPD1    C1 2972   3.880   0.867  11.383  0.1458 -0.0863 -0.7818
  192MPD1    C2 2973   3.943   0.857  11.499  0.9828 -0.2050  0.1004
  192MPD1    C3 2974   4.056   0.939  11.531  0.0529 -0.2452 -0.2616
  192MPD1    C4 2975   4.081   1.047  11.452 -0.1976 -0.1846  1.0004
  192MPD1    C5 2976   4.007   1.059  11.342  0.3425  0.3307 -0.2302
  192MPD1     H 2977   3.926   0.774  11.567 -2.0349 -0.0686 -0.5046
  192MPD1    H1 2978   4.154   1.124  11.470 -1.2182  1.2415 -0.9216
  192MPD1    H2 2979   3.848   1.011  11.221  1.8451  1.3708 -1.2417
  192MPD1    H3 2980   4.014   1.154  11.290 -2.1143 -0.2496 -1.5886
  192MPD1     N 2981   4.141   0.914  11.640  0.3286  0.6802 -0.2144
  192MPD1    H5 2982   4.231   0.960  11.636  0.2543  0.8943  0.5907
  192MPD1    N1 2983   3.771   0.794  11.358  0.0583 -0.1628  0.4489
  192MPD1    H6 2984   3.750   0.777  11.260  1.0940  0.0202  0.1948
  192MPD1    H7 2985   3.785   0.702  11.400 -0.5052 -0.3139  0.3151
  193MPD1     C 2986   3.678   1.267  16.173  0.5590  0.1469 -0.3148
  193MPD1    C1 2987   3.588   1.293  16.279  0.1891 -0.5418 -0.5579
  193MPD1    C2 2988   3.629   1.387  16.381  0.4373  0.8158  0.2878
  193MPD1    C3 2989   3.758   1.441  16.383 -0.1108  0.3231  0.4389
  193MPD1    C4 2990   3.849   1.385  16.300 -0.5980 -0.1670 -0.0550
  193MPD1    C5 2991   3.809   1.309  16.195  0.1675 -0.0791  0.0187
  193MPD1     H 2992   3.546   1.429  16.438 -1.3122  0.3672 -1.9219
  193MPD1    H1 2993   3.949   1.426  16.311 -0.2772 -0.6258 -1.2422
  193MPD1    H2 2994   3.650   1.219  16.080 -1.2959  1.7065 -0.5689
  193MPD1    H3 2995   3.871   1.275  16.114 -0.6304 -1.8059  0.1386
  193MPD1     N 2996   3.808   1.511  16.491  0.5315 -0.2709  0.2450
  193MPD1    H5 2997   3.907   1.532  16.488  1.0640 -2.5210  1.7452
  193MPD1    N1 2998   3.449   1.263  16.265  0.7323  0.1771  0.1372
  193MPD1    H6 2999   3.452   1.167  16.230 -0.2228 -0.1022  0.8178
  193MPD1    H7 3000   3.401   1.264  16.355 -1.5605 -1.2568 -1.0654
  194MPD1     C 3001   2.615   3.927  16.440  0.0851 -0.0065 -0.1806
  194MPD1    C1 3002   2.566   3.839  16.344  1.1417  0.0650  0.0560
  194MPD1    C2 3003   2.523   3.713  16.384 -0.0464 -0.7345 -0.0245
  194MPD1    C3 3004   2.518   3.681  16.520  0.3973  0.3364  0.0719
  194MPD1    C4 3005   2.563   3.771  16.612  0.2423 -0.1514 -0.0707
  194MPD1    C5 3006   2.622   3.888  16.567  0.6621 -0.4807  0.4246
  194MPD1     H 3007   2.488   3.642  16.310  2.0647 -0.7917 -0.9745
  194MPD1    H1 3008   2.559   3.753  16.719  1.2456 -0.1399 -0.0337
  194MPD1    H2 3009   2.666   4.020  16.420 -0.1753 -0.0891 -1.2439
  194MPD1    H3 3010   2.657   3.958  16.642 -0.6833  1.5155 -0.8203
  194MPD1     N 3011   2.458   3.568  16.577 -0.0682  0.4650 -0.6777
  194MPD1    H5 3012   2.470   3.557  16.677 -0.8957 -0.5672 -0.6949
  194MPD1    N1 3013   2.594   3.875  16.210 -0.0366  0.5316  0.2069
  194MPD1    H6 3014   2.541   3.837  16.132  0.8117 -1.2721  0.5215
  194MPD1    H7 3015   2.611   3.975  16.198  0.7575 -0.1733 -4.3085
  195MPD1     C 3016   4.009   1.284  17.301  0.0627 -0.7173 -0.1365
  195MPD1    C1 3017   4.071   1.282  17.420 -0.1850  0.2768  0.0029
  195MPD1    C2 3018   4.094   1.170  17.496 -0.1147 -0.2319  0.2976
  195MPD1    C3 3019   4.036   1.050  17.457  0.0525 -0.0763 -0.3694
  195MPD1    C4 3020   3.958   1.045  17.335  0.5634 -0.0666 -0.8249
  195MPD1    C5 3021   3.949   1.166  17.269 -0.5905  0.6006  0.1746
  195MPD1     H 3022   4.170   1.173  17.573  1.4262 -0.7643 -1.2148
  195MPD1    H1 3023   3.915   0.953  17.296  2.4714 -0.7257 -1.3687
  195MPD1    H2 3024   4.010   1.364  17.227  0.5276 -0.1936  0.4409
  195MPD1    H3 3025   3.910   1.162  17.168 -2.5578  0.9667  0.9236
  195MPD1     N 3026   4.053   0.927  17.535 -0.2306 -0.8988 -0.0455
  195MPD1    H5 3027   4.018   0.843  17.489  0.0329 -0.4267 -1.1079
  195MPD1    N1 3028   4.149   1.401  17.438  0.0295 -0.4381 -0.2909
  195MPD1    H6 3029   4.090   1.475  17.402  1.7359  0.2079 -1.7434
  195MPD1    H7 3030   4.150   1.415  17.539  1.8180  1.4227 -0.5571
  196MPD1     C 3031   2.349   0.940   0.354 -0.2767 -0.1325 -0.5556
  196MPD1    C1 3032   2.404   0.871   0.247  0.7123  0.3772  0.2921
  196MPD1    C2 3033   2.536   0.861   0.238  0.3706 -0.3995 -0.1134
  196MPD1    C3 3034   2.617   0.912   0.334  0.9755 -0.8445 -0.6040
  196MPD1    C4 3035   2.566   0.979   0.446  0.6672  0.2572  0.4060
  196MPD1    C5 3036   2.425   0.985   0.457 -0.1516 -0.2068 -0.1173
  196MPD1     H 3037   2.570   0.820   0.144 -0.3496  2.9673 -1.8702
  196MPD1    H1 3038   2.625   1.027   0.523  0.6754 -0.2986  0.7478
  196MPD1    H2 3039   2.243   0.962   0.358  0.1300  1.7368 -0.2316
  196MPD1    H3 3040   2.374   1.027   0.544 -1.4643 -1.0534 -0.4723
  196MPD1     N 3041   2.759   0.914   0.331  0.5349 -0.3796 -0.2475
  196MPD1    H5 3042   2.810   0.949   0.412 -2.1112  1.4292  0.6494
  196MPD1    N1 3043   2.319   0.835   0.143 -0.3087  0.4726 -0.2714
  196MPD1    H6 3044   2.357   0.755   0.093  0.3101 -0.1586  1.2219
  196MPD1    H7 3045   2.223   0.813   0.168  0.1197 -1.2893 -0.1760
  197MPD1     C 3046   2.169   1.722  17.063 -0.1242 -0.5522  0.4838
  197MPD1    C1 3047   2.190   1.836  17.118 -0.3936  0.4209  0.1868
  197MPD1    C2 3048   2.280   1.926  17.057 -0.4716  0.5154 -0.2998
  197MPD1    C3 3049   2.355   1.885  16.945 -0.0069 -0.2463 -0.2844
  197MPD1    C4 3050   2.315   1.760  16.881  0.2266  0.1449 -0.2878
  197MPD1    C5 3051   2.227   1.680  16.948  0.2191 -0.0722  0.5645
  197MPD1     H 3052   2.287   2.022  17.106 -0.3117 -0.9157  2.4822
  197MPD1    H1 3053   2.354   1.715  16.790  1.0396 -1.9380  1.0599
  197MPD1    H2 3054   2.099   1.648  17.101  0.8820 -1.2503  0.9734
  197MPD1    H3 3055   2.208   1.581  16.909 -1.0202  1.7584 -3.4807
  197MPD1     N 3056   2.451   1.963  16.885  0.4659  0.2240 -0.1857
  197MPD1    H5 3057   2.500   1.925  16.804  1.6113  2.3734 -0.4911
  197MPD1    N1 3058   2.114   1.887  17.226  0.0224 -0.1471 -0.1227
  197MPD1    H6 3059   2.103   1.820  17.302  0.4440 -0.6176 -0.4830
  197MPD1    H7 3060   2.161   1.967  17.269 -2.8873  1.3749  0.2256
  198MPD1     C 3061   1.469   0.003  15.809 -0.0171  0.3067 -0.9482
  198MPD1    C1 3062   1.434   0.011  15.672 -0.3874 -0.0802 -0.0451
  198MPD1    C2 3063   1.306   0.053  15.637 -0.5397 -0.1522  0.2875
  198MPD1    C3 3064   1.212   0.076  15.740  0.1522  0.2582  0.1976
  198MPD1    C4 3065   1.243   0.076  15.870  0.0989  0.5958  0.8168
  198MPD1    C5 3066   1.376   0.037  15.905  0.4235 -0.2300 -0.3712
  198MPD1     H 3067   1.281   0.041  15.532 -1.7339 -0.9231  0.6527
  198MPD1    H1 3068   1.172   0.104  15.947 -0.9546 -0.0374  0.0723
  198MPD1    H2 3069   1.567   4.727  15.852 -0.7192 -0.7944  0.3207
  198MPD1    H3 3070   1.405   0.040  16.009 -0.3852 -0.1663 -0.1468
  198MPD1     N 3071   1.085   0.121  15.692  0.0076  0.1786 -0.1221
  198MPD1    H5 3072   1.079   0.120  15.591 -0.5257 -1.0183 -0.0799
  198MPD1    N1 3073   1.533   4.725  15.581  0.3603 -0.8242  0.2424
  198MPD1    H6 3074   1.623   4.685  15.606  0.4374 -0.8456 -0.0608
  198MPD1    H7 3075   1.502   4.687  15.492  0.5539  3.6868 -1.7560
  199MPD1     C 3076   0.992   0.136   9.079 -0.0729 -0.3312 -0.0104
  199MPD1    C1 3077   1.119   0.196   9.086  0.7908 -0.4562  0.0597
  199MPD1    C2 3078   1.131   0.336   9.092 -0.7507  0.3735  0.5459
  199MPD1    C3 3079   1.012   0.410   9.104  0.7972  0.3993  0.1224
  199MPD1    C4 3080   0.890   0.349   9.093 -0.7131 -0.9974 -0.2163
  199MPD1    C5 3081   0.882   0.215   9.091 -0.1307  0.2726 -1.0865
  199MPD1     H 3082   1.230   0.380   9.103 -0.2084 -0.5668 -0.5340
  199MPD1    H1 3083   0.796   0.400   9.110  0.8167  0.6754  3.2232
  199MPD1    H2 3084   0.967   0.031   9.083  0.6617 -0.4518  1.6872
  199MPD1    H3 3085   0.793   0.156   9.109  2.4635 -3.8810 -1.8820
  199MPD1     N 3086   1.017   0.550   9.126  0.3881  0.0749  0.4482
  199MPD1    H5 3087   0.935   0.604   9.151  1.5761  1.9140  0.4030
  199MPD1    N1 3088   1.236   0.117   9.074  0.5706 -0.1919  0.0318
  199MPD1    H6 3089   1.309   0.172   9.119  0.0407 -0.8421  1.6833
  199MPD1    H7 3090   1.228   0.025   9.117  0.9665 -0.2941 -0.1072
  200MPD1     C 3091   4.648   0.715  15.424 -0.0300 -0.6563  0.1114
  200MPD1    C1 3092   4.652   0.576  15.423  0.0733  0.7904 -0.5291
  200MPD1    C2 3093   0.030   0.502  15.386  0.3138  0.1835  0.8800
  200MPD1    C3 3094   0.150   0.574  15.386  0.0865  0.1604  0.4382
  200MPD1    C4 3095   0.142   0.715  15.393 -0.4361  0.0218 -0.0669
  200MPD1    C5 3096   0.027   0.783  15.401  0.2007  0.4817  0.6449
  200MPD1     H 3097   0.030   0.396  15.365  0.4301  0.0576  1.5189
  200MPD1    H1 3098   0.225   0.783  15.383  0.5263 -1.0436  0.7233
  200MPD1    H2 3099   4.557   0.774  15.427 -0.6855 -1.5774 -1.3314
  200MPD1    H3 3100   0.035   0.891  15.389 -0.1409  0.4741  0.3561
  200MPD1     N 3101   0.273   0.511  15.364  0.2906  0.4777 -0.4523
  200MPD1    H5 3102   0.286   0.413  15.341 -0.7960  0.1287  0.3928
  200MPD1    N1 3103   4.537   0.506  15.423  0.0051 -0.0691  0.6361
  200MPD1    H6 3104   4.467   0.542  15.488  0.2983  1.7828 -0.0925
  200MPD1    H7 3105   4.557   0.409  15.448  0.5944 -0.3415 -0.9481
  201MPD1     C 3106   3.028   3.946  13.129 -0.3188  0.8352 -0.1375
  201MPD1    C1 3107   3.054   4.014  13.244  0.2905  0.5580  0.2818
  201MPD1    C2 3108   3.185   4.038  13.283 -0.7369  0.5921 -0.2170
  201MPD1    C3 3109   3.281   4.034  13.180  0.7312  0.2465 -0.7424
  201MPD1    C4 3110   3.251   3.996  13.053  0.7738 -0.8892 -0.3825
  201MPD1    C5 3111   3.126   3.945  13.030 -0.5099  0.0336  0.4740
  201MPD1     H 3112   3.208   4.078  13.381 -1.3292 -0.7820  0.4910
  201MPD1    H1 3113   3.314   3.986  12.965  1.4636  0.6183 -0.0762
  201MPD1    H2 3114   2.926   3.918  13.105 -0.1937  2.0481 -2.1056
  201MPD1    H3 3115   3.091   3.902  12.936  1.0351 -1.1449  0.4306
  201MPD1     N 3116   3.406   4.092  13.218  0.4144  0.1219 -0.3543
  201MPD1    H5 3117   3.408   4.131  13.312 -1.7244 -0.2209 -0.1738
  201MPD1    N1 3118   2.945   4.034  13.327  0.1980  0.1835  0.7117
  201MPD1    H6 3119   2.949   4.113  13.391  1.3784  0.5117  0.2292
  201MPD1    H7 3120   2.852   4.033  13.284  1.0160  0.3955 -1.0747
  202MPD1     C 3121   3.373   4.492   9.099 -0.6040 -0.1647 -0.7092
  202MPD1    C1 3122   3.320   4.606   9.143 -0.1098  0.1037  0.3758
  202MPD1    C2 3123   3.273   4.593   9.271 -0.5290 -0.3117  0.1329
  202MPD1    C3 3124   3.256   4.481   9.339  0.5265  0.1687  0.7906
  202MPD1    C4 3125   3.293   4.360   9.275 -0.4290 -0.6412 -0.1443
  202MPD1    C5 3126   3.356   4.369   9.155 -0.4100  0.6162  0.0984
  202MPD1     H 3127   3.268   4.683   9.331  0.2369  1.7382 -2.9211
  202MPD1    H1 3128   3.280   4.269   9.332 -0.5245 -1.4201 -1.4213
  202MPD1    H2 3129   3.444   4.503   9.018 -1.2164 -1.4760 -1.4271
  202MPD1    H3 3130   3.399   4.278   9.115 -1.1616 -0.2194  1.2080
  202MPD1     N 3131   3.221   4.481   9.475  0.1883 -0.7343  0.1115
  202MPD1    H5 3132   3.217   4.392   9.525  1.7680  0.1233  1.7514
  202MPD1    N1 3133   3.364   4.733   9.105  0.2451 -0.3377 -0.0920
  202MPD1    H6 3134   3.370   0.019   9.007 -1.3932 -0.0284 -0.1092
  202MPD1    H7 3135   3.300   0.060   9.150 -0.0130 -0.9376  0.4040
  203MPD1     C 3136   1.712   0.934  12.754  0.7048 -0.0221  0.4936
  203MPD1    C1 3137   1.766   0.858  12.859 -0.1392  0.1282  0.6638
  203MPD1    C2 3138   1.891   0.804  12.821  0.8033  0.1515  0.0317
  203MPD1    C3 3139   1.961   0.832  12.705  0.4785  0.6050 -0.2227
  203MPD1    C4 3140   1.894   0.910  12.611 -0.3495 -0.4711 -0.3194
  203MPD1    C5 3141   1.776   0.973  12.639 -0.4867  0.0241  0.1131
  203MPD1     H 3142   1.946   0.739  12.888  0.5900 -0.7878 -0.7096
  203MPD1    H1 3143   1.934   0.925  12.511  1.7386 -1.1261  0.4042
  203MPD1    H2 3144   1.604   0.946  12.755  0.7114  0.0698 -1.2198
  203MPD1    H3 3145   1.728   1.033  12.562  1.1703  1.1419 -0.0536
  203MPD1     N 3146   2.091   0.779  12.684 -0.2188 -0.2125  0.2386
  203MPD1    H5 3147   2.128   0.723  12.760  0.5328  1.3196  0.9965
  203MPD1    N1 3148   1.678   0.802  12.958 -0.0171 -0.6700 -0.1744
  203MPD1    H6 3149   1.610   0.867  12.998 -0.9474 -3.2940  2.4844
  203MPD1    H7 3150   1.732   0.777  13.040 -0.3067  1.2314  0.5809
  204MPD1     C 3151   2.009   2.742  17.193 -0.3485  0.4130  0.4091
  204MPD1    C1 3152   1.899   2.730  17.106  0.4737 -0.4144 -0.3899
  204MPD1    C2 3153   1.831   2.602  17.101 -0.0942 -0.4234  0.1286
  204MPD1    C3 3154   1.884   2.493  17.174  0.1853  0.2014  0.5468
  204MPD1    C4 3155   1.983   2.517  17.259 -0.0552  0.2301  0.1036
  204MPD1    C5 3156   2.043   2.634  17.269  0.4211 -0.1193  0.4284
  204MPD1     H 3157   1.737   2.594  17.048 -1.0101 -1.7587  1.9537
  204MPD1    H1 3158   2.032   2.442  17.320 -0.1573 -0.7615 -1.0306
  204MPD1    H2 3159   2.081   2.822  17.201  0.5468 -0.5898  2.4987
  204MPD1    H3 3160   2.128   2.628  17.336  0.3415  3.0456  0.8224
  204MPD1     N 3161   1.830   2.363  17.158 -0.0955  0.0724  1.0693
  204MPD1    H5 3162   1.764   2.347  17.083 -0.7402 -0.2524  1.7015
  204MPD1    N1 3163   1.840   2.840  17.054  0.6079 -0.0536  0.0764
  204MPD1    H6 3164   1.915   2.905  17.031 -0.9481  1.9206  0.5288
  204MPD1    H7 3165   1.788   2.810  16.971  0.8518  2.0343 -0.8423
  205MPD1     C 3166   2.225   1.613   0.668 -0.4103  0.2065  0.1466
  205MPD1    C1 3167   2.267   1.489   0.633 -0.6586 -0.3137  0.5227
  205MPD1    C2 3168   2.190   1.427   0.534  0.0558  0.0558 -0.1865
  205MPD1    C3 3169   2.072   1.479   0.484  0.1146  0.2763 -0.5663
  205MPD1    C4 3170   2.036   1.607   0.519  0.3936  0.0719  0.3110
  205MPD1    C5 3171   2.117   1.671   0.604 -0.6545  0.5074  0.0741
  205MPD1     H 3172   2.229   1.334   0.494 -1.9107 -1.2723  0.9847
  205MPD1    H1 3173   1.941   1.648   0.488  1.0536 -1.5555 -3.8284
  205MPD1    H2 3174   2.294   1.677   0.722 -0.5684  0.4840  0.0241
  205MPD1    H3 3175   2.089   1.769   0.640 -0.9011  0.5480 -0.2307
  205MPD1     N 3176   1.998   1.409   0.386  0.5602 -0.0486 -0.0719
  205MPD1    H5 3177   1.925   1.464   0.341  2.1349  1.4922 -0.7019
  205MPD1    N1 3178   2.394   1.442   0.681  0.5157 -0.3548  0.6283
  205MPD1    H6 3179   2.406   1.472   0.777  2.5089  0.9758 -0.0352
  205MPD1    H7 3180   2.384   1.341   0.678  2.4537 -0.5536  1.2583
  206MPD1     C 3181   3.134   3.744  16.415  0.5292  0.0451 -0.6025
  206MPD1    C1 3182   3.121   3.614  16.380 -0.1049  0.2231 -0.0566
  206MPD1    C2 3183   3.015   3.571  16.306  0.4182  0.0344 -0.5328
  206MPD1    C3 3184   2.898   3.655  16.294  0.3432  0.0985 -0.0507
  206MPD1    C4 3185   2.914   3.776  16.351  0.1362  0.2795  0.5830
  206MPD1    C5 3186   3.031   3.823  16.406  0.4184  0.4808 -0.5508
  206MPD1     H 3187   3.013   3.469  16.271 -2.0887 -0.9433  2.3797
  206MPD1    H1 3188   2.837   3.852  16.351 -3.1594 -3.0356 -0.4566
  206MPD1    H2 3189   3.223   3.789  16.457 -0.1855  1.9671 -1.0950
  206MPD1    H3 3190   3.029   3.922  16.448  0.6107 -0.0401  0.7030
  206MPD1     N 3191   2.775   3.614  16.237 -0.6117 -0.6346  0.0292
  206MPD1    H5 3192   2.702   3.684  16.239 -0.5424 -0.5301 -1.3311
  206MPD1    N1 3193   3.236   3.535  16.369 -0.2258 -0.2758  0.4500
  206MPD1    H6 3194   3.226   3.434  16.376 -1.4046 -0.2957 -1.3113
  206MPD1    H7 3195   3.308   3.558  16.437 -0.9271  1.4197  0.6115
  207MPD1     C 3196   0.292   0.294   9.329 -0.2253 -0.3736  0.1016
  207MPD1    C1 3197   0.269   0.433   9.335  0.2589  0.1292  0.2224
  207MPD1    C2 3198   0.267   0.488   9.464  0.0421  0.2730  0.0106
  207MPD1    C3 3199   0.296   0.410   9.578 -0.8226 -0.9047  0.8859
  207MPD1    C4 3200   0.325   0.277   9.558  0.2683 -0.2930 -0.3443
  207MPD1    C5 3201   0.319   0.217   9.434 -0.6734 -0.2606 -0.5627
  207MPD1     H 3202   0.228   0.589   9.473  0.5363  0.4112  0.6235
  207MPD1    H1 3203   0.356   0.214   9.641  1.8069 -0.5382 -1.1012
  207MPD1    H2 3204   0.297   0.254   9.228 -1.7830 -0.5340  0.0880
  207MPD1    H3 3205   0.335   0.110   9.427 -2.6377 -0.4654 -1.9465
  207MPD1     N 3206   0.298   0.454   9.713 -0.8151  0.6478  0.1293
  207MPD1    H5 3207   0.314   0.390   9.790 -1.0727 -3.0164 -2.8607
  207MPD1    N1 3208   0.213   0.502   9.224 -0.0314 -0.3870 -0.2493
  207MPD1    H6 3209   0.230   0.603   9.227 -1.2774 -0.1287 -1.5767
  207MPD1    H7 3210   0.265   0.466   9.144 -1.8208 -1.8492 -0.7631
  208MPD1     C 3211   1.867   4.112   0.554 -0.1083 -0.1980 -0.2265
  208MPD1    C1 3212   1.978   4.173   0.595 -0.4412  0.2404 -0.6010
  208MPD1    C2 3213   1.982   4.310   0.559 -0.5665 -0.1052  0.0911
  208MPD1    C3 3214   1.879   4.382   0.508 -0.3867 -0.4090  0.2509
  208MPD1    C4 3215   1.766   4.317   0.464 -0.2457 -0.2939 -0.1948
  208MPD1    C5 3216   1.762   4.179   0.484  0.4566  0.4038 -0.2217
  208MPD1     H 3217   2.067   4.369   0.590 -0.3357 -0.1237 -0.5044
  208MPD1    H1 3218   1.672   4.366   0.441 -0.3011 -0.3581 -0.1061
  208MPD1    H2 3219   1.857   4.004   0.560  1.7307 -0.3917 -0.7703
  208MPD1    H3 3220   1.676   4.123   0.449  1.1091 -1.0676  0.5215
  208MPD1     N 3221   1.887   4.526   0.518  0.0509 -0.2638 -0.3975
  208MPD1    H5 3222   1.971   4.567   0.556 -1.8246  0.8966  2.5286
  208MPD1    N1 3223   2.089   4.096   0.645 -0.8583  0.3035  0.2413
  208MPD1    H6 3224   2.052   4.013   0.691 -2.8107  1.5202  0.8627
  208MPD1    H7 3225   2.138   4.148   0.717  0.5760  1.3580 -1.4968
  209MPD1     C 3226   4.180   4.620  11.170  0.6548 -0.6687  0.9374
  209MPD1    C1 3227   4.164   4.727  11.088  0.8835 -0.1416 -0.0536
  209MPD1    C2 3228   4.278   0.044  11.033 -0.0132  0.4380  0.3475
  209MPD1    C3 3229   4.406   0.019  11.092 -0.8239 -0.3120 -0.7362
  209MPD1    C4 3230   4.417   4.663  11.184 -0.7913  0.5661  0.7318
  209MPD1    C5 3231   4.304   4.594  11.217 -1.1125 -0.8903 -0.2236
  209MPD1     H 3232   4.276   0.118  10.955  0.4935 -0.8679 -0.8999
  209MPD1    H1 3233   4.508   4.638  11.238  0.3052  0.1968 -1.2720
  209MPD1    H2 3234   4.097   4.556  11.197  0.5347 -0.4281  1.1408
  209MPD1    H3 3235   4.311   4.519  11.294  0.9474  0.5859  1.0402
  209MPD1     N 3236   4.514   0.098  11.050  0.4739 -0.6262  0.2130
  209MPD1    H5 3237   4.500   0.165  10.974 -2.6852 -1.4722  0.0639
  209MPD1    N1 3238   4.039   0.018  11.033  0.0708 -0.2693  0.6985
  209MPD1    H6 3239   4.031   0.115  11.001  1.1482 -0.4990 -0.3001
  209MPD1    H7 3240   3.950   4.728  11.073  0.8367 -1.2111  1.7431
  210MPD1     C 3241   0.333   0.761  11.521  0.4870  0.0087 -0.1347
  210MPD1    C1 3242   0.285   0.812  11.408  0.8500 -0.2753  0.3335
  210MPD1    C2 3243   0.228   0.726  11.311  0.1526  0.0110  0.6654
  210MPD1    C3 3244   0.239   0.585  11.321 -0.4289  0.9926  0.5941
  210MPD1    C4 3245   0.294   0.539  11.436  0.8585  1.0611  0.2268
  210MPD1    C5 3246   0.349   0.623  11.530  0.2529  0.3047 -0.5193
  210MPD1     H 3247   0.175   0.764  11.224  0.2889  1.8353  1.3908
  210MPD1    H1 3248   0.302   0.431  11.448  1.3738  1.0820  0.0879
  210MPD1    H2 3249   0.382   0.825  11.593  0.9984  0.5318 -0.9450
  210MPD1    H3 3250   0.391   0.575  11.617 -0.0201  1.0895  0.0462
  210MPD1     N 3251   0.185   0.494  11.223  0.2043 -0.6467  0.6452
  210MPD1    H5 3252   0.187   0.398  11.258 -2.2837 -0.0285  2.4763
  210MPD1    N1 3253   0.274   0.954  11.404  0.2247 -0.0437  0.1457
  210MPD1    H6 3254   0.349   0.993  11.461  2.7356  0.3314 -3.3862
  210MPD1    H7 3255   0.293   0.992  11.312 -1.5289 -0.7244 -0.4874
  211MPD1     C 3256   2.304   0.712  15.707 -0.1486 -0.3559 -0.4153
  211MPD1    C1 3257   2.233   0.829  15.704 -0.8456 -0.4117 -0.1482
  211MPD1    C2 3258   2.153   0.851  15.819 -0.4654 -0.2305 -0.4283
  211MPD1    C3 3259   2.147   0.768  15.928 -0.1001  0.9428 -0.3659
  211MPD1    C4 3260   2.225   0.657  15.930 -0.1666 -0.3345  0.5951
  211MPD1    C5 3261   2.297   0.630  15.813  0.4328  0.6216  0.0817
  211MPD1     H 3262   2.095   0.942  15.830  1.2978  0.7495  0.7546
  211MPD1    H1 3263   2.239   0.598  16.020  0.8926 -0.6590  0.2136
  211MPD1    H2 3264   2.363   0.680  15.622  2.9280 -0.1413  1.6410
  211MPD1    H3 3265   2.364   0.545  15.817  0.3056  0.5005 -0.3586
  211MPD1     N 3266   2.054   0.796  16.030  0.3333  0.0004 -0.0596
  211MPD1    H5 3267   2.004   0.881  16.006 -0.0748 -0.1306  0.3161
  211MPD1    N1 3268   2.223   0.907  15.581 -0.6005 -0.3404 -0.5248
  211MPD1    H6 3269   2.207   1.006  15.597  0.3855 -0.2306 -0.2415
  211MPD1    H7 3270   2.295   0.885  15.512  0.5673 -0.4042  0.7240
  212MPD1     C 3271   1.566   3.923  16.276 -0.3040  0.1459  0.1861
  212MPD1    C1 3272   1.535   3.978  16.394  0.5406 -1.0199 -0.0318
  212MPD1    C2 3273   1.467   3.903  16.489  0.2362 -0.3496  0.0986
  212MPD1    C3 3274   1.451   3.770  16.466  0.0113  0.4865 -0.6421
  212MPD1    C4 3275   1.490   3.707  16.350 -0.5732  0.2824  0.4370
  212MPD1    C5 3276   1.549   3.786  16.257 -0.2190  0.0573 -0.0572
  212MPD1     H 3277   1.443   3.961  16.577  0.2792  0.2387 -0.2746
  212MPD1    H1 3278   1.477   3.599  16.343  2.0754 -0.0258  0.2534
  212MPD1    H2 3279   1.600   3.966  16.183 -3.1672 -1.5597 -1.6497
  212MPD1    H3 3280   1.589   3.748  16.164 -0.3982  0.8878 -0.4797
  212MPD1     N 3281   1.377   3.687  16.551 -0.2505  0.1146  0.3133
  212MPD1    H5 3282   1.357   3.590  16.528 -1.1557  0.0390  1.4431
  212MPD1    N1 3283   1.541   4.118  16.402 -0.0952  0.6264 -0.3422
  212MPD1    H6 3284   1.541   4.155  16.497  0.3572  0.5018 -0.2909
  212MPD1    H7 3285   1.610   4.162  16.341  1.5342  2.8373  3.1120
  213MPD1     C 3286   4.545   4.003  15.628 -0.4520  0.3256  0.4118
  213MPD1    C1 3287   4.632   4.030  15.522 -0.2596  0.0345 -0.7765
  213MPD1    C2 3288   4.615   4.153  15.462  0.2158 -0.5177  0.0843
  213MPD1    C3 3289   4.490   4.212  15.466  0.2841  0.2587  0.4130
  213MPD1    C4 3290   4.390   4.154  15.540  0.1756  0.1019 -0.1162
  213MPD1    C5 3291   4.424   4.056  15.631 -0.2419  0.0226 -0.0248
  213MPD1     H 3292   4.690   4.195  15.396  1.7413 -0.9720  1.5344
  213MPD1    H1 3293   4.292   4.200  15.543  0.5879  0.9279  0.5936
  213MPD1    H2 3294   4.563   3.917  15.691  0.3560  0.5241  0.4584
  213MPD1    H3 3295   4.349   4.013  15.696  0.4860 -2.1365 -0.6284
  213MPD1     N 3296   4.475   4.333  15.395 -0.3258 -0.1687 -0.0535
  213MPD1    H5 3297   4.541   4.360  15.322  0.4332 -0.7154  0.4343
  213MPD1    N1 3298   0.022   3.974  15.525 -0.4270 -0.3563  0.1412
  213MPD1    H6 3299   0.020   3.878  15.560 -4.0787 -0.5076 -0.4815
  213MPD1    H7 3300   0.066   3.977  15.433 -2.6268  1.6100 -0.8259
  214MPD1     C 3301   3.866   3.949  14.901  0.4577  0.7363  0.4368
  214MPD1    C1 3302   3.992   3.952  14.856 -1.4141 -0.1541  0.1166
  214MPD1    C2 3303   4.073   4.052  14.897  0.1546 -0.1340  0.0597
  214MPD1    C3 3304   4.024   4.153  14.979 -0.6075  0.3575 -0.3040
  214MPD1    C4 3305   3.899   4.150  15.020  0.2408  0.0427 -0.1705
  214MPD1    C5 3306   3.826   4.042  14.993 -0.6915  0.2772 -0.5408
  214MPD1     H 3307   4.181   4.047  14.881 -0.1004 -1.9387 -1.1826
  214MPD1    H1 3308   3.858   4.223  15.088 -1.9383  0.7400 -2.2009
  214MPD1    H2 3309   3.797   3.870  14.874  0.3689  1.1328 -0.4783
  214MPD1    H3 3310   3.727   4.041  15.040 -0.0867 -1.0407  0.7336
  214MPD1     N 3311   4.102   4.259  15.023  0.5342  0.0996  0.0852
  214MPD1    H5 3312   4.051   4.321  15.085  1.8611  1.4104 -0.1419
  214MPD1    N1 3313   4.046   3.833  14.802 -0.3745  0.3030 -0.2525
  214MPD1    H6 3314   3.993   3.768  14.745 -0.2848  0.4356 -0.4870
  214MPD1    H7 3315   4.125   3.850  14.740 -0.4576 -0.4553 -0.5625
  215MPD1     C 3316   4.353   0.147   9.994  0.2714 -0.3385 -0.7130
  215MPD1    C1 3317   4.364   0.285   9.974  0.3050  0.6848  0.6286
  215MPD1    C2 3318   4.277   0.363  10.050 -0.1393 -0.5084 -0.5684
  215MPD1    C3 3319   4.203   0.310  10.158  0.6462 -0.3380  0.0422
  215MPD1    C4 3320   4.211   0.176  10.182 -0.2092  1.0318  0.2145
  215MPD1    C5 3321   4.273   0.094  10.096  0.3526  0.1080 -0.3459
  215MPD1     H 3322   4.275   0.467  10.019  3.6642 -0.1018  0.5189
  215MPD1    H1 3323   4.146   0.130  10.256  0.3146  0.2018  0.1673
  215MPD1    H2 3324   4.403   0.074   9.930  0.1429  0.7081 -1.9990
  215MPD1    H3 3325   4.271   4.725  10.111  2.3597 -0.0128 -0.9109
  215MPD1     N 3326   4.129   0.399  10.244 -0.3141  0.1566 -0.1885
  215MPD1    H5 3327   4.142   0.498  10.228 -0.6729  0.4201  1.1058
  215MPD1    N1 3328   4.433   0.346   9.862  0.2507  0.5912 -0.5004
  215MPD1    H6 3329   4.459   0.439   9.893  1.0825 -0.2615  1.3443
  215MPD1    H7 3330   4.525   0.305   9.848 -1.0264 -1.8575 -1.6739
  216MPD1     C 3331   1.396   4.354  16.747  0.2659  0.2640  0.3354
  216MPD1    C1 3332   1.506   4.279  16.741 -0.0161 -0.6469  0.2623
  216MPD1    C2 3333   1.501   4.155  16.805 -0.6251  0.2071 -0.1130
  216MPD1    C3 3334   1.398   4.117  16.884 -1.1998 -0.0038 -0.1871
  216MPD1    C4 3335   1.298   4.209  16.916  0.1189  0.0151 -0.0733
  216MPD1    C5 3336   1.291   4.319  16.838  0.1137 -0.6211 -0.0674
  216MPD1     H 3337   1.587   4.089  16.792 -1.7963 -1.2965 -0.2586
  216MPD1    H1 3338   1.217   4.182  16.984  0.5524  1.2087  0.9288
  216MPD1    H2 3339   1.379   4.442  16.686 -0.3122  0.1087  0.2682
  216MPD1    H3 3340   1.205   4.385  16.836  1.5508  1.3235  1.9547
  216MPD1     N 3341   1.399   3.983  16.942  0.2775 -0.4410  1.2687
  216MPD1    H5 3342   1.471   3.922  16.906 -1.0358 -0.3884 -1.4535
  216MPD1    N1 3343   1.604   4.292  16.646 -0.7594  0.1404 -0.1072
  216MPD1    H6 3344   1.604   4.389  16.615  3.5552  0.0685 -0.3900
  216MPD1    H7 3345   1.695   4.263  16.683 -0.5452 -0.9605 -1.4575
  217MPD1     C 3346   2.545   0.359   8.850  0.1133 -0.1779  0.1787
  217MPD1    C1 3347   2.412   0.360   8.887  0.4711  0.8760 -0.5188
  217MPD1    C2 3348   2.359   0.241   8.939 -0.7186 -1.2648 -0.7604
  217MPD1    C3 3349   2.448   0.135   8.978 -0.4630  0.7163  0.5670
  217MPD1    C4 3350   2.583   0.139   8.946  0.3827  0.1209  0.4335
  217MPD1    C5 3351   2.628   0.248   8.880 -0.0848  0.2997  0.0837
  217MPD1     H 3352   2.254   0.216   8.931 -0.8272 -1.6923  1.8653
  217MPD1    H1 3353   2.651   0.058   8.969  1.9567  0.3510 -3.3977
  217MPD1    H2 3354   2.582   0.442   8.791  2.3412  0.3618  2.3143
  217MPD1    H3 3355   2.731   0.252   8.848  0.1992 -1.3166  0.8332
  217MPD1     N 3356   2.403   0.016   9.037 -0.3359 -0.3259  0.2727
  217MPD1    H5 3357   2.473   4.686   9.063 -0.5592 -0.2057  1.1785
  217MPD1    N1 3358   2.334   0.452   8.816 -0.2864 -0.5761 -0.4275
  217MPD1    H6 3359   2.376   0.544   8.803 -0.4444 -0.1716  1.9804
  217MPD1    H7 3360   2.240   0.466   8.852 -1.1967 -2.4795 -2.0812
  218MPD1     C 3361   3.759   1.151  12.178 -0.5564  0.4238 -0.0774
  218MPD1    C1 3362   3.884   1.108  12.188 -0.6710  0.9243 -0.4287
  218MPD1    C2 3363   3.912   0.974  12.159  0.2389  0.2042  0.2366
  218MPD1    C3 3364   3.807   0.887  12.161  0.1318 -0.1448  0.5929
  218MPD1    C4 3365   3.683   0.931  12.172  0.6154  0.8790 -0.3626
  218MPD1    C5 3366   3.656   1.063  12.162  0.5623 -0.1897  0.8312
  218MPD1     H 3367   4.017   0.953  12.148  0.1304  1.3210 -3.0271
  218MPD1    H1 3368   3.588   0.880  12.171  0.8432  0.4065  1.1428
  218MPD1    H2 3369   3.726   1.254  12.191  2.5947  1.2697  1.0140
  218MPD1    H3 3370   3.554   1.097  12.176  0.6840  0.3752  0.3886
  218MPD1     N 3371   3.841   0.751  12.160 -0.2890 -0.5048 -0.6584
  218MPD1    H5 3372   3.939   0.729  12.173 -0.0155  0.9797 -0.1887
  218MPD1    N1 3373   3.981   1.207  12.190  0.8917  0.0102 -0.0753
  218MPD1    H6 3374   4.073   1.180  12.224 -0.3349 -3.1348  0.7281
  218MPD1    H7 3375   3.946   1.279  12.253  2.8602  0.5627  0.3761
  219MPD1     C 3376   4.395   0.524  11.611  0.4733 -0.6436 -0.0173
  219MPD1    C1 3377   4.429   0.471  11.733  0.4822 -0.1754  0.6180
  219MPD1    C2 3378   4.336   0.449  11.830  0.2638 -0.3727  0.3716
  219MPD1    C3 3379   4.206   0.480  11.802 -0.8114  0.3022  0.5167
  219MPD1    C4 3380   4.172   0.537  11.678 -1.2828  0.8477  0.3925
  219MPD1    C5 3381   4.270   0.559  11.589 -0.3102 -0.0636 -0.0481
  219MPD1     H 3382   4.363   0.417  11.930  1.0135  1.3580  0.7343
  219MPD1    H1 3383   4.070   0.566  11.659 -1.2489  1.3071  0.8811
  219MPD1    H2 3384   4.472   0.549  11.538  0.0032 -0.4487 -0.4415
  219MPD1    H3 3385   4.245   0.597  11.490  0.4907  0.6448  0.0313
  219MPD1     N 3386   4.103   0.469  11.899  0.0627 -0.4222  0.2357
  219MPD1    H5 3387   4.011   0.494  11.866  1.1826  0.4016 -2.2482
  219MPD1    N1 3388   4.566   0.456  11.773 -0.2331  0.7877 -0.2217
  219MPD1    H6 3389   4.587   0.417  11.865 -0.3598 -0.8951 -0.8925
  219MPD1    H7 3390   4.621   0.417  11.698 -0.7425 -3.1502  1.4272
  220MPD1     C 3391   3.142   1.254   9.143  0.3026 -0.4505  0.3471
  220MPD1    C1 3392   3.203   1.325   9.240  0.1555  0.3775  1.3382
  220MPD1    C2 3393   3.232   1.267   9.364 -1.3709 -0.8120  0.0190
  220MPD1    C3 3394   3.193   1.139   9.393 -0.2222 -0.8559  0.0676
  220MPD1    C4 3395   3.112   1.079   9.302  0.6658 -0.4594  0.0436
  220MPD1    C5 3396   3.088   1.130   9.174  0.1980 -0.3452  0.7156
  220MPD1     H 3397   3.289   1.318   9.441 -0.3546  1.0772 -1.9944
  220MPD1    H1 3398   3.070   0.980   9.317  0.2459  0.1674  2.9657
  220MPD1    H2 3399   3.123   1.294   9.044 -0.1753 -2.5270 -0.4038
  220MPD1    H3 3400   3.029   1.074   9.102 -0.0140  1.6660 -0.6808
  220MPD1     N 3401   3.238   1.072   9.506 -0.0606 -0.1981  0.7520
  220MPD1    H5 3402   3.274   1.126   9.584 -0.9790 -0.1421  1.1270
  220MPD1    N1 3403   3.268   1.447   9.209 -0.8522 -0.1175 -0.2179
  220MPD1    H6 3404   3.224   1.509   9.141 -1.8142  1.6360  2.0198
  220MPD1    H7 3405   3.299   1.499   9.291  0.7337 -1.2585 -0.1036
  221MPD1     C 3406   1.816   3.393  17.138  0.2596  0.2248  0.0922
  221MPD1    C1 3407   1.796   3.525  17.166 -0.2540  0.2906 -0.7065
  221MPD1    C2 3408   1.789   3.619  17.060 -0.4023 -0.0504 -1.1267
  221MPD1    C3 3409   1.816   3.576  16.928  0.4542 -0.5214  0.0095
  221MPD1    C4 3410   1.855   3.448  16.909  0.9776  0.1502 -0.9395
  221MPD1    C5 3411   1.851   3.357  17.014  0.1412  0.0159  0.2588
  221MPD1     H 3412   1.767   3.722  17.085  3.4216  0.8222 -1.4793
  221MPD1    H1 3413   1.879   3.414  16.809  0.2932  0.7041 -1.2905
  221MPD1    H2 3414   1.805   3.315  17.213 -0.2198 -0.1476 -0.3680
  221MPD1    H3 3415   1.869   3.251  16.997  0.6840  0.1536 -0.0389
  221MPD1     N 3416   1.816   3.654  16.818 -0.2496  0.7481 -0.4491
  221MPD1    H5 3417   1.840   3.608  16.731 -1.4788  0.3090 -0.5638
  221MPD1    N1 3418   1.762   3.558  17.298  0.0628  0.0379  0.6869
  221MPD1    H6 3419   1.818   3.503  17.362  1.0526  1.6083  1.1739
  221MPD1    H7 3420   1.779   3.654  17.325 -1.0056  0.7805 -1.2466
  222MPD1     C 3421   1.467   3.664   0.459  0.1274 -0.1436 -0.6860
  222MPD1    C1 3422   1.403   3.787   0.494  0.6185  0.3741 -0.0246
  222MPD1    C2 3423   1.451   3.860   0.596 -0.0033 -0.1936 -0.7563
  222MPD1    C3 3424   1.574   3.839   0.646 -0.3071 -0.1228  0.6953
  222MPD1    C4 3425   1.650   3.733   0.598  0.2705  0.0922  0.5397
  222MPD1    C5 3426   1.590   3.642   0.515  0.0865 -0.5798 -0.1544
  222MPD1     H 3427   1.388   3.942   0.630 -0.2526 -0.2651 -1.0447
  222MPD1    H1 3428   1.748   3.714   0.639  0.3184 -0.1711  0.3070
  222MPD1    H2 3429   1.427   3.586   0.396 -2.2408  1.3816 -1.0552
  222MPD1    H3 3430   1.640   3.552   0.483 -2.3960 -1.5596 -1.2210
  222MPD1     N 3431   1.639   3.922   0.743  0.7096 -0.5492 -0.2073
  222MPD1    H5 3432   1.739   3.908   0.758  0.8555  0.3232 -0.3119
  222MPD1    N1 3433   1.268   3.807   0.465  0.0496 -0.1065 -0.3019
  222MPD1    H6 3434   1.240   3.769   0.375  1.4389 -0.2838 -0.6499
  222MPD1    H7 3435   1.238   3.905   0.461 -0.7480 -0.4039 -1.6278
  223MPD1     C 3436   2.356   3.811   1.033 -0.4121  0.2349  0.3437
  223MPD1    C1 3437   2.231   3.766   1.070  0.5330 -0.0046  0.5410
  223MPD1    C2 3438   2.129   3.855   1.079  0.5801  0.5138  0.1100
  223MPD1    C3 3439   2.149   3.976   1.022 -0.4818  0.7971  0.4650
  223MPD1    C4 3440   2.266   4.022   0.979  0.5866  0.9039  0.4765
  223MPD1    C5 3441   2.374   3.934   0.984  0.1308  0.4010  0.0213
  223MPD1     H 3442   2.027   3.831   1.109 -0.0835  1.9345 -1.0263
  223MPD1    H1 3443   2.271   4.123   0.939  1.6183  1.4798  2.0672
  223MPD1    H2 3444   2.440   3.747   1.011 -0.9170  0.2600 -1.6288
  223MPD1    H3 3445   2.469   3.972   0.946  0.0329  0.3908 -0.2314
  223MPD1     N 3446   2.030   4.053   1.008 -0.4291 -0.8696  0.3125
  223MPD1    H5 3447   1.944   4.014   1.046 -0.7809 -2.3320 -1.9765
  223MPD1    N1 3448   2.218   3.640   1.127  0.2072  0.1202 -0.1559
  223MPD1    H6 3449   2.285   3.570   1.097 -0.2962 -1.0051  1.3474
  223MPD1    H7 3450   2.128   3.593   1.126  0.5320 -0.4564 -1.4442
  224MPD1     C 3451   2.868   0.521   9.183 -0.2017 -0.4418 -0.0537
  224MPD1    C1 3452   2.753   0.510   9.113 -0.6033 -0.2299  0.3831
  224MPD1    C2 3453   2.660   0.422   9.171 -0.0620 -0.2901  0.3232
  224MPD1    C3 3454   2.686   0.343   9.282  0.3251  0.5457 -0.7448
  224MPD1    C4 3455   2.807   0.358   9.346 -0.5213 -0.1491  0.5380
  224MPD1    C5 3456   2.887   0.455   9.300 -0.5685 -0.5703 -0.2681
  224MPD1     H 3457   2.565   0.410   9.121  0.7309  0.7909 -1.4452
  224MPD1    H1 3458   2.831   0.304   9.437  0.1840 -0.3897  0.2105
  224MPD1    H2 3459   2.943   0.593   9.152 -0.5260 -0.6657 -1.3237
  224MPD1    H3 3460   2.982   0.481   9.345 -0.9674  2.3429 -1.0972
  224MPD1     N 3461   2.600   0.240   9.334  0.2596  0.1776 -0.2049
  224MPD1    H5 3462   2.649   0.167   9.384  0.5078  1.4596  1.4285
  224MPD1    N1 3463   2.737   0.564   8.988  0.3871  0.0198  0.3614
  224MPD1    H6 3464   2.641   0.574   8.955 -0.8681  0.0294  4.0998
  224MPD1    H7 3465   2.788   0.648   8.959 -0.6317  0.6021  0.2356
  225MPD1     C 3466   3.942   1.923  12.948  0.3723 -0.8886 -0.2964
  225MPD1    C1 3467   3.983   1.827  12.852  0.6184  0.1517 -0.0350
  225MPD1    C2 3468   3.879   1.772  12.783 -0.7456  0.1797  0.0791
  225MPD1    C3 3469   3.743   1.792  12.820 -0.1040 -0.1515  0.2662
  225MPD1    C4 3470   3.707   1.879  12.922 -0.0318  0.3009 -1.1400
  225MPD1    C5 3471   3.814   1.948  12.982 -0.5104 -0.1255  0.0333
  225MPD1     H 3472   3.889   1.708  12.696  0.3030 -0.2120  0.4882
  225MPD1    H1 3473   3.608   1.903  12.961 -0.6103 -0.9237 -1.8273
  225MPD1    H2 3474   4.017   1.981  13.001  0.5275  0.4681 -1.9744
  225MPD1    H3 3475   3.793   2.026  13.054 -1.0051 -0.1576 -0.0696
  225MPD1     N 3476   3.636   1.722  12.754  0.3014  0.0591 -0.1171
  225MPD1    H5 3477   3.543   1.743  12.791  0.4614 -0.5961  0.6632
  225MPD1    N1 3478   4.112   1.826  12.808 -0.0925  0.1227 -0.2017
  225MPD1    H6 3479   4.118   1.897  12.736 -0.0330  0.1618 -0.1581
  225MPD1    H7 3480   4.179   1.842  12.883  1.4693 -0.1085 -1.5469
  226MPD1     C 3481   2.429   1.573   9.013  0.0373  0.0272  0.2747
  226MPD1    C1 3482   2.456   1.454   9.075 -0.0317  0.2718  0.6003
  226MPD1    C2 3483   2.573   1.445   9.157 -0.0605 -0.3161  0.3274
  226MPD1    C3 3484   2.642   1.558   9.181 -0.5464  0.0998 -0.3150
  226MPD1    C4 3485   2.610   1.678   9.126 -0.5672 -0.0271 -0.0137
  226MPD1    C5 3486   2.506   1.684   9.039  0.3065 -0.2262 -0.2297
  226MPD1     H 3487   2.596   1.351   9.206  0.0931 -0.6364 -0.3611
  226MPD1    H1 3488   2.657   1.774   9.143  0.7118 -0.3267 -1.7942
  226MPD1    H2 3489   2.350   1.585   8.939  0.6529 -0.2583 -0.4377
  226MPD1    H3 3490   2.486   1.782   8.997 -2.6866 -1.6663 -2.1576
  226MPD1     N 3491   2.752   1.549   9.269  0.8666  0.4490  0.0721
  226MPD1    H5 3492   2.769   1.458   9.311  3.0156  0.1505 -1.4605
  226MPD1    N1 3493   2.385   1.337   9.043 -0.2717 -0.1647  0.0795
  226MPD1    H6 3494   2.294   1.345   8.999  0.8373  1.3386 -1.9461
  226MPD1    H7 3495   2.386   1.263   9.113  0.6021 -0.2339 -0.0057
  227MPD1     C 3496   3.648   2.081   9.298 -0.3784 -0.8471 -0.1303
  227MPD1    C1 3497   3.525   2.132   9.286  0.6250 -0.2389 -0.7035
  227MPD1    C2 3498   3.421   2.052   9.312  0.2506 -0.5798 -0.4922
  227MPD1    C3 3499   3.433   1.931   9.375  0.2691 -0.4306  0.7046
  227MPD1    C4 3500   3.565   1.888   9.402 -0.4703  0.9857 -0.4596
  227MPD1    C5 3501   3.674   1.962   9.362  0.2742 -0.5454  0.1670
  227MPD1     H 3502   3.319   2.083   9.289 -0.8492 -1.8061  2.7364
  227MPD1    H1 3503   3.582   1.798   9.459  1.3975 -0.8640 -3.9549
  227MPD1    H2 3504   3.737   2.139   9.276 -0.8788 -0.1199 -0.2379
  227MPD1    H3 3505   3.775   1.930   9.384 -0.3402 -2.8439 -0.3140
  227MPD1     N 3506   3.313   1.859   9.403 -0.8631 -0.2772  0.3791
  227MPD1    H5 3507   3.224   1.901   9.380 -0.1977  0.7258 -0.3831
  227MPD1    N1 3508   3.506   2.262   9.232  0.3367 -0.2127 -0.2171
  227MPD1    H6 3509   3.588   2.320   9.249  0.7836 -1.0927  0.6154
  227MPD1    H7 3510   3.429   2.312   9.276 -0.2117 -1.1216 -0.1441
  228MPD1     C 3511   1.462   3.692  12.590  0.3345  0.1446  0.6156
  228MPD1    C1 3512   1.366   3.719  12.485  0.5816  0.0976  0.0586
  228MPD1    C2 3513   1.241   3.655  12.490  0.4871  0.4237 -0.6384
  228MPD1    C3 3514   1.209   3.590  12.606 -0.0037  0.4184  0.4767
  228MPD1    C4 3515   1.295   3.576  12.712 -0.8873  0.0256 -0.1215
  228MPD1    C5 3516   1.425   3.619  12.698  0.5128  0.4121  0.5180
  228MPD1     H 3517   1.173   3.675  12.407 -1.2882  1.6142  1.0959
  228MPD1    H1 3518   1.284   3.510  12.797 -1.3613 -0.6183 -0.6837
  228MPD1    H2 3519   1.563   3.730  12.579 -0.2326  0.7812 -2.1288
  228MPD1    H3 3520   1.507   3.586  12.760  0.6904 -2.5865 -1.3319
  228MPD1     N 3521   1.069   3.545  12.616  0.2703  0.2752 -0.3883
  228MPD1    H5 3522   1.001   3.568  12.545 -0.1761 -3.3740 -1.1464
  228MPD1    N1 3523   1.413   3.779  12.370 -0.1245  0.2963 -0.1857
  228MPD1    H6 3524   1.343   3.832  12.319 -0.2020 -1.4145 -1.8673
  228MPD1    H7 3525   1.488   3.845  12.389  0.1747  0.2934 -1.3497
  229MPD1     C 3526   0.006   2.477  14.488 -0.1363 -0.5170  0.2484
  229MPD1    C1 3527   0.067   2.545  14.593  1.6996 -0.2650 -0.3360
  229MPD1    C2 3528   0.178   2.482  14.650  0.7584 -0.1675  0.1219
  229MPD1    C3 3529   0.234   2.366  14.599 -0.4346  0.6085  0.3456
  229MPD1    C4 3530   0.171   2.308  14.492 -0.8283  0.2896  0.1321
  229MPD1    C5 3531   0.064   2.369  14.436 -0.4629 -0.7265 -0.2470
  229MPD1     H 3532   0.225   2.523  14.739 -1.9960  0.1988  1.4248
  229MPD1    H1 3533   0.199   2.212  14.451  1.2258  1.9214 -2.2715
  229MPD1    H2 3534   4.662   2.522  14.433  1.1631  2.2481  0.6213
  229MPD1    H3 3535   0.018   2.320  14.351 -0.7464 -2.2126  0.7688
  229MPD1     N 3536   0.336   2.291  14.652 -0.2726  0.4331 -0.9268
  229MPD1    H5 3537   0.373   2.212  14.599 -0.5303 -0.4414  0.1870
  229MPD1    N1 3538   0.003   2.657  14.659  0.1354 -0.3814  0.2878
  229MPD1    H6 3539   4.694   2.721  14.596 -0.5608 -0.5077  0.6799
  229MPD1    H7 3540   0.076   2.711  14.706 -1.2749 -1.0030  3.2395
  230MPD1     C 3541   1.071   2.702  14.974 -0.5418  0.7568  0.2225
  230MPD1    C1 3542   1.070   2.652  14.845  0.7938 -0.1109  0.3415
  230MPD1    C2 3543   0.995   2.540  14.823  0.5248  0.4395 -0.9274
  230MPD1    C3 3544   0.938   2.466  14.928 -0.1190 -0.1873 -0.4896
  230MPD1    C4 3545   0.945   2.518  15.050 -0.2125  0.5962  0.0758
  230MPD1    C5 3546   1.013   2.632  15.075 -0.3824 -0.8647  0.4868
  230MPD1     H 3547   0.977   2.502  14.723 -0.6340  0.4545 -0.7305
  230MPD1    H1 3548   0.903   2.463  15.134 -1.5555  2.2429  0.5017
  230MPD1    H2 3549   1.114   2.797  15.003  0.9708  0.5915 -1.4952
  230MPD1    H3 3550   1.011   2.668  15.177 -1.9927 -0.4033  0.3034
  230MPD1     N 3551   0.860   2.352  14.901  0.0438  0.2846  0.1539
  230MPD1    H5 3552   0.835   2.341  14.803 -0.2799  1.6356  0.0770
  230MPD1    N1 3553   1.109   2.727  14.733 -0.2106 -0.4051 -0.4229
  230MPD1    H6 3554   1.182   2.795  14.752 -2.1897  1.2137  1.4884
  230MPD1    H7 3555   1.122   2.672  14.649  2.4651 -2.0244  1.0798
  231MPD1     C 3556   3.894   4.671  15.797 -0.6097  0.1776 -0.2003
  231MPD1    C1 3557   3.794   4.655  15.707 -0.0371  0.9558 -0.2985
  231MPD1    C2 3558   3.839   4.663  15.575  0.7006 -0.2440  0.2135
  231MPD1    C3 3559   3.959   4.712  15.527 -0.0901  0.1231  0.6061
  231MPD1    C4 3560   4.061   4.735  15.625 -0.3449  0.2668 -0.0834
  231MPD1    C5 3561   4.020   4.711  15.758 -0.1148 -0.8514  0.0999
  231MPD1     H 3562   3.767   4.646  15.495 -0.8141  3.3789  0.8009
  231MPD1    H1 3563   4.165   0.007  15.598 -0.7656 -0.0055 -1.8747
  231MPD1    H2 3564   3.874   4.638  15.899  3.4338 -0.1464  0.4887
  231MPD1    H3 3565   4.089   4.738  15.837 -0.1528 -2.6322  0.7277
  231MPD1     N 3566   3.974   4.732  15.390  0.1177 -0.1359 -0.2651
  231MPD1    H5 3567   3.894   4.709  15.331 -0.0352 -3.4476  1.2516
  231MPD1    N1 3568   3.668   4.598  15.738 -0.1479  0.5521  0.2138
  231MPD1    H6 3569   3.595   4.625  15.673 -0.4967 -1.0135 -0.0525
  231MPD1    H7 3570   3.639   4.652  15.820  0.6938 -1.0651  1.5892
  232MPD1     C 3571   0.623   3.256   0.477  0.0829 -0.3708 -0.0377
  232MPD1    C1 3572   0.493   3.272   0.478 -0.1869 -0.5331 -0.2874
  232MPD1    C2 3573   0.421   3.231   0.366  0.2094 -0.4283  0.3207
  232MPD1    C3 3574   0.485   3.158   0.269  0.3388  1.1360  0.1771
  232MPD1    C4 3575   0.621   3.150   0.271 -0.0951 -0.3222 -0.7537
  232MPD1    C5 3576   0.698   3.213   0.369  0.3914  0.6219 -0.9409
  232MPD1     H 3577   0.313   3.244   0.369  0.3557  0.9411 -0.2353
  232MPD1    H1 3578   0.673   3.099   0.190  0.7299 -0.7171  0.0212
  232MPD1    H2 3579   0.677   3.290   0.565 -1.6480 -1.5993  1.4905
  232MPD1    H3 3580   0.806   3.207   0.373  0.2940  0.6315  1.7204
  232MPD1     N 3581   0.407   3.093   0.170 -0.2006 -0.5425 -0.2077
  232MPD1    H5 3582   0.308   3.117   0.173 -0.1954 -0.4590 -0.8293
  232MPD1    N1 3583   0.438   3.356   0.572 -0.0722 -0.4770  0.6263
  232MPD1    H6 3584   0.488   3.350   0.660  0.3133 -1.9790  0.2972
  232MPD1    H7 3585   0.340   3.335   0.591 -0.2544  1.3884  1.7601
  233MPD1     C 3586   2.143   0.696   2.017 -0.1717 -0.5610 -0.2821
  233MPD1    C1 3587   2.169   0.669   1.885 -0.2255 -0.1614  0.3100
  233MPD1    C2 3588   2.261   0.745   1.816  0.3880 -0.3356 -0.2619
  233MPD1    C3 3589   2.328   0.853   1.876  0.7650 -0.1109 -0.4570
  233MPD1    C4 3590   2.296   0.878   2.006  0.0351  0.7155  0.1665
  233MPD1    C5 3591   2.196   0.808   2.074  0.4426 -0.0277 -0.5658
  233MPD1     H 3592   2.276   0.725   1.710  0.2251 -0.6403 -0.2302
  233MPD1    H1 3593   2.335   0.958   2.067 -0.6633  1.3379 -0.1938
  233MPD1    H2 3594   2.086   0.627   2.078 -1.6043  0.0910 -0.8822
  233MPD1    H3 3595   2.169   0.831   2.176 -2.2125  1.7916 -1.6593
  233MPD1     N 3596   2.417   0.936   1.805  0.6221 -0.4534 -0.4471
  233MPD1    H5 3597   2.440   1.027   1.843  1.1253  0.4486 -2.9455
  233MPD1    N1 3598   2.117   0.563   1.817 -0.6443  0.6589 -0.1599
  233MPD1    H6 3599   2.024   0.535   1.849  0.0022 -0.0481  1.0945
  233MPD1    H7 3600   2.117   0.564   1.715  2.3544 -1.1063 -0.1584
  234MPD1     C 3601   3.174   3.425  10.105 -1.1713  0.3491 -0.1869
  234MPD1    C1 3602   3.174   3.526  10.205  0.0383  0.9318  0.7096
  234MPD1    C2 3603   3.120   3.649  10.188 -0.4822 -0.4388 -0.1866
  234MPD1    C3 3604   3.074   3.687  10.063 -0.8574  0.1424 -0.0461
  234MPD1    C4 3605   3.089   3.598   9.959  0.4648 -0.1067 -0.5217
  234MPD1    C5 3606   3.131   3.473   9.981 -0.5526 -0.0861 -0.0086
  234MPD1     H 3607   3.116   3.723  10.267 -1.4130 -1.5092  0.7682
  234MPD1    H1 3608   3.058   3.621   9.858 -0.8678  2.2582  0.4057
  234MPD1    H2 3609   3.191   3.320  10.123  2.1962  0.5335 -2.3205
  234MPD1    H3 3610   3.130   3.404   9.898  1.2084  0.7963 -0.7636
  234MPD1     N 3611   3.025   3.820  10.037 -0.1411 -0.2757 -0.3303
  234MPD1    H5 3612   2.995   3.870  10.120  0.1536  0.8913 -0.9197
  234MPD1    N1 3613   3.210   3.480  10.331 -0.8432 -0.4728  0.3621
  234MPD1    H6 3614   3.243   3.545  10.401  0.8028  1.6613 -2.3702
  234MPD1    H7 3615   3.275   3.402  10.331  0.3877  0.5531  1.3275
  235MPD1     C 3616   4.618   0.548  10.060  0.4575  0.2234 -0.1176
  235MPD1    C1 3617   4.621   0.634   9.957  0.2665  0.4128  0.5595
  235MPD1    C2 3618   4.630   0.768   9.975  0.2078  0.2047 -0.3693
  235MPD1    C3 3619   4.659   0.816  10.106  0.3283  0.2617 -0.0785
  235MPD1    C4 3620   4.674   0.731  10.208 -0.0788  0.2251 -0.2688
  235MPD1    C5 3621   4.640   0.598  10.183  0.2380  0.0378  0.1414
  235MPD1     H 3622   4.602   0.835   9.894  2.0578  0.9531 -0.3943
  235MPD1    H1 3623   4.691   0.762  10.310  0.3212  2.5027 -1.0312
  235MPD1    H2 3624   4.609   0.442  10.039 -0.3019  0.2941 -0.1301
  235MPD1    H3 3625   4.648   0.530  10.267 -0.3591  1.7918  1.6256
  235MPD1     N 3626   4.663   0.956  10.123  0.1863  0.1655 -0.4163
  235MPD1    H5 3627   4.652   1.013  10.041 -0.8547  2.2319  1.1518
  235MPD1    N1 3628   4.594   0.585   9.831 -0.6523 -0.7669 -0.0435
  235MPD1    H6 3629   4.643   0.497   9.820  0.5154  0.0462 -1.3416
  235MPD1    H7 3630   4.627   0.647   9.758 -0.0842 -1.5958 -0.4869
  236MPD1     C 3631   3.054   3.082   9.472 -0.4504  1.2983 -0.1853
  236MPD1    C1 3632   3.089   2.967   9.408  0.0165  0.1131  0.3290
  236MPD1    C2 3633   3.196   2.894   9.459 -0.3927 -0.0931  0.5136
  236MPD1    C3 3634   3.274   2.938   9.565 -0.2947 -0.7330 -0.4603
  236MPD1    C4 3635   3.240   3.054   9.627 -0.6507  0.1791 -0.9000
  236MPD1    C5 3636   3.139   3.125   9.575  0.8266 -0.5332  0.5133
  236MPD1     H 3637   3.218   2.798   9.414 -1.4759  0.1212 -0.4598
  236MPD1    H1 3638   3.309   3.085   9.704  0.3658 -1.8904 -0.9736
  236MPD1    H2 3639   2.964   3.142   9.463 -0.6729  1.7348  4.4673
  236MPD1    H3 3640   3.125   3.220   9.626 -0.4672 -0.9751  0.9909
  236MPD1     N 3641   3.383   2.870   9.624 -0.3121  0.3188 -0.7078
  236MPD1    H5 3642   3.444   2.914   9.692  0.5087 -1.9481  0.0040
  236MPD1    N1 3643   2.999   2.905   9.310  0.0075  0.1679 -0.1066
  236MPD1    H6 3644   2.940   2.968   9.257  1.6133  0.4145 -1.6126
  236MPD1    H7 3645   3.040   2.834   9.249  1.1318  0.0267  0.8130
  237MPD1     C 3646   4.225   0.619  14.914 -0.3249  0.5088 -0.5531
  237MPD1    C1 3647   4.216   0.741  14.854 -0.0745 -0.1396 -0.7726
  237MPD1    C2 3648   4.139   0.834  14.917 -0.8267  0.0410  0.2935
  237MPD1    C3 3649   4.071   0.805  15.034 -0.1072  0.1440 -0.3466
  237MPD1    C4 3650   4.087   0.682  15.097 -0.3274 -0.3970  0.4992
  237MPD1    C5 3651   4.161   0.585  15.032 -0.1869  0.0893  0.0161
  237MPD1     H 3652   4.123   0.927  14.864  0.4139 -0.6423 -1.2808
  237MPD1    H1 3653   4.035   0.659  15.189 -0.6948 -1.0386  0.1312
  237MPD1    H2 3654   4.275   0.542  14.856 -1.3180  0.0850 -0.8542
  237MPD1    H3 3655   4.168   0.486  15.075  0.5123 -0.3195 -1.0612
  237MPD1     N 3656   3.974   0.881  15.102  0.6184 -0.9182  0.1351
  237MPD1    H5 3657   3.948   0.839  15.191 -1.1993 -1.9369 -0.8553
  237MPD1    N1 3658   4.267   0.762  14.722 -0.3243  0.3613  0.5282
  237MPD1    H6 3659   4.343   0.701  14.692  0.0453  0.3769  1.4544
  237MPD1    H7 3660   4.303   0.854  14.699 -0.6676  0.6620  1.2048
  238MPD1     C 3661   0.970   3.951  14.925  0.2573 -0.0274 -0.5332
  238MPD1    C1 3662   0.938   3.902  14.798  0.4588  0.1039 -0.1040
  238MPD1    C2 3663   0.875   3.989  14.708 -0.5848  0.5009  0.7587
  238MPD1    C3 3664   0.827   4.110  14.751  1.1518 -0.6179  0.3023
  238MPD1    C4 3665   0.837   4.138  14.881 -0.3956  0.0205 -0.2398
  238MPD1    C5 3666   0.924   4.069  14.969  0.1771 -0.3324 -0.2938
  238MPD1     H 3667   0.833   3.948  14.617 -1.1166 -1.4104  1.8610
  238MPD1    H1 3668   0.793   4.230  14.918  0.3585 -0.3080  1.5152
  238MPD1    H2 3669   1.023   3.886  14.994 -2.6553 -1.4968  0.3057
  238MPD1    H3 3670   0.943   4.111  15.067 -0.7591  1.5373 -0.9160
  238MPD1     N 3671   0.740   4.182  14.673  0.3141 -0.0591 -0.6596
  238MPD1    H5 3672   0.682   4.250  14.720  0.1091  0.1164 -1.1699
  238MPD1    N1 3673   0.979   3.778  14.755 -0.4443  0.3032 -0.1135
  238MPD1    H6 3674   0.914   3.738  14.688 -2.4810  2.2191  0.7450
  238MPD1    H7 3675   0.987   3.705  14.825 -0.7103  1.8105  1.5054
  239MPD1     C 3676   0.164   0.049  14.436  0.9417  0.0007 -0.0165
  239MPD1    C1 3677   0.247   0.028  14.329 -0.4833 -0.1503  0.4073
  239MPD1    C2 3678   0.327   0.127  14.285  0.3307 -0.0483  0.3647
  239MPD1    C3 3679   0.317   0.263  14.338 -0.3450 -0.0075  0.9248
  239MPD1    C4 3680   0.242   0.279  14.455 -0.5449  0.3089 -0.5561
  239MPD1    C5 3681   0.156   0.178  14.497 -0.0965 -0.5348 -0.6338
  239MPD1     H 3682   0.380   0.115  14.192  0.0626 -1.2565  0.3738
  239MPD1    H1 3683   0.216   0.373  14.502 -0.5596 -0.2984  0.6710
  239MPD1    H2 3684   0.101   4.705  14.469  0.5414  0.8363  1.3007
  239MPD1    H3 3685   0.091   0.186  14.583 -0.2143 -2.8172 -0.5059
  239MPD1     N 3686   0.386   0.378  14.283 -0.1723  0.1562  0.6541
  239MPD1    H5 3687   0.374   0.461  14.341  1.2363  3.1683 -3.3395
  239MPD1    N1 3688   0.278   4.631  14.296  0.2201 -0.0457  0.4184
  239MPD1    H6 3689   0.194   4.574  14.298 -0.5473  1.0961  0.9576
  239MPD1    H7 3690   0.321   4.623  14.205 -0.6306  0.3255 -0.0143
  240MPD1     C 3691   3.982   0.602  12.943  0.0316  0.6720 -0.2428
  240MPD1    C1 3692   3.962   0.580  13.074 -0.0892  0.0695 -0.3142
  240MPD1    C2 3693   4.033   0.486  13.147  0.3296 -0.9909  0.1120
  240MPD1    C3 3694   4.143   0.433  13.087 -0.6257  0.0734 -0.0561
  240MPD1    C4 3695   4.174   0.462  12.956  0.1260 -0.5045 -0.0342
  240MPD1    C5 3696   4.092   0.552  12.882  0.0019 -0.0656 -0.2861
  240MPD1     H 3697   3.998   0.479  13.250  1.6246 -0.0579  0.6183
  240MPD1    H1 3698   4.259   0.417  12.907  0.9485  2.0337 -0.9394
  240MPD1    H2 3699   3.916   0.666  12.886  0.7343  1.3063 -0.3399
  240MPD1    H3 3700   4.098   0.567  12.775 -1.1507  0.2433 -0.3061
  240MPD1     N 3701   4.225   0.349  13.169  0.4720 -0.0554 -0.1758
  240MPD1    H5 3702   4.202   0.333  13.266  0.7933  1.8576  0.2265
  240MPD1    N1 3703   3.840   0.629  13.131  0.4596  0.3674 -0.2190
  240MPD1    H6 3704   3.847   0.620  13.232  0.3091  1.5759 -0.1037
  240MPD1    H7 3705   3.818   0.725  13.104  0.3400  0.4016  0.0019
  241MPD1     C 3706   0.498   4.692  13.385 -0.2682 -0.3582  0.5668
  241MPD1    C1 3707   0.440   4.737  13.270 -0.2475  0.4045  0.6548
  241MPD1    C2 3708   0.308   0.046  13.266  0.0879 -0.9173 -0.1144
  241MPD1    C3 3709   0.230   0.018  13.376  0.5590 -0.2162  0.4230
  241MPD1    C4 3710   0.289   4.719  13.491  0.3101 -0.3919 -0.1241
  241MPD1    C5 3711   0.418   4.688  13.495  0.2677  0.3756 -0.4812
  241MPD1     H 3712   0.266   0.076  13.171  1.5263  1.2294 -0.0653
  241MPD1    H1 3713   0.226   4.706  13.578 -0.6365  1.9985 -0.4518
  241MPD1    H2 3714   0.605   4.670  13.389  0.0448  1.1502  0.3567
  241MPD1    H3 3715   0.466   4.675  13.591 -2.3838  0.7545  0.8958
  241MPD1     N 3716   0.090   0.047  13.384  0.2559  0.4399 -0.7737
  241MPD1    H5 3717   0.045   0.037  13.474 -0.1049 -0.3806 -1.0455
  241MPD1    N1 3718   0.524   0.036  13.158 -0.3749 -0.2257  0.2168
  241MPD1    H6 3719   0.601   4.709  13.149 -0.8368 -0.5099 -1.5351
  241MPD1    H7 3720   0.466   0.050  13.075  0.0635  1.7620  0.2356
  242MPD1     C 3721   0.567   3.938  15.627  0.1225 -0.1018 -0.9767
  242MPD1    C1 3722   0.473   3.911  15.526  0.2499  0.3113 -0.7970
  242MPD1    C2 3723   0.498   3.805  15.444  0.1394  0.2343 -0.4507
  242MPD1    C3 3724   0.597   3.714  15.455  0.2170  0.1257  0.3884
  242MPD1    C4 3725   0.693   3.745  15.560  0.0022  0.0642 -0.1108
  242MPD1    C5 3726   0.675   3.854  15.633 -0.2411 -0.0356  0.0772
  242MPD1     H 3727   0.430   3.792  15.360  0.4693 -0.4683 -0.6128
  242MPD1    H1 3728   0.768   3.672  15.589 -0.6351 -0.1267  1.0584
  242MPD1    H2 3729   0.554   4.009  15.708 -1.9617 -2.4038  0.7026
  242MPD1    H3 3730   0.738   3.853  15.721  1.3139  1.5104 -1.0221
  242MPD1     N 3731   0.603   3.594  15.381  0.0126  0.2899 -0.5724
  242MPD1    H5 3732   0.687   3.541  15.399  0.1013 -0.1830 -2.3175
  242MPD1    N1 3733   0.362   3.997  15.494 -0.2718 -0.1275 -0.3074
  242MPD1    H6 3734   0.299   3.975  15.417 -2.6128 -0.8268  1.8287
  242MPD1    H7 3735   0.317   4.029  15.579  1.0255  0.8288  0.0157
  243MPD1     C 3736   0.751   2.720  17.603  0.4073  0.2382 -1.1173
  243MPD1    C1 3737   0.804   2.693  17.728 -0.0321  0.6200 -0.0299
  243MPD1    C2 3738   0.913   2.601  17.723  0.2667 -0.2192  0.0646
  243MPD1    C3 3739   0.947   2.532  17.606  0.0811 -0.7861  0.4646
  243MPD1    C4 3740   0.873   2.558  17.490 -0.7279 -0.2519 -0.1762
  243MPD1    C5 3741   0.782   2.655  17.490 -1.2752 -0.1456  0.7538
  243MPD1     H 3742   0.977   2.598   0.060 -0.8659  2.5114  0.9787
  243MPD1    H1 3743   0.891   2.495  17.404  0.5833 -1.0217  0.6699
  243MPD1    H2 3744   0.681   2.802  17.608  1.8612  1.3560  0.5982
  243MPD1    H3 3745   0.723   2.678  17.401  1.0628  1.4451 -0.3811
  243MPD1     N 3746   1.052   2.437  17.614  0.6438 -0.0625  0.5961
  243MPD1    H5 3747   1.102   2.421  17.701 -1.9735 -1.3504  1.8710
  243MPD1    N1 3748   0.788   2.774   0.088 -0.2219 -0.1915  0.6131
  243MPD1    H6 3749   0.693   2.812   0.089  0.2332  0.9953 -1.2457
  243MPD1    H7 3750   0.782   2.724   0.177  1.1977 -1.2042  0.1352
  244MPD1     C 3751   1.946   2.784  17.595 -0.4358  0.0904  0.2127
  244MPD1    C1 3752   1.975   2.653  17.619 -0.6944  0.1182  1.3834
  244MPD1    C2 3753   1.871   2.556  17.628 -0.3956  0.1237 -0.3336
  244MPD1    C3 3754   1.741   2.593  17.597  0.2643  0.0547  0.5084
  244MPD1    C4 3755   1.720   2.726  17.574  0.8123  0.1499  0.0850
  244MPD1    C5 3756   1.817   2.819  17.566 -0.2215  0.8608  1.2337
  244MPD1     H 3757   1.894   2.452  17.645 -1.2228  0.0024 -0.0039
  244MPD1    H1 3758   1.618   2.756  17.553 -0.6481 -2.3706  3.5968
  244MPD1    H2 3759   2.033   2.849  17.592 -2.8743  3.1378 -3.6123
  244MPD1    H3 3760   1.785   2.920  17.540  0.1222  0.8513  0.7793
  244MPD1     N 3761   1.651   2.488  17.589 -0.0382  0.1793  0.2611
  244MPD1    H5 3762   1.687   2.393  17.587 -1.0582 -0.1404 -2.2110
  244MPD1    N1 3763   2.106   2.624  17.656 -0.0723 -0.4676 -0.3788
  244MPD1    H6 3764   2.127   2.525  17.649  0.3480 -0.3715 -0.4809
  244MPD1    H7 3765   2.166   2.679  17.595 -1.1024  0.6064 -0.4300
  245MPD1     C 3766   4.042   1.909  13.416  0.3025  0.5415 -0.6859
  245MPD1    C1 3767   3.916   1.939  13.378  0.0716 -0.0787  0.2192
  245MPD1    C2 3768   3.872   2.069  13.394  0.7976  0.2211  1.2758
  245MPD1    C3 3769   3.955   2.168  13.436  0.1837 -0.1755 -0.7428
  245MPD1    C4 3770   4.087   2.138  13.469  0.4574  0.6712 -0.3424
  245MPD1    C5 3771   4.132   2.010  13.452  0.2813 -0.0238 -0.2789
  245MPD1     H 3772   3.772   2.087  13.357  0.5887 -0.0329  1.7147
  245MPD1    H1 3773   4.151   2.216  13.509 -0.0188  1.4839 -1.1638
  245MPD1    H2 3774   4.095   1.814  13.412 -1.3778 -0.3687 -1.4765
  245MPD1    H3 3775   4.235   1.988  13.476 -0.3190 -2.1481  0.2899
  245MPD1     N 3776   3.913   2.300  13.443  0.6421  0.3590 -0.4232
  245MPD1    H5 3777   3.987   2.364  13.470  0.7730 -0.0395  0.1636
  245MPD1    N1 3778   3.831   1.832  13.353  0.3290 -0.1649 -0.6024
  245MPD1    H6 3779   3.774   1.851  13.270  0.9468  0.6886 -0.8335
  245MPD1    H7 3780   3.886   1.750  13.327 -1.1703 -1.4744  0.3639
  246MPD1     C 3781   0.423   4.055  10.343 -0.2408 -0.9393 -0.2203
  246MPD1    C1 3782   0.445   4.096  10.215  0.3999  0.3344 -0.0896
  246MPD1    C2 3783   0.410   4.012  10.112 -0.0230 -0.2353 -0.0353
  246MPD1    C3 3784   0.354   3.891  10.140  0.0019  0.8333  0.7356
  246MPD1    C4 3785   0.339   3.849  10.269 -0.1058  0.6557  0.4864
  246MPD1    C5 3786   0.368   3.934  10.370  0.1029  0.2968  0.1972
  246MPD1     H 3787   0.423   4.031  10.006  1.8595  0.0040  0.2293
  246MPD1    H1 3788   0.278   3.765  10.301  1.1832 -0.5004 -0.1410
  246MPD1    H2 3789   0.457   4.115  10.426 -1.6088 -1.7675  0.9377
  246MPD1    H3 3790   0.350   3.906  10.473  0.0175  3.2658  1.0002
  246MPD1     N 3791   0.300   3.818  10.034  0.2986 -0.5777 -0.1343
  246MPD1    H5 3792   0.321   3.841   9.937 -0.5605  3.4571  0.6679
  246MPD1    N1 3793   0.511   4.214  10.180  0.4490 -0.2220 -0.4195
  246MPD1    H6 3794   0.477   4.291  10.237  0.3891 -0.1951 -0.4912
  246MPD1    H7 3795   0.499   4.237  10.082 -1.4524 -1.4285 -0.4789
  247MPD1     C 3796   2.938   4.595  16.036 -0.3694 -0.3008 -0.3108
  247MPD1    C1 3797   2.996   4.588  15.911  0.2512 -0.1800  0.1505
  247MPD1    C2 3798   3.006   4.465  15.855 -0.2087  0.6862 -1.3059
  247MPD1    C3 3799   2.939   4.356  15.905 -0.2337  0.4247 -0.1547
  247MPD1    C4 3800   2.873   4.359  16.026  0.2232 -0.1117 -0.0789
  247MPD1    C5 3801   2.880   4.477  16.100  0.7515 -0.3326 -0.0901
  247MPD1     H 3802   3.078   4.450  15.775  0.4894  0.5804 -0.6559
  247MPD1    H1 3803   2.831   4.270  16.071  0.1855 -1.9949 -3.8379
  247MPD1    H2 3804   2.959   4.687  16.089  0.4445 -0.3216 -0.5921
  247MPD1    H3 3805   2.842   4.480  16.201 -0.5056  1.6024 -0.6116
  247MPD1     N 3806   2.968   4.225  15.852  0.0188  0.3611  0.6702
  247MPD1    H5 3807   2.930   4.148  15.906  0.9831 -0.0798  0.7273
  247MPD1    N1 3808   3.080   4.689  15.868 -0.8024 -0.0984 -0.5830
  247MPD1    H6 3809   3.104   4.691  15.769  2.5099  0.8301  0.2499
  247MPD1    H7 3810   3.042   0.042  15.894 -0.3095 -0.0192 -0.1558
  248MPD1     C 3811   3.269   1.929  17.672  0.0649  0.1566  0.0574
  248MPD1    C1 3812   3.383   1.979  17.625  0.5510 -0.1313  0.1505
  248MPD1    C2 3813   3.383   2.113  17.600  0.2301  0.1894  0.8529
  248MPD1    C3 3814   3.267   2.192  17.617  0.7656 -0.0239 -0.2421
  248MPD1    C4 3815   3.148   2.133  17.664  0.3257  0.1857 -0.0910
  248MPD1    C5 3816   3.155   1.999  17.677 -0.2285 -0.7184  0.3418
  248MPD1     H 3817   3.472   2.162  17.562 -0.5493  2.3083  1.7840
  248MPD1    H1 3818   3.052   2.175  17.692 -1.0607 -2.0873 -1.3022
  248MPD1    H2 3819   3.268   1.824  17.699  1.2221 -0.1958 -1.2606
  248MPD1    H3 3820   3.063   1.950  17.707 -1.6930  1.4461 -0.6697
  248MPD1     N 3821   3.281   2.335  17.598 -0.4169  0.4339 -0.1573
  248MPD1    H5 3822   3.373   2.379  17.592  0.8656 -1.9515  2.3413
  248MPD1    N1 3823   3.500   1.902  17.637 -0.0452 -0.2987 -0.2579
  248MPD1    H6 3824   3.487   1.802  17.623 -2.5386 -0.2648  1.8148
  248MPD1    H7 3825   3.569   1.932  17.568 -1.7124  1.5804 -1.1257
  249MPD1     C 3826   0.202   4.521  10.752 -0.3442 -0.4759  0.1638
  249MPD1    C1 3827   0.268   4.642  10.769 -0.0680  0.0759 -0.1787
  249MPD1    C2 3828   0.337   4.686  10.662 -0.9609  0.7684  0.4009
  249MPD1    C3 3829   0.355   4.615  10.541 -0.1388  0.2965 -0.0792
  249MPD1    C4 3830   0.284   4.496  10.526  0.5478 -0.1468 -0.4170
  249MPD1    C5 3831   0.204   4.459  10.631 -1.0305 -0.5847  0.7054
  249MPD1     H 3832   0.406   0.031  10.667  1.9753 -1.4669 -3.1967
  249MPD1    H1 3833   0.294   4.429  10.442 -0.7416 -0.2120 -0.5256
  249MPD1    H2 3834   0.141   4.485  10.835 -0.7388 -1.5536 -0.5902
  249MPD1    H3 3835   0.142   4.371  10.624 -0.5740 -0.7857 -0.9075
  249MPD1     N 3836   0.452   4.670  10.449  0.2184 -0.4618 -0.1135
  249MPD1    H5 3837   0.496   0.021  10.466  1.3537 -0.7921 -1.3543
  249MPD1    N1 3838   0.291   4.702  10.897  0.6292 -0.2240 -0.4644
  249MPD1    H6 3839   0.300   0.065  10.891  0.9012 -0.1933  0.6130
  249MPD1    H7 3840   0.228   4.675  10.972 -0.3913  0.3241 -1.1007
  250MPD2     C 3841   1.160   1.491  12.316 -0.5794 -0.1401 -0.1524
  250MPD2    C1 3842   1.148   1.514  12.449  0.2622 -0.4793  0.1090
  250MPD2    C2 3843   1.105   1.420  12.537 -0.3534 -0.4848 -0.6039
  250MPD2    C3 3844   1.077   1.293  12.482 -0.0424 -0.2678 -0.1935
  250MPD2    C4 3845   1.096   1.267  12.348  0.1087 -0.1968  0.1402
  250MPD2    C5 3846   1.132   1.373  12.265  0.7898  0.5851 -0.7033
  250MPD2     H 3847   1.097   1.442  12.643 -0.9515 -0.9127 -0.5589
  250MPD2    H1 3848   1.074   1.173  12.299  0.9191  0.0676 -0.7439
  250MPD2    H2 3849   1.179   1.561  12.236  0.4622  1.1112  1.1723
  250MPD2    H3 3850   1.145   1.352  12.159  0.9075 -1.1948 -0.3437
  250MPD2     N 3851   1.048   1.184  12.552 -0.0986  0.5824 -0.2743
  250MPD2    H5 3852   1.032   1.100  12.498 -1.6662  0.4768  0.3553
  250MPD2    N1 3853   1.199   1.642  12.485 -0.3134  0.2076 -0.4666
  250MPD2    H7 3854   1.241   1.695  12.409 -0.8402  1.6347  0.2443
  251TMC3    C1 3855   1.292   1.807  12.611 -0.3281 -1.0127  0.6821
  251TMC3    C2 3856   1.283   1.884  12.723  0.0867 -0.0354 -0.1059
  251TMC3    C3 3857   1.389   1.947  12.779  0.2031 -0.4059 -0.0727
  251TMC3    C4 3858   1.414   1.786  12.554  0.4476  0.3220 -0.1925
  251TMC3    C5 3859   1.522   1.842  12.623 -0.4725 -0.0755 -0.1846
  251TMC3    C6 3860   1.515   1.921  12.731  0.6835  0.0821 -0.1866
  251TMC3     C 3861   1.200   1.701  12.609  0.6306 -0.0598 -0.2230
  251TMC3     O 3862   1.133   1.671  12.710  0.2030 -0.2966  0.1187
  251TMC3     H 3863   1.181   1.893  12.757  1.2832  2.1913  2.9045
  251TMC3    H1 3864   1.429   1.708  12.480  1.1032 -0.6691  0.9744
  251TMC3    H2 3865   1.607   1.966  12.768  0.5184 -0.3942  0.8139
  251TMC3    C7 3866   1.651   1.773  12.613 -0.5255 -0.0534 -0.2064
  251TMC3    C8 3867   1.374   1.961  12.923 -0.3067 -0.1740  0.0765
  251TMC3    O1 3868   1.721   1.767  12.714  0.1389  0.2984 -0.2858
  251TMC3    O2 3869   1.258   1.960  12.961  0.5494 -0.6700  0.5864
  252TMC3    C1 3870   1.776   1.511   8.792  0.3164  0.1557 -0.0032
  252TMC3    C2 3871   1.876   1.604   8.767  0.4505 -0.1981 -0.4670
  252TMC3    C3 3872   1.900   1.683   8.875  0.5806 -0.1799 -1.2340
  252TMC3    C4 3873   1.705   1.506   8.908  0.5653  0.0981 -0.5582
  252TMC3    C5 3874   1.725   1.598   9.010 -0.2099 -0.2836 -0.0425
  252TMC3    C6 3875   1.837   1.682   8.999  0.4411 -0.9902  0.4318
  252TMC3     C 3876   1.717   1.435   8.679 -0.0973  0.0041  0.3680
  252TMC3     O 3877   1.665   1.325   8.705  0.4561 -0.3045  0.4362
  252TMC3     H 3878   1.945   1.597   8.684 -0.4154  2.9456 -1.4409
  252TMC3    H1 3879   1.628   1.431   8.923  1.0065 -0.2488 -0.0080
  252TMC3    H2 3880   1.849   1.753   9.081  1.5119  1.2017 -1.6355
  252TMC3    C7 3881   1.645   1.609   9.130 -0.2528  0.6345  0.1224
  252TMC3    C8 3882   1.993   1.792   8.849  0.0771  0.2255  0.6384
  252TMC3    O1 3883   1.682   1.676   9.227  0.2061  0.3284 -0.0052
  252TMC3    O2 3884   2.009   1.827   8.733  0.9501  0.3545  0.6758
  253MPD2     C 3885   3.004   0.838  14.988 -0.2832 -0.1406 -0.3388
  253MPD2    C1 3886   2.978   0.960  14.931  0.0036 -0.2704  0.4828
  253MPD2    C2 3887   2.964   1.072  15.010 -0.5970  0.0728  0.9584
  253MPD2    C3 3888   2.948   1.052  15.147 -0.1402 -0.0401 -0.4670
  253MPD2    C4 3889   2.957   0.928  15.201 -0.9112  0.2592 -0.0089
  253MPD2    C5 3890   2.988   0.821  15.124  0.2504 -0.5683 -1.1794
  253MPD2     H 3891   2.954   1.174  14.975  2.1596  0.8601  2.4573
  253MPD2    H1 3892   2.936   0.904  15.304 -0.3029  2.0751  0.5496
  253MPD2    H2 3893   3.025   0.752  14.926 -0.3848  0.4153 -1.1433
  253MPD2    H3 3894   2.991   0.724  15.173  1.6448 -0.3429 -0.8163
  253MPD2     N 3895   2.900   1.153  15.236 -0.5806  0.2714 -0.3652
  253MPD2    H5 3896   2.881   1.131  15.333 -0.7055  0.8160 -0.2676
  253MPD2    N1 3897   2.982   0.969  14.791 -0.4296  0.2401 -0.1571
  253MPD2    H7 3898   3.027   0.886  14.753 -0.8022 -0.9232  1.9185
  254TMC3    C1 3899   2.850   1.365  15.340  0.2425 -0.2147  0.2498
  254TMC3    C2 3900   2.752   1.457  15.320 -0.1256  0.4170 -0.6007
  254TMC3    C3 3901   2.676   1.497  15.426  0.1264 -0.0018  0.3867
  254TMC3    C4 3902   2.877   1.323  15.466  0.5302 -0.0234 -0.9861
  254TMC3    C5 3903   2.807   1.376  15.574  0.7189  0.3561  0.2592
  254TMC3    C6 3904   2.695   1.450  15.550 -0.1017  0.4050  0.0505
  254TMC3     C 3905   2.885   1.287  15.212 -0.2614 -0.3052 -0.5866
  254TMC3     O 3906   2.874   1.351  15.105  0.0241 -0.5651  0.3318
  254TMC3     H 3907   2.717   1.484  15.221  1.4478 -0.2450 -1.3405
  254TMC3    H1 3908   2.952   1.246  15.476 -0.1338 -0.4467  0.7176
  254TMC3    H2 3909   2.631   1.480  15.633 -2.3283 -0.9843 -1.1732
  254TMC3    C7 3910   2.835   1.357  15.709 -0.1527  0.5412  0.4319
  254TMC3    C8 3911   2.565   1.583  15.399 -0.0438 -0.1288  0.8905
  254TMC3    O1 3912   2.762   1.424  15.786 -0.0131 -0.3932  0.2517
  254TMC3    O2 3913   2.532   1.604  15.281  0.2109  0.4126  0.7328
  255MPD2     C 3914   1.384   2.614  10.240  0.0245 -0.2374  0.0988
  255MPD2    C1 3915   1.506   2.674  10.235  0.1354  0.2077 -0.3813
  255MPD2    C2 3916   1.593   2.613  10.145 -1.2821  0.3159  0.2146
  255MPD2    C3 3917   1.562   2.490  10.080  0.3869 -0.0943  0.1196
  255MPD2    C4 3918   1.441   2.432  10.091  0.0609  0.0878 -0.1085
  255MPD2    C5 3919   1.350   2.498  10.175  0.8917  0.2203  0.6084
  255MPD2     H 3920   1.687   2.657  10.115 -1.6473  1.9710  1.5371
  255MPD2    H1 3921   1.405   2.349  10.031  0.4670  1.3754 -2.1301
  255MPD2    H2 3922   1.307   2.649  10.308  0.1990  1.5307 -0.6291
  255MPD2    H3 3923   1.260   2.442  10.200 -0.1187  2.6377  2.4097
  255MPD2     N 3924   1.656   2.443   9.993 -1.0092  0.4220 -0.4828
  255MPD2    H5 3925   1.738   2.502   9.984 -0.7150  0.0759 -0.0935
  255MPD2    N1 3926   1.539   2.797  10.299 -0.5086  0.6982 -0.1384
  255MPD2    H7 3927   1.461   2.856  10.327 -0.6954  0.5044 -0.2514
  256TMC3    C1 3928   1.680   2.992  10.319  0.1539 -0.1393 -0.5969
  256TMC3    C2 3929   1.749   3.054  10.219 -0.4935 -0.4995 -0.2550
  256TMC3    C3 3930   1.720   3.181  10.182 -0.1666  0.4050 -0.1382
  256TMC3    C4 3931   1.571   3.062  10.366  0.1850  0.5331  0.7232
  256TMC3    C5 3932   1.541   3.186  10.329 -0.8619  0.2233  0.1731
  256TMC3    C6 3933   1.614   3.247  10.234 -0.3413 -0.0764  0.7306
  256TMC3     C 3934   1.665   2.846  10.293  0.4367 -0.0163 -0.3992
  256TMC3     O 3935   1.772   2.800  10.263 -0.1307 -0.3635 -0.3827
  256TMC3     H 3936   1.835   3.010  10.170  0.8267  0.3155  1.3189
  256TMC3    H1 3937   1.499   2.998  10.416  0.0080 -0.9214 -1.4231
  256TMC3    H2 3938   1.591   3.347  10.198  1.7269 -0.6591 -2.1592
  256TMC3    C7 3939   1.414   3.240  10.370 -0.2784 -0.5227 -0.1032
  256TMC3    C8 3940   1.756   3.214  10.042 -0.4935 -0.4742  0.3420
  256TMC3    O1 3941   1.325   3.173  10.413 -0.0185  0.0235  0.2305
  256TMC3    O2 3942   1.787   3.122   9.969  0.0272  0.2992 -0.5020
  257MPD2     C 3943   0.271   1.284  13.034 -0.2590 -0.0377 -0.2986
  257MPD2    C1 3944   0.263   1.192  12.929  0.0539 -0.0738  0.0021
  257MPD2    C2 3945   0.232   1.060  12.971  0.4497 -0.3775 -0.2404
  257MPD2    C3 3946   0.231   1.019  13.101 -0.0469  0.0588  0.1448
  257MPD2    C4 3947   0.251   1.120  13.198 -0.1674  0.6315  0.4885
  257MPD2    C5 3948   0.260   1.251  13.163 -0.2607  0.2478  0.1423
  257MPD2     H 3949   0.222   0.989  12.889 -1.2846  0.6469 -0.9329
  257MPD2    H1 3950   0.262   1.100  13.304 -0.8411 -1.0616  0.2335
  257MPD2    H2 3951   0.291   1.389  13.017  0.8262 -0.2741 -0.4986
  257MPD2    H3 3952   0.275   1.329  13.237 -0.0832 -0.8727  1.2857
  257MPD2     N 3953   0.244   0.881  13.127 -0.8493 -0.2377  0.1471
  257MPD2    H5 3954   0.261   0.817  13.050  1.3104 -1.4336  1.6080
  257MPD2    N1 3955   0.282   1.215  12.787  0.4667  0.5188 -0.2828
  257MPD2    H7 3956   0.272   1.133  12.728 -3.0239 -0.8179  2.1792
  258TMC3    C1 3957   0.327   0.698  13.251 -0.1278 -0.7795 -0.2274
  258TMC3    C2 3958   0.400   0.655  13.137 -0.3473  0.8501 -0.0078
  258TMC3    C3 3959   0.447   0.532  13.142  0.1753  0.6841 -0.6835
  258TMC3    C4 3960   0.326   0.627  13.367 -0.8752 -0.1794 -0.0883
  258TMC3    C5 3961   0.379   0.493  13.357 -0.1054  0.4029  0.1533
  258TMC3    C6 3962   0.446   0.454  13.248 -0.2318  0.1893  0.5480
  258TMC3     C 3963   0.278   0.832  13.251  0.1846 -0.4678 -0.3867
  258TMC3     O 3964   0.268   0.873  13.366  0.2448  0.3980 -0.4506
  258TMC3     H 3965   0.412   0.715  13.047 -1.0784  0.4922 -0.3401
  258TMC3    H1 3966   0.281   0.662  13.459 -2.4881 -1.3359 -0.4335
  258TMC3    H2 3967   0.457   0.348  13.232 -2.6725  0.5953 -3.8417
  258TMC3    C7 3968   0.363   0.413  13.478 -0.2954 -0.0167  0.0044
  258TMC3    C8 3969   0.522   0.505  13.024 -0.4711  0.6110 -0.2256
  258TMC3    O1 3970   0.254   0.403  13.538  0.2373 -0.4744  0.0326
  258TMC3    O2 3971   0.477   0.543  12.918  0.5426  0.1252  0.3842
  259MPD2     C 3972   4.221   3.438   0.790 -0.4441  0.6280  0.5675
  259MPD2    C1 3973   4.236   3.307   0.769 -0.0187  0.5978  0.3774
  259MPD2    C2 3974   4.200   3.257   0.643 -0.6810 -0.2868 -0.5600
  259MPD2    C3 3975   4.149   3.342   0.540  0.0283  0.7827 -0.5120
  259MPD2    C4 3976   4.143   3.479   0.567 -0.3696  0.0047  0.7805
  259MPD2    C5 3977   4.178   3.526   0.692 -0.2166 -0.1640 -0.2454
  259MPD2     H 3978   4.196   3.151   0.622  2.1919 -0.4964 -0.0366
  259MPD2    H1 3979   4.130   3.549   0.485  2.2123  1.2514  1.4441
  259MPD2    H2 3980   4.249   3.485   0.884  0.6651  2.8121 -0.8351
  259MPD2    H3 3981   4.165   3.633   0.709 -1.5286 -0.3303 -0.2184
  259MPD2     N 3982   4.129   3.286   0.404 -0.4242 -0.1031  0.5904
  259MPD2    H5 3983   4.160   3.191   0.387  2.2581  0.7131  0.9168
  259MPD2    N1 3984   4.278   3.226   0.873  0.4341 -0.5454  0.2302
  259MPD2    H7 3985   4.295   3.278   0.958 -0.8493  0.6855 -0.2727
  260TMC3    C1 3986   4.068   3.270   0.179 -0.3175 -0.0552  0.5959
  260TMC3    C2 3987   4.078   3.331   0.056  0.7329 -0.2542 -0.4603
  260TMC3    C3 3988   4.099   3.254  17.693  0.1025 -0.4379  1.1778
  260TMC3    C4 3989   4.069   3.133   0.190 -0.1016 -0.2898  0.5793
  260TMC3    C5 3990   4.085   3.067   0.072 -0.4511  0.2848  0.5676
  260TMC3    C6 3991   4.115   3.121  17.702  0.3301 -0.4067  0.8470
  260TMC3     C 3992   4.064   3.350   0.302 -0.1104  0.2575 -0.1147
  260TMC3     O 3993   4.028   3.466   0.296 -0.2342  0.5465 -0.2610
  260TMC3     H 3994   4.075   3.439   0.047  3.1652 -0.0307  1.6445
  260TMC3    H1 3995   4.060   3.088   0.288  0.6283 -0.3531  0.6160
  260TMC3    H2 3996   4.145   3.058  17.619 -0.9504 -0.6383  0.5679
  260TMC3    C7 3997   4.119   2.926   0.088  0.0205  0.2938  0.2160
  260TMC3    C8 3998   4.194   3.319  17.604  0.4367  0.0292  0.0755
  260TMC3    O1 3999   4.192   2.877  17.750 -0.2287  0.1730 -0.1788
  260TMC3    O2 4000   4.186   3.441  17.593 -0.4310  0.1329 -0.1367
  261MPD2     C 4001   0.810   0.534  12.377 -0.3699 -0.3856 -0.7630
  261MPD2    C1 4002   0.846   0.667  12.351  0.2620 -0.4182 -0.4782
  261MPD2    C2 4003   0.885   0.702  12.220 -0.3144 -0.2196  0.2700
  261MPD2    C3 4004   0.869   0.609  12.122 -0.3856 -0.0566 -0.3041
  261MPD2    C4 4005   0.823   0.484  12.144  0.5944 -0.7374 -0.0591
  261MPD2    C5 4006   0.796   0.445  12.270 -0.2249  0.0665 -0.1855
  261MPD2     H 4007   0.914   0.804  12.196 -0.0358 -0.4646 -0.4537
  261MPD2    H1 4008   0.815   0.406  12.068  1.8980 -0.4782 -0.4600
  261MPD2    H2 4009   0.785   0.495  12.475 -0.7912 -1.3729 -1.2599
  261MPD2    H3 4010   0.768   0.343  12.293 -1.9761  0.4323 -0.7032
  261MPD2     N 4011   0.899   0.647  11.989  0.1364 -0.0861  0.2593
  261MPD2    H5 4012   0.893   0.746  11.968  1.8358 -0.0096  0.0787
  261MPD2    N1 4013   0.852   0.760  12.452 -0.4562  0.2500 -0.0698
  261MPD2    H7 4014   0.902   0.842  12.420 -0.6631  0.7281  0.8106
  262TMC3    C1 4015   0.936   0.631  11.749 -0.4211 -0.2986  0.5025
  262TMC3    C2 4016   0.873   0.750  11.726 -0.1233 -0.0430  0.0760
  262TMC3    C3 4017   0.888   0.813  11.607 -0.0640 -0.4557 -0.1084
  262TMC3    C4 4018   1.000   0.560  11.653  0.9843  0.5283  0.2937
  262TMC3    C5 4019   1.024   0.632  11.543  0.0281 -0.4973 -0.4070
  262TMC3    C6 4020   0.962   0.752  11.514 -0.8764  0.2357 -0.3203
  262TMC3     C 4021   0.924   0.563  11.881  0.5927  0.2955  0.7807
  262TMC3     O 4022   0.966   0.450  11.882  0.9629  0.1243 -0.1474
  262TMC3     H 4023   0.824   0.794  11.812  1.2405  0.9148  0.3538
  262TMC3    H1 4024   1.044   0.463  11.672  1.1591  0.3861 -0.8140
  262TMC3    H2 4025   0.973   0.794  11.415  0.0028 -0.9874 -0.7321
  262TMC3    C7 4026   1.147   0.605  11.470 -0.2034 -0.0131 -0.2682
  262TMC3    C8 4027   0.825   0.939  11.570  0.4777  0.4415  0.0358
  262TMC3    O1 4028   1.213   0.505  11.505 -0.0491  0.0156 -0.0506
  262TMC3    O2 4029   0.844   0.971  11.452  0.1043  0.6956  0.8346
  263MPD2     C 4030   2.111   0.536  11.384 -0.1538 -0.5298  0.3543
  263MPD2    C1 4031   2.151   0.411  11.364 -0.0587  0.1056  0.1859
  263MPD2    C2 4032   2.092   0.327  11.271 -0.3133  0.1605  0.6939
  263MPD2    C3 4033   1.994   0.372  11.194  0.4882  0.2870  0.1213
  263MPD2    C4 4034   1.943   0.501  11.220  0.7267  0.8272 -0.3710
  263MPD2    C5 4035   2.004   0.580  11.318 -0.1641  0.0083 -0.1821
  263MPD2     H 4036   2.131   0.226  11.266  2.4841  1.2066  1.0931
  263MPD2    H1 4037   1.855   0.544  11.173 -0.1924 -1.0751 -0.3978
  263MPD2    H2 4038   2.178   0.598  11.444 -1.5028  2.0180 -0.7818
  263MPD2    H3 4039   1.968   0.682  11.333 -0.0187 -0.0117  0.3218
  263MPD2     N 4040   1.953   0.291  11.085 -0.0444  0.4528 -0.9837
  263MPD2    H5 4041   2.001   0.203  11.070 -0.1743  0.1828  0.1468
  263MPD2    N1 4042   2.270   0.375  11.436 -0.3487  0.9029  0.3676
  263MPD2    H7 4043   2.317   0.442  11.496 -0.9361  1.5590  0.0904
  264TMC3    C1 4044   1.828   0.250  10.876 -0.0899 -0.2440  0.5010
  264TMC3    C2 4045   1.710   0.266  10.812 -0.0511  0.1139  0.0294
  264TMC3    C3 4046   1.696   0.203  10.693  0.1771  0.1455 -0.1159
  264TMC3    C4 4047   1.925   0.166  10.839 -0.8328 -0.4781  0.1542
  264TMC3    C5 4048   1.908   0.096  10.724  0.1068 -0.6070 -0.5867
  264TMC3    C6 4049   1.798   0.118  10.649  0.4751  0.1941 -0.6112
  264TMC3     C 4050   1.853   0.336  10.993  0.2813  0.4078  0.0283
  264TMC3     O 4051   1.773   0.432  11.000 -0.4711  0.2135 -0.2589
  264TMC3     H 4052   1.633   0.333  10.849  0.1272  1.4878 -2.1340
  264TMC3    H1 4053   2.016   0.159  10.898  0.2089  4.9632 -0.7571
  264TMC3    H2 4054   1.786   0.077  10.549 -0.6418 -2.9337  0.8448
  264TMC3    C7 4055   2.020   0.117  10.632 -0.2344  0.3813  0.0396
  264TMC3    C8 4056   1.596   0.252  10.601  0.3171 -0.0552  0.5382
  264TMC3    O1 4057   2.044   0.029  10.550 -0.0550 -0.2989  0.1090
  264TMC3    O2 4058   1.577   0.371  10.609  0.2743 -0.1064 -0.4165
  265MPD2     C 4059   4.156   0.924  15.425  0.1988  0.1174 -0.3140
  265MPD2    C1 4060   4.215   1.025  15.345 -0.5180  0.0802 -0.5335
  265MPD2    C2 4061   4.320   0.987  15.266  0.5122  0.4354 -0.0333
  265MPD2    C3 4062   4.361   0.849  15.257  0.2094  0.0567  0.1027
  265MPD2    C4 4063   4.292   0.752  15.328 -0.0250 -0.0168 -0.0933
  265MPD2    C5 4064   4.194   0.790  15.414 -1.2374 -0.2886  0.2917
  265MPD2     H 4065   4.367   1.065  15.207  1.2007 -0.4777 -0.7024
  265MPD2    H1 4066   4.319   0.647  15.332 -0.7492 -0.1776  0.5557
  265MPD2    H2 4067   4.083   0.940  15.504 -0.7591  1.3734 -1.4597
  265MPD2    H3 4068   4.149   0.717  15.480  1.7098 -0.5163  2.0593
  265MPD2     N 4069   4.469   0.805  15.168  0.2681  0.7296 -0.1142
  265MPD2    H5 4070   4.498   0.708  15.161  0.4048  0.7730 -0.1524
  265MPD2    N1 4071   4.179   1.169  15.352  0.3344 -0.3617 -0.2362
  265MPD2    H7 4072   4.241   1.238  15.309  0.2114  1.6824  2.8790
  266TMC3    C1 4073   4.080   1.355  15.476  0.3013  0.2372 -0.0463
  266TMC3    C2 4074   4.023   1.389  15.606 -0.3193 -0.5264  0.4066
  266TMC3    C3 4075   3.993   1.520  15.625 -0.0559 -0.6612  0.5839
  266TMC3    C4 4076   4.108   1.450  15.386 -0.9627 -0.5453 -0.2490
  266TMC3    C5 4077   4.082   1.578  15.422  0.2219 -0.0534  0.7363
  266TMC3    C6 4078   4.029   1.617  15.542  0.1534  0.2170 -0.1286
  266TMC3     C 4079   4.083   1.216  15.435  0.0232  0.2659  0.1740
  266TMC3     O 4080   4.001   1.152  15.501 -0.3158  0.2653  0.0948
  266TMC3     H 4081   3.994   1.315  15.680  1.1540 -1.0033  0.5035
  266TMC3    H1 4082   4.137   1.423  15.285 -0.3161  1.5644 -0.6331
  266TMC3    H2 4083   4.002   1.721  15.554 -0.0353  0.3373 -1.5907
  266TMC3    C7 4084   4.078   1.675  15.314  0.1215 -0.0189  0.2853
  266TMC3    C8 4085   3.897   1.549  15.721  0.4919 -0.4471 -0.1492
  266TMC3    O1 4086   4.054   1.628  15.204 -0.3635 -0.4007  0.3730
  266TMC3    O2 4087   3.811   1.460  15.724  0.1498 -0.6785  0.0318
  267MPD2     C 4088   1.590   3.388   0.095 -0.5208  0.4172  0.1674
  267MPD2    C1 4089   1.671   3.348  17.736  0.6039 -0.4486  0.1532
  267MPD2    C2 4090   1.652   3.427  17.626 -0.1018 -0.5656 -0.6072
  267MPD2    C3 4091   1.541   3.518  17.604  0.1412  0.1611 -0.0249
  267MPD2    C4 4092   1.460   3.540  17.709 -0.2452 -0.5717  0.5315
  267MPD2    C5 4093   1.488   3.477   0.078 -0.5594 -0.2516 -0.2522
  267MPD2     H 4094   1.724   3.422  17.546 -0.1553 -0.7447 -0.6450
  267MPD2    H1 4095   1.371   3.601  17.697  0.2410  0.5404  2.6983
  267MPD2    H2 4096   1.604   3.330   0.186 -1.0323 -0.8457 -0.5494
  267MPD2    H3 4097   1.418   3.490   0.160  1.0343 -3.3938  1.5922
  267MPD2     N 4098   1.521   3.573  17.477  0.1347  0.2345  0.4298
  267MPD2    H5 4099   1.586   3.549  17.403 -0.4680  1.4172 -0.4845
  267MPD2    N1 4100   1.784   3.257  17.750  0.0254 -0.2607 -0.3243
  267MPD2    H7 4101   1.798   3.220   0.093  2.0982 -2.2873 -1.4639
  268TMC3    C1 4102   1.992   3.149  17.693 -0.4410  0.5117 -0.4295
  268TMC3    C2 4103   2.096   3.133  17.604 -0.0139  0.0446  1.0927
  268TMC3    C3 4104   2.204   3.053  17.645 -0.4887  0.1360  0.5228
  268TMC3    C4 4105   1.989   3.085   0.064 -0.1828 -0.0161  0.1780
  268TMC3    C5 4106   2.096   3.003   0.090 -0.2745  0.0739  0.0770
  268TMC3    C6 4107   2.206   2.986   0.007  0.2884  0.5135 -0.3155
  268TMC3     C 4108   1.867   3.212  17.647  0.3607  0.4166  0.0142
  268TMC3     O 4109   1.848   3.230  17.526 -0.2363  0.1692 -0.7443
  268TMC3     H 4110   2.101   3.180  17.506 -1.0810 -3.0807 -0.4527
  268TMC3    H1 4111   1.904   3.106   0.129  0.3900  1.2472  0.5287
  268TMC3    H2 4112   2.287   2.916   0.022  0.0383 -0.2611 -2.6682
  268TMC3    C7 4113   2.118   2.940   0.221  0.1744  0.5872 -0.1530
  268TMC3    C8 4114   2.330   3.069  17.575 -0.1261 -0.3408  0.4260
  268TMC3    O1 4115   2.234   2.916   0.257 -0.3008 -0.1299 -0.2516
  268TMC3    O2 4116   2.431   3.047  17.641 -0.3812  0.0495 -0.4771
  269MPD2     C 4117   1.990   1.675  15.170 -0.1215 -0.0499  0.7912
  269MPD2    C1 4118   1.954   1.720  15.293  0.2708  0.4194  0.4043
  269MPD2    C2 4119   1.901   1.843  15.315  0.2693  0.0039 -0.8689
  269MPD2    C3 4120   1.887   1.927  15.208  0.9010 -0.1548 -0.3226
  269MPD2    C4 4121   1.930   1.881  15.088 -0.7857 -0.6513 -0.5957
  269MPD2    C5 4122   1.979   1.756  15.066 -0.2355  1.1042  0.5674
  269MPD2     H 4123   1.871   1.880  15.413  0.2010  0.9107 -1.2277
  269MPD2    H1 4124   1.925   1.942  14.998 -0.0355 -1.7507 -1.3926
  269MPD2    H2 4125   2.012   1.571  15.149 -0.0474 -0.2325  1.8005
  269MPD2    H3 4126   1.994   1.716  14.966 -0.4793 -1.8649  1.7195
  269MPD2     N 4127   1.845   2.058  15.228  0.2924  0.3080 -0.4259
  269MPD2    H5 4128   1.806   2.076  15.320 -0.3588  0.0328 -0.6448
  269MPD2    N1 4129   1.952   1.634  15.409  0.1559  0.6830  0.2977
  269MPD2    H7 4130   2.007   1.550  15.396 -0.6990  0.1551  0.0860
  270TMC3    C1 4131   1.897   1.515  15.599 -0.4069  0.0608 -0.5320
  270TMC3    C2 4132   1.781   1.445  15.631  0.1288 -0.0868  0.0545
  270TMC3    C3 4133   1.798   1.314  15.662 -0.4121  0.5655  0.0620
  270TMC3    C4 4134   2.022   1.467  15.607  0.3764  0.7380 -0.2650
  270TMC3    C5 4135   2.032   1.328  15.629  0.1114  0.7102 -0.3296
  270TMC3    C6 4136   1.922   1.256  15.663  0.2550  0.1494 -0.1314
  270TMC3     C 4137   1.878   1.638  15.524 -0.0214  0.0283 -0.2528
  270TMC3     O 4138   1.776   1.698  15.549 -0.6385  0.1258 -0.1614
  270TMC3     H 4139   1.679   1.479  15.626 -0.2520 -0.8355  2.8845
  270TMC3    H1 4140   2.109   1.522  15.572 -0.1237  1.2027 -0.8044
  270TMC3    H2 4141   1.931   1.151  15.688  2.8982  0.3252 -0.3847
  270TMC3    C7 4142   2.164   1.265  15.655 -0.0810  0.1483  0.3165
  270TMC3    C8 4143   1.698   1.230  15.589 -0.0263 -0.3601  0.4103
  270TMC3    O1 4144   2.159   1.173  15.732  0.1982  0.5019 -0.2107
  270TMC3    O2 4145   1.581   1.257  15.609 -0.7269 -0.2429 -0.4570
  271MPD2     C 4146   1.106   0.697  13.808  0.5131  0.6186  1.5521
  271MPD2    C1 4147   1.112   0.783  13.915 -0.0213  0.0303 -0.7194
  271MPD2    C2 4148   1.037   0.900  13.910 -0.0043  0.0807  0.1431
  271MPD2    C3 4149   0.957   0.931  13.801 -0.0061 -0.5527  0.3076
  271MPD2    C4 4150   0.964   0.850  13.697 -0.6819  0.4911  0.3685
  271MPD2    C5 4151   1.039   0.737  13.697  0.5051 -0.1405 -0.3250
  271MPD2     H 4152   1.030   0.947  14.008  1.8326 -2.8515  1.6992
  271MPD2    H1 4153   0.896   0.866  13.614  2.7999  0.5082 -2.5266
  271MPD2    H2 4154   1.166   0.608  13.797  0.5219  0.8006  0.0365
  271MPD2    H3 4155   1.041   0.680  13.604 -0.0504  0.8455 -0.9341
  271MPD2     N 4156   0.858   1.024  13.810  0.0936 -0.2541 -0.2186
  271MPD2    H5 4157   0.803   1.035  13.726  3.9711 -1.0869 -2.8593
  271MPD2    N1 4158   1.188   0.764  14.034 -0.0460  0.3275  0.1988
  271MPD2    H7 4159   1.192   0.837  14.105 -1.4329  0.1829  0.4251
  272TMC3    C1 4160   1.344   0.705  14.194  0.0314  0.7816  0.1716
  272TMC3    C2 4161   1.482   0.691  14.207  0.5914 -0.1853  0.1337
  272TMC3    C3 4162   1.551   0.754  14.304  0.0029  0.4407 -0.6166
  272TMC3    C4 4163   1.272   0.781  14.288 -0.2383 -0.0399  0.5728
  272TMC3    C5 4164   1.348   0.860  14.371 -0.4177 -0.4378  0.8216
  272TMC3    C6 4165   1.484   0.845  14.387  0.1646 -0.4484  0.6357
  272TMC3     C 4166   1.284   0.673  14.067  0.3921  0.5086 -0.1657
  272TMC3     O 4167   1.340   0.597  13.993 -0.5914  0.0983  0.8968
  272TMC3     H 4168   1.543   0.634  14.138  2.3988  0.7016  1.0284
  272TMC3    H1 4169   1.165   0.792  14.277 -0.0884 -1.0883 -1.9677
  272TMC3    H2 4170   1.543   0.911  14.451 -0.8454 -0.0403  1.1422
  272TMC3    C7 4171   1.284   0.978  14.408  0.1950  0.3895 -0.3776
  272TMC3    C8 4172   1.690   0.790  14.274  0.6083 -0.0169 -0.3985
  272TMC3    O1 4173   1.179   1.003  14.352  0.5246 -0.0846 -0.0173
  272TMC3    O2 4174   1.726   0.808  14.159 -0.4239 -0.3173 -0.2842
  273MPD2     C 4175   2.966   3.975  12.338  0.3332 -0.3083 -0.1885
  273MPD2    C1 4176   2.926   3.854  12.285  0.2832  0.3349 -0.0785
  273MPD2    C2 4177   2.864   3.863  12.163 -0.5721 -0.0799  0.8968
  273MPD2    C3 4178   2.852   3.984  12.092  0.3817 -0.4391  0.0868
  273MPD2    C4 4179   2.909   4.096  12.151  0.3848  0.0969 -0.0569
  273MPD2    C5 4180   2.967   4.087  12.271 -0.6672 -0.2108 -0.1853
  273MPD2     H 4181   2.824   3.775  12.115 -2.0223  1.6226 -0.9963
  273MPD2    H1 4182   2.912   4.190  12.096 -0.3810 -0.8710 -1.7361
  273MPD2    H2 4183   3.000   3.971  12.440  4.1446  1.0603 -1.4051
  273MPD2    H3 4184   3.015   4.175  12.314 -0.5686 -0.6522  0.6068
  273MPD2     N 4185   2.803   3.994  11.959 -0.9190  0.0809 -0.3049
  273MPD2    H5 4186   2.791   4.090  11.926 -0.5714  0.4067  0.5038
  273MPD2    N1 4187   2.949   3.735  12.353  0.2533  0.2832  0.4324
  273MPD2    H7 4188   3.008   3.746  12.435 -0.4139  0.6102  0.8694
  274TMC3    C1 4189   2.753   3.930  11.741 -0.1481 -0.3379  0.3942
  274TMC3    C2 4190   2.673   3.847  11.662  0.4624  0.9255 -0.4671
  274TMC3    C3 4191   2.656   3.883  11.527  0.5561  0.5677 -0.2445
  274TMC3    C4 4192   2.791   4.053  11.698  0.3084 -1.0374  0.6593
  274TMC3    C5 4193   2.764   4.083  11.570 -0.0650 -0.0296  0.5640
  274TMC3    C6 4194   2.714   3.997  11.477 -0.4772 -0.4968 -1.0834
  274TMC3     C 4195   2.774   3.885  11.878 -0.5166 -0.8353 -0.3642
  274TMC3     O 4196   2.771   3.762  11.889 -0.0451 -0.2874 -0.0565
  274TMC3     H 4197   2.623   3.755  11.691  1.2419  1.1870  1.7098
  274TMC3    H1 4198   2.861   4.113  11.755  0.0628 -0.0003 -0.1069
  274TMC3    H2 4199   2.680   4.031  11.380 -0.7368  1.3512 -0.3396
  274TMC3    C7 4200   2.775   4.224  11.536  0.2214 -0.2250  0.1936
  274TMC3    C8 4201   2.625   3.782  11.432  0.6527  0.3465 -0.7025
  274TMC3    O1 4202   2.765   4.309  11.620  0.3175  0.0190  0.1576
  274TMC3    O2 4203   2.559   3.687  11.462  0.2290  0.1103 -0.3509
  275MPD2     C 4204   2.450   2.175  15.147 -0.0503  0.1615  0.3960
  275MPD2    C1 4205   2.466   2.192  15.008 -0.2981 -0.1876 -0.0539
  275MPD2    C2 4206   2.354   2.164  14.926  1.0681 -0.6584 -0.7054
  275MPD2    C3 4207   2.231   2.126  14.975 -0.3486 -0.4909  0.3673
  275MPD2    C4 4208   2.215   2.129  15.116 -0.3172 -0.0868  0.6813
  275MPD2    C5 4209   2.327   2.143  15.195 -0.3206  0.1927 -0.0146
  275MPD2     H 4210   2.356   2.169  14.818 -0.8463  0.2961 -0.6942
  275MPD2    H1 4211   2.131   2.080  15.163 -2.0903  1.5784 -0.7611
  275MPD2    H2 4212   2.531   2.191  15.217 -0.1494  1.4677  0.2246
  275MPD2    H3 4213   2.317   2.125  15.301 -3.8631  1.6157 -0.0956
  275MPD2     N 4214   2.121   2.083  14.893 -0.3814 -0.5068 -0.2281
  275MPD2    H5 4215   2.031   2.082  14.941 -0.1353 -0.5022  0.2365
  275MPD2    N1 4216   2.583   2.244  14.951  0.1309 -0.1801  0.6289
  275MPD2    H7 4217   2.590   2.235  14.850 -2.5915 -1.6227  0.5660
  276TMC3    C1 4218   2.813   2.280  14.948 -0.2489  0.5981  0.4251
  276TMC3    C2 4219   2.811   2.196  14.837  0.0805  0.3043 -0.0052
  276TMC3    C3 4220   2.863   2.242  14.718  0.5658  0.4851  0.3462
  276TMC3    C4 4221   2.877   2.399  14.947  0.2420  0.5897  0.1288
  276TMC3    C5 4222   2.927   2.443  14.829 -0.2578 -0.1793 -0.7050
  276TMC3    C6 4223   2.924   2.364  14.717 -0.3267 -0.0045  0.4236
  276TMC3     C 4224   2.693   2.274  15.028  0.0254 -0.2217 -0.3500
  276TMC3     O 4225   2.709   2.286  15.146  0.3898 -0.2276 -0.8295
  276TMC3     H 4226   2.762   2.099  14.844  0.5678  0.0470 -0.1632
  276TMC3    H1 4227   2.886   2.457  15.039  2.8906  0.3610 -0.0009
  276TMC3    H2 4228   2.971   2.393  14.624 -0.3406 -3.9597 -0.8261
  276TMC3    C7 4229   2.923   2.589  14.809  1.2018  0.1031 -0.6365
  276TMC3    C8 4230   2.887   2.156  14.596 -0.0392  0.1487  0.4232
  276TMC3    O1 4231   2.872   2.660  14.898 -0.4137  0.6302 -0.4846
  276TMC3    O2 4232   2.934   2.199  14.493  1.0168  0.0079 -0.2062
  277MPD2     C 4233   4.504   0.881  13.221 -0.0111  0.6697  0.1794
  277MPD2    C1 4234   4.419   0.956  13.294 -0.2615  0.7049 -0.7314
  277MPD2    C2 4235   4.338   0.893  13.386 -0.5427 -0.2405 -0.3957
  277MPD2    C3 4236   4.327   0.752  13.381 -0.1191 -0.9693  0.1546
  277MPD2    C4 4237   4.399   0.678  13.291 -0.1050  0.3683 -0.9375
  277MPD2    C5 4238   4.483   0.744  13.203 -0.6928  1.0129  0.2059
  277MPD2     H 4239   4.261   0.943  13.444  0.4951  2.1467 -1.0477
  277MPD2    H1 4240   4.390   0.570  13.291 -0.5797  0.3971 -2.2249
  277MPD2    H2 4241   4.571   0.932  13.152  1.6623 -2.3090 -0.3939
  277MPD2    H3 4242   4.548   0.678  13.147 -0.6263  0.1116  1.3568
  277MPD2     N 4243   4.257   0.696  13.488  0.6012  0.6229 -0.1287
  277MPD2    H5 4244   4.211   0.766  13.545 -0.2265  1.8839 -2.3534
  277MPD2    N1 4245   4.417   1.100  13.269  0.1641  0.1049  0.8064
  277MPD2    H7 4246   4.492   1.127  13.206  3.2705 -1.4140  3.8547
  278TMC3    C1 4247   4.152   0.546  13.644 -0.2033  0.8006  0.2937
  278TMC3    C2 4248   4.081   0.428  13.663  1.0220 -0.3525 -0.4470
  278TMC3    C3 4249   3.993   0.426  13.763  0.1130  0.2726  0.1465
  278TMC3    C4 4250   4.140   0.659  13.726 -0.4525  0.1718 -0.4393
  278TMC3    C5 4251   4.060   0.650  13.832  0.0688  0.1645 -0.3528
  278TMC3    C6 4252   3.985   0.535  13.849  0.0449  0.8277 -0.3984
  278TMC3     C 4253   4.246   0.564  13.527 -0.1132  0.4105  0.0933
  278TMC3     O 4254   4.300   0.467  13.478 -1.0440  0.2679 -0.2691
  278TMC3     H 4255   4.117   0.341  13.609  1.1056 -1.4608  1.3844
  278TMC3    H1 4256   4.199   0.749  13.711 -0.1339 -0.1024 -0.8263
  278TMC3    H2 4257   3.912   0.528  13.929 -1.0780  1.7960 -1.3362
  278TMC3    C7 4258   4.030   0.768  13.906 -0.6095 -0.2128 -0.7289
  278TMC3    C8 4259   3.929   0.302  13.795  1.3209  0.0358 -0.4144
  278TMC3    O1 4260   4.115   0.856  13.928 -0.1007  0.2127 -0.4449
  278TMC3    O2 4261   3.887   0.292  13.910 -0.0698 -0.5437 -0.0678
  279MPD2     C 4262   3.152   1.526   0.123 -0.7048 -0.2058 -0.2781
  279MPD2    C1 4263   3.280   1.592   0.112  0.1803  0.2363 -0.6305
  279MPD2    C2 4264   3.354   1.576  17.749 -0.5649  0.6863 -0.5077
  279MPD2    C3 4265   3.311   1.485  17.651 -0.5079  0.2831 -0.4194
  279MPD2    C4 4266   3.196   1.416  17.665  0.3113  1.1203 -0.2778
  279MPD2    C5 4267   3.114   1.450   0.018  0.2584 -1.1851  0.0356
  279MPD2     H 4268   3.452   1.618  17.732 -0.1275 -0.4542 -0.7861
  279MPD2    H1 4269   3.160   1.347  17.589  1.5246  1.5444 -1.2378
  279MPD2    H2 4270   3.082   1.554   0.200 -1.5563  1.1224 -1.5273
  279MPD2    H3 4271   3.016   1.406   0.031 -0.7247  0.3389 -2.1219
  279MPD2     N 4272   3.378   1.464  17.526  0.2862  0.3749 -0.4677
  279MPD2    H5 4273   3.333   1.406  17.456  0.4391 -1.4300  0.9444
  279MPD2    N1 4274   3.303   1.698   0.206 -0.4438  0.3267 -0.5573
  279MPD2    H7 4275   3.236   1.725   0.276  1.5616  1.6809  0.8383
  280TMC3    C1 4276   3.407   1.872   0.316  0.4902 -0.3523  0.3034
  280TMC3    C2 4277   3.512   1.889   0.404 -0.6187 -0.5063  0.2795
  280TMC3    C3 4278   3.510   2.000   0.486 -0.6079 -0.3475 -0.0968
  280TMC3    C4 4279   3.299   1.956   0.300  0.0598  0.6813 -0.4484
  280TMC3    C5 4280   3.308   2.069   0.384  0.2883  0.3326 -0.5483
  280TMC3    C6 4281   3.406   2.089   0.476  0.4757 -0.7584  0.1673
  280TMC3     C 4282   3.426   1.756   0.220 -0.3515 -0.2371 -0.7514
  280TMC3     O 4283   3.535   1.703   0.193 -0.1385  0.2540 -0.2762
  280TMC3     H 4284   3.588   1.817   0.429 -0.6762 -0.8911 -0.6460
  280TMC3    H1 4285   3.238   1.951   0.210 -2.2475 -0.6980  1.1758
  280TMC3    H2 4286   3.396   2.168   0.549 -1.5177 -0.3456 -0.5707
  280TMC3    C7 4287   3.216   2.179   0.370  0.8908 -0.0108 -0.1147
  280TMC3    C8 4288   3.621   2.018   0.578 -0.4673 -0.0262 -0.0779
  280TMC3    O1 4289   3.243   2.286   0.426 -0.2082  0.5028  0.0254
  280TMC3    O2 4290   3.702   1.924   0.588  0.5942 -0.2091  0.1568
  281TMC3    C1 4291   2.223   1.192  12.934 -0.1217 -0.3161 -0.0152
  281TMC3    C2 4292   2.138   1.265  12.858  0.0130  0.0675 -0.5858
  281TMC3    C3 4293   2.006   1.256  12.884  0.9964  0.9890  0.4100
  281TMC3    C4 4294   2.176   1.117  13.040  0.3338 -0.5688 -0.4548
  281TMC3    C5 4295   2.042   1.125  13.070 -0.7483  0.1142 -0.1307
  281TMC3    C6 4296   1.956   1.192  12.991  0.0956  0.2800 -0.2448
  281TMC3     C 4297   2.361   1.226  12.926  0.3394 -0.7358 -0.6588
  281TMC3     O 4298   2.410   1.257  12.818  0.4998 -0.5687  0.1703
  281TMC3     H 4299   2.171   1.326  12.775 -0.0367  0.1422 -0.5505
  281TMC3    H1 4300   2.248   1.067  13.105 -0.1064 -2.2419 -1.2568
  281TMC3    H2 4301   1.852   1.201  13.018  0.8610  0.8588  2.4752
  281TMC3    C7 4302   2.004   1.065  13.194 -0.3315 -0.5899  0.6113
  281TMC3    C8 4303   1.911   1.336  12.808  0.0614  0.3915  1.1600
  281TMC3    O1 4304   2.094   1.011  13.257 -0.2880  0.1562 -1.1615
  281TMC3    O2 4305   1.808   1.374  12.861 -0.0240 -0.1634 -0.3187
  282MPD2     C 4306   4.399   2.878  15.038 -0.4442 -0.2313  0.0642
  282MPD2    C1 4307   4.269   2.931  15.047 -0.9192 -0.3928  1.0959
  282MPD2    C2 4308   4.189   2.938  14.936  0.3563 -0.6971  0.4515
  282MPD2    C3 4309   4.233   2.893  14.818  0.1070 -0.3046 -0.2974
  282MPD2    C4 4310   4.358   2.826  14.808  0.2723  0.6848 -0.8930
  282MPD2    C5 4311   4.445   2.824  14.917 -0.1975 -0.0047 -0.1454
  282MPD2     H 4312   4.094   2.990  14.931  0.9426  0.3424  0.2078
  282MPD2    H1 4313   4.405   2.786  14.719 -1.6572 -2.4069 -0.5102
  282MPD2    H2 4314   4.462   2.877  15.127 -2.1167 -0.0019  1.2618
  282MPD2    H3 4315   4.543   2.777  14.915 -1.0008 -1.6370 -0.8137
  282MPD2     N 4316   4.148   2.914  14.708  0.0113 -0.2526 -1.0716
  282MPD2    H5 4317   4.067   2.974  14.718  1.7572  1.7940  0.8191
  282MPD2    N1 4318   4.218   2.970  15.169 -0.7738 -0.1177  0.2235
  282MPD2    H7 4319   4.116   2.975  15.169 -0.8409 -1.4200  3.3479
  283TMC3    C1 4320   4.199   3.029  15.394  0.7144 -0.2256  0.8367
  283TMC3    C2 4321   4.232   3.138  15.472  0.0722  0.5272 -0.0244
  283TMC3    C3 4322   4.143   3.169  15.568  0.3292  0.2742 -0.5093
  283TMC3    C4 4323   4.096   2.949  15.421  0.6223  0.3120 -0.7384
  283TMC3    C5 4324   4.021   2.977  15.531  0.2293  0.3864 -0.6128
  283TMC3    C6 4325   4.041   3.087  15.602  0.2130 -0.1545  0.0627
  283TMC3     C 4326   4.291   2.988  15.291 -1.0241 -0.0438 -0.0225
  283TMC3     O 4327   4.408   3.013  15.317  0.0655  0.1816  0.1103
  283TMC3     H 4328   4.321   3.194  15.446 -0.3306  0.0465 -2.5317
  283TMC3    H1 4329   4.086   2.855  15.369  0.0674  0.8909 -1.6832
  283TMC3    H2 4330   3.978   3.118  15.685 -0.4511  1.7702 -1.1677
  283TMC3    C7 4331   3.934   2.879  15.581  0.2671 -0.7089 -0.1752
  283TMC3    C8 4332   4.133   3.302  15.610  0.0290 -0.0765 -0.3363
  283TMC3    O1 4333   3.863   2.910  15.675 -0.3489 -0.5684 -0.1898
  283TMC3    O2 4334   4.076   3.335  15.714  0.0364  0.2959 -1.0382
  284MPD2     C 4335   2.094   0.991  11.443 -0.2531  0.1534 -0.7642
  284MPD2    C1 4336   2.091   1.131  11.434 -0.7709 -0.5908 -1.0588
  284MPD2    C2 4337   2.165   1.198  11.532 -0.1249 -0.0356 -0.4444
  284MPD2    C3 4338   2.229   1.126  11.634  0.0536 -0.0011 -0.0407
  284MPD2    C4 4339   2.210   0.992  11.652 -0.4034 -0.4700 -0.0740
  284MPD2    C5 4340   2.143   0.924  11.551  0.6254 -0.0185  0.0327
  284MPD2     H 4341   2.173   1.306  11.523  0.7554 -0.1269 -0.7365
  284MPD2    H1 4342   2.250   0.939  11.738  1.6910 -0.9048 -1.3121
  284MPD2    H2 4343   2.055   0.921  11.370  1.1451 -0.8114 -0.5784
  284MPD2    H3 4344   2.135   0.816  11.558 -1.1293  0.3129  3.1265
  284MPD2     N 4345   2.325   1.188  11.724 -0.0466 -0.0786 -0.1192
  284MPD2    H5 4346   2.373   1.122  11.785  1.0818 -0.4263 -1.3897
  284MPD2    N1 4347   2.046   1.209  11.322  0.5877  0.2111 -0.2773
  284MPD2    H7 4348   2.054   1.309  11.335  2.0647  0.3610 -2.3816
  285TMC3    C1 4349   1.982   1.241  11.085  0.3495 -0.6056  0.5923
  285TMC3    C2 4350   1.895   1.204  10.987  0.6910  0.1982  0.4307
  285TMC3    C3 4351   1.881   1.287  10.879  0.3162  0.3810 -0.0275
  285TMC3    C4 4352   2.065   1.354  11.075 -0.0589  0.3848 -0.0891
  285TMC3    C5 4353   2.043   1.436  10.970  0.2450  0.2209  0.1258
  285TMC3    C6 4354   1.946   1.406  10.874  0.1126 -0.5194  0.0803
  285TMC3     C 4355   1.997   1.156  11.204  0.3400 -0.1688  0.1957
  285TMC3     O 4356   1.966   1.043  11.190  0.1622 -0.2812 -0.1111
  285TMC3     H 4357   1.825   1.122  11.000  0.0297  0.8867  1.2284
  285TMC3    H1 4358   2.149   1.368  11.142  0.5376  1.1739 -1.0007
  285TMC3    H2 4359   1.937   1.469  10.787 -3.0061  0.8202  1.3996
  285TMC3    C7 4360   2.115   1.560  10.973  0.1048  0.0793  0.3259
  285TMC3    C8 4361   1.805   1.237  10.765  0.3581  0.6394 -0.6898
  285TMC3    O1 4362   2.198   1.568  11.063 -0.4068 -0.4127 -0.1504
  285TMC3    O2 4363   1.798   1.116  10.756 -0.1785  0.0676  0.2329
  286MPD2     C 4364   3.022   1.778   1.655 -0.6613  0.6201 -0.4619
  286MPD2    C1 4365   2.932   1.782   1.546  0.9333 -0.1512 -0.5687
  286MPD2    C2 4366   2.922   1.678   1.457 -0.5109 -0.2178 -0.9523
  286MPD2    C3 4367   3.001   1.570   1.479  0.4928  0.6272 -0.0696
  286MPD2    C4 4368   3.087   1.567   1.586  0.6106  0.2243 -0.6473
  286MPD2    C5 4369   3.110   1.672   1.671 -0.1679 -0.1817 -0.2811
  286MPD2     H 4370   2.855   1.693   1.373 -0.8177  1.9354 -0.3383
  286MPD2    H1 4371   3.147   1.478   1.603 -1.5570 -0.9250  1.0092
  286MPD2    H2 4372   3.036   1.867   1.716 -1.8771  1.1191 -0.8948
  286MPD2    H3 4373   3.186   1.675   1.747 -0.0761 -1.1370 -0.3395
  286MPD2     N 4374   2.997   1.458   1.396  0.1059  0.1610  0.0932
  286MPD2    H5 4375   3.071   1.389   1.406 -2.5804 -2.9224 -1.1608
  286MPD2    N1 4376   2.854   1.898   1.518 -0.2383 -0.1946 -0.3278
  286MPD2    H7 4377   2.812   1.902   1.426  0.2275 -1.5412 -0.5938
  287TMC3    C1 4378   2.939   1.305   1.232  0.3923 -0.1780 -0.4793
  287TMC3    C2 4379   2.848   1.238   1.160  0.0620 -0.5277  0.1629
  287TMC3    C3 4380   2.881   1.136   1.072 -0.4122  0.3513 -0.5908
  287TMC3    C4 4381   3.069   1.277   1.204  0.3337 -0.3481 -0.5250
  287TMC3    C5 4382   3.103   1.160   1.136 -0.6170 -0.2755 -0.4296
  287TMC3    C6 4383   3.005   1.088   1.067 -0.2216 -0.1959  0.3565
  287TMC3     C 4384   2.911   1.437   1.292 -0.3855 -0.4481  0.7060
  287TMC3     O 4385   2.799   1.483   1.265  0.2538  0.3677  0.0499
  287TMC3     H 4386   2.743   1.265   1.169  0.6704  1.4397  1.2667
  287TMC3    H1 4387   3.150   1.328   1.254  1.0345 -1.2312 -0.7650
  287TMC3    H2 4388   3.013   0.994   1.014  1.2639 -0.0383  0.2923
  287TMC3    C7 4389   3.240   1.122   1.136  0.0987 -0.2087 -1.1808
  287TMC3    C8 4390   2.770   1.070   1.003 -0.2334 -0.1807 -0.3038
  287TMC3    O1 4391   3.312   1.178   1.219 -0.2263  0.2105 -0.3151
  287TMC3    O2 4392   2.786   0.954   0.968 -0.0404 -0.0588 -0.9301
  288TMC3    C1 4393   0.010   0.196  14.065 -0.0307  0.1502  0.2689
  288TMC3    C2 4394   4.707   0.227  14.193  0.2506  0.6480  0.9267
  288TMC3    C3 4395   4.706   0.361  14.219 -0.2077  0.7504 -0.4658
  288TMC3    C4 4396   0.046   0.292  13.967 -1.0846 -0.9224  0.2987
  288TMC3    C5 4397   0.039   0.423  13.996  0.4818 -0.3287 -0.3303
  288TMC3    C6 4398   4.727   0.457  14.122 -0.7625 -0.0149  0.0187
  288TMC3     C 4399   0.030   0.057  14.025  0.0538  0.4209 -0.1023
  288TMC3     O 4400   0.095   0.034  13.928 -0.3001 -0.0649  0.0410
  288TMC3     H 4401   4.705   0.155  14.274  1.1612  1.2401  1.4733
  288TMC3    H1 4402   0.070   0.263  13.865 -0.8733  0.4526 -0.0339
  288TMC3    H2 4403   4.718   0.560  14.156  1.1089  0.4061 -0.7454
  288TMC3    C7 4404   0.022   0.519  13.886 -0.5209  0.2277 -0.1486
  288TMC3    C8 4405   4.664   0.409  14.347 -0.2008  0.6925 -0.2933
  288TMC3    O1 4406   0.086   0.493  13.782  0.0355  0.0578 -0.7057
  288TMC3    O2 4407   4.674   0.531  14.369  0.0768 -0.1872 -0.7576
  289MPD2     C 4408   4.513   4.488  13.722  0.4030  0.0023 -0.2480
  289MPD2    C1 4409   4.418   4.583  13.701  0.1135 -1.3008 -0.3023
  289MPD2    C2 4410   4.311   4.587  13.796  0.6199  0.1828  0.5105
  289MPD2    C3 4411   4.309   4.504  13.904 -0.6583  0.3335 -0.6682
  289MPD2    C4 4412   4.414   4.416  13.928  0.2224 -0.3995 -0.0240
  289MPD2    C5 4413   4.514   4.403  13.832 -0.0844  0.0512  0.3063
  289MPD2     H 4414   4.225   4.648  13.771  0.1647 -0.8417 -0.4400
  289MPD2    H1 4415   4.427   4.351  14.013  1.4907  1.3341  1.0876
  289MPD2    H2 4416   4.589   4.466  13.647  1.8895  2.3859  0.5831
  289MPD2    H3 4417   4.579   4.317  13.831 -2.3249 -1.6455  2.0793
  289MPD2     N 4418   4.218   4.522  14.007  0.8217 -0.4789  0.1269
  289MPD2    H5 4419   4.211   4.447  14.076 -0.2036 -1.2787 -0.8559
  289MPD2    N1 4420   4.434   4.659  13.582  0.1614 -0.0585 -0.2677
  289MPD2    H7 4421   4.515   4.631  13.527  3.7917  0.6354  4.7196
  290TMC3    C1 4422   4.015   4.602  14.114 -0.0184 -0.4433  0.1348
  290TMC3    C2 4423   3.946   4.714  14.141  0.2661 -0.3441  0.3136
  290TMC3    C3 4424   3.816   4.707  14.190  0.3528  0.4997  0.2880
  290TMC3    C4 4425   3.961   4.474  14.134  0.2022 -0.5319  0.0523
  290TMC3    C5 4426   3.828   4.478  14.177  0.3672  0.2591 -0.2175
  290TMC3    C6 4427   3.756   4.586  14.216  0.1815  0.7035  0.5708
  290TMC3     C 4428   4.124   4.623  14.012 -0.8761  0.0386  0.3872
  290TMC3     O 4429   4.126   4.729  13.958 -0.3357  0.6121  0.3448
  290TMC3     H 4430   3.984   0.075  14.121  1.5455 -0.8075  0.4397
  290TMC3    H1 4431   4.010   4.377  14.129  2.0524  0.3949  0.6299
  290TMC3    H2 4432   3.657   4.574  14.257 -1.4073 -0.2265 -3.5600
  290TMC3    C7 4433   3.775   4.368  14.250 -0.8635  0.0500  0.8940
  290TMC3    C8 4434   3.735   0.084  14.231 -0.5085 -0.2480  0.4362
  290TMC3    O1 4435   3.722   4.387  14.359 -0.2237 -0.1947 -0.9262
  290TMC3    O2 4436   3.617   0.063  14.252  0.2733 -0.8284 -0.7476
  291MPD2     C 4437   3.661   0.167  17.414  0.7089  0.2059 -0.2382
  291MPD2    C1 4438   3.746   0.132  17.508  0.1798  0.0037  0.0454
  291MPD2    C2 4439   3.830   0.229  17.560 -0.0706 -0.7847 -0.2952
  291MPD2    C3 4440   3.830   0.362  17.516 -0.2402  0.1967  0.4740
  291MPD2    C4 4441   3.738   0.396  17.419  1.0695  0.9441 -0.3387
  291MPD2    C5 4442   3.659   0.296  17.367  0.5492  0.4526  0.6227
  291MPD2     H 4443   3.901   0.195  17.634  0.5620 -0.2646 -0.6583
  291MPD2    H1 4444   3.727   0.501  17.391 -0.0217  1.0607  0.5170
  291MPD2    H2 4445   3.590   0.095  17.373  1.1832  0.0714 -0.8229
  291MPD2    H3 4446   3.585   0.324  17.293 -0.6810 -2.4801  0.7337
  291MPD2     N 4447   3.908   0.461  17.564  0.4255  0.1878 -0.6853
  291MPD2    H5 4448   3.890   0.553  17.525  0.0324  0.1380 -0.6300
  291MPD2    N1 4449   3.738   0.013  17.581  0.0121 -0.5090  0.6930
  291MPD2    H7 4450   3.818   4.732  17.641  1.1531  2.0484 -0.0230
  292TMC3    C1 4451   3.664   4.555  17.684  0.0416  0.8383 -0.2446
  292TMC3    C2 4452   3.722   4.576   0.060 -0.2949  0.1085 -0.3962
  292TMC3    C3 4453   3.722   4.489   0.165 -0.5349 -0.7277  0.5787
  292TMC3    C4 4454   3.607   4.435  17.657  0.8121  0.9796  0.5089
  292TMC3    C5 4455   3.601   4.346   0.016 -0.3144  0.0700  0.0202
  292TMC3    C6 4456   3.660   4.373   0.135 -0.7529 -0.5848  0.0171
  292TMC3     C 4457   3.643   4.654  17.576 -1.1296  0.0085 -0.4712
  292TMC3     O 4458   3.537   4.652  17.507 -0.0110 -0.9600  0.0702
  292TMC3     H 4459   3.768   4.672   0.080 -0.2549 -0.0035  0.0323
  292TMC3    H1 4460   3.572   4.411  17.557 -0.3600  1.4448  0.8036
  292TMC3    H2 4461   3.667   4.296   0.211 -2.4952  1.5940  2.3283
  292TMC3    C7 4462   3.553   4.210  17.751 -0.2237  0.2260 -0.5263
  292TMC3    C8 4463   3.708   4.552   0.293  0.4776 -0.7189  0.0160
  292TMC3    O1 4464   3.607   4.118   0.061 -0.6010  0.2009 -0.0693
  292TMC3    O2 4465   3.776   4.651   0.317 -0.3831  0.3357  0.1003
  293MPD2     C 4466   0.694   1.185  12.327 -0.2836  0.4013  0.9859
  293MPD2    C1 4467   0.617   1.087  12.381 -0.7169 -0.5787 -0.3045
  293MPD2    C2 4468   0.606   1.077  12.522  0.3684 -0.2891 -0.1755
  293MPD2    C3 4469   0.652   1.190  12.595  0.1452  0.3557  0.2108
  293MPD2    C4 4470   0.702   1.303  12.531 -0.0654 -0.4348 -0.7351
  293MPD2    C5 4471   0.739   1.292  12.400  0.1204  0.8037  0.6435
  293MPD2     H 4472   0.575   0.989  12.578  0.8352 -0.0653  0.4272
  293MPD2    H1 4473   0.727   1.393  12.586  1.0581 -0.2537 -1.5383
  293MPD2    H2 4474   0.729   1.176  12.225 -0.5756  1.0175  0.8283
  293MPD2    H3 4475   0.797   1.369  12.349 -0.6160 -0.5010 -2.1953
  293MPD2     N 4476   0.628   1.186  12.739  0.0414  0.0935 -0.9326
  293MPD2    H5 4477   0.601   1.101  12.788 -1.4617  0.7468 -0.6389
  293MPD2    N1 4478   0.574   0.980  12.302 -0.6289 -0.7861 -0.4808
  293MPD2    H7 4479   0.591   0.990  12.202 -0.3515 -3.6388 -0.7145
  294TMC3    C1 4480   0.457   0.778  12.225 -0.2338 -0.3813  0.0924
  294TMC3    C2 4481   0.335   0.722  12.243  0.1526  0.3639 -0.5013
  294TMC3    C3 4482   0.277   0.665  12.133 -0.4029  0.3228  0.5573
  294TMC3    C4 4483   0.519   0.778  12.107  0.0960 -0.0095  0.4830
  294TMC3    C5 4484   0.456   0.712  12.002  0.8843  0.4990 -0.1942
  294TMC3    C6 4485   0.338   0.647  12.011  0.1407  0.2585 -0.2139
  294TMC3     C 4486   0.505   0.859  12.339  0.3418 -0.1889 -0.5772
  294TMC3     O 4487   0.463   0.824  12.450 -0.1730  0.0023  0.2145
  294TMC3     H 4488   0.287   0.715  12.340  0.1781 -1.5576 -0.6285
  294TMC3    H1 4489   0.615   0.826  12.090  0.3149 -0.3987  0.6195
  294TMC3    H2 4490   0.290   0.617  11.919 -0.9932 -0.3887  0.5980
  294TMC3    C7 4491   0.530   0.685  11.880  0.0289  0.7218  0.6083
  294TMC3    C8 4492   0.149   0.603  12.151 -0.1842 -0.5147 -0.3358
  294TMC3    O1 4493   0.589   0.774  11.822 -0.1756  0.2950 -0.1082
  294TMC3    O2 4494   0.077   0.640  12.244 -0.4344  0.1675  1.0715
  295MPD2     C 4495   2.065   0.664   1.375 -0.6156 -0.2071  0.8945
  295MPD2    C1 4496   2.016   0.545   1.325 -0.9536  0.6615 -0.1744
  295MPD2    C2 4497   2.081   0.426   1.360  0.7098 -0.2011 -0.7328
  295MPD2    C3 4498   2.188   0.420   1.444  0.0809  0.5265 -0.7587
  295MPD2    C4 4499   2.229   0.540   1.501 -0.6020  0.3697  0.2191
  295MPD2    C5 4500   2.163   0.660   1.472  0.0309  0.1887  0.4707
  295MPD2     H 4501   2.041   0.332   1.322  2.5816 -1.1607 -0.2930
  295MPD2    H1 4502   2.319   0.547   1.562 -0.9359  0.7849  0.6618
  295MPD2    H2 4503   2.017   0.754   1.338  0.0613 -0.1975  0.0290
  295MPD2    H3 4504   2.199   0.747   1.527  0.9771  0.0250  0.1127
  295MPD2     N 4505   2.267   0.310   1.478  0.2030  0.0341 -0.0755
  295MPD2    H5 4506   2.351   0.324   1.533  1.1956 -1.4375 -1.2008
  295MPD2    N1 4507   1.914   0.532   1.232 -0.3539  0.0044 -0.1492
  295MPD2    H7 4508   1.902   0.442   1.186 -0.2755 -0.3229  0.4683
  296TMC3    C1 4509   2.324   0.082   1.501  0.1486 -0.1891 -0.5112
  296TMC3    C2 4510   2.458   0.107   1.510  0.6944  0.7941 -0.3506
  296TMC3    C3 4511   2.537   4.736   1.525  0.5044 -0.1468  0.6697
  296TMC3    C4 4512   2.273   4.693   1.498  0.0530  0.1688 -0.1810
  296TMC3    C5 4513   2.357   4.588   1.503  0.3704  0.3758  0.4112
  296TMC3    C6 4514   2.492   4.606   1.518  0.2821 -0.2922 -0.2215
  296TMC3     C 4515   2.231   0.181   1.461 -0.6511 -0.5775  0.2564
  296TMC3     O 4516   2.120   0.141   1.434 -0.1249 -0.1830 -0.2960
  296TMC3     H 4517   2.499   0.204   1.484 -1.5301  2.7726  3.3952
  296TMC3    H1 4518   2.166   4.677   1.498 -0.0037  0.6013  1.0261
  296TMC3    H2 4519   2.556   4.520   1.538  0.5218 -0.3870 -1.4300
  296TMC3    C7 4520   2.318   4.451   1.496  0.0753 -1.1621  0.1302
  296TMC3    C8 4521   2.678   0.005   1.550 -0.0971 -0.6444  0.5945
  296TMC3    O1 4522   2.403   4.367   1.532 -0.8867 -0.3053 -0.6825
  296TMC3    O2 4523   2.734   4.642   1.595 -0.1984 -0.2617 -1.0890
  297MPD2     C 4524   3.255   1.717  16.329 -0.2290  0.2286 -0.1761
  297MPD2    C1 4525   3.225   1.787  16.213 -0.2624 -0.0861 -0.0988
  297MPD2    C2 4526   3.327   1.860  16.160 -0.1538  0.4011  0.0941
  297MPD2    C3 4527   3.448   1.895  16.230 -0.5517 -0.3040 -0.7717
  297MPD2    C4 4528   3.472   1.816  16.335 -0.7223 -0.0245 -0.7447
  297MPD2    C5 4529   3.377   1.731  16.382 -0.0750 -0.1728 -0.5314
  297MPD2     H 4530   3.308   1.921  16.073 -1.6661 -0.5882 -0.2650
  297MPD2    H1 4531   3.565   1.822  16.391 -0.5136  0.3275 -1.1360
  297MPD2    H2 4532   3.182   1.658  16.383 -1.1987 -0.6515 -2.4343
  297MPD2    H3 4533   3.401   1.688  16.478 -0.9291  1.0214  0.2192
  297MPD2     N 4534   3.541   1.995  16.185  0.7721  0.3592 -0.3699
  297MPD2    H5 4535   3.549   2.025  16.088  0.2617  0.1920 -0.4653
  297MPD2    N1 4536   3.109   1.769  16.137  0.0258  0.0085  0.2086
  297MPD2    H7 4537   3.106   1.816  16.047 -1.9357  0.7235  0.6560
  298TMC3    C1 4538   2.880   1.724  16.095 -0.2502 -0.6055 -0.4542
  298TMC3    C2 4539   2.907   1.715  15.966 -0.6577 -0.0725  0.3279
  298TMC3    C3 4540   2.797   1.737  15.882  0.3482 -0.0326  0.1332
  298TMC3    C4 4541   2.749   1.734  16.146 -0.4897 -0.0114  0.0812
  298TMC3    C5 4542   2.644   1.749  16.063  0.5097 -0.0821 -0.1807
  298TMC3    C6 4543   2.667   1.749  15.926 -0.0813 -0.2735  0.3669
  298TMC3     C 4544   2.989   1.725  16.193  0.0860 -0.2674  0.3202
  298TMC3     O 4545   2.965   1.693  16.310  0.5642 -0.0035 -0.4033
  298TMC3     H 4546   3.008   1.711  15.928 -0.8230 -0.2184 -0.1006
  298TMC3    H1 4547   2.737   1.748  16.253 -1.8114 -1.4956  0.1224
  298TMC3    H2 4548   2.587   1.758  15.853  0.8483  1.8013 -0.3854
  298TMC3    C7 4549   2.522   1.816  16.112 -0.2750  0.1683  0.5998
  298TMC3    C8 4550   2.811   1.734  15.739  0.2941 -0.1885 -0.2796
  298TMC3    O1 4551   2.506   1.839  16.234 -0.1437  0.2668  0.6922
  298TMC3    O2 4552   2.713   1.747  15.669  0.1010  0.0636  0.1795
  299MPD2     C 4553   3.352   0.787  10.257  0.8046 -0.3450  0.1129
  299MPD2    C1 4554   3.292   0.907  10.222  0.0231  0.1782 -0.1098
  299MPD2    C2 4555   3.157   0.906  10.186  0.0887  0.2268 -0.2467
  299MPD2    C3 4556   3.084   0.789  10.168  1.2107  0.4507 -0.0051
  299MPD2    C4 4557   3.152   0.665  10.191 -0.5569 -0.1242  0.3163
  299MPD2    C5 4558   3.280   0.670  10.239 -0.0542  0.6503 -0.3918
  299MPD2     H 4559   3.105   1.002  10.182  1.4035  0.9866  1.2074
  299MPD2    H1 4560   3.101   0.576  10.158  0.9159 -0.4335 -1.1215
  299MPD2    H2 4561   3.445   0.781  10.311  0.7905  0.8143  0.2693
  299MPD2    H3 4562   3.330   0.579  10.273 -0.4669  0.3778 -0.5158
  299MPD2     N 4563   2.946   0.792  10.128  0.2835 -0.2310 -0.6319
  299MPD2    H5 4564   2.903   0.706  10.098  1.1072 -0.9532  0.2741
  299MPD2    N1 4565   3.369   1.028  10.241  0.2166  0.1085 -0.7107
  299MPD2    H7 4566   3.451   1.021  10.300 -0.7926  0.2068  0.6847
  300TMC3    C1 4567   2.748   0.866  10.047 -0.7396  0.0495  0.1056
  300TMC3    C2 4568   2.696   0.958   9.963 -0.2337  0.4198 -0.6909
  300TMC3    C3 4569   2.577   0.918   9.896 -0.0643  0.1372 -0.2480
  300TMC3    C4 4570   2.698   0.740  10.065 -0.6187 -0.5277  0.3786
  300TMC3    C5 4571   2.585   0.704   9.983  0.0403 -0.7954 -0.2813
  300TMC3    C6 4572   2.523   0.794   9.895 -0.6918 -0.1121  0.6380
  300TMC3     C 4573   2.864   0.902  10.115 -0.0885 -0.4628 -0.1610
  300TMC3     O 4574   2.889   1.019  10.137  0.3051  0.3327  0.0615
  300TMC3     H 4575   2.742   1.056   9.958 -1.7694  1.1520 -0.5165
  300TMC3    H1 4576   2.728   0.673  10.144 -1.6973 -1.2001  0.2180
  300TMC3    H2 4577   2.432   0.767   9.843 -1.1260  0.5729  1.0387
  300TMC3    C7 4578   2.520   0.583  10.022 -0.8574 -0.5344 -0.7091
  300TMC3    C8 4579   2.530   1.010   9.792  1.2079  0.0108 -0.3707
  300TMC3    O1 4580   2.593   0.497  10.063  0.0840 -0.1668  0.5579
  300TMC3    O2 4581   2.477   0.965   9.690  0.4081  0.4005 -0.1234
  301MPD2     C 4582   1.661   3.439   1.088  0.3790 -0.1514 -0.4722
  301MPD2    C1 4583   1.591   3.403   0.976 -0.4078 -0.2194  0.0604
  301MPD2    C2 4584   1.584   3.273   0.941 -0.1562  0.1951  0.5944
  301MPD2    C3 4585   1.647   3.176   1.015 -1.1752 -0.8903  0.1167
  301MPD2    C4 4586   1.729   3.213   1.120 -0.2642 -0.4579 -0.8189
  301MPD2    C5 4587   1.733   3.344   1.151  0.1564 -0.3766 -0.6559
  301MPD2     H 4588   1.513   3.245   0.864  0.7768  2.1932 -1.0038
  301MPD2    H1 4589   1.788   3.141   1.174  1.9169  1.4702 -0.6567
  301MPD2    H2 4590   1.655   3.540   1.127 -1.0982 -0.2052 -0.5462
  301MPD2    H3 4591   1.789   3.368   1.240  0.4187 -0.1361 -0.8824
  301MPD2     N 4592   1.653   3.040   0.980 -0.1703 -0.2948  0.1152
  301MPD2    H5 4593   1.709   2.971   1.028 -1.7657 -2.2971 -0.8517
  301MPD2    N1 4594   1.522   3.491   0.889 -0.0049  0.4532  0.6278
  301MPD2    H7 4595   1.480   3.451   0.806  0.4512  2.7108 -0.6836
  302TMC3    C1 4596   1.578   2.839   0.856  0.8632  0.2780 -0.4921
  302TMC3    C2 4597   1.607   2.761   0.964 -0.1078 -0.2716 -0.0246
  302TMC3    C3 4598   1.603   2.627   0.943 -0.0964  0.4756  0.1525
  302TMC3    C4 4599   1.549   2.787   0.733  0.4465 -0.5187 -0.2526
  302TMC3    C5 4600   1.546   2.650   0.719 -0.6122  0.1643 -0.0782
  302TMC3    C6 4601   1.580   2.565   0.822 -0.7342 -1.0600 -0.6527
  302TMC3     C 4602   1.593   2.984   0.865 -0.2308  0.3965  0.0454
  302TMC3     O 4603   1.544   3.043   0.772  0.1297 -0.2031 -0.9488
  302TMC3     H 4604   1.636   2.804   1.059  0.6860  0.4904 -0.6148
  302TMC3    H1 4605   1.504   2.855   0.662  0.5857 -1.8156 -1.5755
  302TMC3    H2 4606   1.578   2.457   0.816 -0.8901 -1.1272  0.4995
  302TMC3    C7 4607   1.454   2.604   0.621 -1.2877 -0.3662  0.4063
  302TMC3    C8 4608   1.605   2.539   1.055  0.1555  0.0648  0.7369
  302TMC3    O1 4609   1.471   2.496   0.572  0.0809 -0.0066 -0.4532
  302TMC3    O2 4610   1.605   2.418   1.031  0.2133 -0.2040  0.2238
  303MPD2     C 4611   1.175   0.466  10.830  0.2394  0.0806  0.1177
  303MPD2    C1 4612   1.122   0.339  10.796 -0.1424 -0.2219 -0.0924
  303MPD2    C2 4613   1.122   0.311  10.659  0.3929 -0.2023  1.0987
  303MPD2    C3 4614   1.159   0.399  10.562 -0.2061  0.2461 -0.3472
  303MPD2    C4 4615   1.202   0.529  10.599 -0.1136 -0.3887  0.2752
  303MPD2    C5 4616   1.209   0.557  10.733 -0.2129 -0.3501 -0.1888
  303MPD2     H 4617   1.083   0.213  10.636 -1.0343  0.2591  1.5970
  303MPD2    H1 4618   1.216   0.611  10.529  2.9760 -1.6156 -0.5545
  303MPD2    H2 4619   1.188   0.498  10.933 -1.5311  0.9808  0.0519
  303MPD2    H3 4620   1.240   0.657  10.763  1.8792 -0.9697 -0.3203
  303MPD2     N 4621   1.135   0.379  10.419  0.8827 -0.2085  0.8207
  303MPD2    H5 4622   1.167   0.446  10.350 -0.4702  0.9310  1.3078
  303MPD2    N1 4623   1.078   0.250  10.895  0.4515 -0.1480 -0.7009
  303MPD2    H7 4624   1.095   0.275  10.991  1.2700 -2.1369 -0.3144
  304TMC3    C1 4625   0.985   0.041  10.985  0.3971 -0.3876 -0.0218
  304TMC3    C2 4626   0.890   4.683  10.959  0.9129 -0.1698  0.7472
  304TMC3    C3 4627   0.896   4.568  11.031  0.3295 -0.0044 -0.2167
  304TMC3    C4 4628   1.096   0.008  11.056 -0.3057 -0.0244 -0.3577
  304TMC3    C5 4629   1.103   4.630  11.128  0.3889 -0.4283  0.1479
  304TMC3    C6 4630   0.992   4.540  11.120 -0.4343 -0.0868 -0.3689
  304TMC3     C 4631   0.998   0.130  10.871 -0.1598  0.4460  0.1311
  304TMC3     O 4632   0.943   0.097  10.767 -0.3862  0.5696  0.5033
  304TMC3     H 4633   0.806   4.704  10.895  1.7023  0.0311 -0.2235
  304TMC3    H1 4634   1.188   0.060  11.032 -1.0770  0.5517 -2.0839
  304TMC3    H2 4635   1.006   4.447  11.174  0.2209 -1.4164 -2.8338
  304TMC3    C7 4636   1.231   4.560  11.129 -0.0139  0.0926  0.3100
  304TMC3    C8 4637   0.881   4.449  10.941 -0.5515 -0.5133 -0.0905
  304TMC3    O1 4638   1.327   4.611  11.183  0.4343  0.3902 -0.1730
  304TMC3    O2 4639   0.959   4.357  10.964  0.3325  0.3115  0.4437
  305MPD2     C 4640   4.487   2.992  13.920 -0.3389 -1.0495  0.6019
  305MPD2    C1 4641   4.595   2.899  13.903 -0.4650  0.4492 -0.2169
  305MPD2    C2 4642   4.621   2.842  13.777 -0.3320 -0.3904 -0.6800
  305MPD2    C3 4643   4.528   2.868  13.673  0.0547  0.6989  0.7305
  305MPD2    C4 4644   4.422   2.953  13.697  0.2601 -0.5062 -0.4055
  305MPD2    C5 4645   4.402   3.020  13.813  0.3018 -0.1927 -0.2110
  305MPD2     H 4646   4.711   2.783  13.767 -0.6289 -0.4629 -2.8910
  305MPD2    H1 4647   4.347   2.957  13.618  0.3495 -3.4407 -0.6332
  305MPD2    H2 4648   4.468   3.049  14.010 -0.2595 -0.3423  0.1677
  305MPD2    H3 4649   4.317   3.086  13.819 -1.3186 -2.5375  2.6079
  305MPD2     N 4650   4.527   2.806  13.552  0.1010 -0.8350 -0.1043
  305MPD2    H5 4651   4.450   2.833  13.491  1.6092 -0.8683 -2.0408
  305MPD2    N1 4652   4.682   2.861  14.009  0.3699  0.5644 -0.5441
  305MPD2    H7 4653   0.009   2.786  13.990  0.8590  0.4861  1.3635
  306TMC3    C1 4654   0.091   2.894  14.198  0.0389  0.3522 -0.0991
  306TMC3    C2 4655   0.140   2.771  14.174  0.5278 -0.0627 -0.5033
  306TMC3    C3 4656   0.247   2.724  14.252  0.8587 -0.2187 -0.1521
  306TMC3    C4 4657   0.149   2.981  14.292 -0.0807  0.0013 -0.0206
  306TMC3    C5 4658   0.251   2.932  14.374 -0.1248 -0.6929  0.1206
  306TMC3    C6 4659   0.300   2.806  14.354  0.6243 -0.1643  0.4951
  306TMC3     C 4660   4.710   2.940  14.120 -0.0102 -0.1462 -0.3210
  306TMC3     O 4661   4.676   3.053  14.141  0.0824  0.0876  0.1793
  306TMC3     H 4662   0.111   2.708  14.090  0.6614 -0.2562 -0.4060
  306TMC3    H1 4663   0.110   3.082  14.299  1.6459  0.7435 -1.2633
  306TMC3    H2 4664   0.368   2.758  14.424  1.7650  0.7287 -0.0221
  306TMC3    C7 4665   0.310   3.017  14.472 -0.5700  0.1700 -0.8136
  306TMC3    C8 4666   0.303   2.586  14.235 -0.2032 -0.0411  0.3434
  306TMC3    O1 4667   0.351   2.968  14.573 -0.2686 -0.0765 -0.1712
  306TMC3    O2 4668   0.401   2.556  14.300  0.3448  0.0497 -1.0194
  307MPD2     C 4669   2.552   1.554   1.066  0.4160 -0.4045 -0.3454
  307MPD2    C1 4670   2.522   1.644   0.966  0.2314 -0.0100 -0.0439
  307MPD2    C2 4671   2.394   1.692   0.955 -0.2106 -0.1194  0.7574
  307MPD2    C3 4672   2.300   1.664   1.049  0.1730  0.0488 -0.6107
  307MPD2    C4 4673   2.334   1.561   1.139  0.7028  0.0927  0.7376
  307MPD2    C5 4674   2.456   1.509   1.152  0.1270 -0.2703 -0.4859
  307MPD2     H 4675   2.360   1.763   0.880  1.8209  0.1801  0.1198
  307MPD2    H1 4676   2.261   1.511   1.202  0.2931  0.2962  0.4252
  307MPD2    H2 4677   2.654   1.520   1.080  0.6772  1.2045  1.6287
  307MPD2    H3 4678   2.464   1.442   1.236 -1.4806 -1.6043 -1.3955
  307MPD2     N 4679   2.169   1.722   1.042 -0.4673 -0.3524 -0.6837
  307MPD2    H5 4680   2.155   1.799   0.977 -0.7070  0.9278  0.8918
  307MPD2    N1 4681   2.613   1.664   0.855 -0.3431 -0.0318  0.4733
  307MPD2    H7 4682   2.573   1.727   0.786  2.5326 -0.7953 -1.8457
  308TMC3    C1 4683   1.720   1.803   1.129 -0.7156  0.1916 -0.1346
  308TMC3    C2 4684   1.734   1.934   1.102  0.0514 -0.6944 -0.1963
  308TMC3    C3 4685   1.858   1.985   1.068  0.0079 -0.2666  0.7010
  308TMC3    C4 4686   1.821   1.715   1.120  0.0866  0.0663 -0.0808
  308TMC3    C5 4687   1.941   1.767   1.096  0.3763 -0.2365 -0.4980
  308TMC3    C6 4688   1.961   1.899   1.070 -0.2061 -0.1330 -0.2009
  308TMC3     C 4689   1.594   1.751   1.082 -0.4896  0.5412 -0.2072
  308TMC3     O 4690   1.573   1.630   1.087 -0.6952  0.0490 -0.2737
  308TMC3     H 4691   1.659   2.005   1.136  1.5645  1.7495 -2.0179
  308TMC3    H1 4692   1.796   1.610   1.123 -2.6554  0.8042  2.9101
  308TMC3    H2 4693   2.064   1.931   1.059  0.2420 -1.6311 -0.3312
  308TMC3    C7 4694   2.055   1.674   1.103 -0.1975  0.3438  0.4081
  308TMC3    C8 4695   1.879   2.125   1.085  0.5472  0.4828 -0.2250
  308TMC3    O1 4696   2.040   1.570   1.169 -0.0077  0.4711 -0.0722
  308TMC3    O2 4697   1.816   2.187   1.166  0.1792 -0.4242  0.3615
  309MPD2     C 4698   1.346   1.801  17.360 -0.3756 -0.3572  0.0320
  309MPD2    C1 4699   1.288   1.833  17.238  0.9465 -0.0529 -0.1904
  309MPD2    C2 4700   1.168   1.904  17.231 -0.4341  0.0083  0.4279
  309MPD2    C3 4701   1.093   1.939  17.341  0.7330 -0.0925 -0.4418
  309MPD2    C4 4702   1.149   1.903  17.464  0.0652 -0.3358 -0.2869
  309MPD2    C5 4703   1.271   1.827  17.469 -0.0506  0.4193  0.0313
  309MPD2     H 4704   1.137   1.936  17.133 -3.6726  1.6952  1.9998
  309MPD2    H1 4705   1.090   1.942  17.546  0.0279  0.3056 -0.6162
  309MPD2    H2 4706   1.433   1.738  17.374 -1.1062 -1.3400  0.1653
  309MPD2    H3 4707   1.309   1.788  17.563  1.6826  1.4481 -0.2368
  309MPD2     N 4708   0.972   2.004  17.323 -0.4237  0.9141 -0.9402
  309MPD2    H5 4709   0.928   2.031  17.410  0.0801 -0.3099 -0.2906
  309MPD2    N1 4710   1.334   1.783  17.114 -0.6305  0.5543 -0.5225
  309MPD2    H7 4711   1.290   1.815  17.028 -0.9659 -1.8881 -1.2620
  310TMC3    C1 4712   1.452   1.658  16.964 -0.3396 -0.9970 -0.3385
  310TMC3    C2 4713   1.385   1.730  16.870  0.3201  0.2170  0.1071
  310TMC3    C3 4714   1.402   1.702  16.739 -0.1376 -1.1099 -0.7173
  310TMC3    C4 4715   1.525   1.546  16.932  0.2156 -0.3643  0.1144
  310TMC3    C5 4716   1.531   1.511  16.799 -0.2725  0.7335  0.1078
  310TMC3    C6 4717   1.470   1.590  16.703 -0.0265 -0.4498  0.0235
  310TMC3     C 4718   1.429   1.687  17.097 -0.7205  0.4694  0.3251
  310TMC3     O 4719   1.507   1.632  17.174  0.5313  0.0535  0.5539
  310TMC3     H 4720   1.315   1.811  16.884 -0.4616 -0.4320  0.0047
  310TMC3    H1 4721   1.575   1.486  17.007  0.6231  1.1329  1.0484
  310TMC3    H2 4722   1.469   1.562  16.598 -1.1317 -0.5836  0.0658
  310TMC3    C7 4723   1.585   1.382  16.759 -0.6782 -0.2827 -0.4442
  310TMC3    C8 4724   1.307   1.758  16.637 -0.0605 -0.4473 -0.2298
  310TMC3    O1 4725   1.545   1.343  16.648 -0.6577  0.2113 -0.5487
  310TMC3    O2 4726   1.191   1.760  16.668  0.0563  0.2925 -0.9000
  311MPD2     C 4727   3.512   2.408  12.276  0.3465 -0.1949  0.6139
  311MPD2    C1 4728   3.570   2.463  12.390 -0.9754  0.2699  0.3238
  311MPD2    C2 4729   3.496   2.478  12.508 -0.1213 -0.1088  0.0562
  311MPD2    C3 4730   3.366   2.434  12.511 -0.0817 -0.5027  0.7351
  311MPD2    C4 4731   3.308   2.373  12.400  0.4024 -0.1226 -0.0841
  311MPD2    C5 4732   3.384   2.360  12.283 -0.2615  0.1654  1.1774
  311MPD2     H 4733   3.541   2.526  12.594 -1.8801 -1.0243  1.4875
  311MPD2    H1 4734   3.209   2.329  12.393 -0.2394  1.1239  1.2340
  311MPD2    H2 4735   3.563   2.401  12.180 -1.0511  2.2693 -0.2897
  311MPD2    H3 4736   3.334   2.325  12.194  1.6103 -0.9935  0.5925
  311MPD2     N 4737   3.292   2.446  12.635  0.3341  0.7829  0.0225
  311MPD2    H5 4738   3.346   2.462  12.720 -1.5450  1.2020  1.1178
  311MPD2    N1 4739   3.700   2.526  12.399  0.0411  0.2263  0.5508
  311MPD2    H7 4740   3.717   2.556  12.494  2.5040  0.5722 -0.0232
  312TMC3    C1 4741   3.119   2.405  12.785 -0.1575  0.0238 -0.5331
  312TMC3    C2 4742   3.046   2.297  12.827 -0.4679 -0.6389 -0.3344
  312TMC3    C3 4743   2.990   2.304  12.952  0.1966  0.0339  0.1391
  312TMC3    C4 4744   3.138   2.516  12.864  0.2709  0.0552  0.6773
  312TMC3    C5 4745   3.085   2.518  12.990 -0.1191 -0.1527  1.1605
  312TMC3    C6 4746   3.012   2.411  13.032 -0.4258 -0.5701  0.2620
  312TMC3     C 4747   3.159   2.407  12.653  0.7889  0.4344  0.5001
  312TMC3     O 4748   3.084   2.349  12.572 -0.7571 -0.4339  0.5952
  312TMC3     H 4749   3.037   2.211  12.763  0.4232 -0.4380 -0.7352
  312TMC3    H1 4750   3.180   2.604  12.817 -1.0139 -0.1636 -0.8870
  312TMC3    H2 4751   2.962   2.413  13.128 -0.0385 -1.4234  0.4815
  312TMC3    C7 4752   3.042   2.650  13.033  0.2541  0.4765 -0.3916
  312TMC3    C8 4753   2.859   2.248  12.968 -0.2495 -0.1146 -0.5889
  312TMC3    O1 4754   3.031   2.729  12.941 -0.1595  0.2694  0.1406
  312TMC3    O2 4755   2.773   2.320  13.012  0.1947  0.6305 -0.2457
  313MPD2     C 4756   2.469   1.270  10.413 -0.7388  0.2586  0.2728
  313MPD2    C1 4757   2.384   1.354  10.350 -0.2345 -0.6421 -0.4028
  313MPD2    C2 4758   2.315   1.311  10.240 -0.6072  0.1086  0.2570
  313MPD2    C3 4759   2.330   1.184  10.198  1.0827 -0.4842  0.0796
  313MPD2    C4 4760   2.429   1.103  10.253  0.2204  0.3979 -0.3934
  313MPD2    C5 4761   2.495   1.150  10.365 -0.2648 -0.5152 -0.8295
  313MPD2     H 4762   2.235   1.365  10.190  0.5423 -0.9028 -2.6165
  313MPD2    H1 4763   2.452   1.007  10.207  1.4454  0.2423  0.5357
  313MPD2    H2 4764   2.517   1.296  10.506  2.3048 -0.3718 -1.1488
  313MPD2    H3 4765   2.562   1.078  10.411 -0.4106 -1.7601 -2.5287
  313MPD2     N 4766   2.250   1.140  10.094  0.3980 -0.2974  0.0067
  313MPD2    H5 4767   2.189   1.211  10.054  0.2921 -0.2722  0.2117
  313MPD2    N1 4768   2.355   1.486  10.399  0.3353 -0.1520  0.5452
  313MPD2    H7 4769   2.309   1.541  10.327 -0.2070 -0.6883  0.4888
  314TMC3    C1 4770   2.363   1.685  10.520  0.1126  0.1206  0.4562
  314TMC3    C2 4771   2.434   1.776  10.604  0.0650  0.0845  0.6258
  314TMC3    C3 4772   2.396   1.906  10.611 -0.3557 -0.9480 -0.0392
  314TMC3    C4 4773   2.243   1.727  10.459  0.3500 -0.3409 -0.5444
  314TMC3    C5 4774   2.217   1.859  10.465  0.5218 -0.3657 -0.1349
  314TMC3    C6 4775   2.297   1.951  10.531 -0.5433 -0.7420 -0.0712
  314TMC3     C 4776   2.402   1.547  10.511  0.6441 -0.0340 -0.3621
  314TMC3     O 4777   2.485   1.506  10.589 -0.0855 -0.3065  0.0985
  314TMC3     H 4778   2.507   1.737  10.673 -0.0199  1.2922  1.3889
  314TMC3    H1 4779   2.179   1.667  10.396 -1.2802 -0.0457  0.8377
  314TMC3    H2 4780   2.271   2.057  10.528  0.7249 -0.3971  0.9557
  314TMC3    C7 4781   2.106   1.900  10.384  0.0189  0.2931 -0.0226
  314TMC3    C8 4782   2.480   1.999  10.674  0.2777  0.2699 -0.5126
  314TMC3    O1 4783   2.019   1.814  10.368 -0.2024 -0.2277  0.1046
  314TMC3    O2 4784   2.471   2.114  10.635 -0.1015  0.3149 -0.4544
  315MPD2     C 4785   2.101   1.601  17.605 -0.4877  0.8637  0.5568
  315MPD2    C1 4786   2.227   1.606  17.662 -0.7011  0.3378  0.0686
  315MPD2    C2 4787   2.305   1.717  17.654 -0.7599  0.2261  0.9393
  315MPD2    C3 4788   2.260   1.834  17.587 -0.1946  0.2131  0.0832
  315MPD2    C4 4789   2.128   1.830  17.537 -0.5232  0.0552  0.4001
  315MPD2    C5 4790   2.058   1.713  17.540 -0.3257 -0.1846  0.4089
  315MPD2     H 4791   2.406   1.712  17.693 -0.4933 -2.2347 -0.0758
  315MPD2    H1 4792   2.081   1.913  17.486  1.5099  0.9540 -0.0290
  315MPD2    H2 4793   2.037   1.514  17.605  0.2411  0.3098 -1.3067
  315MPD2    H3 4794   1.959   1.697  17.498 -0.5247 -1.5193  1.3711
  315MPD2     N 4795   2.346   1.946  17.571  0.0519  0.2084 -0.3985
  315MPD2    H5 4796   2.438   1.942  17.612 -0.0172 -0.2967 -0.2878
  315MPD2    N1 4797   2.283   1.501  17.731  0.4554  0.3404 -0.5699
  315MPD2    H7 4798   2.375   1.505   0.023  1.0868  0.0181 -1.9186
  316TMC3    C1 4799   2.437   2.139  17.488  0.3195 -0.3193  0.1003
  316TMC3    C2 4800   2.496   2.172  17.604 -0.3809  0.3288  0.5042
  316TMC3    C3 4801   2.568   2.284  17.603  0.4674  0.8259  0.1173
  316TMC3    C4 4802   2.426   2.230  17.390 -0.4261  0.4196  0.4112
  316TMC3    C5 4803   2.489   2.353  17.395 -0.1062  0.5285 -0.3114
  316TMC3    C6 4804   2.561   2.380  17.509  0.7241 -0.2644  0.6945
  316TMC3     C 4805   2.327   2.050  17.482 -0.6464 -0.0686  0.1791
  316TMC3     O 4806   2.229   2.094  17.428 -0.5904 -0.3484 -0.0719
  316TMC3     H 4807   2.492   2.117  17.697 -2.1871 -0.3825  0.0103
  316TMC3    H1 4808   2.388   2.186  17.298  2.7539  1.3593 -1.3309
  316TMC3    H2 4809   2.619   2.472  17.517  0.7158  0.0404 -2.7348
  316TMC3    C7 4810   2.464   2.462  17.300 -0.3383 -0.0575 -1.0574
  316TMC3    C8 4811   2.615   2.334  17.731 -0.6662 -0.4105  0.6372
  316TMC3    O1 4812   2.495   2.574  17.342  0.6822 -0.0775 -0.4904
  316TMC3    O2 4813   2.548   2.420   0.032  0.4204 -0.6499 -0.6704
  317MPD2     C 4814   4.656   4.273  12.791 -0.0656  0.2466  0.1714
  317MPD2    C1 4815   4.707   4.159  12.732  0.0051  0.4044  0.0110
  317MPD2    C2 4816   0.015   4.052  12.806  0.5123  0.9028  0.2059
  317MPD2    C3 4817   0.024   4.063  12.946  0.1254 -0.0948 -0.3693
  317MPD2    C4 4818   4.728   4.181  13.003  0.3307 -0.3407 -0.0588
  317MPD2    C5 4819   4.677   4.284  12.924  0.6460 -0.1839 -0.1577
  317MPD2     H 4820   0.057   3.963  12.760 -0.0701 -0.4806  2.3953
  317MPD2    H1 4821   0.009   4.208  13.106  0.6067 -2.1244  0.3594
  317MPD2    H2 4822   4.626   4.360  12.734  1.9608  1.0745  0.3680
  317MPD2    H3 4823   4.653   4.375  12.977 -0.4817 -0.3472 -0.3935
  317MPD2     N 4824   0.064   3.949  13.011  0.2781  0.4418  0.0292
  317MPD2    H5 4825   0.112   3.880  12.954  0.5127  0.4064  0.2708
  317MPD2    N1 4826   4.711   4.139  12.593  0.4455  0.2908  0.0857
  317MPD2    H7 4827   0.016   4.050  12.568  0.6923  0.7806 -1.2426
  318TMC3    C1 4828   0.138   3.804  13.175  0.4028 -0.6905  1.1979
  318TMC3    C2 4829   0.110   3.693  13.103 -0.2157  0.8106  0.2512
  318TMC3    C3 4830   0.172   3.570  13.133  0.6975  0.2028 -0.5060
  318TMC3    C4 4831   0.225   3.789  13.286  0.3312 -0.7474 -0.1611
  318TMC3    C5 4832   0.274   3.661  13.322  0.2480  0.2046  0.0980
  318TMC3    C6 4833   0.260   3.550  13.238 -0.3286 -0.6472  0.3736
  318TMC3     C 4834   0.082   3.934  13.146 -0.2196 -0.4456 -0.3066
  318TMC3     O 4835   0.073   4.018  13.229 -0.2741  0.3451  0.7938
  318TMC3     H 4836   0.024   3.686  13.038  1.3816 -0.1536 -1.7560
  318TMC3    H1 4837   0.238   3.869  13.357 -1.4146  0.5005 -1.2498
  318TMC3    H2 4838   0.303   3.454  13.263 -0.7058 -0.2389  2.6424
  318TMC3    C7 4839   0.318   3.648  13.456  0.3905  0.2924  0.0852
  318TMC3    C8 4840   0.151   3.463  13.038 -0.0421 -0.2254 -0.2431
  318TMC3    O1 4841   0.274   3.733  13.531  0.4318 -0.2921 -0.0830
  318TMC3    O2 4842   0.130   3.352  13.083 -0.0212  0.0931  0.1516
  319MPD2     C 4843   0.479   1.612  17.121 -0.2912  0.2155 -0.4115
  319MPD2    C1 4844   0.415   1.499  17.172 -0.2737 -0.5037 -0.0944
  319MPD2    C2 4845   0.355   1.412  17.082 -0.3417  0.5752  0.1611
  319MPD2    C3 4846   0.339   1.455  16.953 -0.0343  0.3226  0.5176
  319MPD2    C4 4847   0.402   1.568  16.911 -0.3344  0.5022 -0.6156
  319MPD2    C5 4848   0.470   1.644  16.991 -0.6122 -0.0491  0.2307
  319MPD2     H 4849   0.307   1.323  17.121  0.1471 -0.0266 -0.6106
  319MPD2    H1 4850   0.400   1.593  16.805 -4.0572  2.1838 -0.1847
  319MPD2    H2 4851   0.543   1.680  17.178 -0.3497  0.4944 -0.6778
  319MPD2    H3 4852   0.519   1.724  16.936 -1.5693  0.3874  0.0137
  319MPD2     N 4853   0.274   1.377  16.852  0.1960  0.4794 -0.2144
  319MPD2    H5 4854   0.277   1.416  16.758  0.4611 -1.3840 -0.9638
  319MPD2    N1 4855   0.419   1.466  17.304  0.2808 -0.4626 -0.0130
  319MPD2    H7 4856   0.367   1.384  17.334 -0.5972 -0.2150 -0.8447
  320TMC3    C1 4857   0.131   1.210  16.758 -0.1541 -0.6210  0.3211
  320TMC3    C2 4858   0.066   1.303  16.685  0.1657 -0.1244 -0.1109
  320TMC3    C3 4859   4.723   1.251  16.583 -0.0022  0.1891 -0.1423
  320TMC3    C4 4860   0.120   1.069  16.747  0.1634 -0.2167 -0.2805
  320TMC3    C5 4861   0.040   1.027  16.646  0.0718  0.1736  0.3351
  320TMC3    C6 4862   4.712   1.115  16.559 -0.3245  0.1180  0.8754
  320TMC3     C 4863   0.203   1.261  16.872  0.0667 -0.1278  0.2702
  320TMC3     O 4864   0.188   1.192  16.969  0.7742 -0.4249 -0.3590
  320TMC3     H 4865   0.075   1.410  16.698 -1.1591  0.0993 -1.0536
  320TMC3    H1 4866   0.147   0.988  16.813  1.7591  1.2320  0.8583
  320TMC3    H2 4867   4.625   1.077  16.506 -0.6213  3.1752 -0.8278
  320TMC3    C7 4868   0.015   0.882  16.654 -0.2865  0.3771  0.0327
  320TMC3    C8 4869   4.722   1.329  16.459  0.1331 -0.3760 -0.4838
  320TMC3    O1 4870   0.112   0.818  16.685  0.2571 -0.2720 -0.4515
  320TMC3    O2 4871   4.729   1.454  16.463  0.9313 -0.4369 -0.2499
  321TMC3    C1 4872   0.439   1.507  17.534 -0.5014  0.4712 -0.1411
  321TMC3    C2 4873   0.411   1.371  17.551  0.4754  0.6096 -1.0224
  321TMC3    C3 4874   0.418   1.326  17.679 -0.4795 -0.0723  0.1158
  321TMC3    C4 4875   0.473   1.595  17.638 -0.7299  0.0833 -0.7700
  321TMC3    C5 4876   0.485   1.535   0.011  0.4599 -0.3300  0.3754
  321TMC3    C6 4877   0.440   1.408   0.035  0.1965  0.2272 -0.2532
  321TMC3     C 4878   0.465   1.550  17.397  0.0637  0.3537  0.1605
  321TMC3     O 4879   0.518   1.663  17.392  0.4273  0.2203  0.2092
  321TMC3     H 4880   0.386   1.297  17.475 -0.7480 -0.1367  0.0973
  321TMC3    H1 4881   0.498   1.698  17.617  0.1793  0.2344  1.0063
  321TMC3    H2 4882   0.445   1.363   0.134  1.0748  0.7344 -0.0657
  321TMC3    C7 4883   0.606   1.558   0.088  0.5351 -0.2444  0.4940
  321TMC3    C8 4884   0.498   1.203  17.680 -0.1072 -0.2645 -0.0736
  321TMC3    O1 4885   0.654   1.460   0.143 -0.5237 -0.2943  0.0354
  321TMC3    O2 4886   0.467   1.123  17.592 -0.1293 -0.0310 -0.0741
  322MPD2     C 4887   3.940   1.856  14.095 -0.5059 -0.1173  0.1792
  322MPD2    C1 4888   4.040   1.814  14.183 -0.3397  0.0977 -0.2644
  322MPD2    C2 4889   4.087   1.682  14.185  0.0583  0.3667 -0.2560
  322MPD2    C3 4890   4.029   1.589  14.097  0.2969 -0.2391 -0.1784
  322MPD2    C4 4891   3.924   1.634  14.012 -0.4240 -0.2892  0.6435
  322MPD2    C5 4892   3.885   1.764  14.014  0.3334 -0.0433  0.4046
  322MPD2     H 4893   4.165   1.650  14.252 -1.3449  1.8708  2.0989
  322MPD2    H1 4894   3.863   1.566  13.954  0.5916  2.4531 -3.6262
  322MPD2    H2 4895   3.904   1.958  14.096  1.7266  0.6654 -1.8903
  322MPD2    H3 4896   3.808   1.802  13.947  0.0354 -0.3350  0.5796
  322MPD2     N 4897   4.076   1.463  14.096  0.0761  0.3610 -0.7353
  322MPD2    H5 4898   4.165   1.449  14.142  0.1199  0.7341 -0.7093
  322MPD2    N1 4899   4.090   1.919  14.266 -0.4018 -0.2695 -0.2723
  322MPD2    H7 4900   4.051   2.013  14.267  0.6146  0.1162  2.3776
  323TMC3    C1 4901   4.260   2.032  14.380  0.9216 -0.5344  0.0434
  323TMC3    C2 4902   4.298   2.122  14.287 -1.0752 -0.2247 -0.3466
  323TMC3    C3 4903   4.405   2.212  14.309  0.2104 -0.2925  0.3599
  323TMC3    C4 4904   4.322   2.033  14.498 -0.1326 -0.6494 -0.0935
  323TMC3    C5 4905   4.422   2.127  14.529 -0.5977 -0.6434  0.5428
  323TMC3    C6 4906   4.472   2.213  14.433 -0.1020 -0.7212  0.2019
  323TMC3     C 4907   4.207   1.904  14.337 -0.0768  0.1289  0.6432
  323TMC3     O 4908   4.282   1.808  14.357 -0.1365 -0.5762  0.1208
  323TMC3     H 4909   4.251   2.113  14.190  1.2493  1.1371 -1.6168
  323TMC3    H1 4910   4.301   1.952  14.567  1.8895 -2.1202 -1.2044
  323TMC3    H2 4911   4.566   2.261  14.458 -0.4203 -0.4645  0.8984
  323TMC3    C7 4912   4.510   2.072  14.628  0.4715  0.7273 -0.2755
  323TMC3    C8 4913   4.441   2.303  14.213 -0.4077 -0.1936 -0.5866
  323TMC3    O1 4914   4.496   1.949  14.631  0.4019  0.5071 -0.5958
  323TMC3    O2 4915   4.550   2.357  14.221 -0.6470 -0.0642 -0.6542
  324MPD2     C 4916   1.253   3.128  14.524 -0.0649 -0.4827 -0.0341
  324MPD2    C1 4917   1.280   3.211  14.416 -0.5405 -0.2826 -0.1477
  324MPD2    C2 4918   1.186   3.227  14.319  0.9164 -0.3052 -0.4143
  324MPD2    C3 4919   1.068   3.155  14.321 -0.7146  1.2477 -0.2030
  324MPD2    C4 4920   1.043   3.073  14.429  0.1211 -0.2894  1.2934
  324MPD2    C5 4921   1.139   3.058  14.527  0.1033  0.5087 -0.2431
  324MPD2     H 4922   1.215   3.289  14.235  0.3763  1.7873  0.9308
  324MPD2    H1 4923   0.956   3.008  14.438  0.0367 -0.5342 -1.2024
  324MPD2    H2 4924   1.324   3.091  14.596 -1.0968 -0.6518  0.8924
  324MPD2    H3 4925   1.120   2.985  14.605 -2.4586  0.6251 -0.7537
  324MPD2     N 4926   0.962   3.166  14.236  0.1203 -0.7939 -0.0015
  324MPD2    H5 4927   0.881   3.116  14.272 -0.5392  0.3909  0.1608
  324MPD2    N1 4928   1.395   3.296  14.408  0.3343  0.1824 -0.0379
  324MPD2    H7 4929   1.408   3.354  14.326  0.6497 -0.1776 -0.2440
  325TMC3    C1 4930   0.839   3.227  14.042 -0.3911  0.2665 -0.1762
  325TMC3    C2 4931   0.822   3.196  13.911 -0.4723  0.2338 -0.0489
  325TMC3    C3 4932   0.701   3.214  13.851  0.1811 -0.5641  0.0065
  325TMC3    C4 4933   0.740   3.284  14.114  0.4455 -0.7729 -0.8317
  325TMC3    C5 4934   0.619   3.314  14.050  0.8309  0.3174  0.0323
  325TMC3    C6 4935   0.596   3.281  13.919 -0.1690 -0.2001  0.2885
  325TMC3     C 4936   0.964   3.209  14.100 -0.4378  0.4081  0.1908
  325TMC3     O 4937   1.071   3.224  14.044  0.5531  0.0180 -0.2629
  325TMC3     H 4938   0.902   3.146  13.857  0.4415  1.2462  0.3476
  325TMC3    H1 4939   0.761   3.307  14.218 -1.1981 -3.1576  0.0179
  325TMC3    H2 4940   0.503   3.305  13.867  0.6076  2.1673  0.0147
  325TMC3    C7 4941   0.550   3.431  14.102  0.0619  0.8281 -0.4678
  325TMC3    C8 4942   0.675   3.130  13.733  0.2886  0.4514 -0.7083
  325TMC3    O1 4943   0.616   3.486  14.187 -0.4668  0.1219  0.7093
  325TMC3    O2 4944   0.764   3.100  13.658  0.0492 -0.1221 -0.3763
  326MPD2     C 4945   1.997   3.770  11.381 -0.4810  0.2922 -0.4242
  326MPD2    C1 4946   2.096   3.729  11.288 -0.1424  0.8534  0.2385
  326MPD2    C2 4947   2.212   3.816  11.268  0.0086  0.3755 -0.4536
  326MPD2    C3 4948   2.227   3.931  11.342 -0.5363 -0.1497  0.6160
  326MPD2    C4 4949   2.131   3.961  11.436  0.5311  0.7428  0.6146
  326MPD2    C5 4950   2.013   3.891  11.448  0.5377  0.1270 -0.5111
  326MPD2     H 4951   2.283   3.777  11.195  0.1265 -0.0333 -0.1218
  326MPD2    H1 4952   2.139   4.041  11.509  1.7213  1.7344 -0.5877
  326MPD2    H2 4953   1.908   3.710  11.394  0.5858 -1.5767 -1.7520
  326MPD2    H3 4954   1.935   3.925  11.516  2.0294  1.2555  0.6140
  326MPD2     N 4955   2.331   4.030  11.312 -0.2574 -0.5545  0.5426
  326MPD2    H5 4956   2.335   4.109  11.374 -0.6380  0.9508 -1.3416
  326MPD2    N1 4957   2.076   3.610  11.220 -0.0041 -0.7301  0.0155
  326MPD2    H7 4958   1.980   3.583  11.205  0.0896 -0.1764 -1.5408
  327TMC3    C1 4959   2.126   3.467  11.062  0.0340 -0.4930  0.2954
  327TMC3    C2 4960   2.061   3.564  10.984 -0.8630  0.6112 -0.6075
  327TMC3    C3 4961   2.094   3.578  10.849 -0.9046  0.0265  0.4617
  327TMC3    C4 4962   2.229   3.397  11.005  0.3004 -0.0305 -0.6089
  327TMC3    C5 4963   2.276   3.439  10.883  0.6351  0.1965 -0.5611
  327TMC3    C6 4964   2.207   3.524  10.804 -0.0190  0.0722  0.3066
  327TMC3     C 4965   2.171   3.530  11.182  0.9387 -0.1073 -0.1127
  327TMC3     O 4966   2.293   3.532  11.206  0.0394  0.3244 -0.0211
  327TMC3     H 4967   1.959   3.593  11.006 -0.0006  2.5748  0.7706
  327TMC3    H1 4968   2.285   3.320  11.057 -0.2707 -0.0872 -0.0905
  327TMC3    H2 4969   2.250   3.576  10.719 -1.5222 -1.3884 -1.3380
  327TMC3    C7 4970   2.422   3.472  10.888 -0.2406  0.1937 -0.0671
  327TMC3    C8 4971   2.059   3.708  10.801  0.3480  0.0479  0.2094
  327TMC3    O1 4972   2.480   3.476  10.783  0.3550  0.5187  0.3044
  327TMC3    O2 4973   2.036   3.723  10.682  0.5718 -1.4697 -0.2760
  328MPD2     C 4974   0.007   0.215  16.989 -0.1744  0.1412  0.1816
  328MPD2    C1 4975   4.698   0.093  17.015 -0.5545  0.4388  0.1127
  328MPD2    C2 4976   4.609   0.030  16.926 -0.2785 -0.2982  0.6748
  328MPD2    C3 4977   4.574   0.094  16.811 -0.2041  0.1090 -0.2225
  328MPD2    C4 4978   4.620   0.226  16.787 -0.1620 -0.1894  0.1979
  328MPD2    C5 4979   4.706   0.280  16.879  0.0863  0.2320 -0.1337
  328MPD2     H 4980   4.564   4.672  16.947  1.7031 -1.1738  0.8754
  328MPD2    H1 4981   4.591   0.266  16.691 -1.0885 -2.5582 -0.5307
  328MPD2    H2 4982   0.082   0.258  17.055 -0.2966  1.4605 -0.5169
  328MPD2    H3 4983   0.020   0.373  16.861  0.0311 -0.0872 -1.9317
  328MPD2     N 4984   4.477   0.041  16.722 -0.0703 -0.2601 -0.0491
  328MPD2    H5 4985   4.452   0.103  16.646 -2.9845  0.3079  1.4091
  328MPD2    N1 4986   0.011   0.023  17.130 -0.1703  0.0348 -0.0732
  328MPD2    H7 4987   0.072   0.079  17.188  1.7542 -0.1071 -1.9326
  329TMC3    C1 4988   0.048   4.583  17.281 -0.8775  0.6155 -0.1356
  329TMC3    C2 4989   0.057   4.670  17.392  0.3507 -0.1896 -0.1354
  329TMC3    C3 4990   0.053   4.617  17.514 -0.6233  0.1680 -0.1024
  329TMC3    C4 4991   0.029   4.450  17.302  0.0747  0.2174  0.5551
  329TMC3    C5 4992   0.030   4.400  17.427  0.4323  0.8590  0.3965
  329TMC3    C6 4993   0.037   4.479  17.533  0.5824 -0.2291 -0.5518
  329TMC3     C 4994   4.732   4.626  17.153 -0.4680  0.3196  0.8450
  329TMC3     O 4995   4.661   4.544  17.093 -0.2702 -0.0325 -0.2041
  329TMC3     H 4996   0.049   0.039  17.375 -0.8867 -0.2561  0.0185
  329TMC3    H1 4997   0.033   4.380  17.219  0.5669  0.8135  0.0820
  329TMC3    H2 4998   0.051   4.436  17.632 -1.4687 -0.4069 -0.3396
  329TMC3    C7 4999   4.708   4.267  17.447  0.6171 -0.6854 -0.3756
  329TMC3    C8 5000   0.065   4.707  17.622 -0.9979 -0.3335 -0.0938
  329TMC3    O1 5001   4.717   4.230  17.564 -0.1994 -0.5735 -0.0123
  329TMC3    O2 5002   0.150   4.684  17.712  0.2881 -0.0265  0.0522
  330TMC3    C1 5003   2.627   3.040   9.576 -0.4641 -0.2099  0.5143
  330TMC3    C2 5004   2.576   3.008   9.450  0.2624 -0.7626 -0.4084
  330TMC3    C3 5005   2.518   2.885   9.421 -0.3646 -0.2099 -0.8108
  330TMC3    C4 5006   2.626   2.942   9.670  0.9942  0.4779 -0.4143
  330TMC3    C5 5007   2.573   2.816   9.642  0.1645  0.0723 -0.3713
  330TMC3    C6 5008   2.532   2.785   9.515  0.1162 -0.0789  0.2637
  330TMC3     C 5009   2.679   3.173   9.605  0.3154 -0.2326  0.9611
  330TMC3     O 5010   2.665   3.212   9.719 -0.1379 -0.1112  0.2666
  330TMC3     H 5011   2.537   3.083   9.383  0.8808  0.5190  0.6473
  330TMC3    H1 5012   2.677   2.959   9.764  1.1474  1.1799 -0.6228
  330TMC3    H2 5013   2.497   2.685   9.491 -0.0579 -0.1046  0.6174
  330TMC3    C7 5014   2.551   2.722   9.745  0.0399  0.6737 -0.1071
  330TMC3    C8 5015   2.466   2.857   9.292  0.5599  0.0213 -0.3994
  330TMC3    O1 5016   2.459   2.641   9.727 -0.0021 -0.1209 -0.3825
  330TMC3    O2 5017   2.503   2.928   9.200  0.5585  0.6186 -0.2717
  331MPD2     C 5018   1.466   2.850  12.307 -0.2684 -0.4737 -0.1135
  331MPD2    C1 5019   1.337   2.814  12.310  0.1193 -0.2839  0.1460
  331MPD2    C2 5020   1.299   2.721  12.407  0.8464  0.8519  0.1531
  331MPD2    C3 5021   1.388   2.665  12.496 -0.2924 -0.4496 -0.2191
  331MPD2    C4 5022   1.515   2.720  12.502 -0.3045 -0.4217  0.2373
  331MPD2    C5 5023   1.552   2.812  12.408 -0.2517  0.2978 -0.0199
  331MPD2     H 5024   1.196   2.686  12.399  1.3269 -0.5457  0.0227
  331MPD2    H1 5025   1.585   2.683  12.576 -0.7542  1.3174  1.5415
  331MPD2    H2 5026   1.514   2.913  12.234 -0.0541 -1.0199 -0.4440
  331MPD2    H3 5027   1.651   2.856  12.413 -1.1369  2.3537 -0.2325
  331MPD2     N 5028   1.344   2.568  12.590 -0.1346  0.4086  0.3658
  331MPD2    H5 5029   1.251   2.531  12.576  0.5161  0.6468 -4.4072
  331MPD2    N1 5030   1.250   2.864  12.213  0.6194 -0.7994 -0.0969
  331MPD2    H7 5031   1.283   2.914  12.132  0.5532  1.6093  1.3755
  332TMC3    C1 5032   1.326   2.400  12.753 -0.4212 -0.3827 -0.1025
  332TMC3    C2 5033   1.221   2.335  12.685  0.6595 -0.5028  0.0134
  332TMC3    C3 5034   1.138   2.259  12.766 -0.3310  0.3781 -0.5366
  332TMC3    C4 5035   1.357   2.377  12.885  0.1240  0.2296 -0.3989
  332TMC3    C5 5036   1.275   2.287  12.948  0.1233  0.9062 -0.6220
  332TMC3    C6 5037   1.157   2.238  12.902 -0.0886 -0.3511 -0.2279
  332TMC3     C 5038   1.412   2.504  12.693  0.0745  0.2128  0.3873
  332TMC3     O 5039   1.528   2.510  12.723  0.3794 -0.1452 -0.7938
  332TMC3     H 5040   1.196   2.344  12.580 -2.8350 -4.7302  0.4846
  332TMC3    H1 5041   1.440   2.431  12.929 -1.5246  1.8186  0.7963
  332TMC3    H2 5042   1.094   2.166  12.954 -1.5632 -0.1265 -1.7027
  332TMC3    C7 5043   1.305   2.260  13.086  0.9051 -0.5187 -0.7530
  332TMC3    C8 5044   1.008   2.233  12.704 -0.3114 -0.9824 -0.3553
  332TMC3    O1 5045   1.204   2.232  13.145  0.1772 -0.8432 -0.1203
  332TMC3    O2 5046   0.989   2.289  12.594 -0.0646 -0.0174  0.0618
  333MPD2     C 5047   0.780   2.376  10.984  0.3502 -0.9845 -0.4012
  333MPD2    C1 5048   0.866   2.296  10.906 -0.2794 -0.3350  0.2504
  333MPD2    C2 5049   0.840   2.161  10.900  0.2726 -0.8775 -0.3484
  333MPD2    C3 5050   0.725   2.108  10.951  0.2812  0.1867 -0.8563
  333MPD2    C4 5051   0.634   2.189  11.007 -0.1866 -0.5193 -0.3967
  333MPD2    C5 5052   0.659   2.323  11.018  0.0657  0.0006 -0.1779
  333MPD2     H 5053   0.903   2.096  10.840  2.0091  1.4857 -1.0803
  333MPD2    H1 5054   0.536   2.150  11.032  1.3348 -1.6119  3.8343
  333MPD2    H2 5055   0.794   2.482  10.998 -0.7592 -0.7738 -0.8533
  333MPD2    H3 5056   0.579   2.383  11.058  2.3425  1.7812  1.7512
  333MPD2     N 5057   0.698   1.972  10.922 -0.3416  0.0535  0.0338
  333MPD2    H5 5058   0.762   1.930  10.856 -2.0525 -0.6892 -1.1777
  333MPD2    N1 5059   0.979   2.359  10.845  0.4094 -0.3712 -0.0183
  333MPD2    H7 5060   0.969   2.460  10.835 -0.3059 -0.6115 -1.6581
  334TMC3    C1 5061   1.176   2.370  10.713  0.1782 -0.8768 -0.1920
  334TMC3    C2 5062   1.296   2.322  10.665 -0.4116 -0.5209 -0.1250
  334TMC3    C3 5063   1.387   2.400  10.604  0.0326  0.3378 -0.2766
  334TMC3    C4 5064   1.138   2.493  10.662 -0.2695  0.1416 -0.9947
  334TMC3    C5 5065   1.230   2.563  10.588  0.1085 -0.0130 -0.3189
  334TMC3    C6 5066   1.355   2.523  10.565  0.1985  1.0947 -0.2279
  334TMC3     C 5067   1.089   2.288  10.795 -0.9583 -0.0585 -0.4939
  334TMC3     O 5068   1.121   2.172  10.811  0.5655  0.0863  0.6399
  334TMC3     H 5069   1.322   2.220  10.690  0.9078 -1.0698 -3.6502
  334TMC3    H1 5070   1.039   2.534  10.683 -0.7928 -0.5918 -2.0107
  334TMC3    H2 5071   1.421   2.586  10.506 -0.5428  1.4988 -0.6284
  334TMC3    C7 5072   1.199   2.703  10.559  0.0410  0.4596  0.0396
  334TMC3    C8 5073   1.507   2.328  10.556 -0.3890  0.1794 -0.3073
  334TMC3    O1 5074   1.293   2.781  10.570  0.3452  0.4511 -0.4670
  334TMC3    O2 5075   1.510   2.204  10.554  0.2094 -0.6494  0.0808
  335TMC3    C1 5076   0.748   0.213  17.423  0.5200  0.1164  0.0198
  335TMC3    C2 5077   0.631   0.166  17.366 -0.8719 -0.2345 -0.1257
  335TMC3    C3 5078   0.610   0.037  17.361 -0.0499  0.5296  0.4779
  335TMC3    C4 5079   0.839   0.131  17.481  0.7765 -0.0292 -0.2486
  335TMC3    C5 5080   0.815   4.729  17.465 -0.4531 -0.5425 -0.1181
  335TMC3    C6 5081   0.700   4.682  17.397 -0.0178 -0.5230  0.0680
  335TMC3     C 5082   0.756   0.357  17.444  0.4487 -0.5103  0.5410
  335TMC3     O 5083   0.847   0.389  17.517  0.6777 -0.1240  0.3879
  335TMC3     H 5084   0.558   0.231  17.319  0.4898  1.1432 -0.3436
  335TMC3    H1 5085   0.926   0.161  17.539  1.0772 -1.7820  0.2187
  335TMC3    H2 5086   0.691   4.579  17.367  0.5957  0.0658 -2.1476
  335TMC3    C7 5087   0.928   4.633  17.476  0.6281  0.2916  0.1698
  335TMC3    C8 5088   0.504   4.729  17.275 -0.4622  0.8037 -0.5775
  335TMC3    O1 5089   1.030   4.677  17.428  0.2050 -0.2012 -0.0718
  335TMC3    O2 5090   0.487   0.062  17.174 -0.1127  0.0212  0.6508
  336MPD2     C 5091   0.499   2.406  16.140 -0.3300  0.0803 -0.0590
  336MPD2    C1 5092   0.426   2.326  16.061  0.2456 -0.2507  0.0650
  336MPD2    C2 5093   0.385   2.202  16.103  0.0230  0.2308  0.0561
  336MPD2    C3 5094   0.406   2.163  16.231 -0.0228 -0.0698  0.0255
  336MPD2    C4 5095   0.489   2.245  16.311 -0.0411  0.0427 -0.5402
  336MPD2    C5 5096   0.532   2.367  16.265 -0.8485  0.1370 -0.0853
  336MPD2     H 5097   0.322   2.142  16.039 -0.5351 -0.3562  1.1528
  336MPD2    H1 5098   0.494   2.207  16.412 -0.9650  0.1714 -0.4407
  336MPD2    H2 5099   0.526   2.508  16.112  2.9604 -0.3149  1.6801
  336MPD2    H3 5100   0.572   2.437  16.336 -1.0489 -0.4608  0.6139
  336MPD2     N 5101   0.342   2.048  16.289 -0.3308  0.0247  0.0362
  336MPD2    H5 5102   0.346   2.027  16.388 -0.3998 -0.3102 -0.0333
  336MPD2    N1 5103   0.387   2.351  15.931 -0.3395  0.4701  0.1508
  336MPD2    H7 5104   0.319   2.290  15.885  0.0554  0.4599 -0.4208
  337TMC3    C1 5105   0.396   2.456  15.716  0.9907  0.1976  0.1014
  337TMC3    C2 5106   0.263   2.439  15.699  0.5938  0.8854  0.0220
  337TMC3    C3 5107   0.210   2.494  15.584  0.3961 -0.5883 -0.4686
  337TMC3    C4 5108   0.475   2.513  15.620  0.5551  0.0383 -0.4337
  337TMC3    C5 5109   0.412   2.557  15.510  0.3729  0.3566  0.3031
  337TMC3    C6 5110   0.283   2.560  15.488 -0.6587 -0.0155  0.4591
  337TMC3     C 5111   0.453   2.438  15.847  0.3957  0.1633 -0.3589
  337TMC3     O 5112   0.565   2.489  15.868  0.0733 -0.7001  0.2486
  337TMC3     H 5113   0.203   2.396  15.779  0.5653 -1.5496 -1.3141
  337TMC3    H1 5114   0.583   2.518  15.630  0.7241 -4.9573 -0.0546
  337TMC3    H2 5115   0.239   2.617  15.407 -2.2752  0.2071  1.5145
  337TMC3    C7 5116   0.503   2.601  15.401  1.0804  0.3905 -0.9076
  337TMC3    C8 5117   0.062   2.505  15.597  0.4075  0.0032 -0.3423
  337TMC3    O1 5118   0.596   2.529  15.367  0.2164  0.4670 -0.4751
  337TMC3    O2 5119   0.017   2.493  15.709 -0.1504  0.1900  0.4442
  338MPD2     C 5120   0.804   2.657   0.918 -0.1742  0.4345  0.5155
  338MPD2    C1 5121   0.739   2.588   0.823 -0.0302  0.4348  0.1502
  338MPD2    C2 5122   0.601   2.598   0.819 -0.7771  0.6756  0.7784
  338MPD2    C3 5123   0.534   2.661   0.921 -0.3748 -0.5392 -0.6122
  338MPD2    C4 5124   0.594   2.727   1.018 -0.1552 -0.6486  0.4347
  338MPD2    C5 5125   0.731   2.722   1.025  0.4173  0.4305  0.3656
  338MPD2     H 5126   0.547   2.547   0.741  0.3041 -0.6529  0.9117
  338MPD2    H1 5127   0.540   2.784   1.092  0.1902  1.0437 -0.6180
  338MPD2    H2 5128   0.912   2.663   0.918 -0.3239  3.1511  0.4403
  338MPD2    H3 5129   0.777   2.777   1.106  1.0681 -0.3000  0.4851
  338MPD2     N 5130   0.396   2.629   0.916  0.1311 -0.2049  0.4118
  338MPD2    H5 5131   0.363   2.576   0.835 -1.0740 -0.2705  0.9487
  338MPD2    N1 5132   0.803   2.507   0.722 -0.8872  0.1480 -0.1641
  338MPD2    H7 5133   0.753   2.451   0.654  0.4602 -0.3080 -0.7948
  339TMC3    C1 5134   0.174   2.617   0.973  0.3197 -0.2760 -0.1230
  339TMC3    C2 5135   0.107   2.509   1.031 -0.2773 -0.0499  0.1799
  339TMC3    C3 5136   0.009   2.444   0.950  0.1766  0.5160 -0.5068
  339TMC3    C4 5137   0.155   2.644   0.834 -0.3385  0.2698  0.5492
  339TMC3    C5 5138   0.064   2.574   0.761 -0.2364  1.2861  0.4165
  339TMC3    C6 5139   4.728   2.471   0.817  0.4767  0.0171  0.0154
  339TMC3     C 5140   0.314   2.634   1.022  0.1262  0.3789 -0.5381
  339TMC3     O 5141   0.339   2.657   1.140 -0.0539 -0.0088 -0.1057
  339TMC3     H 5142   0.118   2.481   1.135 -1.5720  0.4773  0.4595
  339TMC3    H1 5143   0.208   2.721   0.779 -1.8496  0.3593 -0.7749
  339TMC3    H2 5144   4.650   2.418   0.764  1.9630  0.4348 -2.5453
  339TMC3    C7 5145   0.085   2.566   0.617  0.1443  0.3652 -0.1066
  339TMC3    C8 5146   4.636   2.383   1.020  0.1809  0.0416 -0.5248
  339TMC3    O1 5147   0.194   2.603   0.579  0.2306  0.4654  0.3543
  339TMC3    O2 5148   4.525   2.371   0.959 -0.5901 -0.3788  0.3496
  340MPD2     C 5149   1.101   3.638  10.255 -0.7940  0.1957  0.0231
  340MPD2    C1 5150   1.077   3.503  10.260  0.2044 -0.4113  0.1966
  340MPD2    C2 5151   1.175   3.413  10.303 -0.2997 -0.3536  0.7352
  340MPD2    C3 5152   1.303   3.463  10.327  0.6401 -0.0913 -0.2559
  340MPD2    C4 5153   1.324   3.602  10.330  1.1286 -0.2641  0.3990
  340MPD2    C5 5154   1.223   3.681  10.293  0.3701 -0.0225  0.1611
  340MPD2     H 5155   1.157   3.306  10.297  0.1859 -0.3793 -0.3177
  340MPD2    H1 5156   1.422   3.637  10.360  1.6700  0.6694 -2.4985
  340MPD2    H2 5157   1.025   3.711  10.231  0.2755  1.5271  0.6792
  340MPD2    H3 5158   1.237   3.786  10.271  1.3844 -1.0158 -3.8493
  340MPD2     N 5159   1.410   3.379  10.353 -0.0675  0.4513  0.0219
  340MPD2    H5 5160   1.500   3.425  10.353  1.3982 -2.4146  1.2463
  340MPD2    N1 5161   0.956   3.466  10.201 -0.1539 -0.5348 -0.9226
  340MPD2    H7 5162   0.907   3.546  10.161  0.8209  0.8392  0.6084
  341TMC3    C1 5163   0.839   3.324  10.058  0.2502  0.1502  0.1196
  341TMC3    C2 5164   0.743   3.224  10.050 -0.1382 -0.3547  0.3329
  341TMC3    C3 5165   0.684   3.202   9.929 -0.0988  0.5813  0.0751
  341TMC3    C4 5166   0.898   3.391   9.948  0.0071 -0.0876  0.0409
  341TMC3    C5 5167   0.833   3.366   9.826 -0.6021 -0.4857  0.2553
  341TMC3    C6 5168   0.727   3.275   9.817  0.4253 -0.2398 -0.6641
  341TMC3     C 5169   0.911   3.335  10.179 -0.7957 -0.0943  0.1098
  341TMC3     O 5170   0.929   3.238  10.252  0.2645 -0.6497 -0.4202
  341TMC3     H 5171   0.714   3.167  10.138  0.1895  0.6714  1.1059
  341TMC3    H1 5172   1.001   3.423   9.958  0.9729 -3.8277  1.9536
  341TMC3    H2 5173   0.679   3.255   9.722 -1.6952  1.4550  0.0560
  341TMC3    C7 5174   0.898   3.409   9.704 -0.0721 -0.2378 -0.5678
  341TMC3    C8 5175   0.606   3.077   9.919 -1.1314  0.9857 -0.1369
  341TMC3    O1 5176   0.880   3.362   9.591  0.0372 -0.1381  0.4044
  341TMC3    O2 5177   0.599   3.014  10.022  0.6376  0.0727  0.2092
  342MPD2     C 5178   2.867   2.862  17.459 -0.1513 -0.3112  0.2037
  342MPD2    C1 5179   2.993   2.841  17.402 -0.6072  0.1049  0.2055
  342MPD2    C2 5180   3.086   2.945  17.416 -0.7348  0.0951 -0.2899
  342MPD2    C3 5181   3.058   3.052  17.493 -0.7821 -0.3610  0.0198
  342MPD2    C4 5182   2.935   3.068  17.550 -0.7439  1.2035  0.2998
  342MPD2    C5 5183   2.837   2.973  17.533 -0.4909  0.2504  0.4580
  342MPD2     H 5184   3.183   2.936  17.369 -0.9422 -0.9572 -0.5109
  342MPD2    H1 5185   2.911   3.157  17.606  0.6383  0.8506  1.4480
  342MPD2    H2 5186   2.784   2.793  17.447  2.3124 -3.3309  0.1974
  342MPD2    H3 5187   2.737   2.987  17.572 -0.6743 -1.9628  0.7826
  342MPD2     N 5188   3.146   3.163  17.513 -0.4811 -0.2567 -0.3982
  342MPD2    H5 5189   3.108   3.242  17.564 -0.2347  1.0508 -2.2372
  342MPD2    N1 5190   3.032   2.714  17.342  0.3123 -0.2953 -0.3396
  342MPD2    H7 5191   3.123   2.727  17.298  0.3321 -1.1734 -0.5589
  343TMC3    C1 5192   3.025   2.497  17.256 -0.1677  0.3068 -0.1168
  343TMC3    C2 5193   3.155   2.517  17.224  0.0724  0.3200 -0.2252
  343TMC3    C3 5194   3.220   2.406  17.167  0.0280  0.1098 -0.1395
  343TMC3    C4 5195   2.959   2.382  17.239  0.2462 -0.0299  0.9258
  343TMC3    C5 5196   3.025   2.277  17.193 -0.0495 -0.2059  0.1335
  343TMC3    C6 5197   3.154   2.289  17.141 -0.0231  0.8201  0.2255
  343TMC3     C 5198   2.953   2.602  17.318  0.4252 -0.3603 -0.0894
  343TMC3     O 5199   2.842   2.584  17.360  0.3128 -0.1495 -0.0802
  343TMC3     H 5200   3.225   2.589  17.265 -0.6640  0.3406  1.0101
  343TMC3    H1 5201   2.862   2.374  17.287  0.0346  0.9381  0.6813
  343TMC3    H2 5202   3.200   2.211  17.082 -0.2258  1.2238 -0.4704
  343TMC3    C7 5203   2.973   2.141  17.219 -0.3219  0.5062 -0.1980
  343TMC3    C8 5204   3.366   2.415  17.181 -0.4061 -0.3205  0.0727
  343TMC3    O1 5205   2.855   2.122  17.240  0.6189  0.0828  0.0267
  343TMC3    O2 5206   3.417   2.479  17.272 -0.3785 -0.7843  0.0026
  344MPD2     C 5207   3.737   1.615   9.753  0.7226 -0.4746  0.1499
  344MPD2    C1 5208   3.763   1.619   9.886  0.1152  0.2420  0.5578
  344MPD2    C2 5209   3.878   1.690   9.923  0.1490 -0.3656 -0.4507
  344MPD2    C3 5210   3.968   1.741   9.833 -0.0526  0.6509 -0.0360
  344MPD2    C4 5211   3.946   1.721   9.699 -0.4404 -0.4558 -0.6719
  344MPD2    C5 5212   3.825   1.662   9.664 -0.7164  0.5422  0.3408
  344MPD2     H 5213   3.897   1.710  10.027 -0.5343 -1.9355 -0.0288
  344MPD2    H1 5214   4.007   1.754   9.616  1.6219  0.1917  1.1237
  344MPD2    H2 5215   3.655   1.556   9.712  1.9533 -0.9094 -1.6586
  344MPD2    H3 5216   3.804   1.644   9.559  2.3924  0.3821 -0.2510
  344MPD2     N 5217   4.086   1.809   9.875  0.3584  0.7320 -0.1403
  344MPD2    H5 5218   4.149   1.839   9.802  1.5118  1.9452  1.3482
  344MPD2    N1 5219   3.679   1.569   9.991 -0.2957  1.0183 -0.0189
  344MPD2    H7 5220   3.704   1.590  10.087 -1.4168  0.5490  0.3779
  345TMC3    C1 5221   4.226   1.934  10.018 -0.6560 -0.7155 -0.1629
  345TMC3    C2 5222   4.286   1.934  10.142 -0.3694 -0.3024 -0.2570
  345TMC3    C3 5223   4.402   2.011  10.150 -0.1384 -0.0709  0.5435
  345TMC3    C4 5224   4.260   2.009   9.910  0.3483  0.3166  0.1062
  345TMC3    C5 5225   4.373   2.089   9.924  0.2032  0.0472  0.6034
  345TMC3    C6 5226   4.444   2.091  10.043  0.1163  0.2095 -0.5388
  345TMC3     C 5227   4.109   1.855  10.002 -0.0707 -0.3129 -0.4065
  345TMC3     O 5228   4.054   1.836  10.112 -0.3887  0.0057  0.5479
  345TMC3     H 5229   4.253   1.877  10.229 -0.3002  3.4723  2.2568
  345TMC3    H1 5230   4.200   2.007   9.819  1.7056  0.6399 -0.7996
  345TMC3    H2 5231   4.521   2.166  10.049  1.9459 -1.8220  1.4247
  345TMC3    C7 5232   4.356   2.218   9.858  0.5362  1.0482  0.3325
  345TMC3    C8 5233   4.416   2.065  10.282  0.0417 -1.1792  0.2029
  345TMC3    O1 5234   4.404   2.315   9.911  0.1901  0.3030 -0.2388
  345TMC3    O2 5235   4.322   2.076  10.356 -0.2448 -0.1034  0.3122
  346MPD2     C 5236   4.191   3.147  13.527 -0.4282  0.6357 -0.3864
  346MPD2    C1 5237   4.314   3.205  13.493 -0.1878 -0.2975 -0.4796
  346MPD2    C2 5238   4.354   3.322  13.550 -0.1945  0.5595 -0.0740
  346MPD2    C3 5239   4.269   3.392  13.627 -0.0594 -0.3963 -0.0159
  346MPD2    C4 5240   4.149   3.340  13.668 -0.8492 -0.2411  0.1513
  346MPD2    C5 5241   4.114   3.225  13.613 -0.3632  0.7880  0.4139
  346MPD2     H 5242   4.453   3.362  13.532 -0.0051 -0.0105 -0.2752
  346MPD2    H1 5243   4.083   3.377  13.745 -2.5363 -2.4187 -0.2331
  346MPD2    H2 5244   4.150   3.051  13.497  0.5363  0.0861  0.0285
  346MPD2    H3 5245   4.019   3.176  13.633  0.2347 -0.0920  1.0847
  346MPD2     N 5246   4.316   3.518  13.673 -0.5787  0.1635 -0.5897
  346MPD2    H5 5247   4.408   3.540  13.637 -0.6463 -1.4214 -1.7144
  346MPD2    N1 5248   4.391   3.164  13.382 -0.0066  0.2947 -1.1036
  346MPD2    H7 5249   4.472   3.214  13.347  0.7829 -0.8981 -0.9881
  347TMC3    C1 5250   4.340   3.695  13.824  0.1989  0.0631 -0.3802
  347TMC3    C2 5251   4.469   3.654  13.834  0.6741 -0.0912  0.8759
  347TMC3    C3 5252   4.538   3.695  13.947 -0.1426  0.3393 -0.8710
  347TMC3    C4 5253   4.280   3.782  13.908  0.4516  0.2409  0.0422
  347TMC3    C5 5254   4.350   3.819  14.021  0.4020  0.0567  0.3380
  347TMC3    C6 5255   4.480   3.778  14.046  0.0674 -0.3860  0.2670
  347TMC3     C 5256   4.248   3.600  13.760 -0.1450 -0.2504 -0.2857
  347TMC3     O 5257   4.142   3.587  13.819 -0.0974 -0.1233  0.2640
  347TMC3     H 5258   4.509   3.567  13.783 -0.5439  0.4297 -0.9601
  347TMC3    H1 5259   4.177   3.814  13.897  0.2312  0.8607  4.0507
  347TMC3    H2 5260   4.531   3.797  14.140 -0.5543 -0.2118  0.5697
  347TMC3    C7 5261   4.281   3.869  14.128 -0.5090 -0.0199 -0.4452
  347TMC3    C8 5262   4.657   3.626  13.990  0.1053 -0.1833 -0.4624
  347TMC3    O1 5263   4.158   3.870  14.114  0.3542  0.2607  0.5088
  347TMC3    O2 5264   4.684   3.525  13.933 -0.2332 -0.6689  0.1202
  348MPD2     C 5265   2.580   2.579  11.958 -0.5446  0.0192 -0.2329
  348MPD2    C1 5266   2.701   2.515  11.929 -0.0986  0.6986 -0.5444
  348MPD2    C2 5267   2.774   2.562  11.817 -0.1318  0.3067  1.0021
  348MPD2    C3 5268   2.726   2.664  11.742  1.1493  0.4343  0.7859
  348MPD2    C4 5269   2.615   2.724  11.777 -0.1833 -0.4135 -0.5563
  348MPD2    C5 5270   2.537   2.676  11.879  0.4606 -0.1375 -1.6493
  348MPD2     H 5271   2.867   2.512  11.793  0.4938  1.8524  0.2432
  348MPD2    H1 5272   2.575   2.814  11.732  0.9037  0.3637  0.0256
  348MPD2    H2 5273   2.509   2.557  12.038  0.8195 -1.1522  0.6641
  348MPD2    H3 5274   2.443   2.723  11.908  2.2536  0.8759  2.4627
  348MPD2     N 5275   2.803   2.714  11.639 -0.3567  0.6071  0.4602
  348MPD2    H5 5276   2.899   2.685  11.632 -0.6447 -0.4060  0.7063
  348MPD2    N1 5277   2.738   2.390  11.991 -0.4078 -0.0332  0.3836
  348MPD2    H7 5278   2.831   2.355  11.971  0.1094  0.4753  1.9219
  349TMC3    C1 5279   2.722   2.194  12.116 -0.4448  0.8157  0.2630
  349TMC3    C2 5280   2.856   2.204  12.144 -0.0460 -0.6104 -0.2320
  349TMC3    C3 5281   2.922   2.087  12.151 -0.4143 -0.1526 -0.6592
  349TMC3    C4 5282   2.649   2.080  12.109  0.0266  0.0813  0.0427
  349TMC3    C5 5283   2.714   1.959  12.113  0.2747 -0.3818  0.0592
  349TMC3    C6 5284   2.853   1.957  12.135 -0.1082  1.0236  0.7280
  349TMC3     C 5285   2.653   2.319  12.080 -0.5052 -0.7129  0.1427
  349TMC3     O 5286   2.534   2.336  12.105 -0.4612  0.0838 -0.0976
  349TMC3     H 5287   2.901   2.302  12.150 -0.3754 -0.4097 -1.0055
  349TMC3    H1 5288   2.553   2.080  12.060  0.5347 -0.9641 -0.9388
  349TMC3    H2 5289   2.899   1.862  12.160 -0.6369  0.4257 -0.5220
  349TMC3    C7 5290   2.696   1.907  11.975 -0.9933 -0.4047 -0.1054
  349TMC3    C8 5291   3.065   2.088  12.187 -0.0755  0.4855 -0.0989
  349TMC3    O1 5292   2.776   1.950  11.896  0.1253 -0.5991 -0.4393
  349TMC3    O2 5293   3.116   2.194  12.216  0.2994 -0.6737 -0.9480
  350MPD2     C 5294   1.631   1.029   9.448  0.3291 -0.9233 -0.5158
  350MPD2    C1 5295   1.696   0.911   9.431  0.4124 -0.1034 -0.4542
  350MPD2    C2 5296   1.828   0.915   9.453 -0.4623 -0.0137 -0.2407
  350MPD2    C3 5297   1.891   1.031   9.497 -0.2051  0.2949  0.1526
  350MPD2    C4 5298   1.820   1.152   9.503 -0.1916  0.0061 -0.0310
  350MPD2    C5 5299   1.684   1.150   9.485  0.0683 -0.6570  0.2513
  350MPD2     H 5300   1.889   0.825   9.445 -1.6181 -0.9159  1.2443
  350MPD2    H1 5301   1.863   1.244   9.540 -1.2514  0.1779  0.7914
  350MPD2    H2 5302   1.525   1.037   9.426  0.4281 -1.5286 -1.2194
  350MPD2    H3 5303   1.632   1.245   9.493 -0.1855 -0.6546 -1.4182
  350MPD2     N 5304   2.025   1.016   9.532 -0.5052  0.0663  0.3453
  350MPD2    H5 5305   2.068   0.935   9.488 -0.9794  0.3112 -0.5577
  350MPD2    N1 5306   1.634   0.785   9.408 -0.2174 -0.3179  0.0099
  350MPD2    H7 5307   1.694   0.704   9.395  2.4900  1.1571  3.4698
  351TMC3    C1 5308   1.454   0.622   9.400 -0.1376 -0.7769  0.2873
  351TMC3    C2 5309   1.539   0.512   9.383 -0.1482  0.8682 -0.9880
  351TMC3    C3 5310   1.488   0.389   9.401 -0.3314  0.0092  0.3317
  351TMC3    C4 5311   1.320   0.598   9.416  0.0562  0.5386  0.2018
  351TMC3    C5 5312   1.273   0.475   9.438 -0.5007 -0.2787 -0.1111
  351TMC3    C6 5313   1.359   0.370   9.432 -0.2069 -0.6788 -0.2181
  351TMC3     C 5314   1.498   0.762   9.411 -0.1634  0.2640 -0.3659
  351TMC3     O 5315   1.403   0.844   9.423  0.1823  0.2965  0.3294
  351TMC3     H 5316   1.647   0.522   9.373  0.2267 -0.6560  1.7093
  351TMC3    H1 5317   1.254   0.681   9.439 -2.1998 -0.7188 -1.7160
  351TMC3    H2 5318   1.319   0.270   9.444 -1.1599 -0.1119  1.2238
  351TMC3    C7 5319   1.135   0.464   9.466  0.3603  0.4123 -0.8586
  351TMC3    C8 5320   1.572   0.279   9.411 -0.2516 -0.0391 -0.2936
  351TMC3    O1 5321   1.086   0.570   9.497 -0.1986  0.2068 -1.1845
  351TMC3    O2 5322   1.662   0.284   9.334  0.1274 -0.1238  0.2278
  352MPD2     C 5323   1.059   4.420   0.814 -1.0134  0.4335  0.2655
  352MPD2    C1 5324   0.962   4.321   0.827 -1.0174 -0.0154  0.5495
  352MPD2    C2 5325   1.001   4.193   0.849 -0.1722  0.6286  0.5417
  352MPD2    C3 5326   1.139   4.161   0.869 -0.0588 -0.0398  0.0875
  352MPD2    C4 5327   1.233   4.259   0.844 -0.0561 -0.4626 -0.4282
  352MPD2    C5 5328   1.193   4.389   0.818 -0.2817  0.9692  0.7416
  352MPD2     H 5329   0.931   4.110   0.855  1.5075 -0.9117 -1.3645
  352MPD2    H1 5330   1.338   4.235   0.856  0.0205 -0.1501 -0.4548
  352MPD2    H2 5331   1.035   4.524   0.799 -0.7193  0.3226 -0.9758
  352MPD2    H3 5332   1.274   4.458   0.802  1.3689 -0.8774  1.2245
  352MPD2     N 5333   1.188   4.029   0.877  0.2537  0.0004  0.1752
  352MPD2    H5 5334   1.284   4.006   0.854 -0.0513 -2.7366  1.7008
  352MPD2    N1 5335   0.824   4.348   0.800 -0.3867  0.5341 -0.5372
  352MPD2    H7 5336   0.806   4.447   0.795 -0.6468  0.5508  0.7614
  353TMC3    C1 5337   1.162   3.794   0.891 -0.1039 -0.3796  0.4346
  353TMC3    C2 5338   1.295   3.769   0.894 -0.0397 -0.3250 -0.7214
  353TMC3    C3 5339   1.335   3.637   0.885  0.0661  0.4113 -0.3265
  353TMC3    C4 5340   1.070   3.695   0.892  0.5820 -0.4767 -0.0804
  353TMC3    C5 5341   1.112   3.568   0.899  0.0396 -0.5087  0.2044
  353TMC3    C6 5342   1.246   3.537   0.898 -0.1829 -0.0380  0.2836
  353TMC3     C 5343   1.106   3.929   0.919 -0.6289 -0.3232  0.0831
  353TMC3     O 5344   1.005   3.943   0.985  0.0908 -0.4773  0.5396
  353TMC3     H 5345   1.371   3.847   0.893 -0.8597  0.4572 -1.7338
  353TMC3    H1 5346   0.969   3.728   0.871  0.1169 -1.4734  0.5606
  353TMC3    H2 5347   1.269   3.432   0.885  0.3628  0.3509 -1.8762
  353TMC3    C7 5348   1.016   3.459   0.878  0.2846 -0.2280 -0.0043
  353TMC3    C8 5349   1.473   3.616   0.923 -0.1254  0.4425  0.0486
  353TMC3    O1 5350   1.061   3.360   0.829  0.1018  0.2227 -0.1154
  353TMC3    O2 5351   1.531   3.699   0.999 -0.3315 -0.0263 -0.7409
  354TMC3    C1 5352   2.629   4.488  13.268  0.0886  0.0036  0.3143
  354TMC3    C2 5353   2.595   4.616  13.222  0.2638  0.6097 -0.6895
  354TMC3    C3 5354   2.675   4.671  13.124  0.2864  0.3543  0.3388
  354TMC3    C4 5355   2.731   4.414  13.210 -0.3150  0.1801 -0.0785
  354TMC3    C5 5356   2.789   4.464  13.099  0.0985 -0.1020  0.3883
  354TMC3    C6 5357   2.767   4.595  13.057  0.7328 -0.3650 -0.3232
  354TMC3     C 5358   2.524   4.436  13.357  0.5278  0.2353  0.4274
  354TMC3     O 5359   2.511   4.313  13.355 -0.5846 -0.6409  0.3192
  354TMC3     H 5360   2.504   4.657  13.264  0.2782  0.5560 -0.6059
  354TMC3    H1 5361   2.740   4.308  13.229 -0.4689  0.5956  2.2630
  354TMC3    H2 5362   2.811   4.624  12.962  1.7775 -0.0816  0.2559
  354TMC3    C7 5363   2.833   4.362  13.000 -0.6326  0.6433 -0.5571
  354TMC3    C8 5364   2.656   0.068  13.081 -0.3168 -0.6952  0.5222
  354TMC3    O1 5365   2.788   4.248  13.008  0.0852 -0.1905 -0.6596
  354TMC3    O2 5366   2.701   0.097  12.974  0.3592 -0.0736 -0.2149
  355MPD2     C 5367   2.760   0.436  11.338  0.5660  0.3205 -0.3247
  355MPD2    C1 5368   2.671   0.534  11.365  0.3593  0.0643 -0.4019
  355MPD2    C2 5369   2.689   0.616  11.472  0.4246  0.2753  0.3074
  355MPD2    C3 5370   2.803   0.602  11.545 -0.4016 -0.6533  0.4687
  355MPD2    C4 5371   2.905   0.511  11.511 -0.0284 -0.4080  0.3508
  355MPD2    C5 5372   2.874   0.424  11.408  0.3786  0.1808 -0.0096
  355MPD2     H 5373   2.620   0.696  11.499  0.1240  0.2306 -0.3096
  355MPD2    H1 5374   2.996   0.504  11.570  0.5138 -3.0324 -0.7880
  355MPD2    H2 5375   2.743   0.372  11.253  1.2874 -0.9700  0.5031
  355MPD2    H3 5376   2.949   0.357  11.368  0.0344 -0.7646  0.9283
  355MPD2     N 5377   2.824   0.683  11.660  0.1104 -0.2271  0.9065
  355MPD2    H5 5378   2.915   0.671  11.702 -0.3917 -1.2328  1.7209
  355MPD2    N1 5379   2.565   0.545  11.273 -0.0202  0.6514  0.2576
  355MPD2    H7 5380   2.580   0.486  11.193  1.6882 -1.3837  2.0737
  356TMC3    C1 5381   2.825   0.878  11.772 -0.1349 -0.6918  0.4197
  356TMC3    C2 5382   2.808   1.001  11.726 -0.0470  0.6427 -0.2248
  356TMC3    C3 5383   2.909   1.095  11.744  0.4475 -0.4475 -0.3010
  356TMC3    C4 5384   2.941   0.839  11.839 -1.1350 -0.1330  0.0658
  356TMC3    C5 5385   3.032   0.942  11.862  0.3827  0.2543 -0.4910
  356TMC3    C6 5386   3.023   1.071  11.815 -0.1343  0.3468  0.4271
  356TMC3     C 5387   2.745   0.784  11.706 -1.1789 -0.0449  0.2912
  356TMC3     O 5388   2.635   0.825  11.677 -0.5199  0.1366  0.1902
  356TMC3     H 5389   2.735   1.023  11.648 -1.1097 -1.3426  0.2068
  356TMC3    H1 5390   2.957   0.743  11.886  0.1490 -0.4084 -0.9241
  356TMC3    H2 5391   3.103   1.143  11.819  1.1535 -1.1448  1.4378
  356TMC3    C7 5392   3.129   0.925  11.967 -0.2115  0.0786 -0.1640
  356TMC3    C8 5393   2.907   1.192  11.642 -0.6604  0.2817 -0.1308
  356TMC3    O1 5394   3.154   0.813  12.003 -0.1996  0.1982 -0.6120
  356TMC3    O2 5395   2.844   1.171  11.542 -0.2048  0.1107 -0.0200
  357MPD2     C 5396   2.205   1.093   1.272  0.4841  0.0475 -0.7465
  357MPD2    C1 5397   2.334   1.072   1.299 -0.4026  0.1718  0.2499
  357MPD2    C2 5398   2.413   1.169   1.357 -0.2814  0.0796  0.8719
  357MPD2    C3 5399   2.351   1.279   1.409  0.2375  0.2257 -0.2638
  357MPD2    C4 5400   2.214   1.304   1.390  0.5717  0.1538  0.4970
  357MPD2    C5 5401   2.145   1.204   1.321  0.6943 -0.4352  0.2156
  357MPD2     H 5402   2.521   1.165   1.368 -0.0395  1.3053 -1.0937
  357MPD2    H1 5403   2.160   1.387   1.433 -0.2178 -0.5992  0.9641
  357MPD2    H2 5404   2.135   1.029   1.220  0.2668  0.8264 -1.4126
  357MPD2    H3 5405   2.037   1.206   1.312  0.7046 -2.0544 -0.3859
  357MPD2     N 5406   2.419   1.379   1.486  0.0497  0.7042  0.1508
  357MPD2    H5 5407   2.379   1.473   1.489 -0.8755  0.3103  0.3531
  357MPD2    N1 5408   2.390   0.949   1.249 -0.0076 -0.0460 -0.0398
  357MPD2    H7 5409   2.322   0.876   1.229  0.9064 -0.9618  0.1892
  358TMC3    C1 5410   2.533   0.774   1.196 -0.2271  0.1069 -0.1205
  358TMC3    C2 5411   2.425   0.686   1.193 -0.4337 -0.0970  0.0299
  358TMC3    C3 5412   2.450   0.562   1.142 -0.1565  0.3537 -0.3677
  358TMC3    C4 5413   2.660   0.744   1.147 -0.4989 -0.1202 -0.0731
  358TMC3    C5 5414   2.670   0.621   1.088  0.2386  0.2017  0.3087
  358TMC3    C6 5415   2.569   0.531   1.080  0.3566 -0.1492 -0.1814
  358TMC3     C 5416   2.523   0.914   1.242  0.5629  0.4811 -0.2650
  358TMC3     O 5417   2.618   0.991   1.240  0.6757 -0.3393  0.1292
  358TMC3     H 5418   2.323   0.701   1.228 -0.1886  2.7666 -0.5024
  358TMC3    H1 5419   2.746   0.808   1.155 -0.2904 -0.2543 -1.1826
  358TMC3    H2 5420   2.590   0.429   1.051  2.5519  1.2693 -3.6323
  358TMC3    C7 5421   2.797   0.571   1.031 -0.5261 -0.3066 -0.0680
  358TMC3    C8 5422   2.348   0.476   1.113  0.4798 -0.4481  0.3179
  358TMC3    O1 5423   2.810   0.449   1.014 -0.4629  0.3572  0.4218
  358TMC3    O2 5424   2.251   0.527   1.059 -0.6714  0.4852 -0.2216
  359MPD2     C 5425   2.732   3.022  12.214  0.8931  0.3896 -0.4350
  359MPD2    C1 5426   2.719   3.163  12.221  0.6481 -0.2427  0.1450
  359MPD2    C2 5427   2.637   3.217  12.131  0.7846  0.5375 -0.3765
  359MPD2    C3 5428   2.574   3.142  12.028  0.6412  0.4857 -0.2274
  359MPD2    C4 5429   2.594   3.004  12.025  0.5614  0.3713 -0.3446
  359MPD2    C5 5430   2.679   2.948  12.116  0.5706 -0.5290 -0.3559
  359MPD2     H 5431   2.627   3.325  12.129  3.4548  0.7741 -0.9947
  359MPD2    H1 5432   2.554   2.950  11.941  0.1394 -0.2211  0.2396
  359MPD2    H2 5433   2.802   2.972  12.281  1.1294 -0.1575 -1.0857
  359MPD2    H3 5434   2.715   2.847  12.103  0.1898 -1.0039  2.2628
  359MPD2     N 5435   2.499   3.199  11.926 -0.0851 -0.1774 -0.1861
  359MPD2    H5 5436   2.447   3.138  11.864 -0.6477  0.9696 -0.8343
  359MPD2    N1 5437   2.782   3.249  12.313 -0.4554 -0.1750 -0.1685
  359MPD2    H7 5438   2.759   3.348  12.307  1.1844  0.0867 -2.1034
  360TMC3    C1 5439   2.890   3.312  12.507 -0.5182  0.0921 -0.1476
  360TMC3    C2 5440   3.022   3.289  12.521  0.0523  0.0296  0.4929
  360TMC3    C3 5441   3.106   3.369  12.447 -0.3207 -1.1163  1.0252
  360TMC3    C4 5442   2.842   3.437  12.462  0.3784  0.1681 -0.1538
  360TMC3    C5 5443   2.934   3.521  12.420 -0.4771  0.3309 -0.2736
  360TMC3    C6 5444   3.068   3.490  12.402  0.3327  0.1984  0.6975
  360TMC3     C 5445   2.830   3.203  12.432  1.0624  0.3539  0.4670
  360TMC3     O 5446   2.872   3.089  12.452 -0.0235  0.2806  0.2134
  360TMC3     H 5447   3.058   3.186  12.527 -0.4342 -0.2844 -2.0911
  360TMC3    H1 5448   2.737   3.463  12.456  0.3521  0.2070  0.4724
  360TMC3    H2 5449   3.134   3.558  12.350  0.5224  0.8502  1.7842
  360TMC3    C7 5450   2.895   3.615  12.322  0.3246 -1.0660 -0.5830
  360TMC3    C8 5451   3.243   3.321  12.450  0.2734 -0.3233 -0.2651
  360TMC3    O1 5452   2.793   3.599  12.250  0.5302  0.4583  0.1400
  360TMC3    O2 5453   3.280   3.243  12.539  0.0955 -0.1416 -0.1256
  361MPD2     C 5454   4.040   2.769  16.977 -0.0726 -1.2635  0.0078
  361MPD2    C1 5455   4.100   2.891  17.003 -0.4075 -0.5206  0.5200
  361MPD2    C2 5456   4.240   2.904  16.993 -0.5697  0.2320  0.2392
  361MPD2    C3 5457   4.310   2.791  16.965  0.2308  0.2858 -0.0379
  361MPD2    C4 5458   4.244   2.673  16.932  0.2251  0.3502  0.4400
  361MPD2    C5 5459   4.112   2.658  16.939 -0.0725  0.7557  0.5836
  361MPD2     H 5460   4.289   3.000  17.003  0.1579 -0.1856  0.6532
  361MPD2    H1 5461   4.289   2.579  16.903 -0.3605  0.3061 -0.3147
  361MPD2    H2 5462   3.933   2.756  16.967 -0.1103 -0.4090 -0.6286
  361MPD2    H3 5463   4.070   2.563  16.909  1.0023  0.3332  0.4098
  361MPD2     N 5464   4.453   2.798  16.957  0.5068 -0.8728  0.2999
  361MPD2    H5 5465   4.496   2.710  16.931 -0.0288 -1.5967  1.8734
  361MPD2    N1 5466   4.025   3.008  17.026 -0.2244 -0.2996  0.6014
  361MPD2    H7 5467   4.069   3.099  17.034 -0.6034 -0.1114  0.5186
  362TMC3    C1 5468   3.840   3.155  17.023  0.3487 -0.6242 -0.3790
  362TMC3    C2 5469   3.723   3.183  17.077 -0.2674  0.1160  0.4623
  362TMC3    C3 5470   3.661   3.293  17.042 -0.0850  0.1929  0.6988
  362TMC3    C4 5471   3.901   3.227  16.923  0.5873  0.0916  0.2823
  362TMC3    C5 5472   3.835   3.341  16.882 -0.3492 -0.4365  0.6683
  362TMC3    C6 5473   3.717   3.372  16.946 -0.6594  0.3300  0.6327
  362TMC3     C 5474   3.889   3.016  17.050  0.2430 -0.4137  0.0313
  362TMC3     O 5475   3.812   2.924  17.079 -0.3222  0.6152  0.4426
  362TMC3     H 5476   3.683   3.116  17.152 -1.9511  1.8857  1.1361
  362TMC3    H1 5477   3.978   3.188  16.858 -0.6554  1.2884 -1.9130
  362TMC3    H2 5478   3.669   3.465  16.917 -0.6518 -1.2249 -4.2462
  362TMC3    C7 5479   3.834   3.371  16.738  0.0290  0.2873  0.4634
  362TMC3    C8 5480   3.525   3.316  17.082 -0.9293 -0.3059  0.2852
  362TMC3    O1 5481   3.875   3.476  16.690  0.2491  0.1195 -0.1499
  362TMC3    O2 5482   3.447   3.225  17.108  0.0813  0.3887 -0.0132
  363TMC3    C1 5483   2.517   0.659   9.350 -1.0639  0.5110  0.2633
  363TMC3    C2 5484   2.455   0.605   9.458  0.3981 -0.0493  0.2133
  363TMC3    C3 5485   2.526   0.585   9.573 -0.0187 -0.1408  0.2442
  363TMC3    C4 5486   2.640   0.705   9.358 -0.3035  0.0353 -0.1792
  363TMC3    C5 5487   2.706   0.695   9.473 -0.6885 -0.1803  0.2741
  363TMC3    C6 5488   2.653   0.627   9.578  0.2311 -0.7576  0.0745
  363TMC3     C 5489   2.452   0.684   9.219  0.7406  0.0507  0.1548
  363TMC3     O 5490   2.485   0.779   9.153  0.3800  0.0224  1.0460
  363TMC3     H 5491   2.348   0.592   9.463  0.8033 -2.8922  1.3138
  363TMC3    H1 5492   2.684   0.740   9.265 -0.5229  1.0445  0.0989
  363TMC3    H2 5493   2.704   0.632   9.673 -0.0103  0.5411  0.1450
  363TMC3    C7 5494   2.801   0.803   9.490 -0.0750  0.1415  0.2486
  363TMC3    C8 5495   2.486   0.488   9.665  0.1003  0.3198  0.0323
  363TMC3    O1 5496   2.797   0.887   9.397 -0.0415  0.4339 -0.5523
  363TMC3    O2 5497   2.369   0.459   9.671  0.5400 -0.2490  0.0124
  364MPD2     C 5498   1.971   4.202  10.891 -0.2908  0.0011 -0.3373
  364MPD2    C1 5499   1.931   4.119  10.790  0.4088  0.2014 -0.0494
  364MPD2    C2 5500   1.966   3.984  10.786  0.2274  0.6618 -0.9204
  364MPD2    C3 5501   2.039   3.930  10.895 -0.2328 -0.5668 -0.4741
  364MPD2    C4 5502   2.074   4.014  10.999 -0.0659 -0.5298 -0.2709
  364MPD2    C5 5503   2.042   4.145  10.996 -0.2589 -0.5311 -0.0123
  364MPD2     H 5504   1.930   3.918  10.707  1.0030  0.4459 -1.0942
  364MPD2    H1 5505   2.127   3.976  11.085  0.2256  2.4257  0.8450
  364MPD2    H2 5506   1.945   4.307  10.892  2.2055  0.5685  3.5894
  364MPD2    H3 5507   2.065   4.207  11.082  1.7228  0.6023 -1.3637
  364MPD2     N 5508   2.076   3.798  10.900 -0.3984 -0.0597  0.0876
  364MPD2    H5 5509   2.110   3.766  10.990 -2.5368 -2.1083  0.1907
  364MPD2    N1 5510   1.857   4.181  10.688  0.1763  0.0080  0.0476
  364MPD2    H7 5511   1.821   4.275  10.707  1.3235  0.4941 -0.1752
  365TMC3    C1 5512   1.748   4.214  10.490 -0.2400 -0.0864 -0.4057
  365TMC3    C2 5513   1.766   4.208  10.358 -0.0434 -0.2389  0.2471
  365TMC3    C3 5514   1.694   4.293  10.283 -0.3583  0.0393 -0.5424
  365TMC3    C4 5515   1.668   4.308  10.554  0.5035 -0.0987  0.0558
  365TMC3    C5 5516   1.594   4.388  10.472  0.0590 -0.1304  0.3553
  365TMC3    C6 5517   1.600   4.386  10.337  0.0744 -0.1792 -0.5638
  365TMC3     C 5518   1.819   4.118  10.572  1.1224  0.1836  0.4883
  365TMC3     O 5519   1.877   4.024  10.516  0.3945 -0.0085  0.4059
  365TMC3     H 5520   1.836   4.132  10.323 -1.3243 -0.6025 -1.5116
  365TMC3    H1 5521   1.649   4.311  10.661 -0.1370 -2.8326  0.0239
  365TMC3    H2 5522   1.542   4.446  10.269  1.0064  2.7192  1.2224
  365TMC3    C7 5523   1.515   4.482  10.540 -0.1146  0.0880 -0.8704
  365TMC3    C8 5524   1.714   4.293  10.142 -0.0044  0.2102 -0.1965
  365TMC3    O1 5525   1.406   4.504  10.491  0.1554  0.0708  0.2357
  365TMC3    O2 5526   1.727   4.401  10.084  0.2742  0.5645  0.3046
  366MPD2     C 5527   4.455   1.170  15.567  0.3677  0.2226 -0.9022
  366MPD2    C1 5528   4.573   1.228  15.555  0.2212  0.3489  0.1847
  366MPD2    C2 5529   4.687   1.158  15.590  0.2144 -0.1475  0.1791
  366MPD2    C3 5530   4.674   1.031  15.644  0.6024 -0.1026  0.9991
  366MPD2    C4 5531   4.551   0.964  15.650  0.1473 -0.2411 -1.0313
  366MPD2    C5 5532   4.444   1.038  15.611 -0.0338  0.1920  0.4177
  366MPD2     H 5533   0.051   1.192  15.588 -0.2049  1.0387 -2.4009
  366MPD2    H1 5534   4.537   0.872  15.705  1.4057 -0.1712 -0.6079
  366MPD2    H2 5535   4.361   1.214  15.536  0.0594  0.8520  0.9500
  366MPD2    H3 5536   4.345   0.998  15.628  0.0861  0.4731  1.7877
  366MPD2     N 5537   0.055   0.974  15.687 -0.4540 -0.1561  0.3165
  366MPD2    H5 5538   0.144   1.016  15.661 -0.5767  0.6323  1.1870
  366MPD2    N1 5539   4.607   1.353  15.501 -0.0410 -0.4333 -0.3539
  366MPD2    H7 5540   4.705   1.371  15.482  0.3661 -2.6911 -0.3429
  367TMC3    C1 5541   4.582   1.575  15.417 -1.1699  0.0281  1.0092
  367TMC3    C2 5542   4.694   1.618  15.480 -0.7316  0.5289 -0.0865
  367TMC3    C3 5543   0.010   1.742  15.446 -0.3293 -0.1223  0.0802
  367TMC3    C4 5544   4.506   1.655  15.329 -0.7119  0.6172 -0.1338
  367TMC3    C5 5545   4.567   1.773  15.300 -0.6662 -0.0364 -0.1405
  367TMC3    C6 5546   4.687   1.814  15.347 -0.2868 -0.1785  0.3167
  367TMC3     C 5547   4.523   1.459  15.475  0.3045  0.4155 -0.0005
  367TMC3     O 5548   4.403   1.471  15.489  0.5727 -0.0857 -0.1807
  367TMC3     H 5549   4.734   1.556  15.560  1.1104  0.1292 -1.3097
  367TMC3    H1 5550   4.413   1.618  15.286  0.5549 -2.1330 -0.4505
  367TMC3    H2 5551   4.727   1.911  15.317 -0.0166  0.5923  3.1899
  367TMC3    C7 5552   4.513   1.864  15.194  0.6177  0.3461  0.2484
  367TMC3    C8 5553   0.128   1.777  15.527  0.6794 -0.1561 -0.1456
  367TMC3    O1 5554   4.563   1.980  15.191  0.5069  0.2998 -0.0395
  367TMC3    O2 5555   0.176   1.687  15.595  0.1612  0.8856  0.2884
  368MPD2     C 5556   1.993   2.405  12.951  0.0779 -1.0576 -0.2319
  368MPD2    C1 5557   2.015   2.541  12.957  0.0380  0.4558 -0.0673
  368MPD2    C2 5558   2.139   2.586  12.919  0.4762  0.0250  0.4361
  368MPD2    C3 5559   2.232   2.504  12.865  0.3762  0.4171 -0.1560
  368MPD2    C4 5560   2.206   2.371  12.845 -0.7371 -0.1836 -0.5020
  368MPD2    C5 5561   2.084   2.325  12.888 -0.3461 -0.3604  0.2115
  368MPD2     H 5562   2.160   2.686  12.953  1.0529 -0.1039  0.4547
  368MPD2    H1 5563   2.288   2.309  12.811 -0.1975  0.7710 -0.9569
  368MPD2    H2 5564   1.895   2.370  12.981  0.0487 -0.7106  0.0850
  368MPD2    H3 5565   2.059   2.220  12.878  0.3591 -0.4586 -0.5616
  368MPD2     N 5566   2.350   2.547  12.798 -0.4735  0.0138  0.0144
  368MPD2    H5 5567   2.405   2.474  12.755  2.0991  0.7716  2.0106
  368MPD2    N1 5568   1.907   2.627  12.989 -0.0997  0.3725 -0.4619
  368MPD2    H7 5569   1.834   2.579  13.041  1.7449 -1.4514  0.4768
  369TMC3    C1 5570   1.776   2.816  13.028 -0.3201  0.8215 -0.5303
  369TMC3    C2 5571   1.772   2.950  13.019  0.3709 -0.0309  0.0644
  369TMC3    C3 5572   1.649   3.015  13.005  0.0275  0.8414 -0.5527
  369TMC3    C4 5573   1.662   2.741  13.023 -0.2651 -0.5303 -0.1470
  369TMC3    C5 5574   1.543   2.809  12.996 -0.1867 -0.6600 -0.1592
  369TMC3    C6 5575   1.536   2.942  12.983 -0.2858 -0.0449 -0.0530
  369TMC3     C 5576   1.904   2.765  12.980  0.5966 -0.2919  0.0329
  369TMC3     O 5577   1.982   2.836  12.917 -0.0648 -0.6427  0.6145
  369TMC3     H 5578   1.862   3.010  13.015  1.1546 -1.3683 -2.1256
  369TMC3    H1 5579   1.654   2.633  13.024 -1.1855 -0.4291  2.8117
  369TMC3    H2 5580   1.443   2.994  12.967  0.3001  0.9480 -0.2564
  369TMC3    C7 5581   1.418   2.743  13.008  0.8290  0.5187 -0.5233
  369TMC3    C8 5582   1.649   3.145  12.945  0.7729 -0.2994  0.5036
  369TMC3    O1 5583   1.407   2.677  13.112 -0.0365  0.1347  0.3197
  369TMC3    O2 5584   1.562   3.168  12.856  0.3910  0.5287 -0.3286
  370TMC3    C1 5585   0.985   4.135  16.318  0.3421  0.0851  0.6644
  370TMC3    C2 5586   0.876   4.084  16.386 -0.1370 -0.7793 -0.3502
  370TMC3    C3 5587   0.792   3.998  16.318  0.0092  0.2355  0.0853
  370TMC3    C4 5588   1.005   4.103  16.181 -0.2131 -0.2982  0.0951
  370TMC3    C5 5589   0.917   4.010  16.124  0.4335  0.0254 -0.5326
  370TMC3    C6 5590   0.814   3.952  16.191  0.8007 -0.5569 -0.8601
  370TMC3     C 5591   1.022   4.264  16.366  0.0155 -0.1238  0.2734
  370TMC3     O 5592   0.935   4.329  16.415  0.2307 -0.0145 -0.4438
  370TMC3     H 5593   0.876   4.111  16.491  2.8831 -1.0790 -0.2948
  370TMC3    H1 5594   1.074   4.154  16.115 -1.1210  1.4144  0.4589
  370TMC3    H2 5595   0.738   3.896  16.138  0.7274 -0.2766 -1.0460
  370TMC3    C7 5596   0.962   3.964  15.995 -0.5001 -0.0067 -0.1545
  370TMC3    C8 5597   0.706   3.906  16.394  0.1340  0.3992  0.2808
  370TMC3    O1 5598   1.032   4.038  15.927 -0.0629 -0.3955  0.4757
  370TMC3    O2 5599   0.663   3.809  16.332  0.2453  0.3075 -0.1536
  371TMC3    C1 5600   1.774   2.280  15.202 -0.0332 -0.3395 -0.1446
  371TMC3    C2 5601   1.686   2.265  15.304  0.1888  0.2769 -0.2164
  371TMC3    C3 5602   1.642   2.381  15.363 -0.6203 -0.2350  0.0100
  371TMC3    C4 5603   1.821   2.401  15.160 -0.1317 -0.2789  0.1983
  371TMC3    C5 5604   1.780   2.511  15.227  0.7323 -0.3396 -0.2756
  371TMC3    C6 5605   1.696   2.503  15.339 -0.0584  0.3751  0.2170
  371TMC3     C 5606   1.853   2.168  15.147 -0.2288 -0.0953  0.1258
  371TMC3     O 5607   1.909   2.194  15.038  0.0543 -0.1983 -0.6429
  371TMC3     H 5608   1.643   2.167  15.321  0.8363 -0.0283 -0.3483
  371TMC3    H1 5609   1.897   2.408  15.084  0.1608  2.0475  0.7313
  371TMC3    H2 5610   1.681   2.597  15.391  2.8814  0.1518  1.4991
  371TMC3    C7 5611   1.872   2.627  15.225  0.0478  0.6909  0.2627
  371TMC3    C8 5612   1.541   2.364  15.460  0.3534 -0.4182 -0.3577
  371TMC3    O1 5613   1.885   2.698  15.325 -0.0351  0.2662 -0.2086
  371TMC3    O2 5614   1.492   2.254  15.465  0.2218 -0.1223  0.6036
  372MPD2     C 5615   1.932   2.510  13.579  0.2835  0.1776  0.5295
  372MPD2    C1 5616   2.055   2.476  13.641 -0.5867 -0.0223  0.4121
  372MPD2    C2 5617   2.050   2.398  13.758 -0.2281  0.5755  0.1394
  372MPD2    C3 5618   1.931   2.356  13.814 -0.1257 -0.0155  0.1728
  372MPD2    C4 5619   1.816   2.403  13.751 -0.2860  0.1250 -0.8117
  372MPD2    C5 5620   1.818   2.480  13.640  0.1026  0.2495  0.8830
  372MPD2     H 5621   2.144   2.358  13.796 -0.7952 -1.1266 -0.2675
  372MPD2    H1 5622   1.715   2.370  13.772 -0.6367  2.6670  1.5374
  372MPD2    H2 5623   1.923   2.566  13.486  1.5742 -1.8775 -0.8513
  372MPD2    H3 5624   1.728   2.503  13.584  0.8257 -1.1407 -0.8317
  372MPD2     N 5625   1.930   2.265  13.924  0.6234  0.0572  0.5784
  372MPD2    H5 5626   2.015   2.233  13.971  0.2715 -1.4185  0.2001
  372MPD2    N1 5627   2.181   2.526  13.593  0.7743  0.3270 -0.2560
  372MPD2    H7 5628   2.255   2.494  13.654  1.9492  1.1620 -1.2433
  373TMC3    C1 5629   1.840   2.153  14.108  0.5173 -0.7483  0.7632
  373TMC3    C2 5630   1.858   2.225  14.218  1.1978 -0.0431 -0.5767
  373TMC3    C3 5631   1.945   2.183  14.317  0.3405  0.0318 -0.7123
  373TMC3    C4 5632   1.905   2.036  14.081  0.1486  0.5143 -0.0831
  373TMC3    C5 5633   2.001   1.995  14.179  0.7166  0.2615 -0.1112
  373TMC3    C6 5634   2.026   2.070  14.295 -0.3640 -0.3351  0.1380
  373TMC3     C 5635   1.817   2.232  13.994 -0.0773  0.3401  0.1373
  373TMC3     O 5636   1.706   2.278  13.988  0.0268  0.6952  0.0149
  373TMC3     H 5637   1.810   2.321  14.232 -1.1031 -1.1590 -0.8940
  373TMC3    H1 5638   1.896   1.987  13.985  0.2696 -2.1789  1.2892
  373TMC3    H2 5639   2.105   2.055  14.367 -0.4170  1.0978  0.4875
  373TMC3    C7 5640   2.090   1.881  14.154 -0.0508 -0.6393 -0.7215
  373TMC3    C8 5641   1.978   2.283  14.414 -0.8251  0.7588 -0.7155
  373TMC3    O1 5642   2.184   1.878  14.228 -0.1396  0.3507  0.0344
  373TMC3    O2 5643   1.889   2.335  14.477 -0.4257 -0.0557  0.4548
  374TMC3    C1 5644   2.575   3.671   9.345  0.0122 -0.0436 -0.2832
  374TMC3    C2 5645   2.583   3.729   9.468 -0.4798 -1.0455 -0.0259
  374TMC3    C3 5646   2.687   3.814   9.492 -0.6299 -0.3709 -0.8235
  374TMC3    C4 5647   2.647   3.714   9.240 -0.1292  0.6808 -0.3750
  374TMC3    C5 5648   2.740   3.814   9.266  0.4180  0.4587 -0.7562
  374TMC3    C6 5649   2.759   3.866   9.391 -0.2637 -1.4265 -0.7007
  374TMC3     C 5650   2.469   3.582   9.307 -0.2068  0.1946 -0.5571
  374TMC3     O 5651   2.431   3.583   9.190 -0.0918  0.6286 -0.2899
  374TMC3     H 5652   2.511   3.704   9.546  0.4246 -1.7423  0.5743
  374TMC3    H1 5653   2.646   3.656   9.148 -0.5144  3.1887 -1.9773
  374TMC3    H2 5654   2.826   3.951   9.405 -3.7437  1.0033  1.2332
  374TMC3    C7 5655   2.808   3.871   9.153 -0.4594  0.1535  0.2341
  374TMC3    C8 5656   2.685   3.878   9.615 -0.0013  1.0906 -0.1247
  374TMC3    O1 5657   2.739   3.866   9.047 -0.5437 -0.0156  0.3175
  374TMC3    O2 5658   2.704   4.001   9.628 -0.3256 -0.0746  0.6765
  375MPD2     C 5659   2.037   3.791  17.320 -0.1840 -0.7409 -0.0630
  375MPD2    C1 5660   1.981   3.867  17.215 -0.5128 -0.3097 -1.1801
  375MPD2    C2 5661   2.052   3.905  17.101 -0.1540 -0.3452 -0.0364
  375MPD2    C3 5662   2.185   3.861  17.098 -0.6995  0.5564 -0.2446
  375MPD2    C4 5663   2.246   3.794  17.209  0.3100 -0.1821  0.2522
  375MPD2    C5 5664   2.172   3.766  17.322  0.1655  0.4754  0.7440
  375MPD2     H 5665   2.004   3.973  17.032  0.4226 -0.6333 -0.7073
  375MPD2    H1 5666   2.353   3.781  17.212  0.2660 -0.7459 -0.4982
  375MPD2    H2 5667   1.989   3.770  17.415 -0.6838 -1.0809 -0.3912
  375MPD2    H3 5668   2.217   3.720  17.410 -2.1876 -0.5255  1.4257
  375MPD2     N 5669   2.264   3.906  16.985  0.3953 -0.1935 -0.0595
  375MPD2    H5 5670   2.365   3.909  16.997  0.4077  2.0951 -0.7367
  375MPD2    N1 5671   1.857   3.930  17.220 -0.3783  0.3893 -0.1257
  375MPD2    H7 5672   1.837   3.991  17.141  2.0474 -0.3669 -1.3176
  376TMC3    C1 5673   2.309   4.022  16.783 -0.4969  0.7616 -0.0691
  376TMC3    C2 5674   2.411   4.091  16.848  0.6627 -0.0602 -0.4480
  376TMC3    C3 5675   2.486   4.177  16.774 -0.5969 -0.0341 -0.8654
  376TMC3    C4 5676   2.276   4.044  16.653  0.3588 -0.1812 -0.0834
  376TMC3    C5 5677   2.356   4.128  16.585 -0.6723 -0.7036  0.4224
  376TMC3    C6 5678   2.458   4.199  16.642 -0.0960 -1.3638  0.2058
  376TMC3     C 5679   2.216   3.943  16.862 -0.4025  0.3028  0.1340
  376TMC3     O 5680   2.115   3.904  16.804 -0.0650  0.2819  0.1499
  376TMC3     H 5681   2.428   4.085  16.955  0.6688  1.2846 -0.3780
  376TMC3    H1 5682   2.194   3.990  16.607  0.3248  1.1878 -1.6410
  376TMC3    H2 5683   2.510   4.278  16.589  1.7989 -0.5434  3.2823
  376TMC3    C7 5684   2.331   4.154  16.441 -0.3896 -0.0528  0.1666
  376TMC3    C8 5685   2.622   4.206  16.814 -0.2608  0.6144 -0.1958
  376TMC3    O1 5686   2.387   4.258  16.395 -0.1404 -0.2261 -0.1654
  376TMC3    O2 5687   2.685   4.295  16.762 -0.2175  0.0020  0.9017
  377MPD2     C 5688   1.188   3.197  12.567  0.6372 -0.7760 -0.0541
  377MPD2    C1 5689   1.111   3.243  12.459 -0.0502 -0.0779  0.1023
  377MPD2    C2 5690   0.974   3.236  12.472 -0.3049  0.5570  0.0349
  377MPD2    C3 5691   0.906   3.189  12.585 -0.5956 -0.4878 -0.5654
  377MPD2    C4 5692   0.988   3.141  12.686 -0.4988 -0.3981  0.5053
  377MPD2    C5 5693   1.123   3.147  12.673 -0.1709 -0.3633  0.1390
  377MPD2     H 5694   0.913   3.272  12.389 -0.3418 -2.8866 -1.4075
  377MPD2    H1 5695   0.940   3.101  12.775  2.7772  0.3312  2.5564
  377MPD2    H2 5696   1.297   3.193  12.571  0.6320 -2.1362 -1.2800
  377MPD2    H3 5697   1.182   3.120  12.760 -0.2607  0.5657  0.4845
  377MPD2     N 5698   0.764   3.169  12.594 -0.1713  0.6719  0.2461
  377MPD2    H5 5699   0.718   3.134  12.677 -1.2945 -1.1501 -1.1429
  377MPD2    N1 5700   1.177   3.284  12.336 -0.0632 -0.7031 -0.0409
  377MPD2    H7 5701   1.278   3.281  12.342 -0.0241 -0.3889 -0.5344
  378TMC3    C1 5702   1.158   3.370  11.869 -0.2857 -0.8920 -0.5625
  378TMC3    C2 5703   1.135   3.399  12.000 -0.4319 -0.4223  0.3051
  378TMC3    C3 5704   1.186   3.321  12.098 -0.2447 -0.1618  0.6130
  378TMC3    C4 5705   1.229   3.256  11.837  0.2658  0.0476 -1.1719
  378TMC3    C5 5706   1.282   3.181  11.938 -0.1462  0.2611  0.2095
  378TMC3    C6 5707   1.251   3.202  12.072  0.0147 -0.2643  0.0679
  378TMC3     C 5708   1.089   3.443  11.764 -0.3931  0.0312 -0.3407
  378TMC3     O 5709   1.048   3.378  11.674  0.2149 -0.1458  0.1414
  378TMC3     H 5710   1.074   3.487  12.020 -0.1749 -0.6520  2.1156
  378TMC3    H1 5711   1.254   3.245  11.732  1.3853  0.6916 -0.9712
  378TMC3    H2 5712   1.284   3.139  12.153  2.3419  1.4400  0.4454
  378TMC3    C7 5713   1.336   3.054  11.903  0.2520  0.3215 -0.7343
  378TMC3    C8 5714   1.110   3.335  12.225 -0.1784 -0.3716 -0.8511
  378TMC3    O1 5715   1.353   2.980  11.999  0.7308  0.4030 -0.4135
  378TMC3    O2 5716   1.001   3.391  12.214 -0.0044  0.2428  0.5588
  379MPD2     C 5717   1.212   1.902  16.147  0.1253  0.3603 -0.6700
  379MPD2    C1 5718   1.125   1.896  16.256 -0.3102 -0.4297 -0.5859
  379MPD2    C2 5719   1.174   1.862  16.384 -0.3862  0.4709  0.1157
  379MPD2    C3 5720   1.308   1.833  16.400  0.1239  0.1804 -0.3775
  379MPD2    C4 5721   1.392   1.850  16.289  0.3666  0.3902 -0.1045
  379MPD2    C5 5722   1.345   1.875  16.164 -0.2240  0.6474  0.2568
  379MPD2     H 5723   1.109   1.862  16.471 -0.9239 -1.0760 -0.2816
  379MPD2    H1 5724   1.497   1.829  16.299  0.1782  0.1839  1.3766
  379MPD2    H2 5725   1.171   1.935  16.052  1.3774 -0.2703 -1.4383
  379MPD2    H3 5726   1.419   1.880  16.086  0.6352  1.6557  1.1373
  379MPD2     N 5727   1.367   1.784  16.522  0.1840 -0.7724 -0.3977
  379MPD2    H5 5728   1.465   1.763  16.504  0.4610 -0.5528  0.8463
  379MPD2    N1 5729   0.985   1.894  16.229 -0.5819 -0.6051 -0.1435
  379MPD2    H7 5730   0.962   1.913  16.132 -0.1253  1.2948  0.1288
  380TMC3    C1 5731   0.763   1.829  16.239 -0.0888 -0.2107 -0.5486
  380TMC3    C2 5732   0.693   1.714  16.260  0.0479  0.0214 -0.0437
  380TMC3    C3 5733   0.597   1.671  16.173  0.2600 -0.3542 -1.2429
  380TMC3    C4 5734   0.724   1.917  16.140 -0.3682 -0.4685  0.0227
  380TMC3    C5 5735   0.613   1.876  16.067  0.0540 -0.2624  0.6723
  380TMC3    C6 5736   0.549   1.754  16.081  1.0427 -0.3211  0.1912
  380TMC3     C 5737   0.887   1.850  16.315 -0.3640 -0.3507 -0.0191
  380TMC3     O 5738   0.902   1.803  16.425  0.0710  0.2796  0.2835
  380TMC3     H 5739   0.744   1.650  16.331 -1.6335  0.0033  1.1652
  380TMC3    H1 5740   0.765   2.017  16.133  2.2658 -1.5135  0.4696
  380TMC3    H2 5741   0.459   1.722  16.031  0.5977 -0.8823  1.3543
  380TMC3    C7 5742   0.576   1.961  15.953  0.2424  0.0021  0.3763
  380TMC3    C8 5743   0.597   1.532  16.127 -0.3694 -0.7898 -0.2957
  380TMC3    O1 5744   0.644   2.066  15.942  0.7618 -0.5532 -0.1095
  380TMC3    O2 5745   0.580   1.518  16.007 -0.1097  1.2960  0.2104
  381TMC3    C1 5746   0.491   3.147  16.204  0.9200 -0.3305  0.3993
  381TMC3    C2 5747   0.579   3.241  16.170  0.4451  0.2035  0.7280
  381TMC3    C3 5748   0.611   3.344  16.249 -0.4249 -0.4443 -0.0907
  381TMC3    C4 5749   0.432   3.152  16.323  0.3357  0.1983 -0.4944
  381TMC3    C5 5750   0.456   3.261  16.400  0.0731 -0.0692  0.0624
  381TMC3    C6 5751   0.559   3.349  16.372  0.1491  0.8273  0.1329
  381TMC3     C 5752   0.479   3.031  16.114 -0.2856  0.1615 -0.2587
  381TMC3     O 5753   0.508   3.044  15.995 -0.4843 -0.3414 -0.0965
  381TMC3     H 5754   0.627   3.224  16.074 -2.9715 -0.9070 -0.7796
  381TMC3    H1 5755   0.357   3.082  16.355  1.3708 -1.7333 -2.3136
  381TMC3    H2 5756   0.578   3.425  16.446 -2.2977  0.3828  1.2241
  381TMC3    C7 5757   0.462   3.232  16.544 -0.0770 -0.3562  0.3585
  381TMC3    C8 5758   0.725   3.428  16.201  0.2835 -0.4983  0.5265
  381TMC3    O1 5759   0.508   3.125  16.582 -0.0846  0.0523 -0.1694
  381TMC3    O2 5760   0.762   3.401  16.088  0.0951 -0.9549 -0.0180
  382MPD2     C 5761   4.485   1.197  16.876  0.4075  0.0545 -0.0994
  382MPD2    C1 5762   4.583   1.164  16.968  0.1756 -0.1664  0.2726
  382MPD2    C2 5763   4.595   1.038  17.016 -0.1617  0.3246 -0.8077
  382MPD2    C3 5764   4.524   0.934  16.951 -0.2257  0.2754  0.1593
  382MPD2    C4 5765   4.433   0.962  16.852  0.9089  0.3878  0.5050
  382MPD2    C5 5766   4.416   1.092  16.818 -0.6468  0.1322 -0.1040
  382MPD2     H 5767   4.660   1.014  17.099 -0.8402 -1.2970 -0.7489
  382MPD2    H1 5768   4.372   0.890  16.799  1.1922  0.7858 -0.3600
  382MPD2    H2 5769   4.472   1.296  16.834  0.3554 -0.1267 -0.5205
  382MPD2    H3 5770   4.335   1.131  16.758 -0.3843  1.1393  0.1980
  382MPD2     N 5771   4.539   0.794  16.996 -0.4577 -0.4741  0.2323
  382MPD2    H5 5772   4.495   0.725  16.935 -0.4026 -1.6416  1.5255
  382MPD2    N1 5773   4.648   1.270  17.037 -0.3126  0.4352 -0.1558
  382MPD2    H7 5774   4.713   1.229  17.104 -1.1918  0.0208  0.4336
  383TMC3    C1 5775   4.575   0.612  17.148 -0.6889  0.5773 -0.2876
  383TMC3    C2 5776   4.503   0.516  17.072  0.4843 -0.1573 -0.0475
  383TMC3    C3 5777   4.492   0.382  17.119  0.1003 -0.4410 -0.7185
  383TMC3    C4 5778   4.645   0.571  17.260  0.1318 -0.0930 -0.8756
  383TMC3    C5 5779   4.629   0.439  17.303 -0.4854  0.5704  0.6118
  383TMC3    C6 5780   4.567   0.343  17.228 -0.1267  0.4491  0.5682
  383TMC3     C 5781   4.589   0.753  17.118  0.4982 -0.3164  0.5697
  383TMC3     O 5782   4.635   0.819  17.207  0.0708  0.9175 -0.2245
  383TMC3     H 5783   4.454   0.543  16.979  0.9540 -1.2773 -0.6220
  383TMC3    H1 5784   4.699   0.643  17.321 -1.3098 -0.9671  1.4363
  383TMC3    H2 5785   4.559   0.245  17.274 -0.8135  0.8966  1.3969
  383TMC3    C7 5786   0.000   0.382  17.393  0.2473  0.0180 -0.7918
  383TMC3    C8 5787   4.389   0.306  17.057 -0.9477 -0.2051 -0.5091
  383TMC3    O1 5788   0.027   0.264  17.374 -0.3242  0.1033  0.4580
  383TMC3    O2 5789   4.308   0.365  16.986 -0.6458  0.1578 -0.4402
  384MPD2     C 5790   1.078   1.080  11.702  0.2621 -0.2204 -0.0449
  384MPD2    C1 5791   1.095   1.175  11.609  0.1186 -0.0668 -0.1312
  384MPD2    C2 5792   1.188   1.148  11.504 -0.0104 -0.9461 -0.3876
  384MPD2    C3 5793   1.253   1.033  11.486 -0.1252  0.2823  0.4141
  384MPD2    C4 5794   1.238   0.935  11.585 -0.3368 -0.5803  0.0516
  384MPD2    C5 5795   1.156   0.964  11.689  0.1325 -0.3968 -0.4522
  384MPD2     H 5796   1.207   1.229  11.434 -0.9499  0.0945  0.5554
  384MPD2    H1 5797   1.301   0.847  11.591  0.8922  0.3089  0.2971
  384MPD2    H2 5798   1.018   1.091  11.792  1.2399  0.2445  0.5535
  384MPD2    H3 5799   1.142   0.892  11.770  0.2457 -1.1953 -1.1431
  384MPD2     N 5800   1.360   1.034  11.393  0.2719 -0.0705  0.3841
  384MPD2    H5 5801   1.432   0.963  11.399 -1.2287 -1.7887 -2.0609
  384MPD2    N1 5802   1.030   1.296  11.635 -0.0474 -0.1734  0.2046
  384MPD2    H7 5803   0.988   1.311  11.726  0.1309 -0.5183  0.3461
  385TMC3    C1 5804   1.550   1.128  11.288 -0.5407  0.5101 -0.0819
  385TMC3    C2 5805   1.617   1.030  11.353 -0.1260  0.3698  0.7843
  385TMC3    C3 5806   1.715   1.063  11.446  0.0658 -0.3617  1.0992
  385TMC3    C4 5807   1.594   1.254  11.298  0.3724 -0.0078 -0.7967
  385TMC3    C5 5808   1.680   1.286  11.394 -0.0013 -0.9659 -0.3712
  385TMC3    C6 5809   1.735   1.194  11.475 -0.1263 -0.7546 -0.0783
  385TMC3     C 5810   1.396   1.131  11.304 -0.5250 -0.3879  0.8252
  385TMC3     O 5811   1.340   1.231  11.260 -0.2297 -0.9118 -0.4246
  385TMC3     H 5812   1.598   0.930  11.316  0.9951  0.1710  0.7590
  385TMC3    H1 5813   1.531   1.332  11.257  0.2437  0.0291 -0.5251
  385TMC3    H2 5814   1.797   1.226  11.558  0.1943 -0.5868 -0.3807
  385TMC3    C7 5815   1.657   1.411  11.463  0.6964 -0.3027 -0.8347
  385TMC3    C8 5816   1.756   0.966  11.554 -0.6418 -0.5783  0.0648
  385TMC3    O1 5817   1.621   1.411  11.583  0.0279 -0.2402 -0.4480
  385TMC3    O2 5818   1.784   1.018  11.662  0.9280 -0.4959 -1.0602
  386TMC3    C1 5819   2.064   2.888  11.457  0.9755  0.2608  0.2441
  386TMC3    C2 5820   2.075   2.974  11.348  0.5652 -0.3431  0.2405
  386TMC3    C3 5821   2.015   3.100  11.361 -0.0688  0.4097 -0.5008
  386TMC3    C4 5822   1.991   2.921  11.576 -0.1137 -0.8786  0.2236
  386TMC3    C5 5823   1.913   3.035  11.558 -0.7290 -0.6050 -0.7142
  386TMC3    C6 5824   1.930   3.129  11.463 -0.2074  0.4959 -0.7713
  386TMC3     C 5825   2.151   2.765  11.450 -0.1309  0.1655  0.0541
  386TMC3     O 5826   2.231   2.749  11.362  0.3488  0.3029 -0.0216
  386TMC3     H 5827   2.129   2.954  11.256  2.7437  1.3438  1.1831
  386TMC3    H1 5828   1.951   2.846  11.644 -0.9237  1.6759  2.5238
  386TMC3    H2 5829   1.887   3.228  11.473 -0.7577  0.2323 -0.5372
  386TMC3    C7 5830   1.823   3.075  11.658  0.0897 -0.1658  0.0385
  386TMC3    C8 5831   1.986   3.188  11.244 -0.0902 -0.8489  0.4033
  386TMC3    O1 5832   1.858   3.043  11.770  0.0298 -0.5476  0.3545
  386TMC3    O2 5833   1.912   3.284  11.260 -0.2507  0.0097 -0.1513
  387MPD2     C 5834   3.857   3.679   9.979  0.4037 -0.6267 -0.4047
  387MPD2    C1 5835   3.934   3.611  10.065 -0.2680 -0.8055 -0.3636
  387MPD2    C2 5836   3.955   3.475  10.049 -0.0354  0.3180 -0.1474
  387MPD2    C3 5837   3.882   3.410   9.948  0.0007 -0.2467 -0.1081
  387MPD2    C4 5838   3.815   3.478   9.852 -0.6575 -0.2411 -0.2540
  387MPD2    C5 5839   3.802   3.609   9.868 -0.6429  0.1080 -0.0207
  387MPD2     H 5840   4.020   3.422  10.117 -1.5989 -1.1992  0.1795
  387MPD2    H1 5841   3.769   3.421   9.772  0.8564 -0.0120 -1.2873
  387MPD2    H2 5842   3.849   3.787   9.983  3.0622 -0.4985  2.1495
  387MPD2    H3 5843   3.750   3.659   9.787 -0.5293  0.8627  0.3672
  387MPD2     N 5844   3.919   3.271   9.930  0.1243 -0.2495 -0.6289
  387MPD2    H5 5845   3.970   3.228  10.006 -0.9398  1.3197  0.9660
  387MPD2    N1 5846   4.007   3.674  10.170 -0.7163 -0.1417  0.3672
  387MPD2    H7 5847   4.064   3.609  10.224  1.2393 -0.2829 -1.8639
  388TMC3    C1 5848   4.142   3.821  10.266  0.7063  0.7458 -0.0449
  388TMC3    C2 5849   4.141   3.907  10.366 -0.3191  0.1799 -0.0697
  388TMC3    C3 5850   4.263   3.934  10.430 -0.1229 -0.5540 -0.3123
  388TMC3    C4 5851   4.256   3.755  10.216 -0.3165 -0.3112 -0.1026
  388TMC3    C5 5852   4.371   3.769  10.286  0.0313 -0.2208  0.0830
  388TMC3    C6 5853   4.373   3.857  10.394  0.3232  0.0670 -0.1066
  388TMC3     C 5854   4.013   3.803  10.205 -0.1255 -0.4247  0.2317
  388TMC3     O 5855   3.943   3.897  10.166 -0.3745  0.2376  0.0977
  388TMC3     H 5856   4.041   3.945  10.382 -0.3374 -0.2696  0.9446
  388TMC3    H1 5857   4.242   3.681  10.137  0.2241 -0.9099  0.3643
  388TMC3    H2 5858   4.464   3.857  10.452  0.7811  2.0690 -0.8134
  388TMC3    C7 5859   4.480   3.677  10.255  0.5468  0.1131  0.2616
  388TMC3    C8 5860   4.261   4.007  10.554 -0.1225  0.1552 -0.1320
  388TMC3    O1 5861   4.592   3.706  10.284 -0.2572  0.5198  0.5820
  388TMC3    O2 5862   4.158   4.044  10.606 -0.4085  0.9093  0.1046
  389MPD2     C 5863   3.286   1.726  10.308  0.9850  0.2941 -0.2961
  389MPD2    C1 5864   3.154   1.696  10.275  0.4643 -0.6191 -0.2632
  389MPD2    C2 5865   3.067   1.656  10.377  1.0000  0.1750  0.3019
  389MPD2    C3 5866   3.115   1.628  10.505 -1.0167 -0.4668  0.0387
  389MPD2    C4 5867   3.244   1.661  10.529 -0.8306 -1.0179 -0.3864
  389MPD2    C5 5868   3.323   1.717  10.435  0.4349 -0.9634  0.2235
  389MPD2     H 5869   2.964   1.632  10.357  0.2954  1.0879  2.8182
  389MPD2    H1 5870   3.292   1.622  10.618 -0.7313  1.3674  0.5970
  389MPD2    H2 5871   3.345   1.779  10.235 -2.6898  0.6242 -3.0193
  389MPD2    H3 5872   3.427   1.728  10.462  0.5607 -1.5650 -0.0305
  389MPD2     N 5873   3.032   1.586  10.617  0.0779  0.6432  0.2268
  389MPD2    H5 5874   3.081   1.580  10.705 -0.9249  1.1180  0.8061
  389MPD2    N1 5875   3.105   1.737  10.151  0.0274  0.6539  0.6332
  389MPD2    H7 5876   3.172   1.785  10.090 -0.8616 -0.9287 -1.5843
  390TMC3    C1 5877   2.829   1.567  10.737 -1.0470 -0.8908 -0.7906
  390TMC3    C2 5878   2.745   1.463  10.750 -0.2554  0.9405 -0.0755
  390TMC3    C3 5879   2.711   1.424  10.880 -0.0399 -0.5555 -0.8601
  390TMC3    C4 5880   2.885   1.632  10.845 -0.6120  0.6147 -0.0921
  390TMC3    C5 5881   2.835   1.593  10.966  0.2411  0.3093 -0.6179
  390TMC3    C6 5882   2.756   1.489  10.990  0.2454 -0.8357 -0.0474
  390TMC3     C 5883   2.896   1.568  10.611 -0.6613  0.4811  0.4260
  390TMC3     O 5884   2.826   1.536  10.515  0.5238  0.7402 -0.1083
  390TMC3     H 5885   2.718   1.396  10.670  2.1247 -1.8692  1.4816
  390TMC3    H1 5886   2.951   1.717  10.832 -1.0558  1.4387  2.9774
  390TMC3    H2 5887   2.705   1.461  11.082 -0.2311  0.1472 -0.0115
  390TMC3    C7 5888   2.859   1.694  11.071 -0.9814  0.0238  0.1110
  390TMC3    C8 5889   2.606   1.322  10.897 -0.9154 -0.7669 -0.5765
  390TMC3    O1 5890   2.938   1.787  11.050 -0.9122  0.0203  0.9296
  390TMC3    O2 5891   2.606   1.266  11.002 -0.3037 -0.3432  0.6522
  391MPD2     C 5892   2.627   2.778  10.850  0.9527 -0.0056 -0.0732
  391MPD2    C1 5893   2.731   2.850  10.892 -0.0783 -0.0666 -0.6521
  391MPD2    C2 5894   2.771   2.961  10.816  0.5395  0.1578 -0.1459
  391MPD2    C3 5895   2.710   2.994  10.699  0.2960  0.1547  0.0769
  391MPD2    C4 5896   2.620   2.904  10.644  0.1830 -0.5001  0.2218
  391MPD2    C5 5897   2.582   2.795  10.717 -0.3972  0.3978  0.0823
  391MPD2     H 5898   2.853   3.025  10.846  0.9703  0.5127 -2.0836
  391MPD2    H1 5899   2.577   2.916  10.546 -0.8208 -1.1680  0.5821
  391MPD2    H2 5900   2.589   2.695  10.907 -0.2158  0.2056 -0.5473
  391MPD2    H3 5901   2.516   2.722  10.672 -3.6271  2.0971  2.0452
  391MPD2     N 5902   2.754   3.113  10.630  0.1234  0.8989  0.6751
  391MPD2    H5 5903   2.843   3.150  10.664 -0.3256  1.8421  0.8302
  391MPD2    N1 5904   2.780   2.822  11.020  0.3809 -0.3743  0.5213
  391MPD2    H7 5905   2.748   2.740  11.070 -0.2471 -1.0490 -1.0291
  392TMC3    C1 5906   2.783   3.290  10.452  0.3501  0.7725  0.4787
  392TMC3    C2 5907   2.764   3.331  10.321 -0.0772 -0.0397 -0.2021
  392TMC3    C3 5908   2.798   3.459  10.288 -0.7239  0.1931  0.0712
  392TMC3    C4 5909   2.821   3.376  10.554  0.0249  0.1025 -0.3356
  392TMC3    C5 5910   2.869   3.498  10.513 -0.2117  0.4772 -0.1250
  392TMC3    C6 5911   2.865   3.534  10.381  0.1720  0.5774  0.0175
  392TMC3     C 5912   2.709   3.167  10.505 -0.3738 -0.0167 -0.5391
  392TMC3     O 5913   2.610   3.130  10.444 -0.4584 -0.0945  0.6613
  392TMC3     H 5914   2.697   3.265  10.267  1.4926 -1.4676 -0.4135
  392TMC3    H1 5915   2.824   3.349  10.659 -0.1608 -0.2455 -0.4197
  392TMC3    H2 5916   2.914   3.624  10.345 -1.1315  0.7382 -1.3566
  392TMC3    C7 5917   2.939   3.577  10.617 -0.0136  0.0447  0.7711
  392TMC3    C8 5918   2.761   3.521  10.161 -0.6483 -0.4508  0.0679
  392TMC3    O1 5919   2.956   3.527  10.728 -0.1436 -0.1552  0.1660
  392TMC3    O2 5920   2.719   3.459  10.064 -0.2408  0.4367 -0.0758
  393TMC3    C1 5921   1.153   0.930   9.838 -1.3321  0.0112 -1.1484
  393TMC3    C2 5922   1.092   0.913   9.963 -0.8920 -0.3502 -0.2365
  393TMC3    C3 5923   1.101   0.789  10.026 -0.9293  0.7377  0.8030
  393TMC3    C4 5924   1.220   0.829   9.776  0.2053 -0.0793  0.4845
  393TMC3    C5 5925   1.237   0.711   9.845  0.2223  0.6088 -0.0762
  393TMC3    C6 5926   1.175   0.689   9.964  0.3254  0.2595  0.4958
  393TMC3     C 5927   1.154   1.054   9.759  0.5801  0.2666 -0.1593
  393TMC3     O 5928   1.160   1.051   9.636  0.0516  0.6292 -0.1568
  393TMC3     H 5929   1.032   0.991  10.009  2.2687  1.6510  0.4933
  393TMC3    H1 5930   1.276   0.853   9.687 -1.0364 -0.6170 -0.4321
  393TMC3    H2 5931   1.182   0.592  10.013  0.8722 -0.8442 -1.7896
  393TMC3    C7 5932   1.350   0.623   9.830 -0.6429 -0.1521 -0.3921
  393TMC3    C8 5933   1.069   0.765  10.167  0.6620  0.4184  0.0186
  393TMC3    O1 5934   1.354   0.518   9.889 -0.0479  0.9273 -0.2552
  393TMC3    O2 5935   1.085   0.653  10.206 -0.0035  0.3627 -0.0236
  394TMC3    C1 5936   2.949   1.799   9.966  0.1300 -0.5248  0.0692
  394TMC3    C2 5937   2.827   1.778   9.908 -0.3210  0.2525  0.5521
  394TMC3    C3 5938   2.811   1.810   9.775  0.7360 -0.0563  0.1139
  394TMC3    C4 5939   3.051   1.864   9.900  0.0684 -0.0504  0.1082
  394TMC3    C5 5940   3.028   1.899   9.773  0.3789  0.8898 -1.1931
  394TMC3    C6 5941   2.912   1.873   9.708  0.5387 -0.4996 -0.9477
  394TMC3     C 5942   2.973   1.736  10.100 -0.3444 -0.2126  0.9349
  394TMC3     O 5943   2.880   1.670  10.145 -0.6402 -0.0286  0.2460
  394TMC3     H 5944   2.748   1.721   9.957  0.8106 -2.7445 -1.0920
  394TMC3    H1 5945   3.141   1.898   9.950 -0.0638 -1.9580  1.6696
  394TMC3    H2 5946   2.909   1.905   9.604 -2.8519  1.5741 -0.1828
  394TMC3    C7 5947   3.129   1.980   9.722  0.3212 -0.0432 -0.8713
  394TMC3    C8 5948   2.728   1.716   9.697  0.2360 -0.2220  0.5733
  394TMC3    O1 5949   3.098   2.061   9.635 -0.0716 -0.7103  0.1812
  394TMC3    O2 5950   2.705   1.751   9.582 -0.7756  0.8173  0.3011
  395TMC3    C1 5951   3.044   4.324  15.095 -0.1184  0.0220  0.1398
  395TMC3    C2 5952   2.980   4.262  14.988  0.0057 -0.5141  0.1782
  395TMC3    C3 5953   3.049   4.268  14.872 -0.5234  0.3222  0.0186
  395TMC3    C4 5954   3.175   4.363  15.093  0.4724 -0.1383 -0.0401
  395TMC3    C5 5955   3.248   4.351  14.980 -0.1362 -0.6094 -0.6178
  395TMC3    C6 5956   3.181   4.305  14.864 -0.2423 -0.2270 -0.2921
  395TMC3     C 5957   2.978   4.309  15.223 -0.0481 -0.8854 -0.7278
  395TMC3     O 5958   3.024   4.390  15.303 -0.0946  0.5754  0.1059
  395TMC3     H 5959   2.872   4.254  14.991 -0.1261  0.4937 -1.6606
  395TMC3    H1 5960   3.222   4.395  15.185 -2.3834  2.5418  0.4789
  395TMC3    H2 5961   3.220   4.310  14.763  1.7491  1.8482  0.5840
  395TMC3    C7 5962   3.388   4.380  14.989 -0.4166 -0.4413  0.2763
  395TMC3    C8 5963   2.968   4.249  14.756  0.3280 -0.7509  0.7230
  395TMC3    O1 5964   3.426   4.454  15.078 -1.1041  0.4364 -0.0702
  395TMC3    O2 5965   2.848   4.247  14.772 -0.0417 -0.0516  0.6091
  396MPD2     C 5966   2.335   0.856  17.026  0.2596  0.5779  0.1130
  396MPD2    C1 5967   2.467   0.867  17.050 -0.4702  0.0300 -0.1042
  396MPD2    C2 5968   2.542   0.945  16.962 -0.6282 -0.6825 -0.0231
  396MPD2    C3 5969   2.495   1.001  16.846  0.3732 -0.5635 -0.2274
  396MPD2    C4 5970   2.363   0.990  16.836 -0.4032 -0.2531  0.0115
  396MPD2    C5 5971   2.284   0.930  16.925  0.5421  0.7413 -0.0256
  396MPD2     H 5972   2.647   0.965  16.982 -0.5216  0.3201 -1.5210
  396MPD2    H1 5973   2.320   1.026  16.743 -0.8000  0.2310  0.3841
  396MPD2    H2 5974   2.269   0.794  17.084 -0.7494  3.9461  2.5940
  396MPD2    H3 5975   2.177   0.924  16.907  0.4585  1.6110  0.2218
  396MPD2     N 5976   2.581   1.071  16.765  0.4302 -0.3349  0.7624
  396MPD2    H5 5977   2.678   1.053  16.791  0.9755 -0.7065 -1.5106
  396MPD2    N1 5978   2.530   0.797  17.162 -0.3917 -0.2950  0.6566
  396MPD2    H7 5979   2.475   0.756  17.237 -0.5124 -1.1234  0.1130
  397TMC3    C1 5980   2.685   0.746  17.323  0.9708 -0.4986 -0.3546
  397TMC3    C2 5981   2.763   0.636  17.327 -0.8191  0.4297 -0.3711
  397TMC3    C3 5982   2.748   0.552  17.439  0.2290 -0.2252  0.2822
  397TMC3    C4 5983   2.571   0.749  17.397 -0.0999  0.0934  0.6085
  397TMC3    C5 5984   2.542   0.643  17.476 -0.4940 -0.5181 -0.2671
  397TMC3    C6 5985   2.634   0.550  17.508  0.3751  0.3335 -0.2972
  397TMC3     C 5986   2.665   0.794  17.184 -0.8388  0.0661 -0.5617
  397TMC3     O 5987   2.763   0.801  17.111 -1.1584  0.5382  0.5991
  397TMC3     H 5988   2.854   0.626  17.269  0.4850  0.6820  1.6694
  397TMC3    H1 5989   2.499   0.828  17.384 -0.8527 -0.6041  0.5435
  397TMC3    H2 5990   2.614   0.470  17.578  0.7207 -1.5382 -2.3026
  397TMC3    C7 5991   2.407   0.626  17.526 -0.1923 -0.1704  0.2059
  397TMC3    C8 5992   2.810   0.419  17.424  0.2772  0.5265  0.5793
  397TMC3    O1 5993   2.318   0.673  17.458  0.2630  0.0415  0.4051
  397TMC3    O2 5994   2.919   0.401  17.477  0.1070  0.4455 -0.4353
  398MPD2     C 5995   1.454   2.274   0.241 -0.3949  0.3015 -0.5158
  398MPD2    C1 5996   1.546   2.169   0.266  0.2170 -0.3062  0.3989
  398MPD2    C2 5997   1.681   2.198   0.232 -0.3190 -0.4531  1.0715
  398MPD2    C3 5998   1.720   2.332   0.221  0.5388 -0.2140  0.7594
  398MPD2    C4 5999   1.625   2.430   0.196  0.2907 -0.1799  0.4226
  398MPD2    C5 6000   1.494   2.397   0.197  0.5591  0.1907 -0.7002
  398MPD2     H 6001   1.762   2.126   0.236  0.1025 -0.0507 -0.3228
  398MPD2    H1 6002   1.643   2.534   0.172  2.1951 -0.5887  0.0068
  398MPD2    H2 6003   1.350   2.263   0.269 -0.0154  0.5605  1.0012
  398MPD2    H3 6004   1.419   2.474   0.181  1.0508  0.7852 -0.1200
  398MPD2     N 6005   1.856   2.362   0.213 -0.2659  0.8495 -0.0623
  398MPD2    H5 6006   1.924   2.286   0.217 -1.5810 -0.3413 -0.4553
  398MPD2    N1 6007   1.508   2.047   0.322 -0.3704 -0.0120 -0.2734
  398MPD2    H7 6008   1.588   1.985   0.333  0.1201  0.9119  1.2976
  399TMC3    C1 6009   1.376   1.877   0.425 -0.2797 -0.2718  0.8868
  399TMC3    C2 6010   1.484   1.836   0.501 -0.2812  0.0798  0.6207
  399TMC3    C3 6011   1.471   1.723   0.574 -0.2909  0.1449  0.7509
  399TMC3    C4 6012   1.250   1.819   0.437 -0.2008 -0.0860 -0.8287
  399TMC3    C5 6013   1.242   1.708   0.514  0.4216 -0.2306  0.4358
  399TMC3    C6 6014   1.348   1.655   0.580  0.1767  0.0930  0.5163
  399TMC3     C 6015   1.380   2.001   0.353  1.1714  0.5940  0.4088
  399TMC3     O 6016   1.271   2.030   0.300  0.2313  0.0422 -0.1902
  399TMC3     H 6017   1.581   1.884   0.495 -0.5084  0.5437  0.6423
  399TMC3    H1 6018   1.168   1.833   0.368  0.4035 -0.3283 -1.5936
  399TMC3    H2 6019   1.343   1.556   0.625  1.3388  0.1713  0.8286
  399TMC3    C7 6020   1.130   1.630   0.510  0.4129 -0.7055 -0.3275
  399TMC3    C8 6021   1.594   1.684   0.648 -0.1875 -0.3746  0.2103
  399TMC3    O1 6022   1.140   1.505   0.513  0.1850  0.3100 -0.1323
  399TMC3    O2 6023   1.689   1.759   0.635 -0.3416 -0.5299 -0.5289
  400TMC3    C1 6024   4.315   4.634  16.614  0.3258 -0.5574  0.0251
  400TMC3    C2 6025   4.244   4.520  16.623 -0.1015 -0.3017  0.7970
  400TMC3    C3 6026   4.153   4.498  16.521  0.0976 -0.1865  0.3481
  400TMC3    C4 6027   4.309   4.721  16.508 -0.6094 -0.6751  0.4066
  400TMC3    C5 6028   4.229   4.683  16.402  0.0173  0.3569  0.1135
  400TMC3    C6 6029   4.146   4.578  16.402 -0.0406  0.7776 -0.7696
  400TMC3     C 6030   4.423   4.650  16.719  0.5556  0.0933  0.6280
  400TMC3     O 6031   4.453   4.556  16.792  0.1108  0.5432 -0.1104
  400TMC3     H 6032   4.235   4.456  16.709  0.3828 -0.1682  0.9441
  400TMC3    H1 6033   4.373   0.070  16.502 -1.4669 -0.1054 -0.5211
  400TMC3    H2 6034   4.061   4.585  16.335 -1.2745  0.1507  0.7374
  400TMC3    C7 6035   4.182   0.056  16.321  0.0490 -0.3262 -0.5245
  400TMC3    C8 6036   4.019   4.441  16.558 -0.5205  0.0121  0.4760
  400TMC3    O1 6037   4.131   0.025  16.219 -0.1482  0.1621 -0.2862
  400TMC3    O2 6038   3.989   4.436  16.679  0.9771 -0.0116 -0.0396
  401MPD2     C 6039   2.572   4.101   0.690  0.5347 -0.3423  0.0890
  401MPD2    C1 6040   2.682   4.035   0.752  0.1152  0.2497 -0.5393
  401MPD2    C2 6041   2.681   3.896   0.757  0.2439  0.3620  0.2048
  401MPD2    C3 6042   2.582   3.815   0.699  0.6759 -0.3994  0.5752
  401MPD2    C4 6043   2.481   3.887   0.633  0.0673 -0.3119  0.8678
  401MPD2    C5 6044   2.473   4.023   0.633 -0.2827 -0.1781  0.3371
  401MPD2     H 6045   2.767   3.853   0.807  2.1248  1.5377 -2.0031
  401MPD2    H1 6046   2.395   3.834   0.594  0.3746 -0.1697 -0.0117
  401MPD2    H2 6047   2.567   4.209   0.681 -1.3274 -0.3061  1.4285
  401MPD2    H3 6048   2.385   4.066   0.585 -0.0549 -0.0140  0.0647
  401MPD2     N 6049   2.603   3.681   0.703 -0.4510  0.2890  0.0588
  401MPD2    H5 6050   2.691   3.644   0.739 -0.2348 -1.6337 -2.4830
  401MPD2    N1 6051   2.794   4.103   0.810 -0.2022  0.5232 -0.7218
  401MPD2    H7 6052   2.868   4.044   0.848 -3.1785 -1.5434  1.9298
  402TMC3    C1 6053   2.574   3.456   0.645 -0.5197  0.0962 -0.3510
  402TMC3    C2 6054   2.656   3.423   0.749 -0.3678 -0.2075  0.5426
  402TMC3    C3 6055   2.733   3.311   0.745  0.5875 -0.6930  0.6414
  402TMC3    C4 6056   2.566   3.376   0.537 -0.0392 -0.0129 -0.2435
  402TMC3    C5 6057   2.662   3.278   0.524  0.3030 -0.3187  0.8803
  402TMC3    C6 6058   2.749   3.249   0.619  0.1605 -0.4550 -0.4979
  402TMC3     C 6059   2.526   3.589   0.628 -0.3477 -0.8395  0.4955
  402TMC3     O 6060   2.436   3.606   0.545 -0.3245 -0.5265  0.5129
  402TMC3     H 6061   2.653   3.480   0.841 -1.3408 -2.0673  1.6568
  402TMC3    H1 6062   2.493   3.384   0.457 -0.8698  0.3020  0.5523
  402TMC3    H2 6063   2.803   3.156   0.611  0.7720 -0.1284 -0.1664
  402TMC3    C7 6064   2.638   3.189   0.415 -0.7157  1.0766  0.0351
  402TMC3    C8 6065   2.833   3.288   0.845  0.2138  0.2530 -0.0936
  402TMC3    O1 6066   2.537   3.201   0.351 -0.3137  0.7239 -0.3611
  402TMC3    O2 6067   2.922   3.206   0.814  0.2104 -0.6597  0.1425
  403MPD2     C 6068   1.227   1.438  12.985 -0.6540  0.3273  0.1414
  403MPD2    C1 6069   1.160   1.388  13.095 -0.8578 -0.7015  0.3016
  403MPD2    C2 6070   1.218   1.406  13.225 -0.4903  0.5155 -0.2272
  403MPD2    C3 6071   1.342   1.464  13.234  0.2711  0.3331 -0.6453
  403MPD2    C4 6072   1.404   1.515  13.121  0.9631  0.1604  0.4365
  403MPD2    C5 6073   1.343   1.511  13.002 -0.0403 -0.4763 -1.1350
  403MPD2     H 6074   1.169   1.368  13.314 -0.4611 -0.8507 -0.7999
  403MPD2    H1 6075   1.502   1.560  13.117  1.3279 -0.8711 -2.2591
  403MPD2    H2 6076   1.192   1.430  12.883  0.8074 -0.8312 -0.2761
  403MPD2    H3 6077   1.382   1.554  12.910  2.0892 -1.1735 -0.5536
  403MPD2     N 6078   1.419   1.435  13.348  0.0175 -0.0756  0.0196
  403MPD2    H5 6079   1.371   1.399  13.430 -1.6935  1.8299 -0.1331
  403MPD2    N1 6080   1.033   1.321  13.085  0.3640 -0.5281  0.2219
  403MPD2    H7 6081   0.985   1.316  12.995 -0.5892 -1.4524  0.7892
  404TMC3    C1 6082   0.828   1.233  13.151 -0.1532  0.7381 -0.5089
  404TMC3    C2 6083   0.781   1.112  13.184 -0.1096  0.2811 -0.3424
  404TMC3    C3 6084   0.679   1.055  13.112 -0.3193 -0.1324 -0.1867
  404TMC3    C4 6085   0.772   1.301  13.043 -0.4043 -0.0968  0.3349
  404TMC3    C5 6086   0.672   1.237  12.966 -0.5173  0.4391  0.5564
  404TMC3    C6 6087   0.636   1.108  12.995  0.4790 -0.2479  0.0807
  404TMC3     C 6088   0.960   1.268  13.191 -0.7745  0.0850 -0.4360
  404TMC3     O 6089   0.982   1.243  13.307  0.2900 -0.1724 -0.1900
  404TMC3     H 6090   0.826   1.046  13.258  0.0058  2.5657  1.6341
  404TMC3    H1 6091   0.823   1.387  13.002  0.6100 -0.5628  0.6081
  404TMC3    H2 6092   0.549   1.063  12.950 -0.4395  1.2665  0.3537
  404TMC3    C7 6093   0.672   1.287  12.828  0.0275  0.0434 -0.1625
  404TMC3    C8 6094   0.638   0.918  13.148  0.1663  0.0095  0.0042
  404TMC3    O1 6095   0.706   1.402  12.816 -0.3261  0.3426  0.0620
  404TMC3    O2 6096   0.650   0.829  13.067  0.8957 -0.1212 -0.5135
  405MPD2     C 6097   1.003   0.864  15.606 -0.0924  0.6810 -0.6224
  405MPD2    C1 6098   0.943   0.823  15.484  0.4120 -0.9621  0.1928
  405MPD2    C2 6099   0.984   0.890  15.369  0.3055  0.6572 -0.5050
  405MPD2    C3 6100   1.058   1.004  15.376  0.0793  0.0680 -0.2200
  405MPD2    C4 6101   1.110   1.048  15.496  0.0700  0.0908 -0.6339
  405MPD2    C5 6102   1.081   0.976  15.614  0.4378  0.4372  0.4129
  405MPD2     H 6103   0.934   0.868  15.276  0.6488 -0.0828 -0.5168
  405MPD2    H1 6104   1.177   1.132  15.499  1.2052 -0.7036 -3.9171
  405MPD2    H2 6105   0.989   0.810  15.698 -1.6796  0.4929 -0.9703
  405MPD2    H3 6106   1.122   1.017  15.705  0.0975 -1.9073  1.6075
  405MPD2     N 6107   1.083   1.066  15.254  0.0263  0.2379 -0.3037
  405MPD2    H5 6108   1.018   1.045  15.178 -0.2921  2.7545 -0.7128
  405MPD2    N1 6109   0.858   0.704  15.487  0.0375  0.3246 -0.1796
  405MPD2    H7 6110   0.831   0.663  15.576 -2.0388 -0.7626 -1.2919
  406TMC3    C1 6111   1.021   1.377  14.988 -0.7469  0.2510 -0.4786
  406TMC3    C2 6112   0.971   1.287  14.893  0.2573 -0.0181 -0.6165
  406TMC3    C3 6113   1.023   1.163  14.899 -0.2072  0.4056 -0.0433
  406TMC3    C4 6114   1.115   1.342  15.080 -0.0593  0.0530  0.1320
  406TMC3    C5 6115   1.157   1.213  15.088  0.5522  0.2878 -0.4064
  406TMC3    C6 6116   1.112   1.120  14.996  0.5263  0.6246  0.1804
  406TMC3     C 6117   0.994   1.517  14.974  0.6907 -0.0943  0.0253
  406TMC3     O 6118   1.020   1.582  15.071 -0.0923 -0.1848 -0.3682
  406TMC3     H 6119   0.885   1.304  14.828 -0.4873 -3.3707 -0.5177
  406TMC3    H1 6120   1.144   1.405  15.163  0.0324  2.7242 -1.9571
  406TMC3    H2 6121   1.160   1.023  14.998 -2.3118 -0.8216 -1.6298
  406TMC3    C7 6122   1.166   1.173  15.230  0.6392 -0.0947  0.2532
  406TMC3    C8 6123   0.976   1.064  14.807 -0.6453 -0.7583  0.0041
  406TMC3    O1 6124   1.252   1.228  15.301  0.0599 -0.2603  0.2060
  406TMC3    O2 6125   0.948   1.095  14.693 -0.0798 -0.4571  0.1315
  407MPD2     C 6126   3.485   3.265   9.398  0.3105  0.8046  0.2740
  407MPD2    C1 6127   3.580   3.253   9.497 -0.2433 -0.4509  0.3461
  407MPD2    C2 6128   3.555   3.304   9.618 -0.6812 -0.0684 -0.2247
  407MPD2    C3 6129   3.438   3.375   9.647 -0.1015  0.0217 -0.3224
  407MPD2    C4 6130   3.343   3.384   9.556  0.1113  0.6484  0.1847
  407MPD2    C5 6131   3.368   3.338   9.431  0.0579  0.2617 -0.1612
  407MPD2     H 6132   3.634   3.292   9.691 -2.9599 -1.2886  2.0279
  407MPD2    H1 6133   3.245   3.427   9.572 -0.8962 -1.5369 -0.1142
  407MPD2    H2 6134   3.498   3.224   9.298  1.3392  0.5059  0.5308
  407MPD2    H3 6135   3.288   3.359   9.361 -1.1555  1.2540  1.5116
  407MPD2     N 6136   3.417   3.432   9.773  0.7008  0.1143 -0.2305
  407MPD2    H5 6137   3.340   3.497   9.777 -1.0266 -1.8684 -1.3379
  407MPD2    N1 6138   3.703   3.195   9.473  0.2138 -0.4648 -0.4904
  407MPD2    H7 6139   3.767   3.200   9.552 -0.0042  0.2915 -0.3583
  408TMC3    C1 6140   3.889   3.123   9.361  0.4886  0.1490 -0.0331
  408TMC3    C2 6141   3.934   3.007   9.299  0.4237 -1.0579 -0.8157
  408TMC3    C3 6142   4.066   2.984   9.312  0.0190  0.5805 -0.4679
  408TMC3    C4 6143   3.961   3.204   9.444  0.0016  0.5891 -0.5814
  408TMC3    C5 6144   4.096   3.171   9.454  0.5236 -0.2998  0.7208
  408TMC3    C6 6145   4.144   3.055   9.395 -0.4216 -0.3019 -0.1201
  408TMC3     C 6146   3.745   3.146   9.353  0.3829 -0.2916  0.0950
  408TMC3     O 6147   3.683   3.086   9.265 -0.3374  0.1296  0.6069
  408TMC3     H 6148   3.869   2.949   9.234 -2.1474  0.7651  0.1072
  408TMC3    H1 6149   3.923   3.293   9.493 -2.2881 -0.7979  0.1710
  408TMC3    H2 6150   4.251   3.041   9.402 -0.3312  0.0007 -0.9003
  408TMC3    C7 6151   4.191   3.260   9.532 -0.7444 -0.0980 -0.0564
  408TMC3    C8 6152   4.107   2.848   9.260  0.1451  0.1964  0.4482
  408TMC3    O1 6153   4.306   3.219   9.533  0.2485  0.1722 -0.1800
  408TMC3    O2 6154   4.032   2.787   9.184 -0.4737  0.2835 -0.6252
  409MPD2     C 6155   3.068   4.488  16.827 -0.8186  0.6025  0.2722
  409MPD2    C1 6156   3.191   4.433  16.864  0.2183  0.3138 -0.2984
  409MPD2    C2 6157   3.312   4.473  16.805 -0.9726 -0.1101 -1.1217
  409MPD2    C3 6158   3.308   4.580  16.714  0.1055  0.0331 -0.5244
  409MPD2    C4 6159   3.190   4.638  16.688  0.0737 -0.0236 -0.0893
  409MPD2    C5 6160   3.069   4.594  16.744 -0.4319 -0.0910  0.5134
  409MPD2     H 6161   3.410   4.431  16.824 -1.6166  0.1262  2.5977
  409MPD2    H1 6162   3.193   4.713  16.609  1.3493 -0.1908 -0.2082
  409MPD2    H2 6163   2.980   4.434  16.859  0.8716 -2.5364 -0.3335
  409MPD2    H3 6164   2.976   4.629  16.700  0.8270  0.0964 -2.0220
  409MPD2     N 6165   3.422   4.629  16.644  0.8125 -0.4767 -0.2641
  409MPD2    H5 6166   3.429   4.714  16.588 -0.3625 -0.7438 -0.8334
  409MPD2    N1 6167   3.195   4.327  16.951  0.5371  0.2723  0.5433
  409MPD2    H7 6168   3.288   4.285  16.957 -0.7188 -2.4196  1.4244
  410TMC3    C1 6169   3.659   4.665  16.608  0.2446  0.0637  0.6128
  410TMC3    C2 6170   3.771   4.683  16.687  0.3898 -0.1013 -0.0665
  410TMC3    C3 6171   3.869   0.036  16.656  0.4996  0.4797  0.2389
  410TMC3    C4 6172   3.625   0.019  16.510  0.6773  0.4190  0.4393
  410TMC3    C5 6173   3.724   0.108  16.479  0.4052 -0.4391 -0.1255
  410TMC3    C6 6174   3.843   0.122  16.553 -0.4743 -0.2243 -0.2079
  410TMC3     C 6175   3.557   4.586  16.671 -0.0917  0.0348 -0.4707
  410TMC3     O 6176   3.596   4.514  16.765 -0.2666  0.1381 -0.4584
  410TMC3     H 6177   3.780   4.621  16.775 -3.0122 -1.6666 -0.8096
  410TMC3    H1 6178   3.547   4.728  16.440  2.0415 -0.8137 -0.5798
  410TMC3    H2 6179   3.903   0.207  16.524  0.2354 -0.8684 -0.6150
  410TMC3    C7 6180   3.703   0.190  16.361 -0.5704  0.4358 -0.0595
  410TMC3    C8 6181   3.979   0.068  16.745  0.0804 -0.1071 -0.0632
  410TMC3    O1 6182   3.777   0.184  16.266  0.4809 -0.3855  0.7900
  410TMC3    O2 6183   4.021   0.186  16.753 -0.5325 -0.0231 -0.0172
  411MPD2     C 6184   4.012   0.123  14.539  0.2760 -0.0725  0.7559
  411MPD2    C1 6185   3.910   0.168  14.619  0.4131 -0.0494 -0.6130
  411MPD2    C2 6186   3.797   0.089  14.635 -0.1614 -0.0074 -0.2536
  411MPD2    C3 6187   3.785   4.699  14.571  0.0295  0.5025  0.0085
  411MPD2    C4 6188   3.899   4.651  14.503 -0.2215  0.4993 -0.2965
  411MPD2    C5 6189   4.006   4.738  14.478  1.0645 -0.3117  0.7263
  411MPD2     H 6190   3.713   0.128  14.691 -0.9905  0.5532 -1.8935
  411MPD2    H1 6191   3.881   4.560  14.447 -0.5825  0.6599 -0.4455
  411MPD2    H2 6192   4.093   0.189  14.512 -0.3496  0.4052  0.0202
  411MPD2    H3 6193   4.083   4.726  14.402  1.9025  0.4130  1.4733
  411MPD2     N 6194   3.665   4.618  14.570  0.0269 -0.1317  0.3718
  411MPD2    H5 6195   3.669   4.523  14.534  0.2810 -0.3642  1.0175
  411MPD2    N1 6196   3.924   0.305  14.674 -0.7418  0.2095  0.5669
  411MPD2    H7 6197   4.003   0.365  14.651  0.8249 -2.0446  0.1199
  412TMC3    C1 6198   3.445   4.549  14.623 -0.2017 -0.6880 -0.7998
  412TMC3    C2 6199   3.317   4.600  14.619  0.5492  0.4551  0.6401
  412TMC3    C3 6200   3.232   4.552  14.524  0.0038  0.5865  0.3598
  412TMC3    C4 6201   3.476   4.440  14.540  0.5315  0.3729 -0.5166
  412TMC3    C5 6202   3.379   4.385  14.462 -0.3436 -0.8269  0.6403
  412TMC3    C6 6203   3.260   4.439  14.452  0.7654  0.6202  0.5619
  412TMC3     C 6204   3.545   4.656  14.632 -0.6640 -0.2999 -0.6392
  412TMC3     O 6205   3.508   0.022  14.681  0.3914 -0.5722 -0.2473
  412TMC3     H 6206   3.296   4.683  14.686 -0.6922  0.3742  0.3602
  412TMC3    H1 6207   3.566   4.380  14.544 -1.3451 -2.3571  0.4815
  412TMC3    H2 6208   3.187   4.395  14.386 -1.7849  0.5348  3.4364
  412TMC3    C7 6209   3.428   4.324  14.351 -0.1103 -0.0219  0.6788
  412TMC3    C8 6210   3.107   4.616  14.483  0.1221  0.2722 -0.3267
  412TMC3    O1 6211   3.403   4.206  14.354  0.3067 -0.4663 -0.3238
  412TMC3    O2 6212   3.030   4.659  14.569 -0.3716  0.6399  0.7740
  413MPD2     C 6213   0.601   2.972  15.579  0.3894  0.0502  0.5129
  413MPD2    C1 6214   0.703   2.992  15.488  0.4721  0.4626 -0.1538
  413MPD2    C2 6215   0.806   2.905  15.485  0.2548  0.2360  0.9076
  413MPD2    C3 6216   0.811   2.793  15.567 -0.2514 -0.0611  0.3565
  413MPD2    C4 6217   0.713   2.776  15.669 -0.4463 -0.3708 -0.1571
  413MPD2    C5 6218   0.615   2.870  15.674  0.0312 -0.0219  0.2995
  413MPD2     H 6219   0.872   2.911  15.399  1.8742  0.4688  2.1706
  413MPD2    H1 6220   0.712   2.706  15.752  2.9377 -1.8360 -1.3394
  413MPD2    H2 6221   0.508   3.028  15.582  0.0861 -0.3751 -0.9311
  413MPD2    H3 6222   0.537   2.861  15.748 -0.5625 -0.5738 -0.3931
  413MPD2     N 6223   0.920   2.699  15.540 -0.1104 -0.2939 -0.0645
  413MPD2    H5 6224   0.996   2.725  15.477 -0.0993  1.4559  0.6738
  413MPD2    N1 6225   0.683   3.100  15.395  0.1752  0.0386  0.0400
  413MPD2    H7 6226   0.592   3.145  15.393 -0.9787 -2.2017  1.8490
  414TMC3    C1 6227   1.021   2.494  15.511 -0.1626  0.5226 -0.6184
  414TMC3    C2 6228   1.035   2.363  15.547 -0.1161 -0.1021  0.0329
  414TMC3    C3 6229   1.120   2.281  15.475 -1.1338  0.0440 -0.2923
  414TMC3    C4 6230   1.092   2.544  15.403 -0.7471 -0.2454  0.4528
  414TMC3    C5 6231   1.166   2.459  15.329  0.7892  0.2209 -0.4092
  414TMC3    C6 6232   1.196   2.334  15.375 -0.7721 -0.1353 -0.1559
  414TMC3     C 6233   0.931   2.572  15.587  0.1037  0.4090 -0.0262
  414TMC3     O 6234   0.869   2.506  15.666 -0.2159  1.0204 -0.5512
  414TMC3     H 6235   0.996   2.317  15.637 -0.8501 -0.8842 -0.6772
  414TMC3    H1 6236   1.098   2.650  15.381  3.4105  0.1478  3.6149
  414TMC3    H2 6237   1.269   2.273  15.323 -0.7062 -0.0046 -0.2171
  414TMC3    C7 6238   1.265   2.518  15.250  0.1713  0.1092  0.3062
  414TMC3    C8 6239   1.141   2.136  15.512 -0.1202 -0.2245  0.6405
  414TMC3    O1 6240   1.308   2.630  15.280 -0.5218 -0.1599 -0.5794
  414TMC3    O2 6241   1.052   2.088  15.584  0.6266  0.9790 -0.1424
  415TMC3    C1 6242   1.082   0.245  10.213 -0.0213  0.5808 -0.1025
  415TMC3    C2 6243   1.033   0.343  10.138 -0.5370  0.5716 -0.0278
  415TMC3    C3 6244   1.013   0.316  10.007  0.5273 -0.6184 -0.3745
  415TMC3    C4 6245   1.109   0.116  10.170  0.0177 -0.2541 -0.3527
  415TMC3    C5 6246   1.093   0.096  10.034  0.1669 -0.2341 -0.4113
  415TMC3    C6 6247   1.054   0.200   9.954 -0.1147  0.7290 -0.2598
  415TMC3     C 6248   1.091   0.258  10.359  0.0357  0.0272  0.0991
  415TMC3     O 6249   1.086   0.148  10.411 -0.2327 -0.5317  0.6011
  415TMC3     H 6250   1.002   0.440  10.177 -0.5362  0.2741  0.7213
  415TMC3    H1 6251   1.166   0.044  10.229 -0.7452  1.3140  2.2726
  415TMC3    H2 6252   1.043   0.167   9.851  0.4525  0.5399 -0.2597
  415TMC3    C7 6253   1.158   4.724   9.969  0.7081  0.4360 -0.6354
  415TMC3    C8 6254   0.969   0.407   9.901 -0.2762 -0.4281 -0.5968
  415TMC3    O1 6255   1.208   0.005   9.852 -0.0787 -0.4545  0.4737
  415TMC3    O2 6256   1.043   0.398   9.801 -0.3822 -0.2376  0.0859
  416MPD2     C 6257   2.879   4.605  11.204 -0.2416 -0.0411 -0.0315
  416MPD2    C1 6258   2.818   4.605  11.324  0.0944  0.4631 -0.2191
  416MPD2    C2 6259   2.786   4.485  11.398  0.0139 -0.2171  1.0127
  416MPD2    C3 6260   2.838   4.365  11.352 -0.3567  0.5437 -0.2488
  416MPD2    C4 6261   2.907   4.364  11.239 -0.8088 -0.6616  0.3796
  416MPD2    C5 6262   2.935   4.483  11.177 -0.2964 -0.1786 -0.2742
  416MPD2     H 6263   2.716   4.490  11.480 -0.4055  1.6951  0.5480
  416MPD2    H1 6264   2.964   4.278  11.205 -1.9266 -1.0292 -0.5734
  416MPD2    H2 6265   2.895   4.682  11.129 -1.1971 -0.6727 -0.8903
  416MPD2    H3 6266   3.002   4.482  11.092 -1.5217 -2.5013 -1.2206
  416MPD2     N 6267   2.806   4.239  11.407  0.1171 -0.1612  0.0531
  416MPD2    H5 6268   2.825   4.160  11.345  0.9602  0.1022 -0.0194
  416MPD2    N1 6269   2.772   4.730  11.365  0.3088  0.1130  0.0361
  416MPD2    H7 6270   2.769   0.065  11.295 -0.3659 -0.5203 -0.6032
  417TMC3    C1 6271   2.675   0.150  11.508  0.0713 -0.1751  0.6463
  417TMC3    C2 6272   2.667   0.193  11.639 -0.2203 -0.4136  0.4563
  417TMC3    C3 6273   2.564   0.263  11.690  0.3081 -0.1000  0.0891
  417TMC3    C4 6274   2.568   0.171  11.426 -0.7227  0.1634  0.9403
  417TMC3    C5 6275   2.464   0.246  11.478 -0.5796 -0.3949  0.0089
  417TMC3    C6 6276   2.461   0.293  11.607 -0.1836  0.0889 -0.1597
  417TMC3     C 6277   2.720   0.013  11.490  0.4813  0.1124 -0.8408
  417TMC3     O 6278   2.749   4.696  11.597 -0.0449  0.1028  0.1061
  417TMC3     H 6279   2.749   0.163  11.703 -0.1466 -1.8648 -0.3155
  417TMC3    H1 6280   2.567   0.130  11.325  2.4360  1.0480  0.5427
  417TMC3    H2 6281   2.378   0.339  11.659  1.2335  1.2072  1.1271
  417TMC3    C7 6282   2.349   0.271  11.393 -0.0743 -0.5259 -0.3445
  417TMC3    C8 6283   2.556   0.298  11.829  0.3752  0.1327 -0.4209
  417TMC3    O1 6284   2.350   0.212  11.289 -0.6333  0.3181 -0.0465
  417TMC3    O2 6285   2.472   0.381  11.864  0.2979 -0.2793  0.3215
  418TMC3    C1 6286   2.204   2.294   0.212 -0.6696 -0.1542  0.5427
  418TMC3    C2 6287   2.095   2.370   0.163 -0.1349 -0.0797 -0.5921
  418TMC3    C3 6288   2.049   2.470   0.241 -0.1459 -0.7428  0.3489
  418TMC3    C4 6289   2.260   2.331   0.334 -0.2000 -0.3707  0.3524
  418TMC3    C5 6290   2.201   2.429   0.412 -0.2557 -0.5084  0.5780
  418TMC3    C6 6291   2.095   2.500   0.365 -0.3858 -0.4854 -0.2014
  418TMC3     C 6292   2.181   2.153   0.183  0.2782 -0.6107  0.1057
  418TMC3     O 6293   2.061   2.119   0.176 -0.5309  0.5723 -0.4929
  418TMC3     H 6294   2.042   2.353   0.070  0.1736 -2.1002 -0.3865
  418TMC3    H1 6295   2.328   2.265   0.387  1.0093  0.8502  0.3320
  418TMC3    H2 6296   2.044   2.576   0.423 -0.0889 -1.1694  0.9607
  418TMC3    C7 6297   2.166   2.380   0.547  0.0203 -0.6028  0.6348
  418TMC3    C8 6298   1.907   2.487   0.226 -0.1740  0.2871  0.5596
  418TMC3    O1 6299   2.192   2.260   0.566  0.3311  0.4611  0.3077
  418TMC3    O2 6300   1.860   2.591   0.263 -0.0697  0.2358 -0.0406
  419MPD2     C 6301   0.240   4.473  12.459  0.9272 -0.7295 -0.2719
  419MPD2    C1 6302   0.115   4.505  12.407 -0.6834  0.1682 -0.0947
  419MPD2    C2 6303   0.014   4.563  12.488 -0.3389  0.7494 -0.1213
  419MPD2    C3 6304   0.032   4.581  12.624 -0.0210  0.2395 -0.7188
  419MPD2    C4 6305   0.144   4.525  12.679  0.5717 -0.7987 -0.1198
  419MPD2    C5 6306   0.249   4.485  12.602 -0.4018 -0.5438  0.0388
  419MPD2     H 6307   4.653   4.583  12.451 -0.1385  0.1154 -1.0054
  419MPD2    H1 6308   0.179   4.517  12.782  0.0703 -0.7539  0.0536
  419MPD2    H2 6309   0.321   4.435  12.397  0.2732 -1.8063 -0.4707
  419MPD2    H3 6310   0.344   4.464  12.650  0.2697  0.0480 -1.0229
  419MPD2     N 6311   4.666   4.621  12.705  0.0179  0.5492  0.1779
  419MPD2    H5 6312   4.578   4.629  12.657  0.7250 -2.3822 -1.6284
  419MPD2    N1 6313   0.078   4.479  12.274  0.0130  0.4633  0.1481
  419MPD2    H7 6314   4.728   4.523  12.251  0.9389  2.0552 -0.4018
  420TMC3    C1 6315   4.553   4.686  12.894 -0.4022  0.0142 -0.2018
  420TMC3    C2 6316   4.456   0.006  12.821  0.1156 -0.0626 -0.6533
  420TMC3    C3 6317   4.325   4.738  12.877  0.2823  0.4360 -0.0629
  420TMC3    C4 6318   4.532   4.612  13.013  0.4588 -0.3460 -0.1902
  420TMC3    C5 6319   4.409   4.612  13.066  0.3387 -0.2703 -0.1842
  420TMC3    C6 6320   4.300   4.673  13.005 -0.9754 -0.4537 -0.0356
  420TMC3     C 6321   4.685   4.645  12.838 -0.1700 -0.1788 -0.5118
  420TMC3     O 6322   0.047   4.644  12.909  1.0575  0.4272 -0.0546
  420TMC3     H 6323   4.476   0.087  12.752  0.0616  1.8126  1.5586
  420TMC3    H1 6324   4.618   4.570  13.063 -1.2104 -1.2410  1.9543
  420TMC3    H2 6325   4.201   4.662  13.047 -0.6012 -1.2895  0.6020
  420TMC3    C7 6326   4.385   4.516  13.173 -1.0516  0.2740 -0.2467
  420TMC3    C8 6327   4.217   0.067  12.804  0.6846  0.8014 -1.0177
  420TMC3    O1 6328   4.464   4.421  13.165  0.6438  0.0853  0.5798
  420TMC3    O2 6329   4.243   0.088  12.685 -0.4578 -0.5672 -0.0467
  421TMC3    C1 6330   1.610   1.441  13.487  0.1816  0.7106  0.2671
  421TMC3    C2 6331   1.534   1.476  13.599 -0.1232  0.4049 -0.2230
  421TMC3    C3 6332   1.600   1.472  13.724 -0.5696 -0.4931 -1.0524
  421TMC3    C4 6333   1.744   1.418  13.487  1.2187 -0.0123 -0.6366
  421TMC3    C5 6334   1.800   1.407  13.615 -0.1282  0.3756  0.3162
  421TMC3    C6 6335   1.737   1.441  13.733  0.3237 -0.6286  0.7142
  421TMC3     C 6336   1.551   1.459  13.356 -0.0761  0.1301 -0.1487
  421TMC3     O 6337   1.634   1.456  13.268  0.3861  0.1103 -0.4357
  421TMC3     H 6338   1.429   1.498  13.590 -0.5128 -0.8852  1.1484
  421TMC3    H1 6339   1.799   1.371  13.406  0.5146  0.3003 -1.2925
  421TMC3    H2 6340   1.793   1.425  13.825  0.4900  1.7613  1.0226
  421TMC3    C7 6341   1.918   1.321  13.613  0.4510  0.0580  0.1582
  421TMC3    C8 6342   1.530   1.505  13.843 -0.1813  0.7607  0.1109
  421TMC3    O1 6343   2.002   1.347  13.529  0.2380  0.8079 -0.2724
  421TMC3    O2 6344   1.605   1.533  13.935 -0.0643 -0.1737  0.4392
  422TMC3    C1 6345   4.125   2.617  12.248 -0.3877 -0.0441 -0.8488
  422TMC3    C2 6346   4.151   2.708  12.348  0.3133  0.0037 -0.3644
  422TMC3    C3 6347   4.047   2.737  12.428  0.4454  0.0396  1.6119
  422TMC3    C4 6348   4.015   2.537  12.245 -0.1982 -0.1720 -0.4747
  422TMC3    C5 6349   3.918   2.558  12.340 -0.1731  0.2582  0.2615
  422TMC3    C6 6350   3.929   2.665  12.427 -0.1743 -0.2620 -0.1681
  422TMC3     C 6351   4.219   2.616  12.132 -0.2801 -0.0384  0.0068
  422TMC3     O 6352   4.334   2.656  12.152  0.4867 -0.0525 -0.7193
  422TMC3     H 6353   4.238   2.772  12.343 -0.1154  0.5778 -0.3732
  422TMC3    H1 6354   4.003   2.452  12.178 -1.4909 -1.4923  1.4022
  422TMC3    H2 6355   3.848   2.685  12.495 -0.7373 -1.4170 -0.5103
  422TMC3    C7 6356   3.789   2.509  12.306 -0.0677  0.5998  0.0088
  422TMC3    C8 6357   4.054   2.865  12.489  0.1357 -0.4480  0.3555
  422TMC3    O1 6358   3.780   2.462  12.193 -0.2233  0.3119 -0.6122
  422TMC3    O2 6359   4.162   2.920  12.488 -0.6374 -0.3734 -0.5498
  423MPD2     C 6360   0.183   3.853   0.606 -0.8544 -0.4312  0.0223
  423MPD2    C1 6361   0.266   3.934   0.530  0.5191  0.3410 -0.9352
  423MPD2    C2 6362   0.303   3.903   0.403 -0.4182 -0.1365  0.0412
  423MPD2    C3 6363   0.258   3.790   0.337  0.4176  0.4487 -0.0825
  423MPD2    C4 6364   0.176   3.705   0.411 -0.2891  0.1258 -0.5791
  423MPD2    C5 6365   0.138   3.745   0.542 -0.0906 -0.2700 -0.1315
  423MPD2     H 6366   0.370   3.971   0.352 -0.8266  0.8025  0.7547
  423MPD2    H1 6367   0.139   3.610   0.377  0.4075 -0.4198  0.1823
  423MPD2    H2 6368   0.155   3.869   0.709  0.4075  0.6581  0.2061
  423MPD2    H3 6369   0.075   3.677   0.598 -0.6317  0.1413 -0.2479
  423MPD2     N 6370   0.303   3.738   0.207 -0.1212  0.5961  0.0566
  423MPD2    H5 6371   0.264   3.650   0.176 -0.1818  0.3920  0.7108
  423MPD2    N1 6372   0.304   4.067   0.581 -0.0592  0.4782 -0.3684
  423MPD2    H7 6373   0.374   4.111   0.522 -1.0806 -0.5682 -2.3718
  424TMC3    C1 6374   0.360   4.253   0.722  0.9800 -0.3892 -0.7338
  424TMC3    C2 6375   0.495   4.252   0.692 -0.1094  0.2830  0.0428
  424TMC3    C3 6376   0.585   4.320   0.766  0.3395  0.1889  0.3811
  424TMC3    C4 6377   0.320   4.334   0.832  1.1392 -0.0282 -0.2913
  424TMC3    C5 6378   0.417   4.404   0.900  0.8322 -0.5242 -0.4121
  424TMC3    C6 6379   0.548   4.393   0.873  0.4394  0.9993 -0.8211
  424TMC3     C 6380   0.269   4.133   0.697  0.2928  0.3096  0.0324
  424TMC3     O 6381   0.187   4.104   0.777 -0.6767 -0.3346  0.1187
  424TMC3     H 6382   0.539   4.176   0.628 -0.3078  0.4528 -0.2968
  424TMC3    H1 6383   0.219   4.323   0.871  0.2753  0.8754 -2.2364
  424TMC3    H2 6384   0.623   4.438   0.937  0.7211 -0.2258 -0.3008
  424TMC3    C7 6385   0.388   4.501   0.998 -0.3867 -0.3980  0.2951
  424TMC3    C8 6386   0.721   4.260   0.771 -0.4530  0.7959  0.0765
  424TMC3    O1 6387   0.474   4.548   1.068  0.2121  0.3660  0.4740
  424TMC3    O2 6388   0.728   4.139   0.765 -0.1342  0.4466 -0.5644
  425MPD2     C 6389   4.099   3.121  17.316 -0.3019 -0.0561  1.2661
  425MPD2    C1 6390   4.006   3.045  17.372 -0.0708 -0.0524  0.9891
  425MPD2    C2 6391   3.889   3.107  17.418  0.5066  0.0156 -0.3193
  425MPD2    C3 6392   3.863   3.243  17.391 -0.5676  0.5072  0.1238
  425MPD2    C4 6393   3.955   3.316  17.318 -0.0599  0.7588  0.5112
  425MPD2    C5 6394   4.075   3.252  17.287  0.0168 -0.1019 -0.1164
  425MPD2     H 6395   3.817   3.050  17.476  2.2480 -1.0132  0.8462
  425MPD2    H1 6396   3.945   3.419  17.286  1.0786  1.0484  1.1110
  425MPD2    H2 6397   4.193   3.076  17.286 -1.4342 -1.4821 -0.1726
  425MPD2    H3 6398   4.144   3.311  17.228  2.1465 -1.7930  0.7019
  425MPD2     N 6399   3.742   3.291  17.434  0.6326  0.6286  0.2475
  425MPD2    H5 6400   3.693   3.224  17.493 -0.3497  0.9054 -0.2592
  425MPD2    N1 6401   4.040   2.905  17.400 -0.6719  0.6394 -0.2967
  425MPD2    H7 6402   4.117   2.861  17.350 -1.8351 -2.6567  0.7716
  426TMC3    C1 6403   4.014   2.675  17.482  0.6966  0.4105  0.4006
  426TMC3    C2 6404   4.045   2.618  17.362 -0.6713  0.3657 -0.2767
  426TMC3    C3 6405   4.033   2.483  17.353 -0.7403 -0.4206  0.3638
  426TMC3    C4 6406   3.962   2.609  17.587  0.6621 -0.0619  0.8676
  426TMC3    C5 6407   3.939   2.479  17.568 -0.1389 -1.2737  0.2378
  426TMC3    C6 6408   3.990   2.409  17.463 -0.3134 -0.3258  0.0455
  426TMC3     C 6409   3.970   2.817  17.480 -0.4327 -0.4594  0.3493
  426TMC3     O 6410   3.892   2.852  17.571  0.3915 -0.4085  0.4252
  426TMC3     H 6411   4.082   2.676  17.278  1.8576  0.1746  0.6887
  426TMC3    H1 6412   3.951   2.648  17.688 -2.6437 -0.1978  0.5808
  426TMC3    H2 6413   3.963   2.305  17.448 -0.8741 -0.1146 -0.4215
  426TMC3    C7 6414   3.820   2.419  17.639  1.0046 -0.7866  0.0487
  426TMC3    C8 6415   4.008   2.423  17.226 -0.3598 -0.1668 -0.4168
  426TMC3    O1 6416   3.811   2.300  17.640  0.0388  0.2516  0.7229
  426TMC3    O2 6417   4.048   2.308  17.205 -0.1887  0.6631 -0.1627
  427MPD2     C 6418   2.985   0.364  14.790 -0.0258  0.4168  0.1226
  427MPD2    C1 6419   2.955   0.431  14.901  0.0182  0.0852 -0.4326
  427MPD2    C2 6420   2.850   0.525  14.894  0.2057  0.5849 -0.1224
  427MPD2    C3 6421   2.765   0.547  14.787  0.3180  0.1989  0.2399
  427MPD2    C4 6422   2.799   0.472  14.673  0.5206  0.0646  0.1652
  427MPD2    C5 6423   2.908   0.391  14.682  0.1312  0.4478 -1.2257
  427MPD2     H 6424   2.833   0.572  14.990  1.3407  2.0311 -0.6138
  427MPD2    H1 6425   2.752   0.483  14.576  3.9717  1.7795 -1.3039
  427MPD2    H2 6426   3.064   0.291  14.778  0.7757  1.1095  1.2416
  427MPD2    H3 6427   2.930   0.352  14.583  0.0697 -0.1943 -0.9877
  427MPD2     N 6428   2.643   0.614  14.784  0.5299 -0.0747  0.4928
  427MPD2    H5 6429   2.584   0.593  14.704  1.7140  0.6220 -0.5591
  427MPD2    N1 6430   3.028   0.415  15.018  0.5447  0.4676  0.3929
  427MPD2    H7 6431   2.990   0.463  15.098 -2.2155 -1.2885  0.1143
  428TMC3    C1 6432   3.179   0.342  15.185 -0.6066 -0.7831  0.1136
  428TMC3    C2 6433   3.100   0.398  15.282 -0.0306 -0.0860  0.2562
  428TMC3    C3 6434   3.137   0.380  15.423  0.2528  0.1560  0.0889
  428TMC3    C4 6435   3.308   0.313  15.208 -0.7033 -0.4022  0.0468
  428TMC3    C5 6436   3.340   0.307  15.347  0.7666  0.2500  0.5373
  428TMC3    C6 6437   3.256   0.331  15.453  0.3637 -0.0214  0.4817
  428TMC3     C 6438   3.142   0.348  15.041 -0.5187  0.6924  0.6682
  428TMC3     O 6439   3.225   0.321  14.951  0.4132 -0.4949  0.4307
  428TMC3     H 6440   2.994   0.413  15.270  0.7178  2.3761 -3.0448
  428TMC3    H1 6441   3.382   0.272  15.139 -1.5458 -0.2971 -0.9223
  428TMC3    H2 6442   3.274   0.319  15.559 -1.2651 -0.0064  0.7713
  428TMC3    C7 6443   3.476   0.278  15.388  0.1139 -0.5905 -0.2763
  428TMC3    C8 6444   3.037   0.396  15.527  0.5600 -0.0323  0.3817
  428TMC3    O1 6445   3.487   0.234  15.502 -0.3894 -0.5408 -0.1552
  428TMC3    O2 6446   2.919   0.388  15.495  0.1741 -0.4043 -0.3497
  429MPD2     C 6447   4.261   0.664  17.363 -0.2541  0.6353  0.0711
  429MPD2    C1 6448   4.180   0.576  17.292 -0.0072 -0.0095 -0.2793
  429MPD2    C2 6449   4.113   0.630  17.186  0.5160 -0.6219  0.8079
  429MPD2    C3 6450   4.142   0.758  17.140 -0.4984  0.1904 -0.4312
  429MPD2    C4 6451   4.228   0.841  17.207  0.3358  0.0446 -0.0184
  429MPD2    C5 6452   4.290   0.791  17.315  0.2964  0.1504  0.4811
  429MPD2     H 6453   4.027   0.581  17.140  0.9039 -0.3885 -0.1607
  429MPD2    H1 6454   4.249   0.942  17.175  1.8211 -0.1672  0.2921
  429MPD2    H2 6455   4.302   0.641  17.461 -0.6893  0.8840  0.3070
  429MPD2    H3 6456   4.368   0.851  17.360  1.7309 -1.3594  0.0278
  429MPD2     N 6457   4.073   0.800  17.021  0.0820 -0.0410 -0.1977
  429MPD2    H5 6458   4.005   0.748  16.967 -0.2315  0.5884 -0.4148
  429MPD2    N1 6459   4.156   0.436  17.330 -0.6542 -0.1672 -0.2267
  429MPD2    H7 6460   4.097   0.385  17.265  0.3502  0.4323 -1.6069
  430TMC3    C1 6461   4.055   0.927  16.827  0.4552 -0.0098  0.2760
  430TMC3    C2 6462   3.951   1.001  16.787  0.3473 -0.2927 -0.1919
  430TMC3    C3 6463   3.902   0.958  16.664 -0.1988 -0.2672 -0.0255
  430TMC3    C4 6464   4.122   0.833  16.755 -0.7791  0.3864  1.0195
  430TMC3    C5 6465   4.076   0.801  16.628 -0.4635 -0.1829  0.0952
  430TMC3    C6 6466   3.966   0.871  16.579 -0.4988 -0.3443 -0.8261
  430TMC3     C 6467   4.082   0.922  16.965  0.2140 -0.6250 -0.2385
  430TMC3     O 6468   4.104   1.029  17.024  0.2221  0.5092  0.4961
  430TMC3     H 6469   3.897   1.063  16.857 -0.0863 -1.1328  0.2087
  430TMC3    H1 6470   4.200   0.773  16.801  0.2830  1.2385  0.3060
  430TMC3    H2 6471   3.927   0.847  16.481 -2.2419  1.6782 -0.6280
  430TMC3    C7 6472   4.106   0.670  16.573 -0.5101 -0.2643 -0.4117
  430TMC3    C8 6473   3.766   0.990  16.622  0.0872  0.8481 -0.5580
  430TMC3    O1 6474   4.161   0.596  16.649  0.2672  0.7175 -0.4010
  430TMC3    O2 6475   3.720   0.905  16.546 -0.7363 -0.3815  0.3997
  431MPD2     C 6476   4.622   0.435  12.131 -0.2026  0.4287 -0.0278
  431MPD2    C1 6477   0.006   0.417  12.069  0.2450 -0.1702 -0.1734
  431MPD2    C2 6478   0.024   0.287  12.010  0.6082  0.0046 -0.5604
  431MPD2    C3 6479   4.657   0.193  12.009  0.4240  1.1514 -0.1063
  431MPD2    C4 6480   4.541   0.216  12.074 -0.3978  0.3520 -0.7699
  431MPD2    C5 6481   4.524   0.332  12.142  0.1129 -0.2418 -0.1002
  431MPD2     H 6482   0.121   0.269  11.965  0.8200 -0.5630  0.1230
  431MPD2    H1 6483   4.470   0.134  12.076  1.7739 -1.5333 -3.2351
  431MPD2    H2 6484   4.601   0.526  12.186  2.1482  0.7992  0.2588
  431MPD2    H3 6485   4.427   0.337  12.190 -0.0482  0.5147 -0.5203
  431MPD2     N 6486   4.670   0.063  11.954  0.3528  0.4100  0.6673
  431MPD2    H5 6487   4.582   0.013  11.969  0.7796 -0.6129 -0.2166
  431MPD2    N1 6488   0.122   0.499  12.067  0.6186  0.6060  0.3460
  431MPD2    H7 6489   0.201   0.460  12.017 -0.7270 -3.3093  1.2712
  432TMC3    C1 6490   0.074   4.620  11.899  0.6593  0.0642 -0.0426
  432TMC3    C2 6491   0.149   4.558  11.804  0.2358 -0.0466  0.1106
  432TMC3    C3 6492   0.170   4.424  11.831  0.1575  0.0325  0.1829
  432TMC3    C4 6493   0.053   4.570  12.026 -0.4949 -0.0020  0.5683
  432TMC3    C5 6494   0.090   4.443  12.048 -0.9513 -0.3418 -0.2584
  432TMC3    C6 6495   0.146   4.366  11.948  0.1443  0.2265 -0.6320
  432TMC3     C 6496   0.039   0.019  11.880  0.3225 -0.5413 -0.0274
  432TMC3     O 6497   0.120   0.093  11.831  0.4322 -0.2163 -0.6656
  432TMC3     H 6498   0.162   4.607  11.708 -2.4709  1.3648  0.4664
  432TMC3    H1 6499   0.014   4.633  12.104  0.3119 -0.3857  1.2923
  432TMC3    H2 6500   0.173   4.263  11.969 -1.7133 -0.4880 -1.6258
  432TMC3    C7 6501   0.148   4.416  12.179 -0.3074  0.3279 -0.2774
  432TMC3    C8 6502   0.293   4.380  11.768  0.2691  0.3741 -0.0175
  432TMC3    O1 6503   0.257   4.363  12.188 -0.4028  0.0646  0.0668
  432TMC3    O2 6504   0.315   4.416  11.655 -0.6978 -0.5071 -0.0776
  433MPD2     C 6505   3.672   3.493  10.906  0.2449  0.8500 -0.2921
  433MPD2    C1 6506   3.587   3.390  10.941 -0.4121  0.0330  0.8482
  433MPD2    C2 6507   3.573   3.346  11.071  0.8172 -0.4205  0.9246
  433MPD2    C3 6508   3.648   3.402  11.177  0.3327  0.7486  0.2402
  433MPD2    C4 6509   3.726   3.505  11.145  0.3652  0.1125 -0.0397
  433MPD2    C5 6510   3.738   3.549  11.012  1.1159  0.2197 -0.0415
  433MPD2     H 6511   3.497   3.274  11.101 -0.3523  0.7051  0.6530
  433MPD2    H1 6512   3.791   3.552  11.217 -0.5758  0.0165  0.8706
  433MPD2    H2 6513   3.684   3.538  10.808 -1.9783  2.3068  0.1000
  433MPD2    H3 6514   3.806   3.631  10.993  1.6172 -0.4677 -1.2170
  433MPD2     N 6515   3.626   3.355  11.303 -0.2922 -0.5986 -0.5727
  433MPD2    H5 6516   3.575   3.267  11.309 -0.4914 -0.3970  0.7170
  433MPD2    N1 6517   3.528   3.315  10.837  0.0726  0.2100  0.0598
  433MPD2    H7 6518   3.566   3.341  10.747 -0.0183 -0.1629 -0.0889
  434TMC3    C1 6519   3.437   3.124  10.724  0.0825 -0.5653 -0.7876
  434TMC3    C2 6520   3.485   3.001  10.760 -0.0631 -0.0760  0.4628
  434TMC3    C3 6521   3.548   2.926  10.662 -0.3181  0.5970 -0.3284
  434TMC3    C4 6522   3.448   3.179  10.597  0.7955  0.3161 -0.9423
  434TMC3    C5 6523   3.497   3.100  10.500 -0.5520  0.1331  0.5246
  434TMC3    C6 6524   3.552   2.976  10.530  0.4712 -0.0353  0.0988
  434TMC3     C 6525   3.434   3.213  10.841 -0.5872  0.4902  0.0694
  434TMC3     O 6526   3.373   3.173  10.938  0.3765 -0.4368 -0.5120
  434TMC3     H 6527   3.482   2.981  10.866 -1.2974 -0.1796  0.4036
  434TMC3    H1 6528   3.417   3.280  10.574  1.1105  1.1701  2.3594
  434TMC3    H2 6529   3.623   2.926  10.465  0.6139  1.6735 -1.0891
  434TMC3    C7 6530   3.436   3.115  10.365  0.1038  0.0609  0.5915
  434TMC3    C8 6531   3.652   2.844  10.715 -0.4345 -0.6734  0.0843
  434TMC3    O1 6532   3.343   3.196  10.361 -0.2386  0.5094 -0.2670
  434TMC3    O2 6533   3.696   2.885  10.821 -0.1897 -0.2750  0.1878
  435MPD2     C 6534   1.035   4.191  15.370  0.8291 -0.0411  0.5177
  435MPD2    C1 6535   1.038   4.225  15.504 -0.5868 -0.4853  0.0454
  435MPD2    C2 6536   1.137   4.163  15.581  0.2391 -0.5561 -0.1913
  435MPD2    C3 6537   1.225   4.069  15.535  0.5752 -0.0578  0.5213
  435MPD2    C4 6538   1.217   4.040  15.396  0.0933  0.4331  0.8703
  435MPD2    C5 6539   1.121   4.098  15.316 -1.0140  0.3060  0.4276
  435MPD2     H 6540   1.142   4.197  15.683  0.3133 -0.3870 -0.2508
  435MPD2    H1 6541   1.285   3.965  15.357 -0.1729 -0.3548  1.9112
  435MPD2    H2 6542   0.964   4.240  15.303  2.1030 -1.3116 -1.7869
  435MPD2    H3 6543   1.115   4.082  15.209 -0.3816 -1.0419  0.5962
  435MPD2     N 6544   1.316   4.011  15.624  0.6387  0.0465  0.0400
  435MPD2    H5 6545   1.321   4.041  15.721  0.1119  0.3337 -0.0215
  435MPD2    N1 6546   0.947   4.308  15.572 -0.0843 -0.0790  0.9511
  435MPD2    H7 6547   0.974   4.336  15.666  0.3729 -1.3946  1.2078
  436TMC3    C1 6548   0.727   4.525  15.825  0.3665 -0.3571  1.0921
  436TMC3    C2 6549   0.810   4.482  15.724 -0.6160  0.4895  0.0559
  436TMC3    C3 6550   0.749   4.398  15.631 -0.1253  0.4765  0.3028
  436TMC3    C4 6551   0.596   4.494  15.839  0.0168  0.1795  0.3130
  436TMC3    C5 6552   0.545   4.406  15.755 -0.4971  0.2884 -0.1849
  436TMC3    C6 6553   0.618   4.354  15.648  0.8152  0.0530  0.6712
  436TMC3     C 6554   0.785   4.614  15.928  1.5107  0.1112 -0.2388
  436TMC3     O 6555   0.898   4.651  15.895 -0.1892  0.7782 -0.0948
  436TMC3     H 6556   0.911   4.522  15.716  0.3069 -1.6147  1.1251
  436TMC3    H1 6557   0.534   4.550  15.908  0.8066  1.3179  0.0966
  436TMC3    H2 6558   0.575   4.275  15.589  2.7626 -0.6261  0.1412
  436TMC3    C7 6559   0.401   4.385  15.742  0.2442  0.7851 -0.2415
  436TMC3    C8 6560   0.821   4.338  15.528 -0.2050  0.2237 -0.2195
  436TMC3    O1 6561   0.353   4.348  15.632 -0.1264 -0.3114  0.0560
  436TMC3    O2 6562   0.761   4.306  15.424  0.4688  0.2336 -0.1438
  437TMC3    C1 6563   4.278   0.730  12.045  0.1196  0.7680  0.3718
  437TMC3    C2 6564   4.187   0.801  11.968 -0.3412 -0.1669 -0.5832
  437TMC3    C3 6565   4.218   0.838  11.840  1.1186  0.0968 -0.1751
  437TMC3    C4 6566   4.406   0.725  12.005 -0.2594  0.1256  0.0040
  437TMC3    C5 6567   4.439   0.786  11.882 -0.2899 -0.2403  0.7514
  437TMC3    C6 6568   4.345   0.831  11.792  0.3383  0.3462  0.6982
  437TMC3     C 6569   4.245   0.676  12.177 -0.3195  0.5388  0.1112
  437TMC3     O 6570   4.128   0.680  12.198  0.2087  0.4547  0.3800
  437TMC3     H 6571   4.086   0.826  12.000 -0.7958 -1.9692 -0.6091
  437TMC3    H1 6572   4.475   0.651  12.044  0.3147  1.4164  1.4280
  437TMC3    H2 6573   4.369   0.867  11.693  1.0494  2.2775  1.5696
  437TMC3    C7 6574   4.581   0.817  11.861 -0.2954 -0.2129 -0.3701
  437TMC3    C8 6575   4.106   0.835  11.751 -0.4578  0.4532  1.1901
  437TMC3    O1 6576   4.611   0.838  11.744 -0.2132 -0.5346 -0.0181
  437TMC3    O2 6577   3.995   0.793  11.779  0.3981 -0.2941 -0.2690
  438MPD2     C 6578   1.700   2.060  16.364  0.8731 -0.4084 -0.2947
  438MPD2    C1 6579   1.789   1.976  16.430 -0.5076 -0.0634 -0.0397
  438MPD2    C2 6580   1.795   1.982  16.564  0.2710 -0.6004 -0.6197
  438MPD2    C3 6581   1.717   2.068  16.637  1.0013  0.7460  0.6476
  438MPD2    C4 6582   1.631   2.155  16.571  0.8857 -0.1556 -0.7764
  438MPD2    C5 6583   1.627   2.144  16.436  0.3058 -0.3113  0.5344
  438MPD2     H 6584   1.860   1.910  16.612  1.4427  1.4118  0.8273
  438MPD2    H1 6585   1.560   2.218  16.623  1.2797 -0.5987  0.3162
  438MPD2    H2 6586   1.683   2.051  16.257  1.4476  0.0014 -0.4275
  438MPD2    H3 6587   1.546   2.191  16.381  1.9712  0.5549 -1.1872
  438MPD2     N 6588   1.724   2.076  16.775  0.3594  0.5202 -0.3237
  438MPD2    H5 6589   1.689   2.158  16.824 -1.9617  0.0529 -1.1808
  438MPD2    N1 6590   1.883   1.898  16.361  0.2578 -0.2052 -0.2818
  438MPD2    H7 6591   1.958   1.865  16.420  0.0337 -0.6212 -0.2322
  439TMC3    C1 6592   2.012   1.804  16.198  0.5621 -0.1329 -0.4751
  439TMC3    C2 6593   2.066   1.807  16.072  0.0842  0.2854 -0.1817
  439TMC3    C3 6594   2.163   1.718  16.038  0.3034 -1.3467 -0.7356
  439TMC3    C4 6595   2.038   1.703  16.283  1.0231  0.5892  0.0768
  439TMC3    C5 6596   2.142   1.614  16.245  0.6825  0.1608  0.8339
  439TMC3    C6 6597   2.217   1.632  16.135  0.2820  0.4390  0.0972
  439TMC3     C 6598   1.899   1.888  16.224 -0.4694 -0.4506  0.9552
  439TMC3     O 6599   1.838   1.951  16.133 -0.5330  0.6627 -0.1058
  439TMC3     H 6600   2.037   1.880  15.998  0.9529  0.4376 -0.3734
  439TMC3    H1 6601   1.980   1.688  16.374  0.5958 -1.5333 -0.5477
  439TMC3    H2 6602   2.304   1.570  16.119 -1.0583 -1.1181 -1.0910
  439TMC3    C7 6603   2.201   1.540  16.360 -0.3516 -0.6492 -0.4229
  439TMC3    C8 6604   2.230   1.719  15.915  0.2201  0.0096 -0.5100
  439TMC3    O1 6605   2.322   1.535  16.370 -0.2104 -0.2811 -0.1654
  439TMC3    O2 6606   2.324   1.639  15.914  0.0740  0.4528  0.1468
  440MPD2     C 6607   0.575   1.576  14.955  0.0087  0.5090 -0.3027
  440MPD2    C1 6608   0.614   1.670  15.041 -0.0992  0.4545  0.1461
  440MPD2    C2 6609   0.690   1.629  15.152  0.3316  0.0059 -0.5993
  440MPD2    C3 6610   0.721   1.496  15.170  0.0517 -0.8294 -0.9359
  440MPD2    C4 6611   0.683   1.403  15.073 -0.5820  0.0808 -0.2447
  440MPD2    C5 6612   0.606   1.447  14.962 -0.9103  0.5358  0.4317
  440MPD2     H 6613   0.721   1.697  15.231  0.8715 -0.9835  0.0452
  440MPD2    H1 6614   0.705   1.298  15.092 -2.2201 -0.0728  0.7318
  440MPD2    H2 6615   0.515   1.605  14.869 -1.3430 -1.2263  0.0510
  440MPD2    H3 6616   0.561   1.378  14.892  1.5289  0.6998 -1.2873
  440MPD2     N 6617   0.789   1.468  15.298 -0.0404 -0.3067  0.0882
  440MPD2    H5 6618   0.816   1.549  15.352  0.3790 -0.4672  0.1240
  440MPD2    N1 6619   0.589   1.815  15.030  0.1163  0.2292 -0.3088
  440MPD2    H7 6620   0.620   1.882  15.099 -0.1737  0.3890 -0.3341
  441TMC3    C1 6621   0.887   1.349  15.460 -0.7324  0.5131  0.1201
  441TMC3    C2 6622   0.999   1.420  15.476 -0.1124 -0.5783  0.0964
  441TMC3    C3 6623   1.082   1.396  15.586 -0.3662  0.4480 -0.1914
  441TMC3    C4 6624   0.848   1.263  15.556  0.0397  0.1787  0.1368
  441TMC3    C5 6625   0.922   1.256  15.670 -0.7907  0.1611  0.2588
  441TMC3    C6 6626   1.033   1.330  15.694  0.2514 -0.3503 -0.6764
  441TMC3     C 6627   0.819   1.343  15.336 -0.4618 -0.9317  0.4663
  441TMC3     O 6628   0.767   1.236  15.301 -0.4872  0.2226  0.4940
  441TMC3     H 6629   1.037   1.482  15.395 -0.8098  1.6304  1.4709
  441TMC3    H1 6630   0.754   1.210  15.555 -0.0727  0.3683  0.5322
  441TMC3    H2 6631   1.086   1.320  15.788  1.2798  0.5121 -1.1571
  441TMC3    C7 6632   0.829   1.215  15.779 -0.4230 -0.1987 -0.0017
  441TMC3    C8 6633   1.179   1.492  15.605  0.3147  0.0206  0.4909
  441TMC3    O1 6634   0.706   1.222  15.765  0.2742  0.1400  0.0581
  441TMC3    O2 6635   1.256   1.464  15.695  0.1601 -0.5141  0.2918
  442MPD2     C 6636   3.888   2.789  16.673  0.0961  0.2022  0.4574
  442MPD2    C1 6637   3.761   2.753  16.632  0.1414  0.2356  0.1924
  442MPD2    C2 6638   3.744   2.650  16.543  0.0096  0.6894 -0.1123
  442MPD2    C3 6639   3.848   2.590  16.477 -0.5251 -0.1456  0.1847
  442MPD2    C4 6640   3.972   2.652  16.500 -0.0432 -0.1338 -1.0345
  442MPD2    C5 6641   3.989   2.749  16.597 -0.0112 -0.2567  0.0837
  442MPD2     H 6642   3.644   2.617  16.517  0.6087  0.5481 -2.2476
  442MPD2    H1 6643   4.067   2.622  16.456  0.7347  1.6574 -0.5862
  442MPD2    H2 6644   3.907   2.855  16.757 -0.7827  1.3866 -0.2757
  442MPD2    H3 6645   4.091   2.763  16.628 -1.0782  0.4050  3.2571
  442MPD2     N 6646   3.825   2.487  16.390 -0.3618 -0.5211  0.6040
  442MPD2    H5 6647   3.739   2.435  16.406  0.1078 -0.7902  2.2389
  442MPD2    N1 6648   3.643   2.801  16.699 -0.0437  0.4796  0.1857
  442MPD2    H7 6649   3.555   2.754  16.677  0.9638 -1.5589  0.4731
  443TMC3    C1 6650   3.508   2.949  16.815 -0.2505  0.2960 -0.3454
  443TMC3    C2 6651   3.466   3.071  16.773  0.5841 -0.3563 -0.3790
  443TMC3    C3 6652   3.330   3.082  16.756 -0.9418  0.3569 -0.3676
  443TMC3    C4 6653   3.424   2.849  16.864  0.6721 -0.2740  0.9830
  443TMC3    C5 6654   3.292   2.865  16.840 -0.1089  0.1910 -0.2325
  443TMC3    C6 6655   3.238   2.982  16.787  0.7764  0.4325  0.0900
  443TMC3     C 6656   3.643   2.909  16.778  0.0839 -0.1381 -1.1195
  443TMC3     O 6657   3.720   3.006  16.785  0.1509  0.1929 -0.3423
  443TMC3     H 6658   3.537   3.134  16.720 -0.1730  0.2106 -0.7159
  443TMC3    H1 6659   3.468   2.758  16.904 -0.2069 -0.8812  0.5862
  443TMC3    H2 6660   3.141   2.984  16.739  1.3626  0.1301 -1.0972
  443TMC3    C7 6661   3.203   2.781  16.907 -0.3317  0.4511  0.3416
  443TMC3    C8 6662   3.315   3.133  16.624  0.0534  0.1445 -0.5318
  443TMC3    O1 6663   3.241   2.665  16.923  0.1336  0.5961 -0.4318
  443TMC3    O2 6664   3.339   3.248  16.589  0.7022  0.2148 -0.1209
  444MPD2     C 6665   3.610   2.269  17.285 -0.5112 -1.0477  0.9452
  444MPD2    C1 6666   3.552   2.258  17.156 -0.2138 -0.9563  0.0450
  444MPD2    C2 6667   3.602   2.162  17.064 -0.2427  0.0039  0.3537
  444MPD2    C3 6668   3.721   2.094  17.098 -0.0980 -0.0990 -0.2032
  444MPD2    C4 6669   3.782   2.116  17.223 -0.1139 -0.2079 -0.0412
  444MPD2    C5 6670   3.728   2.205  17.314 -0.2647  0.3466 -0.1174
  444MPD2     H 6671   3.550   2.142  16.971 -0.0486 -1.3656  0.5333
  444MPD2    H1 6672   3.863   2.055  17.261  0.8613  0.6443 -0.7266
  444MPD2    H2 6673   3.577   2.349  17.350  0.6304  1.3077 -1.3712
  444MPD2    H3 6674   3.777   2.229  17.407  0.5187 -1.4724 -0.0748
  444MPD2     N 6675   3.779   1.992  17.015 -0.0605  0.5328  0.0623
  444MPD2    H5 6676   3.870   1.958  17.044  0.2568 -0.5545 -2.2351
  444MPD2    N1 6677   3.423   2.302  17.124  0.0543  0.0098 -0.3932
  444MPD2    H7 6678   3.382   2.265  17.038  0.5097 -0.0597 -0.5787
  445TMC3    C1 6679   3.804   1.841  16.832 -0.9135  0.2933 -0.5825
  445TMC3    C2 6680   3.735   1.747  16.759 -0.4993 -0.0831  0.3097
  445TMC3    C3 6681   3.808   1.653  16.689 -0.3304 -0.1030  0.7371
  445TMC3    C4 6682   3.939   1.845  16.842 -0.1094 -0.2856 -0.0121
  445TMC3    C5 6683   4.006   1.743  16.776 -0.6073  0.2542  0.3985
  445TMC3    C6 6684   3.947   1.647  16.692 -0.3854  0.1470 -0.7572
  445TMC3     C 6685   3.716   1.929  16.910  0.7206  0.0999  0.3523
  445TMC3     O 6686   3.603   1.933  16.866  0.1049 -0.5660  0.2420
  445TMC3     H 6687   3.628   1.750  16.740 -0.3105  0.9155 -0.5722
  445TMC3    H1 6688   3.984   1.922  16.904  1.8273 -0.3797 -1.2988
  445TMC3    H2 6689   4.001   1.562  16.653  0.4093  0.6399 -0.7478
  445TMC3    C7 6690   4.150   1.737  16.779 -0.4257 -0.1316 -0.0076
  445TMC3    C8 6691   3.731   1.577  16.585 -0.3578 -0.4407  0.5838
  445TMC3    O1 6692   4.207   1.664  16.701 -0.4422 -0.1899 -0.0705
  445TMC3    O2 6693   3.608   1.579  16.593  0.5303  0.0813  0.3258
  446MPD2     C 6694   3.374   2.711  11.269  0.1728  0.1264  0.1911
  446MPD2    C1 6695   3.379   2.739  11.135 -0.0580  0.0548 -0.2404
  446MPD2    C2 6696   3.487   2.805  11.078  1.0362  0.6767 -0.4887
  446MPD2    C3 6697   3.581   2.865  11.157  0.0603  0.7042  0.5645
  446MPD2    C4 6698   3.574   2.848  11.291  0.1865  1.2845  0.5614
  446MPD2    C5 6699   3.470   2.772  11.349 -0.0990 -0.7040  0.3631
  446MPD2     H 6700   3.480   2.818  10.971 -2.0968 -1.8156 -0.5975
  446MPD2    H1 6701   3.646   2.884  11.364  1.9571 -1.2611  0.0745
  446MPD2    H2 6702   3.298   2.658  11.325  0.5022 -0.9219 -0.3419
  446MPD2    H3 6703   3.464   2.761  11.456 -0.9609 -0.9007  0.2935
  446MPD2     N 6704   3.681   2.941  11.086 -0.1648  0.0233 -0.0112
  446MPD2    H5 6705   3.679   2.930  10.985 -0.9145  0.2096 -0.0172
  446MPD2    N1 6706   3.280   2.697  11.044  0.3108 -0.3897  0.1097
  446MPD2    H7 6707   3.297   2.708  10.945  0.0827  0.1777  0.1304
  447TMC3    C1 6708   3.880   3.070  11.054 -0.1868 -0.0810  0.3286
  447TMC3    C2 6709   3.836   3.109  10.927 -1.0731  0.4145 -0.3778
  447TMC3    C3 6710   3.926   3.157  10.840 -0.4846 -0.5093 -0.0903
  447TMC3    C4 6711   4.011   3.094  11.090 -0.0712 -0.2961 -0.0613
  447TMC3    C5 6712   4.098   3.143  10.999 -0.0397  0.4439 -0.1758
  447TMC3    C6 6713   4.060   3.168  10.870 -0.2611 -0.2560  0.1998
  447TMC3     C 6714   3.789   3.006  11.145 -0.6026 -0.0922 -0.4577
  447TMC3     O 6715   3.819   2.991  11.263 -0.3058 -0.3046 -0.1248
  447TMC3     H 6716   3.731   3.108  10.899 -1.3870  0.3413  0.7922
  447TMC3    H1 6717   4.043   3.065  11.189 -2.0630  1.3180  1.0618
  447TMC3    H2 6718   4.132   3.206  10.797 -0.5539  1.1732  0.6616
  447TMC3    C7 6719   4.236   3.158  11.030  0.8622  0.5007  0.1951
  447TMC3    C8 6720   3.877   3.248  10.738  0.2140  0.2508 -0.1158
  447TMC3    O1 6721   4.316   3.110  10.952 -0.4524  0.3128  0.1413
  447TMC3    O2 6722   3.767   3.226  10.698 -0.0102  0.1185 -0.3965
  448TMC3    C1 6723   2.412   3.334  16.586  0.4965  0.1949  0.0717
  448TMC3    C2 6724   2.328   3.236  16.540  0.1900  0.8059  0.2177
  448TMC3    C3 6725   2.304   3.130  16.627  0.7180  0.6393 -0.0057
  448TMC3    C4 6726   2.489   3.323  16.701  0.0714  0.0431  0.3384
  448TMC3    C5 6727   2.483   3.209  16.772  0.6915  0.0234 -0.3498
  448TMC3    C6 6728   2.384   3.121  16.740 -0.3166  0.5370  0.4640
  448TMC3     C 6729   2.423   3.454  16.504  0.5191  0.0937 -0.9028
  448TMC3     O 6730   2.374   3.454  16.392 -0.8819 -0.4049  0.1291
  448TMC3     H 6731   2.270   3.245  16.449 -0.5348 -0.9584  0.5105
  448TMC3    H1 6732   2.552   3.401  16.744  1.5238 -1.8331  1.6685
  448TMC3    H2 6733   2.366   3.027  16.791 -0.6400  0.8745  0.9702
  448TMC3    C7 6734   2.544   3.215  16.901  0.4342  0.3735 -0.8681
  448TMC3    C8 6735   2.191   3.040  16.611 -0.1660  0.3345 -0.2196
  448TMC3    O1 6736   2.647   3.279  16.921 -0.9376 -0.2718  0.1619
  448TMC3    O2 6737   2.177   2.950  16.691  1.2013  0.4141  0.0335
  449MPD2     C 6738   3.628   2.121  14.265 -0.7590 -0.3660 -0.1841
  449MPD2    C1 6739   3.623   2.048  14.150 -0.6004 -0.2122  0.2702
  449MPD2    C2 6740   3.595   1.913  14.163 -0.0576 -0.0887  0.4223
  449MPD2    C3 6741   3.613   1.853  14.287  0.1831  0.3918  0.0682
  449MPD2    C4 6742   3.632   1.925  14.407  0.2866  0.5561 -0.0099
  449MPD2    C5 6743   3.630   2.062  14.391 -0.4816  0.2591  0.4929
  449MPD2     H 6744   3.591   1.850  14.075 -0.9863  0.1471  0.3013
  449MPD2    H1 6745   3.652   1.885  14.505 -1.1903 -1.1197 -0.3811
  449MPD2    H2 6746   3.635   2.229  14.258 -1.7400  0.0067  4.5410
  449MPD2    H3 6747   3.642   2.124  14.480  0.8795  2.3166 -1.1147
  449MPD2     N 6748   3.579   1.720  14.278  0.3134  0.4251 -0.1397
  449MPD2    H5 6749   3.562   1.679  14.187 -1.1669 -0.1132  0.3779
  449MPD2    N1 6750   3.639   2.097  14.021  0.1192  0.1170 -0.3444
  449MPD2    H7 6751   3.628   2.030  13.946  2.0868  1.2805 -1.6825
  450TMC3    C1 6752   3.739   2.230  13.854  0.5008 -0.2374  0.2660
  450TMC3    C2 6753   3.876   2.231  13.851  0.3541  0.3279  0.2211
  450TMC3    C3 6754   3.936   2.118  13.796 -0.3598  0.2558  0.0541
  450TMC3    C4 6755   3.664   2.144  13.770  0.1895  0.5568  0.6146
  450TMC3    C5 6756   3.726   2.036  13.707  0.9289  0.0685  0.0920
  450TMC3    C6 6757   3.861   2.027  13.714 -0.0224  0.5716  0.0052
  450TMC3     C 6758   3.682   2.225  13.996  0.1517  0.1198  0.5730
  450TMC3     O 6759   3.679   2.327  14.060 -0.0824  0.5264 -0.5999
  450TMC3     H 6760   3.925   2.282  13.934  0.3704  1.4872 -0.5014
  450TMC3    H1 6761   3.556   2.151  13.758  0.0995 -0.9618  0.5302
  450TMC3    H2 6762   3.904   1.933  13.679 -1.3987 -0.7704  1.9732
  450TMC3    C7 6763   3.662   1.910  13.714  0.0904  0.6144 -0.0385
  450TMC3    C8 6764   4.057   2.068  13.855  0.2388 -0.0260 -0.8109
  450TMC3    O1 6765   3.597   1.897  13.815  0.3430 -0.1895 -0.6880
  450TMC3    O2 6766   4.097   2.102  13.965 -0.2491  1.0637 -0.1166
  451MPD2     C 6767   0.020   0.605   1.509 -0.1870  0.3080 -0.2816
  451MPD2    C1 6768   0.015   0.650   1.377  0.2347 -0.5196  0.2927
  451MPD2    C2 6769   0.091   0.571   1.288 -0.1674  0.3386  0.3884
  451MPD2    C3 6770   0.159   0.460   1.334 -0.3952  0.3956 -0.8180
  451MPD2    C4 6771   0.169   0.424   1.465  0.5896  0.2953  0.6353
  451MPD2    C5 6772   0.102   0.501   1.558  0.5167 -0.0583 -0.5533
  451MPD2     H 6773   0.096   0.604   1.185  0.9392 -1.5837 -0.1695
  451MPD2    H1 6774   0.228   0.339   1.501  2.7006  0.9661 -1.2484
  451MPD2    H2 6775   4.705   0.664   1.583  0.4675 -0.2618  0.6456
  451MPD2    H3 6776   0.126   0.490   1.663 -3.6831  1.4115  0.5830
  451MPD2     N 6777   0.230   0.383   1.240 -0.3850 -0.7196  0.1843
  451MPD2    H5 6778   0.302   0.320   1.274 -0.7327 -0.7963  0.7832
  451MPD2    N1 6779   4.668   0.757   1.325  0.5902 -0.3561 -0.2225
  451MPD2    H7 6780   4.623   0.818   1.392  1.2111 -1.8515  1.5614
  452TMC3    C1 6781   0.300   0.263   1.053  0.1597 -0.1062  0.0144
  452TMC3    C2 6782   0.251   0.211   0.942 -0.4349 -0.1120  0.0200
  452TMC3    C3 6783   0.341   0.176   0.840  0.1930 -0.2195  0.3278
  452TMC3    C4 6784   0.434   0.280   1.073  0.4850 -0.4615 -1.1015
  452TMC3    C5 6785   0.519   0.241   0.967 -0.5315  0.1449  0.2331
  452TMC3    C6 6786   0.472   0.185   0.856  0.2472 -0.6764  0.2255
  452TMC3     C 6787   0.209   0.364   1.108  1.0814  0.8484  0.1200
  452TMC3     O 6788   0.129   0.414   1.032  0.1762 -0.3938 -0.0366
  452TMC3     H 6789   0.144   0.193   0.931 -0.3617 -0.2818 -0.4120
  452TMC3    H1 6790   0.473   0.336   1.157 -1.6123 -1.3131  0.4497
  452TMC3    H2 6791   0.536   0.164   0.772 -0.7684 -0.4891 -0.5930
  452TMC3    C7 6792   0.597   0.348   0.917 -0.1926 -0.6377 -0.2651
  452TMC3    C8 6793   0.285   0.101   0.730  0.3804  0.0972  0.9012
  452TMC3    O1 6794   0.576   0.377   0.801  0.3201 -0.2184  0.2758
  452TMC3    O2 6795   0.166   0.107   0.708 -0.3612  0.4685 -0.3683
  453TMC3    C1 6796   0.903   1.845  11.451 -0.5640  0.3197  0.1634
  453TMC3    C2 6797   0.811   1.764  11.515 -0.4940  0.0695 -0.4056
  453TMC3    C3 6798   0.774   1.648  11.444 -0.3044  0.3348  0.0796
  453TMC3    C4 6799   0.949   1.827  11.320 -0.0570  0.1821 -0.4085
  453TMC3    C5 6800   0.900   1.711  11.256  0.0135 -0.3463  0.6789
  453TMC3    C6 6801   0.808   1.626  11.316 -0.2719 -0.4378 -0.2782
  453TMC3     C 6802   0.986   1.931  11.533  0.4075  0.1523 -0.2418
  453TMC3     O 6803   1.102   1.954  11.499 -0.4903 -0.0906  0.8480
  453TMC3     H 6804   0.769   1.774  11.614 -0.6184  0.8344 -0.5368
  453TMC3    H1 6805   1.028   1.887  11.278 -0.8348  0.7900 -0.9837
  453TMC3    H2 6806   0.777   1.536  11.265 -0.8530 -0.1463 -0.4355
  453TMC3    C7 6807   0.946   1.685  11.122 -0.2347  0.4000  0.0594
  453TMC3    C8 6808   0.671   1.567  11.515  0.5655  0.6161  0.2106
  453TMC3    O1 6809   0.999   1.780  11.075  0.2235  0.3742 -0.0712
  453TMC3    O2 6810   0.595   1.617  11.592 -0.9055 -0.2699  0.0065
  454MPD2     C 6811   0.021   2.250  16.199  0.0043  0.1947 -0.0789
  454MPD2    C1 6812   4.698   2.129  16.170  1.0870 -0.2978 -0.0839
  454MPD2    C2 6813   4.597   2.083  16.256 -0.6045 -0.4615 -0.7247
  454MPD2    C3 6814   4.559   2.158  16.370 -0.1103 -0.2612  0.0643
  454MPD2    C4 6815   4.624   2.276  16.399 -0.3236  0.7747 -0.0847
  454MPD2    C5 6816   4.716   2.325  16.307  0.7056  0.3005 -0.1203
  454MPD2     H 6817   4.549   1.990  16.228 -0.1446 -1.3942  1.6028
  454MPD2    H1 6818   4.591   2.334  16.484 -2.4555  0.3946 -0.6474
  454MPD2    H2 6819   0.098   2.296  16.138  0.5895  0.4186  0.8127
  454MPD2    H3 6820   0.008   2.426  16.334  1.0685 -0.4421  2.2694
  454MPD2     N 6821   4.448   2.122  16.455 -0.4614 -0.5276 -0.0024
  454MPD2    H5 6822   4.413   2.193  16.518 -0.0158  1.7347 -2.2954
  454MPD2    N1 6823   4.717   2.053  16.053 -0.0086  0.0907  0.3650
  454MPD2    H7 6824   4.680   1.958  16.058  1.3175 -0.3093  2.6609
  455TMC3    C1 6825   4.246   2.011  16.500 -1.2120  0.2117  0.2987
  455TMC3    C2 6826   4.204   2.088  16.601 -0.0620 -1.0311  0.3507
  455TMC3    C3 6827   4.070   2.102  16.615 -1.5975  0.0184 -0.0212
  455TMC3    C4 6828   4.169   1.953  16.407 -0.1337 -0.6416 -0.1269
  455TMC3    C5 6829   4.036   1.974  16.423  0.9037  1.1759  0.1656
  455TMC3    C6 6830   3.984   2.044  16.530  0.1728  0.2320  0.0374
  455TMC3     C 6831   4.384   2.004  16.444  0.9500  0.0717  0.1592
  455TMC3     O 6832   4.411   1.896  16.393  0.0678  0.6026  0.5247
  455TMC3     H 6833   4.278   2.121  16.673 -0.1225 -2.4340  1.0475
  455TMC3    H1 6834   4.202   1.879  16.335  2.8581 -0.2624  0.8820
  455TMC3    H2 6835   3.877   2.055  16.545 -0.1134  0.8705 -2.5650
  455TMC3    C7 6836   3.944   1.883  16.361 -0.3743 -1.2939 -0.0335
  455TMC3    C8 6837   4.032   2.163  16.743 -0.0789  0.0101  0.5732
  455TMC3    O1 6838   3.857   1.846  16.435  0.6301  0.4215  0.2839
  455TMC3    O2 6839   4.120   2.164  16.834  0.1680 -0.1601  0.6357
  456MPD2     C 6840   2.335   2.050  15.912 -0.0241  0.5336 -0.5980
  456MPD2    C1 6841   2.367   1.988  16.028 -0.1234  0.5449  0.1927
  456MPD2    C2 6842   2.296   2.021  16.147 -0.7010 -0.6491  0.6203
  456MPD2    C3 6843   2.196   2.121  16.143 -0.4981 -0.1050 -0.5787
  456MPD2    C4 6844   2.163   2.175  16.017 -0.0767 -0.7209  0.8083
  456MPD2    C5 6845   2.243   2.147  15.912  0.3848  0.2905 -0.3969
  456MPD2     H 6846   2.326   1.969  16.237 -0.6049 -0.0110  0.9594
  456MPD2    H1 6847   2.085   2.247  15.998 -1.0470 -1.1693  3.0446
  456MPD2    H2 6848   2.378   2.028  15.815  1.2425 -1.3766  0.4039
  456MPD2    H3 6849   2.217   2.192  15.817 -0.5975 -1.7883 -1.1165
  456MPD2     N 6850   2.133   2.157  16.266 -0.2344 -0.4909  0.2249
  456MPD2    H5 6851   2.167   2.115  16.352  0.6599  0.8424  0.5260
  456MPD2    N1 6852   2.473   1.892  16.008 -0.3857  0.6889 -0.0925
  456MPD2    H7 6853   2.526   1.893  15.921 -1.6179 -2.2931 -0.8721
  457TMC3    C1 6854   2.005   2.290  16.405 -0.2442 -0.1241  0.0839
  457TMC3    C2 6855   1.918   2.396  16.413 -0.1127  0.6638 -0.2238
  457TMC3    C3 6856   1.892   2.438  16.533  0.4724  1.0107 -0.5679
  457TMC3    C4 6857   2.066   2.235  16.518 -0.0127  0.3966  0.3767
  457TMC3    C5 6858   2.030   2.290  16.641 -0.4903  0.4064  0.4119
  457TMC3    C6 6859   1.935   2.383  16.647 -0.2604  0.2665  0.1705
  457TMC3     C 6860   2.029   2.242  16.273  1.0191 -0.8558 -0.0950
  457TMC3     O 6861   1.965   2.283  16.179 -0.1323 -0.9743 -0.4140
  457TMC3     H 6862   1.867   2.431  16.324  0.8753  2.5553 -0.0469
  457TMC3    H1 6863   2.144   2.160  16.513 -2.2497 -1.8427 -0.5839
  457TMC3    H2 6864   1.897   2.416  16.743  0.0709 -1.8881  1.0572
  457TMC3    C7 6865   2.145   2.310  16.738  0.5501  1.1119 -0.4210
  457TMC3    C8 6866   1.908   2.580  16.545  0.2171 -0.6566  0.3370
  457TMC3    O1 6867   2.226   2.225  16.766 -0.2436  0.4679  0.5280
  457TMC3    O2 6868   1.976   2.624  16.640 -0.5088 -0.0002  0.4444
  458MPD2     C 6869   0.291   1.024  11.981  0.0398  0.4212 -0.2067
  458MPD2    C1 6870   0.208   1.044  12.093 -0.5819  0.3828  0.0542
  458MPD2    C2 6871   0.088   0.972  12.093  0.6693 -0.7051 -0.6797
  458MPD2    C3 6872   0.040   0.898  11.988  0.2255  0.2303  0.6140
  458MPD2    C4 6873   0.121   0.890  11.880 -0.5855 -0.6427  0.1503
  458MPD2    C5 6874   0.246   0.942  11.882 -0.0997 -0.5675 -0.7788
  458MPD2     H 6875   0.025   0.981  12.181 -0.4555  2.4224 -1.8090
  458MPD2    H1 6876   0.094   0.855  11.780  0.7377  2.6404 -1.3704
  458MPD2    H2 6877   0.392   1.064  11.987  0.3366 -0.0383 -2.1029
  458MPD2    H3 6878   0.306   0.924  11.793 -1.8892 -2.2446 -1.6343
  458MPD2     N 6879   4.648   0.843  11.982  0.1348  0.1760  0.1026
  458MPD2    H5 6880   4.590   0.861  12.063 -1.2376 -2.9917 -0.1684
  458MPD2    N1 6881   0.263   1.121  12.200 -0.4447 -0.6841  0.2831
  458MPD2    H7 6882   0.350   1.172  12.191 -1.8202  1.4946 -0.6344
  459TMC3    C1 6883   0.262   1.245  12.387 -0.0761 -0.2896 -0.0821
  459TMC3    C2 6884   0.327   1.344  12.320  0.1417  0.0118  0.0596
  459TMC3    C3 6885   0.403   1.431  12.395  0.5238 -0.2074  0.4020
  459TMC3    C4 6886   0.262   1.233  12.522  0.1002 -0.1750  0.9459
  459TMC3    C5 6887   0.314   1.338  12.597  0.1868 -0.2184 -0.3958
  459TMC3    C6 6888   0.386   1.441  12.532 -0.1748  0.8698 -0.1960
  459TMC3     C 6889   0.187   1.145  12.311 -0.8675 -0.1341  0.9883
  459TMC3     O 6890   0.099   1.085  12.372  0.4419  0.3285  0.4390
  459TMC3     H 6891   0.324   1.368  12.215  2.8944  0.9835  0.2181
  459TMC3    H1 6892   0.189   1.165  12.566 -2.1250  1.5791 -0.0717
  459TMC3    H2 6893   0.432   1.523  12.585 -3.2347  1.1293  2.0448
  459TMC3    C7 6894   0.315   1.336  12.737 -0.2635 -0.2508  0.1321
  459TMC3    C8 6895   0.495   1.515  12.323  0.2770 -0.4858  0.4313
  459TMC3    O1 6896   0.342   1.438  12.794 -0.0019  0.0218  0.4291
  459TMC3    O2 6897   0.514   1.490  12.207 -0.4215 -0.0634 -0.8855
  460MPD2     C 6898   3.968   3.604  10.701  0.2434 -0.3572 -0.0061
  460MPD2    C1 6899   3.906   3.482  10.664 -0.8322  0.0299  0.2067
  460MPD2    C2 6900   3.826   3.476  10.556 -0.1372  0.2822  0.5216
  460MPD2    C3 6901   3.801   3.596  10.479 -0.3505 -0.3031 -0.1070
  460MPD2    C4 6902   3.858   3.717  10.514 -0.0309 -0.4098 -0.1991
  460MPD2    C5 6903   3.942   3.721  10.627 -0.0734  0.3081  0.5017
  460MPD2     H 6904   3.785   3.381  10.524  0.4963 -1.4614  4.8921
  460MPD2    H1 6905   3.864   3.802  10.447 -0.3533 -0.3561 -0.1597
  460MPD2    H2 6906   4.031   3.620  10.788 -0.1325  0.6912  0.0818
  460MPD2    H3 6907   3.988   3.817  10.648  2.0703 -0.6734  0.2032
  460MPD2     N 6908   3.711   3.604  10.375 -0.2194 -0.1686 -0.7321
  460MPD2    H5 6909   3.713   3.687  10.316  0.8343 -0.8609 -1.6787
  460MPD2    N1 6910   3.938   3.372  10.750 -0.2228  0.1561  0.0696
  460MPD2    H7 6911   4.014   3.381  10.816 -1.4913  0.7206  1.4505
  461TMC3    C1 6912   3.552   3.542  10.219 -0.6166  0.4171  0.3365
  461TMC3    C2 6913   3.532   3.447  10.122  0.2808  0.7888  0.3319
  461TMC3    C3 6914   3.479   3.486  10.002  0.3203  0.2229 -0.3865
  461TMC3    C4 6915   3.519   3.676  10.207  0.2106 -0.4479  0.8654
  461TMC3    C5 6916   3.466   3.713  10.084 -0.5197 -0.3495  0.4699
  461TMC3    C6 6917   3.453   3.620   9.985 -0.2124 -0.4647  0.1487
  461TMC3     C 6918   3.622   3.506  10.335 -0.2950 -0.3100  0.1577
  461TMC3     O 6919   3.615   3.387  10.370  0.2598 -0.0804  0.1117
  461TMC3     H 6920   3.548   3.340  10.132 -0.0742  0.8192  1.2052
  461TMC3    H1 6921   3.520   3.741  10.294 -1.3064  0.6408  0.0709
  461TMC3    H2 6922   3.424   3.657   9.887 -1.9476 -0.6817  0.5730
  461TMC3    C7 6923   3.402   3.846  10.076  0.3548  0.4270  0.2177
  461TMC3    C8 6924   3.493   3.397   9.889 -0.7654  0.2057  0.2289
  461TMC3    O1 6925   3.377   3.885   9.961  0.5742 -0.2352 -0.4789
  461TMC3    O2 6926   3.577   3.310   9.904 -0.5942  0.4141 -0.1401
  462TMC3    C1 6927   4.156   0.769  17.690 -0.0013  0.5117 -0.1138
  462TMC3    C2 6928   4.271   0.742   0.013 -0.3901 -0.2152  0.7884
  462TMC3    C3 6929   4.296   0.611   0.042 -0.5297  0.0618  0.3887
  462TMC3    C4 6930   4.064   0.676  17.661  0.7780 -0.3640 -0.3756
  462TMC3    C5 6931   4.080   0.551  17.701 -0.0035  0.2276  0.2567
  462TMC3    C6 6932   4.195   0.515   0.018  0.3185  0.1917 -0.2339
  462TMC3     C 6933   4.144   0.913  17.643 -0.1619 -0.1486  0.2920
  462TMC3     O 6934   4.210   0.989  17.712 -0.4615  0.4388 -0.1714
  462TMC3     H 6935   4.346   0.819   0.010  1.7782 -2.4198 -2.5910
  462TMC3    H1 6936   3.977   0.705  17.604  1.2167  1.3370 -0.2015
  462TMC3    H2 6937   4.216   0.409   0.030 -0.4814  0.1223  0.5759
  462TMC3    C7 6938   3.992   0.444  17.671  0.3923  0.1967  0.2776
  462TMC3    C8 6939   4.436   0.581   0.052 -0.1318  0.3737  0.2936
  462TMC3    O1 6940   4.010   0.346  17.736  0.1802  0.2879 -0.3349
  462TMC3    O2 6941   4.512   0.661   0.108 -0.2397 -0.2916  0.2702
  463MPD2     C 6942   1.133   3.430   1.275 -0.4183  0.2684 -0.4624
  463MPD2    C1 6943   1.057   3.544   1.276  0.7462  0.2145 -0.1576
  463MPD2    C2 6944   1.122   3.668   1.256 -0.3621  0.6825  0.0045
  463MPD2    C3 6945   1.257   3.670   1.234  0.1145 -0.1836  0.2918
  463MPD2    C4 6946   1.332   3.557   1.215 -0.0650 -0.2192  0.2178
  463MPD2    C5 6947   1.271   3.436   1.238 -0.2722 -0.0993 -0.4154
  463MPD2     H 6948   1.066   3.761   1.258 -1.4963  0.0004  0.2853
  463MPD2    H1 6949   1.439   3.563   1.196 -0.7593  1.8985 -3.0509
  463MPD2    H2 6950   1.091   3.331   1.285 -2.4520  1.1589 -0.2145
  463MPD2    H3 6951   1.340   3.353   1.232  0.9266  1.0508 -2.1967
  463MPD2     N 6952   1.325   3.795   1.210  0.4192 -0.0723 -0.5655
  463MPD2    H5 6953   1.412   3.787   1.160  1.0286 -0.4690  0.5638
  463MPD2    N1 6954   0.915   3.547   1.292 -0.0730 -0.7951  0.2452
  463MPD2    H7 6955   0.875   3.639   1.279 -2.2186 -1.5864  1.3552
  464TMC3    C1 6956   0.698   3.468   1.346 -0.2310  0.1398  0.1188
  464TMC3    C2 6957   0.649   3.592   1.322  0.3507  0.2874 -0.0049
  464TMC3    C3 6958   0.518   3.612   1.353 -0.1717  0.5623 -0.2138
  464TMC3    C4 6959   0.620   3.357   1.369 -0.5170  0.5133 -0.2592
  464TMC3    C5 6960   0.485   3.377   1.379  0.9098 -0.0084  0.1345
  464TMC3    C6 6961   0.431   3.503   1.376  0.0097  0.1568  0.7830
  464TMC3     C 6962   0.840   3.441   1.350  0.6356 -0.5282 -0.0885
  464TMC3     O 6963   0.875   3.331   1.393  0.1618 -0.3863  0.0734
  464TMC3     H 6964   0.713   3.675   1.296 -0.2619  1.1627  1.3303
  464TMC3    H1 6965   0.661   3.257   1.360  1.6244  1.4229 -0.5679
  464TMC3    H2 6966   0.324   3.515   1.383 -0.1780  0.2729 -2.2610
  464TMC3    C7 6967   0.417   3.267   1.439 -0.0187  0.3356  0.0969
  464TMC3    C8 6968   0.453   3.737   1.341 -0.5505 -0.7539  0.8308
  464TMC3    O1 6969   0.481   3.209   1.526  0.3369  0.3699 -0.4285
  464TMC3    O2 6970   0.333   3.741   1.332 -0.1495  1.0270 -0.4942
  465MPD2     C 6971   1.398   2.118  16.960  0.3392 -0.0845 -0.0402
  465MPD2    C1 6972   1.291   2.179  17.019  0.2456  0.6303  0.6288
  465MPD2    C2 6973   1.164   2.177  16.969 -0.5582 -0.3808 -0.1600
  465MPD2    C3 6974   1.145   2.112  16.847 -0.4521 -0.2356 -0.0008
  465MPD2    C4 6975   1.254   2.057  16.780  0.7065 -0.0843  0.3791
  465MPD2    C5 6976   1.381   2.061  16.832  0.1249 -0.1977 -0.0237
  465MPD2     H 6977   1.082   2.229  17.017 -1.4121 -1.5225 -0.3909
  465MPD2    H1 6978   1.247   2.007  16.685 -1.9276  0.3826  0.3165
  465MPD2    H2 6979   1.498   2.115  17.002  1.1545 -1.4334 -2.0761
  465MPD2    H3 6980   1.462   2.013  16.780 -0.2652 -1.2253  0.3182
  465MPD2     N 6981   1.009   2.112  16.791 -0.1509  0.0312 -0.3322
  465MPD2    H5 6982   0.935   2.143  16.854  0.2852  2.7276 -1.1467
  465MPD2    N1 6983   1.311   2.222  17.154 -1.1484  0.1606  0.5796
  465MPD2    H7 6984   1.226   2.258  17.196 -1.1361 -1.4905  1.9733
  466TMC3    C1 6985   0.725   2.297  16.734  0.4273  0.4667 -0.1987
  466TMC3    C2 6986   0.728   2.383  16.624  0.5291  0.0096 -0.9118
  466TMC3    C3 6987   0.797   2.333  16.513  0.2422 -0.5403 -0.2934
  466TMC3    C4 6988   0.779   2.172  16.732  0.1479  0.0475  0.3288
  466TMC3    C5 6989   0.854   2.135  16.619 -0.1473 -0.5347 -0.1328
  466TMC3    C6 6990   0.859   2.212  16.513 -0.2020  0.2788 -0.3251
  466TMC3     C 6991   0.746   2.353  16.863  0.8663  0.6181 -0.7335
  466TMC3     O 6992   0.828   2.290  16.929 -0.5753 -0.2479  0.9382
  466TMC3     H 6993   0.665   2.471  16.616  0.5751  0.1088 -0.1586
  466TMC3    H1 6994   0.775   2.102  16.814 -0.4824  0.0195  0.2733
  466TMC3    H2 6995   0.921   2.186  16.428 -0.6454 -0.9322 -0.2794
  466TMC3    C7 6996   0.991   2.102  16.652 -0.1880 -0.2248  0.2554
  466TMC3    C8 6997   0.833   2.427  16.409  0.2106 -0.0323  0.1137
  466TMC3    O1 6998   1.079   2.119  16.567 -0.0259 -0.0533 -0.0289
  466TMC3    O2 6999   0.848   2.396  16.293  0.2766  0.6327  0.6463
  467TMC3    C1 7000   2.187   0.602  13.889 -0.1122 -0.3109  0.2700
  467TMC3    C2 7001   2.127   0.617  13.770  0.8356 -0.1164 -0.1442
  467TMC3    C3 7002   1.999   0.663  13.763  0.2084  0.4008  0.6705
  467TMC3    C4 7003   2.118   0.605  14.004  0.1527 -0.2197 -0.1308
  467TMC3    C5 7004   1.980   0.632  13.999 -0.0009 -0.2681  0.1079
  467TMC3    C6 7005   1.925   0.680  13.884  0.1898 -0.2387 -0.2560
  467TMC3     C 7006   2.327   0.624  13.896  0.4674  0.9688  0.7661
  467TMC3     O 7007   2.369   0.664  14.003 -0.3732  0.3301 -0.1886
  467TMC3     H 7008   2.178   0.619  13.674 -0.3816 -1.1726 -0.8084
  467TMC3    H1 7009   2.166   0.577  14.097 -0.2547 -1.6213 -0.3367
  467TMC3    H2 7010   1.818   0.699  13.875 -0.0183 -0.1724  2.5550
  467TMC3    C7 7011   1.915   0.529  14.072  0.2224 -0.7541  0.4453
  467TMC3    C8 7012   1.960   0.734  13.640 -0.1465  0.2954 -0.9090
  467TMC3    O1 7013   1.984   0.475  14.159 -0.7318 -0.2786  0.0910
  467TMC3    O2 7014   2.023   0.710  13.539 -0.1830  0.3907 -0.5545
  468MPD2     C 7015   0.918   3.105  10.666  0.0033 -0.2806 -0.2309
  468MPD2    C1 7016   1.048   3.097  10.613  0.4195 -0.2530  0.6634
  468MPD2    C2 7017   1.091   2.974  10.553  0.1290  0.7424  0.0311
  468MPD2    C3 7018   1.012   2.864  10.561  0.3190 -0.4559 -0.1874
  468MPD2    C4 7019   0.878   2.882  10.596 -0.2619  0.0636  0.1981
  468MPD2    C5 7020   0.840   2.997  10.653 -0.6927 -0.1614  0.0439
  468MPD2     H 7021   1.191   2.968  10.514  0.7259 -0.5648  1.7615
  468MPD2    H1 7022   0.806   2.801  10.590  1.6965 -1.5268 -1.7450
  468MPD2    H2 7023   0.879   3.185  10.729  1.2414  0.7945 -0.8388
  468MPD2    H3 7024   0.740   2.994  10.695 -0.9170  1.7558 -0.3746
  468MPD2     N 7025   1.064   2.731  10.550 -0.6042  0.2778  0.3660
  468MPD2    H5 7026   0.989   2.662  10.558  0.0195 -0.5734 -1.0769
  468MPD2    N1 7027   1.147   3.194  10.623  0.1547 -0.4732  0.3861
  468MPD2    H7 7028   1.231   3.166  10.572  1.4699  0.8942  1.7896
  469TMC3    C1 7029   1.263   3.388  10.694  0.2584  0.2420  0.6423
  469TMC3    C2 7030   1.379   3.320  10.677  0.5135  0.4668  0.2281
  469TMC3    C3 7031   1.489   3.378  10.727  0.8131 -0.2186  0.1380
  469TMC3    C4 7032   1.254   3.515  10.751  0.4372  0.1097  0.6199
  469TMC3    C5 7033   1.372   3.572  10.789  0.1618  0.0130  0.2653
  469TMC3    C6 7034   1.487   3.506  10.779 -0.7182  0.0288 -0.0520
  469TMC3     C 7035   1.133   3.321  10.673 -0.3245 -0.0441 -0.3932
  469TMC3     O 7036   1.032   3.384  10.703 -0.5822 -0.6424  0.0280
  469TMC3     H 7037   1.388   3.212  10.667 -3.2097  0.3127 -1.5076
  469TMC3    H1 7038   1.161   3.568  10.768  1.2784  2.3005 -1.6484
  469TMC3    H2 7039   1.582   3.550  10.805 -0.0723 -0.1148 -2.1474
  469TMC3    C7 7040   1.366   3.676  10.888  0.2040 -1.0242 -0.3598
  469TMC3    C8 7041   1.612   3.301  10.717  0.4070 -0.3849  0.7072
  469TMC3    O1 7042   1.258   3.738  10.888  0.2471 -0.3888  0.2767
  469TMC3    O2 7043   1.619   3.217  10.629 -0.1300  0.0264 -0.1490
  470TMC3    C1 7044   2.969   0.840   0.251  1.0947  0.3709 -0.4324
  470TMC3    C2 7045   3.041   0.927   0.326 -0.3949  0.1595  0.2808
  470TMC3    C3 7046   3.179   0.905   0.331 -0.1790 -0.0088  0.5591
  470TMC3    C4 7047   3.028   0.726   0.191  0.1321 -0.3087  0.4861
  470TMC3    C5 7048   3.159   0.707   0.214  0.1495 -0.0053 -0.2407
  470TMC3    C6 7049   3.242   0.791   0.282 -0.9128 -0.7369  0.3188
  470TMC3     C 7050   2.829   0.869   0.221 -0.1072  0.0512  0.8032
  470TMC3     O 7051   2.791   0.831   0.111 -0.1015  0.2210 -0.2800
  470TMC3     H 7052   2.995   1.009   0.380  1.7876 -0.1294  2.5514
  470TMC3    H1 7053   2.976   0.653   0.131 -1.9926  2.4661 -1.0632
  470TMC3    H2 7054   3.349   0.779   0.295 -0.8640  0.9020  1.5098
  470TMC3    C7 7055   3.227   0.600   0.138 -0.0971  0.0923  0.4656
  470TMC3    C8 7056   3.261   0.975   0.434  0.5469 -0.3900  0.8448
  470TMC3    O1 7057   3.182   0.563   0.030  0.1110  0.5953 -0.1893
  470TMC3    O2 7058   3.220   0.985   0.550  0.2492  0.1856  0.0632
  471MPD2     C 7059   3.323   1.236  16.593  0.1873 -0.5241 -0.3335
  471MPD2    C1 7060   3.350   1.111  16.554 -0.2599  0.2884 -0.5986
  471MPD2    C2 7061   3.474   1.060  16.590 -0.1694  0.2082 -0.1047
  471MPD2    C3 7062   3.578   1.141  16.648  0.3895  0.8225 -0.0997
  471MPD2    C4 7063   3.545   1.271  16.678  0.0407 -0.6623 -0.4253
  471MPD2    C5 7064   3.423   1.320  16.645  0.0509  0.0439 -0.7792
  471MPD2     H 7065   3.486   0.956  16.560  1.5671 -0.1726  1.8876
  471MPD2    H1 7066   3.613   1.347  16.715 -1.0304  0.5168 -0.8613
  471MPD2    H2 7067   3.229   1.286  16.574  0.1895 -0.6727 -0.7347
  471MPD2    H3 7068   3.408   1.427  16.651 -0.6517 -0.1564  1.0086
  471MPD2     N 7069   3.710   1.098  16.678  0.6485  0.5616  0.4836
  471MPD2    H5 7070   3.779   1.161  16.720 -0.2350  2.7901 -1.3773
  471MPD2    N1 7071   3.268   1.022  16.481  0.5483  0.0899 -0.5976
  471MPD2    H7 7072   3.308   0.933  16.451  1.1941  0.3820 -0.6109
  472TMC3    C1 7073   3.074   0.948  16.372 -0.1539 -0.0738 -0.1819
  472TMC3    C2 7074   2.947   0.935  16.417  0.3996 -0.3788 -0.3703
  472TMC3    C3 7075   2.895   0.811  16.414  0.3656 -0.0509 -0.1371
  472TMC3    C4 7076   3.149   0.843  16.334  0.4716 -0.0595  0.0892
  472TMC3    C5 7077   3.105   0.716  16.347  1.0432  0.0540  0.2575
  472TMC3    C6 7078   2.971   0.697  16.383  0.2952  0.6061 -0.4431
  472TMC3     C 7079   3.146   1.055  16.432  0.5454  0.2264 -0.1957
  472TMC3     O 7080   3.083   1.161  16.446  0.0131 -0.2356 -0.0316
  472TMC3     H 7081   2.890   1.022  16.449  2.6466  0.6646  0.7656
  472TMC3    H1 7082   3.244   0.871  16.289  0.3912 -0.1682 -0.1462
  472TMC3    H2 7083   2.932   0.597  16.367 -0.2173  0.2780  2.8586
  472TMC3    C7 7084   3.182   0.598  16.312 -0.9514 -0.3575 -0.8849
  472TMC3    C8 7085   2.758   0.796  16.453  0.3349  0.2621  0.3347
  472TMC3    O1 7086   3.148   0.496  16.374 -0.5312 -0.2911 -0.5386
  472TMC3    O2 7087   2.687   0.900  16.451 -0.2839  0.1168 -0.0312
  473MPD2     C 7088   4.172   2.744  13.936  0.4048 -0.1601  0.7034
  473MPD2    C1 7089   4.066   2.820  13.890  0.0540 -0.0873  0.0790
  473MPD2    C2 7090   4.061   2.949  13.932 -0.6500  0.2861  0.1636
  473MPD2    C3 7091   4.144   3.007  14.021 -0.4694 -0.3474  0.2839
  473MPD2    C4 7092   4.232   2.924  14.081  1.1917 -0.8013 -0.0847
  473MPD2    C5 7093   4.255   2.800  14.033 -0.3040  0.2087 -0.0290
  473MPD2     H 7094   3.975   2.999  13.890 -0.0864  0.1564 -1.1546
  473MPD2    H1 7095   4.309   2.954  14.151 -0.1318  0.9625  0.6301
  473MPD2    H2 7096   4.193   2.644  13.899  0.2088 -0.7798  2.2626
  473MPD2    H3 7097   4.348   2.748  14.057  0.0166  0.3417 -0.9606
  473MPD2     N 7098   4.128   3.148  14.068  0.0825  0.3026  0.0150
  473MPD2    H5 7099   4.182   3.186  14.144  2.5617 -2.0289 -0.6137
  473MPD2    N1 7100   3.972   2.776  13.789 -0.3794 -0.1493 -0.6277
  473MPD2    H7 7101   3.910   2.846  13.749 -0.2851  0.8967  1.0267
  474TMC3    C1 7102   4.066   3.368  14.065  0.6340  0.6059 -0.7730
  474TMC3    C2 7103   3.961   3.442  14.098  0.2149  0.5841  0.8419
  474TMC3    C3 7104   3.994   3.558  14.162  0.1009  0.7504 -0.0300
  474TMC3    C4 7105   4.200   3.398  14.086 -0.6238 -0.1020 -0.3208
  474TMC3    C5 7106   4.221   3.493  14.182  0.0914  0.4370 -0.1317
  474TMC3    C6 7107   4.116   3.568  14.218 -0.0017  0.1109  0.2094
  474TMC3     C 7108   4.038   3.235  14.014 -0.5685  0.0329  0.4154
  474TMC3     O 7109   3.947   3.219  13.935  0.6953  0.1712  0.0241
  474TMC3     H 7110   3.859   3.413  14.076  1.0575 -0.5257 -1.7037
  474TMC3    H1 7111   4.281   3.345  14.038 -0.0558  1.8487 -1.5405
  474TMC3    H2 7112   4.126   3.662  14.271  2.2630  1.7238 -3.0973
  474TMC3    C7 7113   4.359   3.516  14.240  0.1843 -0.1681  0.4923
  474TMC3    C8 7114   3.892   3.648  14.215 -0.1520  0.3730  0.2425
  474TMC3    O1 7115   4.454   3.485  14.170 -1.0492  0.1675 -0.3858
  474TMC3    O2 7116   3.798   3.597  14.270  0.0852  0.1623  0.0132
  475MPD2     C 7117   1.821   0.518   9.700 -0.2742  0.1228  0.0332
  475MPD2    C1 7118   1.812   0.648   9.745  0.4177 -0.7690  0.7877
  475MPD2    C2 7119   1.687   0.702   9.781  0.9691  0.2117  0.1721
  475MPD2    C3 7120   1.577   0.629   9.760 -0.5899 -0.2700 -0.0564
  475MPD2    C4 7121   1.588   0.499   9.718  0.3441  0.0183 -0.9623
  475MPD2    C5 7122   1.706   0.443   9.692  0.7321 -0.0548  0.0103
  475MPD2     H 7123   1.674   0.806   9.810 -1.7329 -0.2484  0.6069
  475MPD2    H1 7124   1.504   0.431   9.703 -0.3212  0.6993 -0.3435
  475MPD2    H2 7125   1.913   0.464   9.683 -0.4382 -0.3027  0.4699
  475MPD2    H3 7126   1.715   0.336   9.681 -1.5873 -0.1431 -1.0301
  475MPD2     N 7127   1.453   0.693   9.777 -0.2349  0.1928  0.5929
  475MPD2    H5 7128   1.448   0.794   9.785  0.4080  0.0719  2.3701
  475MPD2    N1 7129   1.920   0.735   9.757 -0.4288 -0.3509 -0.7161
  475MPD2    H7 7130   1.897   0.831   9.779 -1.2706 -0.8376  0.5573
  476TMC3    C1 7131   2.134   0.816   9.787  0.1720  0.2494  0.4223
  476TMC3    C2 7132   2.178   0.894   9.685 -1.0753 -0.1605  0.0035
  476TMC3    C3 7133   2.185   1.033   9.703  0.7659 -0.2933 -0.4032
  476TMC3    C4 7134   2.116   0.876   9.907  0.0356  0.2913 -0.1757
  476TMC3    C5 7135   2.155   1.004   9.935 -0.0834  0.0512  0.5023
  476TMC3    C6 7136   2.180   1.088   9.833  0.4531 -0.7619 -0.0089
  476TMC3     C 7137   2.056   0.702   9.744  0.0540 -1.0880 -0.3227
  476TMC3     O 7138   2.111   0.618   9.675 -0.1312  0.4496  0.6930
  476TMC3     H 7139   2.192   0.854   9.585  0.2546  0.9068 -0.2390
  476TMC3    H1 7140   2.063   0.808   9.973  0.6919  0.2995  0.3717
  476TMC3    H2 7141   2.191   1.195   9.848 -2.7266 -0.3138 -0.9703
  476TMC3    C7 7142   2.239   1.010  10.049 -0.5545 -0.1428 -0.5596
  476TMC3    C8 7143   2.088   1.100   9.621  0.0955  0.2840 -0.1095
  476TMC3    O1 7144   2.294   0.906  10.079 -0.2623  0.3201  0.2703
  476TMC3    O2 7145   2.071   1.216   9.642  0.0641  0.5824  0.1398
  477MPD2     C 7146   4.643   2.397  11.452 -0.1140 -0.1016 -0.7918
  477MPD2    C1 7147   4.540   2.311  11.468 -0.1570 -0.3483  1.0215
  477MPD2    C2 7148   4.562   2.194  11.546  0.3303  0.0327  0.7894
  477MPD2    C3 7149   4.686   2.176  11.602 -0.4115  0.1006  0.1120
  477MPD2    C4 7150   0.053   2.258  11.569  0.3579  0.0475 -0.0832
  477MPD2    C5 7151   0.029   2.373  11.497 -0.2967 -0.3062 -0.0597
  477MPD2     H 7152   4.472   2.148  11.584 -0.7152  0.7981 -0.7272
  477MPD2    H1 7153   0.153   2.243  11.609  0.8114 -1.1221 -1.6312
  477MPD2    H2 7154   4.621   2.482  11.389  1.1324  3.0476  3.0354
  477MPD2    H3 7155   0.118   2.434  11.486 -0.5459  0.1132  0.2372
  477MPD2     N 7156   4.720   2.077  11.693  0.4677 -0.5039  0.2804
  477MPD2    H5 7157   0.077   2.046  11.705  0.4955 -0.3619  0.4151
  477MPD2    N1 7158   4.412   2.343  11.404  0.4397 -0.3930  0.2427
  477MPD2    H7 7159   4.414   2.413  11.330  0.3670 -1.2742 -0.5919
  478TMC3    C1 7160   4.176   2.317  11.347 -0.0219  0.1974  0.1638
  478TMC3    C2 7161   4.059   2.302  11.417  0.6599 -0.2701 -0.1473
  478TMC3    C3 7162   3.952   2.359  11.357  0.0167  0.5764  0.7668
  478TMC3    C4 7163   4.185   2.383  11.225 -0.3042 -0.4407  0.1379
  478TMC3    C5 7164   4.074   2.438  11.169 -0.0912  0.3277 -0.1203
  478TMC3    C6 7165   3.959   2.426  11.241  0.1056 -0.3788 -0.4012
  478TMC3     C 7166   4.290   2.278  11.429  0.3312 -0.4460 -0.2694
  478TMC3     O 7167   4.267   2.194  11.515 -0.6001  0.2729  0.0581
  478TMC3     H 7168   4.041   2.236  11.501  1.0019 -0.4364 -0.2053
  478TMC3    H1 7169   4.280   2.406  11.178 -0.3108  1.4335  1.0055
  478TMC3    H2 7170   3.869   2.463  11.193  0.2507  1.4010  0.7354
  478TMC3    C7 7171   4.074   2.453  11.026  0.8315 -0.1418 -0.0150
  478TMC3    C8 7172   3.834   2.379  11.437 -0.1207  0.0737  0.4160
  478TMC3    O1 7173   4.166   2.396  10.968  0.1815 -0.3115 -0.2046
  478TMC3    O2 7174   3.820   2.309  11.535  0.4196 -0.3738 -0.5590
  479MPD2     C 7175   3.805   0.353  15.235 -0.0907 -0.3780 -0.3508
  479MPD2    C1 7176   3.708   0.315  15.331  0.0262 -0.3310 -0.7949
  479MPD2    C2 7177   3.764   0.302  15.457 -0.1175 -0.1217 -0.6165
  479MPD2    C3 7178   3.900   0.323  15.486  0.0643 -0.7253 -0.2941
  479MPD2    C4 7179   3.985   0.363  15.390  0.2306 -0.3794  0.0777
  479MPD2    C5 7180   3.928   0.384  15.268  0.1007 -0.0583  0.0410
  479MPD2     H 7181   3.705   0.255  15.536  3.1175 -1.3291  1.0911
  479MPD2    H1 7182   4.086   0.395  15.412 -0.5032  1.9162  0.1450
  479MPD2    H2 7183   3.771   0.352  15.132 -0.6334 -1.3223 -0.1616
  479MPD2    H3 7184   3.982   0.415  15.179  1.7879 -3.4010 -0.0743
  479MPD2     N 7185   3.964   0.312  15.614  0.2739 -0.0972  0.6996
  479MPD2    H5 7186   4.065   0.313  15.605  0.1680  1.4439 -0.3848
  479MPD2    N1 7187   3.573   0.309  15.301  0.0641 -0.0237 -0.6782
  479MPD2    H7 7188   3.552   0.337  15.205  1.1438  1.6450 -0.4342
  480TMC3    C1 7189   3.575   0.254  15.874 -0.1709 -0.4366 -0.2440
  480TMC3    C2 7190   3.499   0.354  15.820 -0.3021  0.4041 -0.1955
  480TMC3    C3 7191   3.566   0.446  15.743 -0.6330  0.0353 -0.1448
  480TMC3    C4 7192   3.713   0.248  15.851  0.6450  0.4733 -0.3584
  480TMC3    C5 7193   3.773   0.336  15.764 -0.3907  0.8072  0.1466
  480TMC3    C6 7194   3.699   0.438  15.705  0.0330 -0.1825 -0.4515
  480TMC3     C 7195   3.512   0.151  15.955  0.3159 -0.2566  0.7002
  480TMC3     O 7196   3.557   0.037  15.944  0.1397 -0.3488 -0.5139
  480TMC3     H 7197   3.391   0.352  15.817 -0.2819 -1.3030  0.6615
  480TMC3    H1 7198   3.761   0.159  15.891 -1.2884 -0.5767 -0.3637
  480TMC3    H2 7199   3.759   0.516  15.659  2.7939  0.4302  4.1788
  480TMC3    C7 7200   3.915   0.323  15.745 -0.0267  0.3669  0.0030
  480TMC3    C8 7201   3.483   0.526  15.659  0.5455  0.4045  0.1262
  480TMC3    O1 7202   3.977   0.313  15.852 -0.1713 -0.2543 -0.6533
  480TMC3    O2 7203   3.364   0.541  15.693  0.3670  0.1220  0.1824
  481MPD2     C 7204   0.443   3.914  13.741 -0.1617 -0.0669 -0.0693
  481MPD2    C1 7205   0.332   3.944  13.817  0.4097 -0.6349  0.7380
  481MPD2    C2 7206   0.346   4.001  13.941 -0.0130 -0.4249 -0.2351
  481MPD2    C3 7207   0.474   4.026  13.986 -0.1321 -0.0821  0.5478
  481MPD2    C4 7208   0.588   3.991  13.913 -0.7780  0.4558 -0.5425
  481MPD2    C5 7209   0.568   3.926  13.797 -0.1635 -0.2791  0.1003
  481MPD2     H 7210   0.260   4.009  14.006 -2.2313  1.5337 -3.3799
  481MPD2    H1 7211   0.689   4.000  13.950 -0.4676 -0.3573 -1.1749
  481MPD2    H2 7212   0.443   3.872  13.642  0.1133 -2.7087  1.0618
  481MPD2    H3 7213   0.649   3.895  13.732  0.2752  0.5378  0.2470
  481MPD2     N 7214   0.501   4.108  14.102 -0.0495 -0.4045 -0.1313
  481MPD2    H5 7215   0.596   4.145  14.107  0.4769 -1.5487 -1.6460
  481MPD2    N1 7216   0.211   3.913  13.760  0.2920  0.5019 -0.2225
  481MPD2    H7 7217   0.208   3.879  13.664  0.9551 -0.6165  0.1487
  482TMC3    C1 7218   4.709   3.930  13.722 -0.0805 -0.1130  0.0701
  482TMC3    C2 7219   4.723   3.866  13.601  0.0281 -1.1037  0.1897
  482TMC3    C3 7220   4.615   3.872  13.510 -0.2934  0.1951 -0.0274
  482TMC3    C4 7221   4.604   4.008  13.752  0.3977 -0.1982 -0.7346
  482TMC3    C5 7222   4.503   4.005  13.667 -0.4369 -0.0442 -0.1713
  482TMC3    C6 7223   4.504   3.932  13.549  0.1947  0.1463  0.3163
  482TMC3     C 7224   0.083   3.939  13.815 -0.6255 -0.4598  0.0063
  482TMC3     O 7225   0.048   3.973  13.926  0.1375  0.1107 -0.3303
  482TMC3     H 7226   0.066   3.801  13.571  1.7049  0.6438  0.9134
  482TMC3    H1 7227   4.605   4.084  13.829  1.7876 -2.9367  1.9174
  482TMC3    H2 7228   4.417   3.933  13.485  0.0431  0.7307  0.5248
  482TMC3    C7 7229   4.408   4.119  13.675 -0.1548 -0.2615 -0.2815
  482TMC3    C8 7230   4.596   3.770  13.411 -0.5085 -0.0032 -0.5234
  482TMC3    O1 7231   4.366   4.152  13.784 -0.4312  0.0042 -0.0156
  482TMC3    O2 7232   4.655   3.664  13.429  0.8088  0.2665 -0.4285
  483TMC3    C1 7233   2.934   4.277   0.880  0.1210  0.3697 -0.1127
  483TMC3    C2 7234   3.013   4.374   0.816  0.2787 -0.4266  0.2990
  483TMC3    C3 7235   3.143   4.366   0.847 -0.2135 -0.5278 -0.3023
  483TMC3    C4 7236   2.975   4.186   0.976  0.0537 -0.1923  0.3846
  483TMC3    C5 7237   3.109   4.192   1.008  0.6336  0.1379  0.1456
  483TMC3    C6 7238   3.193   4.272   0.936 -0.3664  0.3849  0.3013
  483TMC3     C 7239   2.804   4.240   0.821 -0.5230  0.2949 -0.3714
  483TMC3     O 7240   2.726   4.328   0.796  0.3867  0.3630  0.0691
  483TMC3     H 7241   2.974   4.435   0.735  0.4208 -0.5405  0.1437
  483TMC3    H1 7242   2.897   4.129   1.025  0.1236 -1.6272 -1.1618
  483TMC3    H2 7243   3.299   4.277   0.961 -0.4566  0.1417  0.7363
  483TMC3    C7 7244   3.157   4.101   1.105 -0.6453 -0.6691  0.0857
  483TMC3    C8 7245   3.232   4.414   0.744 -0.1272 -0.2876 -0.0305
  483TMC3    O1 7246   3.277   4.068   1.097 -0.1091 -0.4616  0.1887
  483TMC3    O2 7247   3.192   4.415   0.627  0.1765  0.0904 -0.0508
  484MPD2     C 7248   0.749   1.750  12.433 -0.3100  0.7351  0.3312
  484MPD2    C1 7249   0.699   1.651  12.355  0.6016  0.0094 -0.4303
  484MPD2    C2 7250   0.764   1.621  12.234  0.2334  0.5585  0.1959
  484MPD2    C3 7251   0.874   1.699  12.198  0.1111 -0.6227  0.6662
  484MPD2    C4 7252   0.931   1.795  12.283  0.5631 -0.1164  1.1245
  484MPD2    C5 7253   0.866   1.817  12.401  0.1741 -0.5016 -0.3224
  484MPD2     H 7254   0.736   1.531  12.180  1.3178 -1.4333  2.9441
  484MPD2    H1 7255   1.019   1.854  12.265 -1.9656  3.0192 -0.9202
  484MPD2    H2 7256   0.704   1.777  12.528 -0.0636 -1.0584  0.9601
  484MPD2    H3 7257   0.909   1.879  12.479  1.0815  1.1962 -2.1547
  484MPD2     N 7258   0.945   1.676  12.073  0.5016 -0.0732  0.9567
  484MPD2    H5 7259   1.021   1.742  12.057  0.8864 -0.8262 -0.3016
  484MPD2    N1 7260   0.584   1.584  12.399 -0.1279  0.4404 -0.1863
  484MPD2    H7 7261   0.558   1.601  12.496 -1.3102 -0.2965 -0.3770
  485TMC3    C1 7262   1.008   1.577  11.867  0.5557  0.0722  0.2248
  485TMC3    C2 7263   1.109   1.667  11.858  0.5746 -1.1065  0.3407
  485TMC3    C3 7264   1.168   1.675  11.732  0.0780 -0.5703  0.3452
  485TMC3    C4 7265   0.960   1.504  11.764 -0.2940 -0.9065  0.2782
  485TMC3    C5 7266   1.018   1.518  11.639  0.2096 -0.0917  0.2071
  485TMC3    C6 7267   1.117   1.607  11.615 -0.0856  0.4274  0.6939
  485TMC3     C 7268   0.914   1.583  11.977 -0.5406 -0.4780 -0.7712
  485TMC3     O 7269   0.819   1.505  11.973 -0.5291  0.4246  0.0743
  485TMC3     H 7270   1.136   1.732  11.941 -1.4715 -0.3752  0.4439
  485TMC3    H1 7271   0.871   1.443  11.770 -0.0496 -1.3351 -0.4887
  485TMC3    H2 7272   1.161   1.619  11.517 -1.1211  2.8973  0.5280
  485TMC3    C7 7273   1.034   1.408  11.554  0.1471 -0.1546  0.4002
  485TMC3    C8 7274   1.302   1.712  11.707  0.3730 -0.1438 -0.3739
  485TMC3    O1 7275   1.082   1.420  11.443  0.9578  0.7065  0.0830
  485TMC3    O2 7276   1.387   1.681  11.786  0.2415 -0.2927  0.2063
  486MPD2     C 7277   3.373   0.262  13.026 -0.0512  0.7346  0.2397
  486MPD2    C1 7278   3.387   0.265  12.889 -0.6894  0.1958  0.4979
  486MPD2    C2 7279   3.309   0.366  12.825 -0.2311 -0.1911 -0.2514
  486MPD2    C3 7280   3.223   0.448  12.893  0.7839 -0.3936  0.5710
  486MPD2    C4 7281   3.199   0.429  13.026  0.5071  0.3542  1.0206
  486MPD2    C5 7282   3.281   0.337  13.088  0.0911  0.3775  0.5181
  486MPD2     H 7283   3.312   0.376  12.717  0.4890  1.3798 -0.0796
  486MPD2    H1 7284   3.137   0.490  13.091  0.4928  1.1977  0.2082
  486MPD2    H2 7285   3.442   0.205  13.086 -0.4931 -0.7268 -0.6508
  486MPD2    H3 7286   3.281   0.336  13.196  0.3971 -1.6937  0.4929
  486MPD2     N 7287   3.157   0.551  12.820 -0.4073  0.2124  0.0147
  486MPD2    H5 7288   3.170   0.550  12.720  0.8775  1.0234  0.1616
  486MPD2    N1 7289   3.464   0.168  12.823  0.6059  0.5856  0.1813
  486MPD2    H7 7290   3.510   0.103  12.885 -1.9298 -1.3608  0.0500
  487TMC3    C1 7291   3.562   0.052  12.650  0.3912 -1.1005 -0.7267
  487TMC3    C2 7292   3.465   4.720  12.578 -0.7551  0.2238 -0.7907
  487TMC3    C3 7293   3.457   4.592  12.594 -1.0846  0.4595  0.0446
  487TMC3    C4 7294   3.634   4.733  12.749  0.0511  0.0388  0.4001
  487TMC3    C5 7295   3.623   4.598  12.759  0.0707 -0.2615  0.7461
  487TMC3    C6 7296   3.543   4.528  12.675 -0.9561 -0.4467 -0.3027
  487TMC3     C 7297   3.496   0.176  12.685  0.2101 -0.5421  0.2326
  487TMC3     O 7298   3.464   0.248  12.592  0.1128 -0.2519 -0.7332
  487TMC3     H 7299   3.403   0.029  12.503 -3.3118  0.7584  1.6720
  487TMC3    H1 7300   3.714   0.050  12.796  0.0098  1.1200 -0.8367
  487TMC3    H2 7301   3.517   4.425  12.697  1.4823 -0.8410  0.7063
  487TMC3    C7 7302   3.577   4.579  12.902  0.2551  1.1861  0.1691
  487TMC3    C8 7303   3.323   4.559  12.633 -0.2689 -0.4016  0.1553
  487TMC3    O1 7304   3.598   4.676  12.977  0.1109 -0.1920  0.0304
  487TMC3    O2 7305   3.270   4.647  12.697 -0.2728 -0.0166  0.7611
  488MPD2     C 7306   3.018   2.082  16.062 -0.1392  0.6640 -0.0676
  488MPD2    C1 7307   3.083   2.140  16.164 -0.5404  0.2828 -0.0708
  488MPD2    C2 7308   3.025   2.149  16.294  0.0341  0.5927 -0.2308
  488MPD2    C3 7309   2.896   2.102  16.315  0.1932 -0.2592 -0.5665
  488MPD2    C4 7310   2.828   2.045  16.208 -0.7181  0.6219  0.1276
  488MPD2    C5 7311   2.887   2.042  16.081  0.2677  0.8781  0.0269
  488MPD2     H 7312   3.087   2.192  16.371  0.4062  1.2821 -0.9119
  488MPD2    H1 7313   2.725   2.014  16.218 -0.7554  0.7226  0.0488
  488MPD2    H2 7314   3.065   2.071  15.965 -4.3168 -1.0879 -1.8849
  488MPD2    H3 7315   2.822   2.009  16.001 -1.3110 -0.9181  2.0377
  488MPD2     N 7316   2.838   2.119  16.444  0.2288 -0.4889  0.2444
  488MPD2    H5 7317   2.897   2.179  16.500 -0.9579  1.2430 -0.3743
  488MPD2    N1 7318   3.204   2.206  16.143  0.6393 -0.4668 -0.1467
  488MPD2    H7 7319   3.250   2.238  16.228 -2.1936  1.0795  0.7930
  489TMC3    C1 7320   2.700   2.147  16.629  0.3244 -0.1718 -0.0569
  489TMC3    C2 7321   2.793   2.229  16.687 -0.3459 -0.5839  0.2278
  489TMC3    C3 7322   2.777   2.274  16.818  0.4822 -0.7325 -0.4954
  489TMC3    C4 7323   2.590   2.108  16.712  0.1804  0.3621  0.1583
  489TMC3    C5 7324   2.588   2.142  16.845 -0.4432  0.0147  0.2658
  489TMC3    C6 7325   2.669   2.236  16.891  0.8166  0.2424  0.6031
  489TMC3     C 7326   2.710   2.094  16.491  0.1613 -0.2380 -0.1469
  489TMC3     O 7327   2.620   2.023  16.447 -0.4076 -0.2484  0.2820
  489TMC3     H 7328   2.868   2.276  16.624  0.0672 -0.2260  0.9843
  489TMC3    H1 7329   2.505   2.058  16.666  0.1054 -0.1046  0.8171
  489TMC3    H2 7330   2.653   2.259  16.996  2.7730  2.0982  0.4844
  489TMC3    C7 7331   2.481   2.090  16.923 -0.9297 -1.1608  0.3292
  489TMC3    C8 7332   2.858   2.381  16.857  0.4933  0.4203  0.7129
  489TMC3    O1 7333   2.448   2.158  17.019 -0.3066  0.0799 -0.2025
  489TMC3    O2 7334   2.954   2.404  16.787  0.3711  0.0219 -0.0094
  490MPD2     C 7335   4.093   1.659  17.140  0.6200  0.1225 -0.4946
  490MPD2    C1 7336   4.008   1.723  17.227  0.0883 -0.1160  0.3939
  490MPD2    C2 7337   4.052   1.822  17.305  0.1716 -0.7539  0.2612
  490MPD2    C3 7338   4.185   1.862  17.313  0.4822 -0.8129  0.1397
  490MPD2    C4 7339   4.275   1.793  17.229 -0.2817 -0.2160 -0.3610
  490MPD2    C5 7340   4.230   1.689  17.153 -0.8301  0.7565  0.3432
  490MPD2     H 7341   3.973   1.863  17.367  1.8461  1.9181  0.6126
  490MPD2    H1 7342   4.380   1.817  17.224 -0.5484  1.0838  0.0630
  490MPD2    H2 7343   4.054   1.589  17.066 -3.1669 -0.6587  2.2555
  490MPD2    H3 7344   4.308   1.650  17.088 -1.4801  0.0940 -0.0421
  490MPD2     N 7345   4.243   1.964  17.400 -0.1334  0.2365  0.1496
  490MPD2    H5 7346   4.344   1.956  17.408 -0.2545 -1.4417 -0.0133
  490MPD2    N1 7347   3.872   1.685  17.231 -0.3784  1.0096 -0.1424
  490MPD2    H7 7348   3.807   1.713  17.303 -0.9959 -0.0300 -0.3006
  491TMC3    C1 7349   3.665   1.580  17.185  0.5484 -0.7713  0.9039
  491TMC3    C2 7350   3.649   1.556  17.319 -0.1552  0.6914  0.7123
  491TMC3    C3 7351   3.539   1.496  17.359 -0.1563 -0.5385  0.6143
  491TMC3    C4 7352   3.573   1.573  17.091 -0.0046  0.0311  0.3210
  491TMC3    C5 7353   3.455   1.521  17.141  0.4729  0.5938 -0.6915
  491TMC3    C6 7354   3.434   1.475  17.270 -0.2286 -0.8187  0.2397
  491TMC3     C 7355   3.798   1.610  17.139  0.1002  0.6020  0.4780
  491TMC3     O 7356   3.825   1.587  17.020 -1.0837 -0.3486 -0.9288
  491TMC3     H 7357   3.732   1.563  17.388  0.6204  0.9399 -0.2522
  491TMC3    H1 7358   3.586   1.588  16.985  1.8003  1.9036  0.8084
  491TMC3    H2 7359   3.339   1.427  17.286  0.3540 -2.3448 -0.7934
  491TMC3    C7 7360   3.339   1.531  17.054 -0.1208 -0.0634  0.5199
  491TMC3    C8 7361   3.506   1.512  17.496  0.2914  0.2276  0.1339
  491TMC3    O1 7362   3.242   1.466  17.084  0.1333  0.0665 -0.7573
  491TMC3    O2 7363   3.579   1.582  17.558 -0.3390 -0.5172  0.1785
  492MPD2     C 7364   3.758   1.715  10.589 -0.1959 -0.5593  0.0102
  492MPD2    C1 7365   3.686   1.600  10.602 -0.0000  0.1828 -0.2516
  492MPD2    C2 7366   3.634   1.565  10.732  0.0189 -0.0671 -1.0587
  492MPD2    C3 7367   3.662   1.640  10.847  0.7124 -0.2933 -0.9062
  492MPD2    C4 7368   3.751   1.747  10.820  0.2216  0.2874  0.2216
  492MPD2    C5 7369   3.805   1.780  10.704 -0.3898  0.0135  0.0079
  492MPD2     H 7370   3.561   1.485  10.735 -0.1840  0.2067  0.8139
  492MPD2    H1 7371   3.792   1.794  10.909 -2.1715  1.0762  0.9184
  492MPD2    H2 7372   3.789   1.754  10.493  1.0593  0.7133  0.9226
  492MPD2    H3 7373   3.883   1.855  10.704 -2.0788  1.8018  1.8283
  492MPD2     N 7374   3.616   1.608  10.975  0.4833  0.7353  0.6832
  492MPD2    H5 7375   3.659   1.665  11.048  0.9222  1.6520 -0.2848
  492MPD2    N1 7376   3.660   1.531  10.488 -0.3353 -1.1273  0.4327
  492MPD2    H7 7377   3.701   1.554  10.398 -2.0357 -2.0363 -0.5762
  493TMC3    C1 7378   3.550   1.386  10.340 -0.4044  0.6079 -0.3548
  493TMC3    C2 7379   3.568   1.480  10.233 -0.3564 -0.2279 -0.6664
  493TMC3    C3 7380   3.510   1.454  10.109 -0.1905 -0.3479  0.7372
  493TMC3    C4 7381   3.480   1.270  10.326 -0.0468 -0.2435  0.1642
  493TMC3    C5 7382   3.431   1.248  10.198  0.1845 -0.1500 -0.6875
  493TMC3    C6 7383   3.441   1.340  10.095  0.1267  0.0515 -0.5493
  493TMC3     C 7384   3.576   1.418  10.478  0.5179  0.1997  0.2815
  493TMC3     O 7385   3.520   1.349  10.558  0.4387 -0.3202  0.1530
  493TMC3     H 7386   3.613   1.578  10.243 -0.8688 -0.1980  1.4393
  493TMC3    H1 7387   3.475   1.197  10.406  0.4327 -0.5117 -0.0505
  493TMC3    H2 7388   3.397   1.318   9.998  1.5957 -0.0403 -1.1969
  493TMC3    C7 7389   3.344   1.135  10.170  0.5611 -0.3156  0.5918
  493TMC3    C8 7390   3.564   1.502   9.984 -0.0959  0.0970  0.1228
  493TMC3    O1 7391   3.257   1.157  10.088  0.7777 -0.2715 -0.3858
  493TMC3    O2 7392   3.492   1.482   9.887 -0.4193 -0.3040 -0.4373
  494TMC3    C1 7393   4.448   3.691   0.548  0.0326 -0.0599  0.3054
  494TMC3    C2 7394   4.480   3.564   0.573  0.4813 -0.4032 -0.2198
  494TMC3    C3 7395   4.512   3.487   0.470  0.2780 -0.0296 -0.4846
  494TMC3    C4 7396   4.455   3.750   0.428 -0.1025 -0.2714  0.2108
  494TMC3    C5 7397   4.491   3.670   0.320 -0.2740  0.9327  0.3460
  494TMC3    C6 7398   4.520   3.540   0.344  0.0587 -0.5770  0.2599
  494TMC3     C 7399   4.434   3.778   0.655 -0.6774  0.3554  0.1802
  494TMC3     O 7400   4.507   3.761   0.756  0.5520 -0.2972  0.9026
  494TMC3     H 7401   4.482   3.514   0.670 -0.5772 -2.0673 -1.0581
  494TMC3    H1 7402   4.455   3.858   0.415  3.0169 -0.0097  2.3467
  494TMC3    H2 7403   4.552   3.484   0.257  0.1900  2.1332 -1.4604
  494TMC3    C7 7404   4.584   3.732   0.220 -0.3543  0.0348  0.6780
  494TMC3    C8 7405   4.567   3.349   0.502  0.7858  0.8474  0.2631
  494TMC3    O1 7406   4.599   3.667   0.116 -0.2884 -0.3033 -0.0597
  494TMC3    O2 7407   4.631   3.329   0.606 -0.2035  0.1721  0.1510
  495TMC3    C1 7408   3.843   0.501  14.775  0.3952 -0.3986  0.3439
  495TMC3    C2 7409   3.784   0.556  14.668 -0.2728 -0.4730  0.1755
  495TMC3    C3 7410   3.690   0.648  14.700 -1.0483 -0.4566 -0.9969
  495TMC3    C4 7411   3.828   0.548  14.902  0.0083 -0.0881  0.3170
  495TMC3    C5 7412   3.749   0.653  14.922 -0.1173  0.7455  0.3267
  495TMC3    C6 7413   3.684   0.718  14.818 -0.5327  0.0666 -0.9047
  495TMC3     C 7414   3.844   0.356  14.776  0.2683  0.1920 -0.5294
  495TMC3     O 7415   3.762   0.297  14.849  0.1471  0.0821 -0.5977
  495TMC3     H 7416   3.782   0.500  14.575 -1.7178 -1.5004  0.8429
  495TMC3    H1 7417   3.880   0.501  14.985  2.0047  1.7684  0.1134
  495TMC3    H2 7418   3.600   0.786  14.826 -2.3778 -2.5782  1.8010
  495TMC3    C7 7419   3.703   0.673  15.057  1.0162 -0.0639  0.1341
  495TMC3    C8 7420   3.569   0.638  14.624 -0.5702 -0.1919  0.3181
  495TMC3    O1 7421   3.782   0.656  15.147  0.5365 -0.5263 -1.2094
  495TMC3    O2 7422   3.501   0.739  14.610  0.0268  0.0286  0.0266
  496MPD2     C 7423   0.622   4.725  14.882  0.1137 -0.7831 -0.1361
  496MPD2    C1 7424   0.711   4.666  14.965 -0.0131 -0.0258 -0.3301
  496MPD2    C2 7425   0.719   4.702  15.097  0.2304  0.0498  0.3534
  496MPD2    C3 7426   0.616   0.036  15.155  0.5918 -0.6056 -0.5042
  496MPD2    C4 7427   0.518   0.083  15.070 -0.0937  0.4071 -0.1325
  496MPD2    C5 7428   0.526   0.066  14.933 -0.2657  0.1152  0.1040
  496MPD2     H 7429   0.802   4.660  15.152  1.0505  1.0470 -0.1423
  496MPD2    H1 7430   0.426   0.122  15.111 -0.4528 -0.4196 -0.1440
  496MPD2    H2 7431   0.625   4.706  14.775 -3.5188 -1.1633 -0.1741
  496MPD2    H3 7432   0.467   0.131  14.871  0.5301  0.9190  0.1910
  496MPD2     N 7433   0.613   0.071  15.295  0.1765 -0.0090 -0.4081
  496MPD2    H5 7434   0.544   0.139  15.324 -2.3318 -2.2253 -1.1242
  496MPD2    N1 7435   0.809   4.589  14.897  0.0745  0.0880  0.7364
  496MPD2    H7 7436   0.819   4.599  14.797 -1.0190  0.3360  0.6528
  497TMC3    C1 7437   0.726   0.104  15.512 -0.0995  0.3330  0.4274
  497TMC3    C2 7438   0.845   0.094  15.583 -0.2788 -0.6011 -0.1330
  497TMC3    C3 7439   0.873   0.189  15.688 -0.0328 -0.5365  1.3469
  497TMC3    C4 7440   0.626   0.188  15.553 -0.2771  0.1062  0.1560
  497TMC3    C5 7441   0.657   0.277  15.653  0.2641 -0.2957  0.3871
  497TMC3    C6 7442   0.774   0.276  15.722  0.2818  0.0875  0.7557
  497TMC3     C 7443   0.711   0.031  15.386 -0.8024  0.2469  0.6184
  497TMC3     O 7444   0.786   4.675  15.370  0.2264  0.5375 -0.1111
  497TMC3     H 7445   0.925   0.033  15.544  1.3280  0.9170  0.7640
  497TMC3    H1 7446   0.529   0.188  15.505 -0.7255  0.6469  1.0657
  497TMC3    H2 7447   0.789   0.352  15.797 -0.0271  0.4795  0.4207
  497TMC3    C7 7448   0.535   0.323  15.721 -0.4067 -1.0456 -0.4570
  497TMC3    C8 7449   0.988   0.193  15.758 -0.2795  0.4391  1.2833
  497TMC3    O1 7450   0.424   0.292  15.680 -0.7208 -0.4245  0.0852
  497TMC3    O2 7451   0.991   0.257  15.859  0.3744  0.2562  0.1166
  498MPD2     C 7452   0.736   0.826   9.726  0.2911 -0.0808 -0.9844
  498MPD2    C1 7453   0.835   0.744   9.672  0.3243 -0.6487  0.0124
  498MPD2    C2 7454   0.886   0.641   9.745 -0.1267 -0.0676  0.3853
  498MPD2    C3 7455   0.826   0.604   9.869  0.1949 -0.6730 -0.0604
  498MPD2    C4 7456   0.727   0.683   9.918 -0.3365 -0.7554  0.1340
  498MPD2    C5 7457   0.678   0.791   9.849 -0.0726  0.1758 -0.1793
  498MPD2     H 7458   0.964   0.580   9.702 -0.8706  1.6112 -3.3723
  498MPD2    H1 7459   0.687   0.664  10.016 -0.8063  1.4128  0.3759
  498MPD2    H2 7460   0.698   0.906   9.663  1.1282  0.2750 -1.0412
  498MPD2    H3 7461   0.591   0.846   9.882 -0.1486 -0.0307 -0.0434
  498MPD2     N 7462   0.870   0.495   9.937  0.1879  0.0354 -0.1156
  498MPD2    H5 7463   0.825   0.475  10.026 -0.3109 -2.1318 -0.8573
  498MPD2    N1 7464   0.901   0.778   9.549 -0.3732  0.0330 -0.3092
  498MPD2    H7 7465   0.965   0.701   9.527 -1.7410 -0.2705 -3.3289
  499TMC3    C1 7466   0.989   0.876   9.359  0.0522  0.0817 -0.1523
  499TMC3    C2 7467   1.006   0.763   9.290 -0.0432  0.5940 -0.0184
  499TMC3    C3 7468   1.102   0.754   9.199  0.8118 -0.3944  0.5523
  499TMC3    C4 7469   1.058   0.991   9.335  0.1145  0.1373  1.0499
  499TMC3    C5 7470   1.162   0.974   9.245 -0.4414  0.0575 -0.2084
  499TMC3    C6 7471   1.178   0.858   9.167  0.1359  0.2108 -0.3495
  499TMC3     C 7472   0.885   0.881   9.465 -0.5716  0.2880 -0.1045
  499TMC3     O 7473   0.829   0.988   9.484  0.0491  0.4421  0.2424
  499TMC3     H 7474   0.940   0.680   9.309  0.3709  0.6149  1.5600
  499TMC3    H1 7475   1.054   1.076   9.402  1.0655  1.0729 -0.0745
  499TMC3    H2 7476   1.256   0.842   9.094  1.7590  0.7124  1.2652
  499TMC3    C7 7477   1.241   1.087   9.213  0.1343  0.4614 -0.1834
  499TMC3    C8 7478   1.128   0.624   9.135  0.0744 -0.0781 -0.1714
  499TMC3    O1 7479   1.296   1.087   9.105 -0.4918 -0.1963 -0.4216
  499TMC3    O2 7480   1.240   0.609   9.086 -0.1087 -0.3193  0.0203
  500MPD2     C 7481   2.909   2.102  10.085 -0.0402  0.2383 -0.7892
  500MPD2    C1 7482   2.957   2.182   9.971  0.8744 -0.6755  0.3562
  500MPD2    C2 7483   2.863   2.211   9.868 -0.6198 -0.1096 -0.3064
  500MPD2    C3 7484   2.740   2.159   9.866  0.2825  0.0367 -0.4356
  500MPD2    C4 7485   2.698   2.083   9.974 -0.2712 -0.0742  0.0075
  500MPD2    C5 7486   2.783   2.048  10.066 -0.2907 -0.8630 -0.0642
  500MPD2     H 7487   2.893   2.278   9.788  0.2374 -0.0683  0.0464
  500MPD2    H1 7488   2.598   2.043   9.988 -0.5546  0.6041 -0.0811
  500MPD2    H2 7489   2.964   2.082  10.176 -0.4452 -0.0089 -0.6037
  500MPD2    H3 7490   2.747   1.973  10.136  1.4946 -0.6911  1.0500
  500MPD2     N 7491   2.643   2.192   9.766  0.5345  0.0185  0.1552
  500MPD2    H5 7492   2.556   2.141   9.774  0.2065  0.1190 -2.7581
  500MPD2    N1 7493   3.094   2.219   9.958  0.1530 -0.0209  0.0187
  500MPD2    H7 7494   3.121   2.283   9.884  0.0897 -0.8405 -0.6974
  501TMC3    C1 7495   3.327   2.236  10.011  0.0668 -0.5372 -0.4813
  501TMC3    C2 7496   3.329   2.368   9.984 -0.3976  0.3415 -0.0587
  501TMC3    C3 7497   3.454   2.427   9.989  0.7852 -0.1992  0.0434
  501TMC3    C4 7498   3.434   2.155  10.020 -0.2642  0.2992  1.0643
  501TMC3    C5 7499   3.556   2.218   9.998  0.5102 -0.4950  0.2045
  501TMC3    C6 7500   3.565   2.352   9.997 -0.2702 -0.2644 -0.3332
  501TMC3     C 7501   3.198   2.175  10.041 -0.3163  0.2754  0.4402
  501TMC3     O 7502   3.202   2.074  10.112 -0.2836 -0.0853  0.0204
  501TMC3     H 7503   3.236   2.421  10.000 -0.0022  1.3950 -1.1609
  501TMC3    H1 7504   3.428   2.049  10.039  1.6666 -0.2363 -1.4297
  501TMC3    H2 7505   3.663   2.398  10.006  0.6166 -1.7690 -2.1775
  501TMC3    C7 7506   3.679   2.148  10.041  0.0679 -0.2096 -0.3186
  501TMC3    C8 7507   3.458   2.569  10.018 -0.1826 -0.2787 -0.3633
  501TMC3    O1 7508   3.664   2.062  10.127 -0.0161 -0.5352  0.2994
  501TMC3    O2 7509   3.563   2.599  10.072 -0.0589 -0.0598 -0.1571
  502TMC3    C1 7510   2.847   1.167  14.743  0.3725  0.1613  0.2358
  502TMC3    C2 7511   2.861   1.294  14.701 -0.0906  0.1303 -0.0781
  502TMC3    C3 7512   2.755   1.380  14.730 -0.1288  0.0918 -0.4456
  502TMC3    C4 7513   2.737   1.120  14.804  0.9536  0.2867 -0.7056
  502TMC3    C5 7514   2.645   1.207  14.846  0.1450  0.2502  0.3963
  502TMC3    C6 7515   2.650   1.339  14.810 -0.3203 -0.1530 -0.1822
  502TMC3     C 7516   2.949   1.072  14.704  0.2522 -0.1034  0.1480
  502TMC3     O 7517   2.990   1.082  14.591 -0.2251  0.4526  0.1258
  502TMC3     H 7518   2.956   1.326  14.658  0.2222 -1.4606 -0.5507
  502TMC3    H1 7519   2.733   1.017  14.837 -1.0917  1.0966  1.5262
  502TMC3    H2 7520   2.581   1.409  14.854  0.5757  0.6026  0.0119
  502TMC3    C7 7521   2.544   1.158  14.943  0.3146  0.6610 -0.6965
  502TMC3    C8 7522   2.763   1.518  14.700  0.1792  0.1609  0.9202
  502TMC3    O1 7523   2.578   1.058  15.002 -0.3120  0.4519 -0.1110
  502TMC3    O2 7524   2.698   1.597  14.767  0.3684 -0.1202 -0.0444
  503MPD2     C 7525   0.245   2.419  16.673  0.2041 -0.2571 -0.0770
  503MPD2    C1 7526   0.267   2.496  16.785 -0.8313  0.1632  0.1265
  503MPD2    C2 7527   0.341   2.441  16.887 -0.2161 -0.0741 -0.2949
  503MPD2    C3 7528   0.392   2.316  16.882 -0.3371 -1.0280  0.0087
  503MPD2    C4 7529   0.363   2.240  16.769  0.1135 -0.1727 -0.5185
  503MPD2    C5 7530   0.307   2.302  16.660 -0.7700 -0.0059 -0.8443
  503MPD2     H 7531   0.359   2.507  16.971 -0.6490 -0.8599  0.4138
  503MPD2    H1 7532   0.414   2.147  16.749  1.2549 -0.4583  3.7090
  503MPD2    H2 7533   0.189   2.458  16.590 -1.3705 -1.9426  0.2138
  503MPD2    H3 7534   0.307   2.255  16.562 -3.0546  0.4145 -1.0520
  503MPD2     N 7535   0.439   2.257  16.998  0.6485  0.1344 -0.6158
  503MPD2    H5 7536   0.456   2.326  17.070  0.6018 -0.1769 -0.3037
  503MPD2    N1 7537   0.222   2.626  16.803  0.5249  0.4253  0.6556
  503MPD2    H7 7538   0.230   2.666  16.896  1.1928  0.4323  0.5934
  504TMC3    C1 7539   0.555   2.111  17.140  0.3382 -0.2548  0.0519
  504TMC3    C2 7540   0.526   2.206  17.235 -0.6653  0.4923 -0.2090
  504TMC3    C3 7541   0.619   2.224  17.334  0.0253 -0.0373  0.6655
  504TMC3    C4 7542   0.675   2.050  17.128 -0.5382 -0.3277 -0.6711
  504TMC3    C5 7543   0.771   2.088  17.221  0.2985 -0.0236 -0.9369
  504TMC3    C6 7544   0.744   2.168  17.332 -0.5561 -0.3180  0.3357
  504TMC3     C 7545   0.491   2.127  17.013 -0.4940  0.2126  0.3666
  504TMC3     O 7546   0.503   2.028  16.941  0.0357  0.0703 -0.0810
  504TMC3     H 7547   0.428   2.252  17.239 -0.9465  0.0271 -1.7521
  504TMC3    H1 7548   0.697   1.986  17.043 -0.1710 -0.2098 -0.6682
  504TMC3    H2 7549   0.827   2.200  17.393 -0.3287 -1.4333  0.6212
  504TMC3    C7 7550   0.905   2.037  17.206 -0.5461 -0.8731  0.2327
  504TMC3    C8 7551   0.564   2.295  17.445  0.4674 -0.4358 -0.3786
  504TMC3    O1 7552   0.934   2.013  17.089  0.2962  0.3204  0.4147
  504TMC3    O2 7553   0.458   2.353  17.422 -0.4264 -0.1347 -0.1413
  505MPD2     C 7554   0.724   4.232  10.516 -0.2415  0.1832  0.5098
  505MPD2    C1 7555   0.835   4.218  10.591 -0.2090 -0.7900 -0.0214
  505MPD2    C2 7556   0.860   4.301  10.697 -0.0320  0.4479 -0.0077
  505MPD2    C3 7557   0.775   4.406  10.715 -0.4785 -0.2991 -0.0205
  505MPD2    C4 7558   0.672   4.431  10.638 -0.7448  0.1534  1.0301
  505MPD2    C5 7559   0.637   4.341  10.537 -0.2921 -0.3321  0.0514
  505MPD2     H 7560   0.957   4.293  10.743 -0.0191 -1.2517 -0.3362
  505MPD2    H1 7561   0.607   4.516  10.655  0.3314  1.6746 -2.3326
  505MPD2    H2 7562   0.707   4.171  10.428 -0.5966  1.0093  0.0017
  505MPD2    H3 7563   0.569   4.347  10.454 -0.0056  1.4817 -0.0530
  505MPD2     N 7564   0.791   4.479  10.837  0.4722 -0.4235 -0.4663
  505MPD2    H5 7565   0.723   4.548  10.868  0.7270 -0.6336  0.5529
  505MPD2    N1 7566   0.930   4.129  10.544 -0.6357 -0.4094  0.1478
  505MPD2    H7 7567   0.907   4.075  10.461 -1.5862  0.0592  0.1063
  506TMC3    C1 7568   1.125   3.993  10.545  0.4211  0.8041  0.3455
  506TMC3    C2 7569   1.173   4.047  10.430  0.3981 -0.0497 -0.1316
  506TMC3    C3 7570   1.311   4.036  10.406 -0.2743 -0.3426  0.0916
  506TMC3    C4 7571   1.221   3.939  10.631  0.0065  0.0563 -0.0557
  506TMC3    C5 7572   1.354   3.922  10.606  0.1005 -0.2895  0.5864
  506TMC3    C6 7573   1.391   3.950  10.473 -0.2538 -0.7629  1.1378
  506TMC3     C 7574   1.030   4.077  10.614 -0.2027  0.7480 -0.3349
  506TMC3     O 7575   1.065   4.091  10.732 -0.0603 -0.0677  0.4441
  506TMC3     H 7576   1.109   4.108  10.367 -0.4830 -1.0900 -0.2294
  506TMC3    H1 7577   1.189   3.897  10.726  1.2416 -1.2868 -0.2354
  506TMC3    H2 7578   1.495   3.931  10.446 -0.2456 -0.3180  0.8598
  506TMC3    C7 7579   1.429   3.997  10.710  0.0371 -0.3556  0.3649
  506TMC3    C8 7580   1.367   4.094  10.282  0.5837 -0.4848 -0.1209
  506TMC3    O1 7581   1.547   3.974  10.719  0.7641 -0.0899  0.0605
  506TMC3    O2 7582   1.456   4.037  10.218 -0.1150 -0.4333  0.0262
  507TMC3    C1 7583   0.511   0.494  15.366  0.5961 -0.4996 -0.2304
  507TMC3    C2 7584   0.512   0.430  15.243  0.2538  0.4523 -0.5428
  507TMC3    C3 7585   0.633   0.412  15.183 -0.6679  0.3676  0.6137
  507TMC3    C4 7586   0.627   0.545  15.427 -0.3572  0.0993  1.0079
  507TMC3    C5 7587   0.742   0.521  15.363  0.7142  0.3543 -0.2515
  507TMC3    C6 7588   0.747   0.459  15.244 -1.0161 -0.8305 -0.0555
  507TMC3     C 7589   0.392   0.570  15.404 -0.0523  0.0566 -1.0720
  507TMC3     O 7590   0.403   0.673  15.472 -0.0896 -0.3255 -0.0017
  507TMC3     H 7591   0.426   0.389  15.192 -0.0219 -0.5133  0.6986
  507TMC3    H1 7592   0.629   0.613  15.511 -1.1209  1.8367 -0.3770
  507TMC3    H2 7593   0.843   0.440  15.199 -0.6449 -2.7104  1.5323
  507TMC3    C7 7594   0.830   0.637  15.368  0.8681  0.5001  0.8115
  507TMC3    C8 7595   0.631   0.469  15.054  0.4282 -0.5925  0.3258
  507TMC3    O1 7596   0.873   0.663  15.257 -0.3218  0.1419 -0.5458
  507TMC3    O2 7597   0.555   0.415  14.974  0.3361 -0.3610 -0.6751
  508MPD2     C 7598   2.183   3.945  16.183  0.0394  0.5296 -0.1003
  508MPD2    C1 7599   2.219   4.065  16.239 -0.4074 -0.4767  0.3106
  508MPD2    C2 7600   2.229   4.186  16.169  0.2451 -0.3858 -0.4365
  508MPD2    C3 7601   2.184   4.190  16.038  0.0412  0.4398  0.6961
  508MPD2    C4 7602   2.125   4.072  15.988  0.4240  0.5055  0.8283
  508MPD2    C5 7603   2.134   3.951  16.055  0.0789 -1.0037 -0.0374
  508MPD2     H 7604   2.263   4.281  16.210 -3.2664  1.2221 -1.2477
  508MPD2    H1 7605   2.074   4.075  15.892 -1.2827 -4.3957  1.5530
  508MPD2    H2 7606   2.196   3.851  16.237  0.1735  1.5738  1.7049
  508MPD2    H3 7607   2.109   3.861  16.000 -1.9510  0.5250 -1.6441
  508MPD2     N 7608   2.194   4.312  15.974 -0.7198  0.2431 -0.5496
  508MPD2    H5 7609   2.252   4.383  16.017 -0.9417 -1.9709  3.4111
  508MPD2    N1 7610   2.261   4.053  16.375 -0.1240  0.5255 -0.1024
  508MPD2    H7 7611   2.251   3.960  16.416 -1.5310  1.2983  1.3057
  509TMC3    C1 7612   2.203   4.622  15.621 -0.2292  0.0585 -0.1410
  509TMC3    C2 7613   2.240   4.724  15.703  0.0824 -0.4190  0.0941
  509TMC3    C3 7614   2.237   4.699  15.835  0.6519  0.5651  0.5451
  509TMC3    C4 7615   2.184   4.492  15.672 -0.2902 -0.0133 -0.3840
  509TMC3    C5 7616   2.165   4.480  15.807  0.3097  0.1943  0.0755
  509TMC3    C6 7617   2.205   4.579  15.890 -0.8237 -0.4113  0.0278
  509TMC3     C 7618   2.184   4.638  15.475 -0.1720 -0.0141 -0.1187
  509TMC3     O 7619   2.188   4.530  15.416 -0.0702  0.4642 -0.2148
  509TMC3     H 7620   2.266   0.083  15.662 -2.0345  0.4214  0.7768
  509TMC3    H1 7621   2.152   4.414  15.604 -0.5746  1.0254 -1.4439
  509TMC3    H2 7622   2.194   4.561  15.996 -0.3126  1.0712  0.3452
  509TMC3    C7 7623   2.152   4.343  15.851 -0.5958 -0.3481 -0.6317
  509TMC3    C8 7624   2.244   0.074  15.927 -0.6428 -0.2103 -0.2404
  509TMC3    O1 7625   2.082   4.284  15.767 -0.2509  0.1409  0.3460
  509TMC3    O2 7626   2.178   0.064  16.027  0.1410 -0.2645 -0.2668
  510MPD2     C 7627   0.437   1.106  14.650  0.9527  0.2018 -0.0579
  510MPD2    C1 7628   0.349   0.996  14.643 -0.4235 -0.8037 -0.2737
  510MPD2    C2 7629   0.352   0.917  14.530 -0.2780 -0.0688  0.3043
  510MPD2    C3 7630   0.447   0.952  14.428  0.4894 -0.3372  0.2866
  510MPD2    C4 7631   0.527   1.067  14.438 -0.2382 -0.5047  0.3804
  510MPD2    C5 7632   0.516   1.143  14.548  0.4136 -0.1935 -0.1159
  510MPD2     H 7633   0.299   0.823  14.527 -0.9525  0.3135  0.2054
  510MPD2    H1 7634   0.605   1.096  14.369  0.8658 -1.8550  1.0553
  510MPD2    H2 7635   0.434   1.175  14.733 -0.3891  2.0027 -1.6066
  510MPD2    H3 7636   0.575   1.230  14.574  1.0886 -1.1485  1.5538
  510MPD2     N 7637   0.460   0.867  14.320 -0.2781 -0.1282 -0.0008
  510MPD2    H5 7638   0.390   0.793  14.325 -0.7803  0.4950  2.4338
  510MPD2    N1 7639   0.260   0.981  14.750  0.2067 -0.2694 -0.1898
  510MPD2    H7 7640   0.273   1.042  14.830  2.0580 -0.3060 -0.4666
  511TMC3    C1 7641   0.115   0.864  14.889 -0.8025  0.1351 -0.0872
  511TMC3    C2 7642   4.730   0.899  14.930  0.0089  0.9080 -0.3433
  511TMC3    C3 7643   4.664   0.832  15.027 -0.1094  0.2239  0.0684
  511TMC3    C4 7644   0.175   0.756  14.948  0.0960  0.6890 -0.1178
  511TMC3    C5 7645   0.109   0.686  15.040 -0.6109  0.3020  0.0969
  511TMC3    C6 7646   4.724   0.721  15.078  0.0598  1.0254 -0.6294
  511TMC3     C 7647   0.157   0.887  14.757 -0.0893  0.8302  0.3079
  511TMC3     O 7648   0.104   0.818  14.674  0.0273  0.3737  0.3064
  511TMC3     H 7649   4.687   0.980  14.873  0.2507  2.2131  1.3473
  511TMC3    H1 7650   0.264   0.719  14.899  0.9320 -1.0565  2.7678
  511TMC3    H2 7651   4.675   0.655  15.149 -0.4345  1.9122 -0.1394
  511TMC3    C7 7652   0.143   0.538  15.052 -0.2484  0.2338 -0.5583
  511TMC3    C8 7653   4.547   0.891  15.086  0.2980  0.1149  0.2550
  511TMC3    O1 7654   0.260   0.513  15.026  0.3467  0.0577  0.0382
  511TMC3    O2 7655   4.541   1.011  15.065 -0.0125 -0.0567  0.6056
  512TMC3    C1 7656   3.612   4.206  13.177  0.2577  0.2790 -0.1161
  512TMC3    C2 7657   3.577   4.291  13.277 -0.4144 -0.7123  1.1396
  512TMC3    C3 7658   3.670   4.386  13.317  0.2517  0.7781 -0.6188
  512TMC3    C4 7659   3.722   4.221  13.095  0.5707  0.5796 -0.5220
  512TMC3    C5 7660   3.813   4.313  13.144  0.4069  0.1237  0.3111
  512TMC3    C6 7661   3.796   4.387  13.255 -0.7581 -0.3278  1.4272
  512TMC3     C 7662   3.522   4.100  13.140 -0.1066  0.2666 -0.4303
  512TMC3     O 7663   3.534   4.050  13.032 -0.3631  0.3111  0.4857
  512TMC3     H 7664   3.486   4.295  13.336  0.3988 -3.2326  2.5776
  512TMC3    H1 7665   3.735   4.154  13.011  1.8357  3.0414 -2.2613
  512TMC3    H2 7666   3.874   4.458  13.278 -0.2050 -0.7459  0.8349
  512TMC3    C7 7667   3.935   4.331  13.074  0.5311 -0.0313 -0.0242
  512TMC3    C8 7668   3.660   4.453  13.447  0.4919  0.1647 -0.2644
  512TMC3    O1 7669   3.996   4.438  13.077  0.5531 -0.0889  0.0605
  512TMC3    O2 7670   3.604   4.392  13.536  0.3399  0.1453  0.5988
  513MPD2     C 7671   0.791   4.387  13.505  0.3545  0.6611 -0.4488
  513MPD2    C1 7672   0.852   4.309  13.404  0.0353  0.1007  0.6996
  513MPD2    C2 7673   0.958   4.356  13.327 -0.4166  0.2075  0.1942
  513MPD2    C3 7674   0.995   4.488  13.339  0.0387  0.2738 -0.4592
  513MPD2    C4 7675   0.931   4.564  13.435 -0.8605 -0.1075  0.1821
  513MPD2    C5 7676   0.835   4.512  13.520  0.6159 -0.1153  1.0055
  513MPD2     H 7677   1.015   4.292  13.261 -1.4914 -0.4126 -0.1174
  513MPD2    H1 7678   0.980   4.659  13.455 -0.4008 -0.5592  1.1618
  513MPD2    H2 7679   0.716   4.347  13.572  1.9087 -2.3350 -0.4678
  513MPD2    H3 7680   0.799   4.571  13.604  2.1587  2.4790 -0.1587
  513MPD2     N 7681   1.083   4.534  13.244  0.1836 -0.0733  0.3598
  513MPD2    H5 7682   1.128   4.474  13.176  1.5295  1.8410 -0.4358
  513MPD2    N1 7683   0.822   4.172  13.394  0.9615  0.5886 -0.0697
  513MPD2    H7 7684   0.883   4.112  13.339  0.7699 -0.5282  0.9451
  514TMC3    C1 7685   0.695   3.989  13.391  0.5082 -0.1012 -0.0191
  514TMC3    C2 7686   0.590   3.972  13.307  0.1540 -0.2994  0.4396
  514TMC3    C3 7687   0.607   3.899  13.185 -0.1336 -0.4692 -0.1981
  514TMC3    C4 7688   0.814   3.925  13.357 -0.8218 -0.1514  0.2249
  514TMC3    C5 7689   0.837   3.869  13.234  0.2719  0.0737 -0.1110
  514TMC3    C6 7690   0.729   3.852  13.148 -0.0656 -0.2817 -0.0207
  514TMC3     C 7691   0.707   4.119  13.440  0.6154  0.2560 -0.1995
  514TMC3     O 7692   0.617   4.153  13.506  0.0657  0.2369 -0.0017
  514TMC3     H 7693   0.508   4.040  13.325 -0.0546 -0.1444 -1.0867
  514TMC3    H1 7694   0.901   3.934  13.420  0.3121 -0.1675 -1.3365
  514TMC3    H2 7695   0.740   3.793  13.058 -1.4027  0.7360 -0.8447
  514TMC3    C7 7696   0.954   3.933  13.178  0.5662 -0.2340 -0.3549
  514TMC3    C8 7697   0.527   3.957  13.082  0.3301  0.6180 -0.6703
  514TMC3    O1 7698   1.001   4.022  13.247  0.2060 -0.4496 -0.0816
  514TMC3    O2 7699   0.420   4.013  13.105  0.4724  0.2214  0.2618
  515MPD2     C 7700   3.369   2.421  14.847 -0.0975  0.2835  0.2344
  515MPD2    C1 7701   3.466   2.324  14.832 -0.6656 -0.5495  0.3862
  515MPD2    C2 7702   3.597   2.340  14.873 -0.0901 -1.0061 -0.1341
  515MPD2    C3 7703   3.640   2.466  14.924 -0.7532  0.3412 -0.5834
  515MPD2    C4 7704   3.543   2.559  14.949 -0.7950 -0.2196 -0.4113
  515MPD2    C5 7705   3.418   2.538  14.908 -0.2447 -0.4473  0.0007
  515MPD2     H 7706   3.661   2.253  14.861 -1.2854 -1.7991 -0.6809
  515MPD2    H1 7707   3.566   2.657  14.988  0.2565 -0.6541  0.0678
  515MPD2    H2 7708   3.263   2.415  14.826  0.0877  0.3673 -0.7381
  515MPD2    H3 7709   3.345   2.614  14.935 -1.4046 -0.3166 -3.5286
  515MPD2     N 7710   3.774   2.498  14.964 -0.1838 -0.2783  0.0478
  515MPD2    H5 7711   3.802   2.590  14.997  1.7105 -0.8750  0.1159
  515MPD2    N1 7712   3.437   2.193  14.781  0.0851  0.0493 -0.1107
  515MPD2    H7 7713   3.508   2.121  14.784  1.5214  1.4528 -0.3756
  516TMC3    C1 7714   3.327   2.044  14.636  0.0711  0.0716  0.1848
  516TMC3    C2 7715   3.272   2.053  14.513  0.5717  0.2956 -0.2331
  516TMC3    C3 7716   3.265   1.935  14.434  0.1905 -0.8086  0.3868
  516TMC3    C4 7717   3.360   1.928  14.699  0.7040 -0.1174  0.0971
  516TMC3    C5 7718   3.342   1.813  14.625  0.5976  0.5814  0.3338
  516TMC3    C6 7719   3.293   1.817  14.495  0.0745 -0.2168 -0.0515
  516TMC3     C 7720   3.317   2.166  14.719  0.6234  0.5645  0.0684
  516TMC3     O 7721   3.227   2.245  14.681 -0.8417  0.1900 -0.4008
  516TMC3     H 7722   3.228   2.147  14.481 -0.1714 -0.3250 -1.0184
  516TMC3    H1 7723   3.361   1.930  14.807 -1.7187  1.4101  0.0851
  516TMC3    H2 7724   3.291   1.731  14.429 -0.5416 -1.0384  1.0447
  516TMC3    C7 7725   3.377   1.694  14.701 -0.3082  0.2028  0.6951
  516TMC3    C8 7726   3.247   1.941  14.290  0.0680 -0.1880 -0.1775
  516TMC3    O1 7727   3.438   1.714  14.804 -0.3685 -0.1625 -0.2494
  516TMC3    O2 7728   3.232   1.835  14.228 -0.8130 -0.3777  0.2883
  517MPD2     C 7729   3.172   3.922  17.577  0.4486 -0.1832  0.0974
  517MPD2    C1 7730   3.304   3.885  17.615  0.0185 -0.9629 -0.4274
  517MPD2    C2 7731   3.387   3.987  17.653  0.4766  0.0243  0.2962
  517MPD2    C3 7732   3.351   4.123  17.647 -0.1594 -0.0019 -0.2201
  517MPD2    C4 7733   3.229   4.156  17.596 -0.1878  0.0036  0.1565
  517MPD2    C5 7734   3.141   4.054  17.567  0.3292  0.4974  0.3097
  517MPD2     H 7735   3.489   3.960  17.678  0.3857  0.3193  0.9835
  517MPD2    H1 7736   3.201   4.259  17.579 -2.2181 -0.5132  0.2824
  517MPD2    H2 7737   3.096   3.855  17.540 -1.6972  0.4717  3.2985
  517MPD2    H3 7738   3.043   4.075  17.524  0.5173  0.3636 -0.1844
  517MPD2     N 7739   3.437   4.221  17.691  0.5922 -0.3033  0.5917
  517MPD2    H5 7740   3.394   4.313  17.689  1.3860  0.0740  1.2535
  517MPD2    N1 7741   3.354   3.754  17.599  0.3233  0.4610 -0.0178
  517MPD2    H7 7742   3.454   3.743  17.617  0.1366  0.2610  0.8814
  518TMC3    C1 7743   3.359   3.521  17.554 -0.0132  0.8694  0.0157
  518TMC3    C2 7744   3.291   3.401  17.560 -0.1232 -0.0814 -0.3691
  518TMC3    C3 7745   3.355   3.289  17.517  0.9343  0.0298  0.2324
  518TMC3    C4 7746   3.486   3.527  17.502  0.8158 -0.9920  0.6978
  518TMC3    C5 7747   3.544   3.408  17.461  0.1256  0.1025 -0.0199
  518TMC3    C6 7748   3.478   3.290  17.469 -0.4332 -0.5468 -0.3030
  518TMC3     C 7749   3.276   3.646  17.570  0.3402  0.4004  0.0157
  518TMC3     O 7750   3.156   3.635  17.555 -0.4206  0.5116 -0.0041
  518TMC3     H 7751   3.187   3.399  17.590 -0.3527 -0.5813 -1.2041
  518TMC3    H1 7752   3.537   3.620  17.480  0.5289 -1.0263 -0.1148
  518TMC3    H2 7753   3.514   3.196  17.428  0.1603  0.3691 -1.8816
  518TMC3    C7 7754   3.683   3.413  17.416  0.4782 -0.0499  0.8230
  518TMC3    C8 7755   3.285   3.159  17.510 -0.3543  0.2282 -0.3235
  518TMC3    O1 7756   3.732   3.514  17.375 -0.2389  0.6146  0.1828
  518TMC3    O2 7757   3.356   3.062  17.485 -0.1487 -0.6640 -0.2116
  519MPD2     C 7758   0.624   1.605  14.600  0.4686  0.5582 -0.0492
  519MPD2    C1 7759   0.568   1.667  14.493 -0.0518  0.0097  0.4631
  519MPD2    C2 7760   0.574   1.604  14.372 -0.4386 -0.4425 -0.6181
  519MPD2    C3 7761   0.646   1.489  14.351 -0.0151  0.2246 -0.2718
  519MPD2    C4 7762   0.700   1.426  14.462  0.2739 -0.9188  0.5122
  519MPD2    C5 7763   0.691   1.492  14.587 -0.2088  0.4714 -0.2592
  519MPD2     H 7764   0.542   1.660  14.285 -0.9319 -0.2490 -0.3106
  519MPD2    H1 7765   0.768   1.342  14.450  2.3856  0.6230  1.7563
  519MPD2    H2 7766   0.638   1.657  14.694  0.1071  0.6911 -0.0697
  519MPD2    H3 7767   0.742   1.444  14.669 -0.4170  1.4292  0.4306
  519MPD2     N 7768   0.651   1.421  14.225  0.6169 -0.3986  0.1438
  519MPD2    H5 7769   0.716   1.344  14.215  0.4106 -0.7096  1.2163
  519MPD2    N1 7770   0.488   1.785  14.513 -0.0283 -0.2074 -0.2301
  519MPD2    H7 7771   0.485   1.821  14.608 -1.0005  3.5419 -1.6783
  520TMC3    C1 7772   0.596   1.371  13.996  0.1414  0.5000 -0.1885
  520TMC3    C2 7773   0.484   1.330  13.939  0.2112 -0.7954 -0.0228
  520TMC3    C3 7774   0.490   1.221  13.854 -0.2609  0.4916 -0.0123
  520TMC3    C4 7775   0.708   1.293  13.988 -0.0215 -0.9617  0.9188
  520TMC3    C5 7776   0.713   1.185  13.904  0.1842 -0.1362  0.2052
  520TMC3    C6 7777   0.605   1.142  13.842  0.4380 -0.2996 -0.0480
  520TMC3     C 7778   0.570   1.454  14.113 -0.4617  0.4696 -0.5427
  520TMC3     O 7779   0.496   1.551  14.092 -0.4221 -0.6205  0.5685
  520TMC3     H 7780   0.400   1.400  13.946  1.2104  0.6029 -1.8460
  520TMC3    H1 7781   0.800   1.328  14.033 -0.3751  1.6529 -0.3551
  520TMC3    H2 7782   0.604   1.047  13.789 -0.1129  0.2423 -0.9954
  520TMC3    C7 7783   0.845   1.114  13.908  0.4019 -0.5442 -0.3798
  520TMC3    C8 7784   0.380   1.201  13.756 -1.2419 -0.5466  0.4214
  520TMC3    O1 7785   0.919   1.142  14.005 -0.1218 -0.4973 -0.5393
  520TMC3    O2 7786   0.401   1.135  13.655  0.4140 -0.0714 -0.7795
  521MPD2     C 7787   0.956   4.339  17.684 -0.3380  0.2962  0.1971
  521MPD2    C1 7788   0.990   4.419  17.583  0.5163 -0.2623  0.2723
  521MPD2    C2 7789   1.120   4.400  17.523 -0.2342  0.0818 -0.9571
  521MPD2    C3 7790   1.194   4.292  17.547  0.1947 -0.5837 -0.0393
  521MPD2    C4 7791   1.143   4.199  17.633  0.3931  0.9099 -0.2131
  521MPD2    C5 7792   1.029   4.229  17.708  0.2320  0.4111  0.1413
  521MPD2     H 7793   1.164   4.479  17.463 -0.6267  0.6848 -0.4481
  521MPD2    H1 7794   1.192   4.105  17.656 -3.7778 -1.9210 -2.8839
  521MPD2    H2 7795   0.864   4.355  17.739 -0.8638 -1.2779 -0.2205
  521MPD2    H3 7796   0.995   4.164   0.037 -0.8668 -1.0160 -1.4923
  521MPD2     N 7797   1.310   4.270  17.472  0.3174 -0.1592  0.8678
  521MPD2    H5 7798   1.330   4.328  17.391  0.7720 -0.5778  0.6823
  521MPD2    N1 7799   0.898   4.522  17.550  0.6832  0.3037  0.1200
  521MPD2    H7 7800   0.812   4.530  17.604 -0.2166 -0.7475 -1.1360
  522TMC3    C1 7801   1.506   4.159  17.401  1.0377 -0.5181  0.4664
  522TMC3    C2 7802   1.575   4.040  17.408  0.0562  0.2454  0.0257
  522TMC3    C3 7803   1.640   3.993  17.295  0.4583 -0.2683 -0.0805
  522TMC3    C4 7804   1.509   4.245  17.289  0.3238  0.0032  0.1877
  522TMC3    C5 7805   1.582   4.205  17.182 -0.0991 -0.0409  0.3509
  522TMC3    C6 7806   1.637   4.074  17.179  0.1484 -0.2125  0.2198
  522TMC3     C 7807   1.407   4.179  17.505  0.1628  0.5030  0.3279
  522TMC3     O 7808   1.421   4.111  17.604 -0.0867  0.3274  0.6484
  522TMC3     H 7809   1.572   3.981  17.499  0.2792 -0.7095 -0.5878
  522TMC3    H1 7810   1.472   4.347  17.291 -0.5515 -0.3313  1.4818
  522TMC3    H2 7811   1.678   4.026  17.091  0.9128 -0.4431  0.6944
  522TMC3    C7 7812   1.609   4.290  17.071 -0.2876 -0.5104  0.5447
  522TMC3    C8 7813   1.759   3.915  17.315  0.0032 -0.2694  0.2270
  522TMC3    O1 7814   1.703   4.257  17.004  0.0334 -0.1193  0.6351
  522TMC3    O2 7815   1.758   3.832  17.403  0.0132  0.3331 -0.4366
  523MPD2     C 7816   3.380   4.073  10.365 -0.0383 -0.0953 -0.2731
  523MPD2    C1 7817   3.352   4.028  10.232  0.1431 -0.8202 -0.1959
  523MPD2    C2 7818   3.309   4.120  10.138 -0.0259  0.3799  0.4107
  523MPD2    C3 7819   3.308   4.254  10.175 -0.2457 -0.5682  0.8022
  523MPD2    C4 7820   3.332   4.299  10.306 -0.0553 -0.3146 -0.5221
  523MPD2    C5 7821   3.368   4.206  10.396  0.6473 -0.5150 -0.1098
  523MPD2     H 7822   3.283   4.092  10.036  1.6406  1.6368 -0.3537
  523MPD2    H1 7823   3.347   4.400  10.341  0.6868 -0.4468 -0.4646
  523MPD2    H2 7824   3.413   4.000  10.438 -3.7971 -2.3086 -0.7481
  523MPD2    H3 7825   3.394   4.242  10.495 -0.9761 -2.3002  0.9690
  523MPD2     N 7826   3.292   4.359  10.083  0.3994 -0.4230 -0.4984
  523MPD2    H5 7827   3.298   4.448  10.131 -2.0464 -1.3565  1.5400
  523MPD2    N1 7828   3.381   3.898  10.202 -0.1325 -0.2739 -0.2251
  523MPD2    H7 7829   3.421   3.850  10.281  2.3487 -0.3149 -1.4782
  524TMC3    C1 7830   3.209   4.466   9.887 -0.1090  0.2024 -0.0056
  524TMC3    C2 7831   3.221   4.467   9.753  0.3830 -0.4770  0.0982
  524TMC3    C3 7832   3.163   4.573   9.691 -0.3907  0.7167 -0.1424
  524TMC3    C4 7833   3.126   4.554   9.957 -0.3335 -0.1944 -0.0731
  524TMC3    C5 7834   3.068   4.657   9.891 -1.0054  0.1277 -0.0151
  524TMC3    C6 7835   3.089   4.674   9.759 -0.0705  0.1200 -0.2050
  524TMC3     C 7836   3.265   4.349   9.949 -0.1322  0.2790 -0.1519
  524TMC3     O 7837   3.309   4.264   9.871 -0.4854  0.7618  0.3817
  524TMC3     H 7838   3.309   4.422   9.708  0.7269  2.0129 -1.7190
  524TMC3    H1 7839   3.115   4.553  10.064 -0.5842 -2.9193 -0.1332
  524TMC3    H2 7840   3.021   4.727   9.693 -0.9946 -0.4010  0.3136
  524TMC3    C7 7841   2.946   4.705   9.936 -0.5666  0.0929 -0.1369
  524TMC3    C8 7842   3.182   4.594   9.550 -0.7500  0.5023  0.7778
  524TMC3    O1 7843   2.882   4.634  10.014  0.2002  0.0651 -0.3549
  524TMC3    O2 7844   3.160   4.708   9.515  0.0413 -0.0896  0.1917
  525MPD2     C 7845   1.608   1.326  14.449 -0.3155 -0.0943 -0.0110
  525MPD2    C1 7846   1.732   1.344  14.510  0.9591 -0.4413 -0.3116
  525MPD2    C2 7847   1.793   1.465  14.510  0.2430 -0.0276 -1.2306
  525MPD2    C3 7848   1.727   1.575  14.449 -0.2117 -0.2507 -0.2414
  525MPD2    C4 7849   1.604   1.555  14.385  0.3754 -0.4353 -0.0242
  525MPD2    C5 7850   1.549   1.429  14.385 -0.0676 -0.0963  0.2104
  525MPD2     H 7851   1.888   1.486  14.558 -0.7255  1.7014 -0.1006
  525MPD2    H1 7852   1.557   1.643  14.342  2.5114  0.5910 -0.2602
  525MPD2    H2 7853   1.564   1.227  14.443 -0.1711 -0.2504  1.4493
  525MPD2    H3 7854   1.453   1.413  14.337  0.1211  0.2254 -0.2781
  525MPD2     N 7855   1.778   1.707  14.438  0.5593  0.0934  0.5421
  525MPD2    H5 7856   1.721   1.786  14.410  1.0394 -0.2822 -1.4878
  525MPD2    N1 7857   1.798   1.245  14.584  0.4276 -0.3959  0.4480
  525MPD2    H7 7858   1.885   1.281  14.622 -0.0299  2.7996 -1.5289
  526TMC3    C1 7859   1.859   1.055  14.698  0.2389  0.3689  0.4271
  526TMC3    C2 7860   1.816   0.995  14.815  0.3956  0.4063  0.1518
  526TMC3    C3 7861   1.911   0.955  14.907  0.8066 -0.3412  0.1505
  526TMC3    C4 7862   1.986   1.082  14.669 -0.3728  0.0318  0.5444
  526TMC3    C5 7863   2.082   1.047  14.766  0.1157 -0.5276  0.1056
  526TMC3    C6 7864   2.042   0.983  14.882  0.5003 -0.9758 -0.3179
  526TMC3     C 7865   1.755   1.120  14.619  0.1197 -0.1657  0.3837
  526TMC3     O 7866   1.644   1.063  14.604  0.4730  0.0671  0.2023
  526TMC3     H 7867   1.711   1.000  14.841 -0.2311 -0.0043 -2.3356
  526TMC3    H1 7868   2.018   1.138  14.583 -2.2248  0.7437  0.3304
  526TMC3    H2 7869   2.124   0.962  14.951 -0.0671 -1.8189  0.0979
  526TMC3    C7 7870   2.224   1.028  14.723  0.7516  0.5274 -0.2250
  526TMC3    C8 7871   1.872   0.922  15.048 -0.0030  0.3387 -0.5990
  526TMC3    O1 7872   2.277   0.928  14.762 -0.1531 -0.2064 -0.0238
  526TMC3    O2 7873   1.964   0.908  15.127 -0.6153 -0.0687 -0.7353
  527MPD2     C 7874   0.078   0.074   1.265  0.8480 -0.8395  0.5995
  527MPD2    C1 7875   0.018   0.044   1.141  0.2565  0.4397  0.0512
  527MPD2    C2 7876   0.070   4.682   1.060  0.3733  0.2155 -0.0699
  527MPD2    C3 7877   0.195   4.625   1.087 -0.3277 -0.0787 -0.3153
  527MPD2    C4 7878   0.243   4.652   1.216  0.4788 -0.0752  0.5917
  527MPD2    C5 7879   0.186   0.004   1.305 -0.1383 -0.2534 -0.4453
  527MPD2     H 7880   0.022   4.654   0.967  1.6278 -1.2544 -0.2871
  527MPD2    H1 7881   0.328   4.599   1.259  0.4692  1.1710  2.1332
  527MPD2    H2 7882   0.043   0.148   1.335 -1.5667  0.4622 -1.9713
  527MPD2    H3 7883   0.223   0.013   1.407  0.4640  0.3342 -0.7209
  527MPD2     N 7884   0.255   4.537   0.989  0.3150  0.5024  0.4229
  527MPD2    H5 7885   0.202   4.496   0.912 -1.0076  1.4419  0.8464
  527MPD2    N1 7886   4.659   0.128   1.086  0.2019  0.0124  0.0787
  527MPD2    H7 7887   4.647   0.103   0.989 -2.4601  0.6025  0.2663
  528TMC3    C1 7888   4.478   0.272   1.051 -0.0527  0.8369  0.5024
  528TMC3    C2 7889   4.488   0.256   0.916  0.0652  0.0746  0.4637
  528TMC3    C3 7890   4.380   0.298   0.844 -0.5576 -0.2115  0.2496
  528TMC3    C4 7891   4.364   0.324   1.103  0.2283 -0.1739  0.6603
  528TMC3    C5 7892   4.252   0.338   1.028  0.0793 -0.7951 -0.2430
  528TMC3    C6 7893   4.257   0.320   0.899 -0.2795 -0.3458  0.6543
  528TMC3     C 7894   4.577   0.220   1.150 -0.1694  0.1568  0.5835
  528TMC3     O 7895   4.562   0.243   1.271  0.1234  0.1134 -0.0447
  528TMC3     H 7896   4.580   0.229   0.867 -0.7608 -1.0252 -0.4914
  528TMC3    H1 7897   4.364   0.338   1.211 -0.3969 -2.6030  0.9851
  528TMC3    H2 7898   4.170   0.314   0.834 -1.4521  0.6620  2.1178
  528TMC3    C7 7899   4.136   0.389   1.102  1.1444  0.4704  0.1630
  528TMC3    C8 7900   4.390   0.263   0.706 -0.3958  0.9717 -0.8716
  528TMC3    O1 7901   4.127   0.364   1.220  0.2004  0.3647 -0.2187
  528TMC3    O2 7902   4.483   0.188   0.679 -0.2586 -0.1156  0.2276
  529MPD2     C 7903   1.955   2.910   0.710  0.6770  0.2976  0.1875
  529MPD2    C1 7904   2.082   2.907   0.660 -0.0670  1.0448 -0.1462
  529MPD2    C2 7905   2.101   2.906   0.520  0.4337 -0.2751 -0.0635
  529MPD2    C3 7906   1.996   2.936   0.435 -0.8934 -0.5312  0.0648
  529MPD2    C4 7907   1.871   2.950   0.489 -0.3483 -0.2662  0.3793
  529MPD2    C5 7908   1.853   2.947   0.622 -1.1868  0.4446  0.3611
  529MPD2     H 7909   2.203   2.890   0.488  0.7377  0.9216  0.3056
  529MPD2    H1 7910   1.783   2.968   0.429 -1.1073 -2.0075  0.9854
  529MPD2    H2 7911   1.932   2.890   0.814  2.1645  2.3140  0.9044
  529MPD2    H3 7912   1.754   2.953   0.665 -1.8827 -1.4824 -0.9612
  529MPD2     N 7913   2.003   2.940   0.297 -0.6165 -0.1810 -0.4796
  529MPD2    H5 7914   1.914   2.953   0.250  0.5366  0.1080 -2.5693
  529MPD2    N1 7915   2.188   2.868   0.738 -0.0576 -0.6632 -0.2513
  529MPD2    H7 7916   2.275   2.850   0.689  0.2046  1.4339 -0.5359
  530TMC3    C1 7917   2.303   2.775   0.907 -0.4159 -0.2832  0.4325
  530TMC3    C2 7918   2.378   2.808   1.013  0.9748  0.6232  0.5090
  530TMC3    C3 7919   2.472   2.722   1.064  0.0471  0.1070  0.6155
  530TMC3    C4 7920   2.312   2.655   0.848  0.4371  0.5123 -0.5980
  530TMC3    C5 7921   2.405   2.570   0.899 -0.1724  0.2033 -0.1049
  530TMC3    C6 7922   2.484   2.595   1.011 -0.0353  0.8827  0.2018
  530TMC3     C 7923   2.188   2.856   0.873  0.4360  0.0822  0.6796
  530TMC3     O 7924   2.104   2.879   0.961 -0.4264 -0.1181 -0.0988
  530TMC3     H 7925   2.372   2.911   1.044  3.8211  0.6187  1.0944
  530TMC3    H1 7926   2.229   2.612   0.792  0.6680 -0.4748 -0.1882
  530TMC3    H2 7927   2.553   2.515   1.037 -1.8949 -0.6294  0.5321
  530TMC3    C7 7928   2.376   2.428   0.899  0.9192 -0.7260  0.0253
  530TMC3    C8 7929   2.577   2.767   1.167 -0.4499 -0.1826 -1.1296
  530TMC3    O1 7930   2.381   2.376   0.787  0.0225 -0.2477  0.9796
  530TMC3    O2 7931   2.555   2.871   1.226  0.2816  0.2909 -0.1952
  531MPD2     C 7932   1.293   4.053  12.817 -0.1218  0.8502  0.1214
  531MPD2    C1 7933   1.239   4.136  12.909  0.2598 -0.1482 -0.4084
  531MPD2    C2 7934   1.143   4.081  12.996  0.4214 -0.1096  0.4215
  531MPD2    C3 7935   1.097   3.947  12.979  0.2719  0.3634 -0.4221
  531MPD2    C4 7936   1.135   3.875  12.866  0.2614  0.2273  1.0289
  531MPD2    C5 7937   1.235   3.930  12.785 -0.5139  0.3403  0.6260
  531MPD2     H 7938   1.109   4.134  13.084  0.9022 -1.6730  1.5573
  531MPD2    H1 7939   1.097   3.775  12.846  1.3062 -0.0083  0.2018
  531MPD2    H2 7940   1.371   4.091  12.753 -1.1978 -0.1473 -1.7937
  531MPD2    H3 7941   1.271   3.858  12.712 -3.3762 -0.6916  0.2210
  531MPD2     N 7942   1.001   3.884  13.059  0.4237  0.2502  0.0645
  531MPD2    H5 7943   0.965   3.798  13.020  0.3368  0.8743 -1.2195
  531MPD2    N1 7944   1.305   4.260  12.924  0.4925  0.0038  0.1468
  531MPD2    H7 7945   1.382   4.284  12.862 -0.5478 -0.4171 -1.3101
  532TMC3    C1 7946   1.322   4.479  13.016  0.3925 -0.7809  0.5471
  532TMC3    C2 7947   1.227   4.571  13.044 -0.3397  0.8623  0.4706
  532TMC3    C3 7948   1.248   4.661  13.145  0.0966  0.6423 -0.1272
  532TMC3    C4 7949   1.439   4.479  13.090 -0.6476  0.3754  0.4425
  532TMC3    C5 7950   1.472   4.587  13.173  0.3993 -0.3198 -0.0650
  532TMC3    C6 7951   1.372   4.679  13.204 -0.0429 -0.0995  0.2322
  532TMC3     C 7952   1.254   4.353  13.004  0.4664  0.8019 -0.3643
  532TMC3     O 7953   1.149   4.353  13.066 -0.2368 -0.2361  0.0746
  532TMC3     H 7954   1.134   4.572  12.987  0.1311 -3.7443 -0.3578
  532TMC3    H1 7955   1.512   4.403  13.062 -0.2995  0.5037  1.0157
  532TMC3    H2 7956   1.388   0.010  13.285 -0.1627  0.7015 -0.4268
  532TMC3    C7 7957   1.581   4.582  13.270  0.9004 -0.5072 -0.3101
  532TMC3    C8 7958   1.141   4.662  13.249  0.2548 -0.0442 -0.7278
  532TMC3    O1 7959   1.612   4.690  13.316  0.3142 -0.5161 -0.5879
  532TMC3    O2 7960   1.122   0.019  13.327 -0.1980 -0.1695  0.2165
  533TMC3    C1 7961   1.896   1.893  14.521  0.1162  0.3631  0.2891
  533TMC3    C2 7962   2.009   1.930  14.584 -0.5318 -0.8278  0.1506
  533TMC3    C3 7963   2.010   2.019  14.687 -0.2550 -0.2213  0.2493
  533TMC3    C4 7964   1.773   1.943  14.559 -0.2816  0.1565 -0.0980
  533TMC3    C5 7965   1.766   2.020  14.671 -0.4266  0.1857 -0.9767
  533TMC3    C6 7966   1.886   2.070  14.736  0.2524  0.2210  0.0733
  533TMC3     C 7967   1.908   1.754  14.472 -0.3104 -0.7127  0.9306
  533TMC3     O 7968   2.009   1.695  14.504  0.4787  0.0843  0.0407
  533TMC3     H 7969   2.102   1.891  14.544 -0.9787 -1.0620 -0.6648
  533TMC3    H1 7970   1.677   1.915  14.519  0.7442 -0.8631 -1.8204
  533TMC3    H2 7971   1.880   2.142  14.817  0.0564 -1.4271  1.5316
  533TMC3    C7 7972   1.682   1.956  14.767  0.3792  0.2252 -0.1645
  533TMC3    C8 7973   2.133   2.057  14.759  0.0404  0.0213  0.2394
  533TMC3    O1 7974   1.675   1.837  14.742  0.4085 -0.0621  0.1104
  533TMC3    O2 7975   2.237   2.041  14.694 -0.6480 -0.1847  0.6388
  534MPD2     C 7976   0.210   3.109   1.596  0.6006 -0.5918 -0.2807
  534MPD2    C1 7977   0.188   3.176   1.470 -0.2240  1.2899 -0.0253
  534MPD2    C2 7978   0.063   3.171   1.411  0.2260  0.0674 -0.1152
  534MPD2    C3 7979   4.697   3.091   1.460 -0.3681 -1.2177  1.1612
  534MPD2    C4 7980   4.714   3.027   1.583 -0.1738  0.1518 -0.6248
  534MPD2    C5 7981   0.102   3.036   1.643 -0.7639  0.0051  0.2708
  534MPD2     H 7982   0.050   3.215   1.313 -0.5179  3.4442  1.5065
  534MPD2    H1 7983   4.639   2.963   1.630 -1.6464  1.8149 -0.7374
  534MPD2    H2 7984   0.303   3.117   1.651  0.9728 -0.2505 -0.9462
  534MPD2    H3 7985   0.125   2.994   1.740  1.3774 -2.7890 -1.4449
  534MPD2     N 7986   4.574   3.073   1.398  0.3750 -0.4562  0.2495
  534MPD2    H5 7987   4.531   2.985   1.424  0.3897  0.3430  2.9909
  534MPD2    N1 7988   0.281   3.266   1.410 -0.7209 -1.0238 -0.4872
  534MPD2    H7 7989   0.243   3.329   1.340  0.5430 -0.5897 -0.7737
  535TMC3    C1 7990   4.427   3.062   1.217  0.4825  1.0010 -1.0116
  535TMC3    C2 7991   4.355   2.958   1.269  0.2634 -0.0884 -0.7402
  535TMC3    C3 7992   4.252   2.906   1.201  0.0937 -0.2699 -0.5189
  535TMC3    C4 7993   4.398   3.106   1.088  0.4910 -0.2735 -0.1325
  535TMC3    C5 7994   4.287   3.049   1.019  0.0717  1.3260 -0.0818
  535TMC3    C6 7995   4.223   2.941   1.072  0.9508 -0.1319 -0.0683
  535TMC3     C 7996   4.535   3.134   1.283 -0.2327  0.3563 -0.2533
  535TMC3     O 7997   4.581   3.232   1.224 -0.0489 -0.2137 -0.5807
  535TMC3     H 7998   4.384   2.924   1.368  1.3060  1.6978 -0.4356
  535TMC3    H1 7999   4.458   3.181   1.039  2.6503 -1.3134  0.9186
  535TMC3    H2 8000   4.129   2.908   1.028  1.0935 -0.9984  0.2822
  535TMC3    C7 8001   4.244   3.092   0.891  0.0361 -0.0781 -0.2917
  535TMC3    C8 8002   4.158   2.822   1.274  0.7404  0.0874 -0.8760
  535TMC3    O1 8003   4.195   3.012   0.815 -0.8172  0.3270  0.1142
  535TMC3    O2 8004   4.075   2.767   1.203  0.5714  0.4504  0.1426
  536MPD2     C 8005   3.115   1.215  16.109 -0.1995 -0.3987 -0.2772
  536MPD2    C1 8006   2.985   1.258  16.104  0.5009  0.7106 -0.1552
  536MPD2    C2 8007   2.930   1.286  15.979 -0.5274 -0.2165 -0.5429
  536MPD2    C3 8008   3.003   1.275  15.864 -0.3595 -0.1381  0.5036
  536MPD2    C4 8009   3.135   1.233  15.868  0.1297  0.0023  0.3482
  536MPD2    C5 8010   3.183   1.199  15.990 -0.1229  0.3765  0.2769
  536MPD2     H 8011   2.827   1.322  15.979 -0.2908  0.4992  2.5203
  536MPD2    H1 8012   3.199   1.226  15.781 -0.9387  0.0945 -0.4464
  536MPD2    H2 8013   3.171   1.212  16.201 -1.9453  0.2173  0.8094
  536MPD2    H3 8014   3.288   1.174  15.997 -0.5466 -0.5713  2.9995
  536MPD2     N 8015   2.956   1.300  15.735  0.5069  0.2638  0.2369
  536MPD2    H5 8016   3.013   1.267  15.658  0.9308  0.9372  0.2691
  536MPD2    N1 8017   2.925   1.281  16.230  0.5091  0.2833 -0.3886
  536MPD2    H7 8018   2.990   1.282  16.308 -0.6620 -1.5870  0.6104
  537TMC3    C1 8019   2.773   1.290  16.398 -0.5492 -0.6321  0.0516
  537TMC3    C2 8020   2.852   1.360  16.480  0.0083  0.1955  0.1209
  537TMC3    C3 8021   2.832   1.358  16.613 -0.4614  0.4679 -0.0719
  537TMC3    C4 8022   2.667   1.223  16.454 -0.3932 -0.5244  0.2007
  537TMC3    C5 8023   2.660   1.211  16.592 -0.2855  0.1736  0.3445
  537TMC3    C6 8024   2.747   1.273  16.675 -0.7842  0.1981 -0.2905
  537TMC3     C 8025   2.795   1.286  16.255 -0.7201  0.4197  0.7185
  537TMC3     O 8026   2.703   1.255  16.181  0.3088 -0.1790  0.1860
  537TMC3     H 8027   2.929   1.424  16.440  0.0441  0.3467  0.4299
  537TMC3    H1 8028   2.596   1.175  16.387 -0.8042  0.7711 -0.3056
  537TMC3    H2 8029   2.754   1.260  16.782 -1.0446 -2.4661 -0.6048
  537TMC3    C7 8030   2.550   1.129  16.643  0.0449 -0.5291 -0.3003
  537TMC3    C8 8031   2.915   1.437  16.701 -0.7115  0.3494 -0.3124
  537TMC3    O1 8032   2.445   1.128  16.577  0.2067 -0.4400 -0.5756
  537TMC3    O2 8033   2.939   1.399  16.814  0.7050  0.4597 -0.6985
  538TMC3    C1 8034   4.521   3.653  11.054  0.5654 -0.3131 -0.6447
  538TMC3    C2 8035   4.520   3.549  10.964  0.2288  0.2340  0.2320
  538TMC3    C3 8036   4.399   3.504  10.930  0.1596  0.5674 -0.5715
  538TMC3    C4 8037   4.407   3.708  11.103  0.0805 -0.3742 -0.2641
  538TMC3    C5 8038   4.286   3.656  11.062  0.6329  0.3707 -0.4438
  538TMC3    C6 8039   4.280   3.553  10.977 -0.0549 -0.4950 -0.5729
  538TMC3     C 8040   4.647   3.720  11.089 -0.6501  0.0439  0.1610
  538TMC3     O 8041   4.737   3.691  11.011 -0.2732 -0.2365  0.0231
  538TMC3     H 8042   4.613   3.502  10.934 -0.3996  0.0959 -1.4829
  538TMC3    H1 8043   4.412   3.805  11.150 -2.5777  0.5831 -1.9271
  538TMC3    H2 8044   4.182   3.513  10.951 -0.0025 -0.6621 -0.5158
  538TMC3    C7 8045   4.165   3.675  11.146  1.5805 -0.1349 -0.5805
  538TMC3    C8 8046   4.379   3.411  10.824 -0.5764  0.6946 -0.1722
  538TMC3    O1 8047   4.058   3.637  11.105 -0.0594  0.4498  0.3138
  538TMC3    O2 8048   4.266   3.389  10.789  0.2922 -0.7688  0.2854
  539MPD2     C 8049   3.612   2.490  11.594  0.5243  0.0740 -0.3882
  539MPD2    C1 8050   3.700   2.568  11.526 -0.2587  0.5297  0.1124
  539MPD2    C2 8051   3.720   2.705  11.554 -0.1814 -0.1833  0.7165
  539MPD2    C3 8052   3.645   2.762  11.648 -0.3908 -0.2979 -0.5984
  539MPD2    C4 8053   3.563   2.680  11.720 -0.1321 -0.6290  0.0550
  539MPD2    C5 8054   3.549   2.547  11.701 -0.3022 -0.7062 -0.3146
  539MPD2     H 8055   3.791   2.761  11.494  0.8313 -1.4337  0.7476
  539MPD2    H1 8056   3.498   2.727  11.793  1.1879  1.0540  0.1404
  539MPD2    H2 8057   3.594   2.388  11.566  1.0790  0.5855 -2.5857
  539MPD2    H3 8058   3.480   2.490  11.762 -0.5181  0.4018  0.4512
  539MPD2     N 8059   3.646   2.898  11.679 -0.1168  0.0781 -0.2380
  539MPD2    H5 8060   3.578   2.922  11.751  2.0381  0.6982  1.6065
  539MPD2    N1 8061   3.776   2.510  11.420  0.1672 -0.5149 -0.1496
  539MPD2    H7 8062   3.831   2.570  11.360 -0.7456 -0.6914 -1.1428
  540TMC3    C1 8063   3.688   3.129  11.636  0.4250 -0.0915 -0.4892
  540TMC3    C2 8064   3.679   3.199  11.519  0.5309 -0.0160  0.3674
  540TMC3    C3 8065   3.651   3.339  11.536  0.1693 -0.0639 -0.0696
  540TMC3    C4 8066   3.657   3.176  11.760 -0.3103 -0.0755 -0.2463
  540TMC3    C5 8067   3.630   3.311  11.767 -0.7328  0.3559 -0.3735
  540TMC3    C6 8068   3.626   3.395  11.659  0.5749 -0.5359 -0.5263
  540TMC3     C 8069   3.728   2.989  11.617  0.1652  0.6138 -0.0908
  540TMC3     O 8070   3.827   2.964  11.553 -0.3331  0.1588 -0.1240
  540TMC3     H 8071   3.693   3.151  11.423  0.2554  1.8830 -0.6274
  540TMC3    H1 8072   3.647   3.108  11.844 -0.2530 -0.0531 -0.2208
  540TMC3    H2 8073   3.590   3.497  11.673  1.1369 -0.4989  0.5913
  540TMC3    C7 8074   3.597   3.378  11.896 -0.3142 -0.1312  0.3269
  540TMC3    C8 8075   3.669   3.423  11.419  0.6979 -0.6489 -0.6426
  540TMC3    O1 8076   3.571   3.499  11.906  0.1095  0.0047  0.4394
  540TMC3    O2 8077   3.712   3.537  11.437  0.3180 -0.5274  0.0885
  541MPD2     C 8078   2.524   0.367  13.270  0.1154 -0.1110  0.3767
  541MPD2    C1 8079   2.556   0.282  13.160 -0.3017  0.0942  0.1661
  541MPD2    C2 8080   2.537   0.349  13.033 -0.3649 -0.0447  0.3181
  541MPD2    C3 8081   2.506   0.487  13.023 -1.1474 -0.0842  0.3860
  541MPD2    C4 8082   2.468   0.556  13.135 -0.2554 -1.1821 -0.1230
  541MPD2    C5 8083   2.479   0.494  13.253 -0.0785  0.5015 -0.6984
  541MPD2     H 8084   2.552   0.286  12.947  0.7967 -0.0609  0.5309
  541MPD2    H1 8085   2.423   0.654  13.133  0.5072 -0.8159  0.8656
  541MPD2    H2 8086   2.543   0.324  13.367  3.4001  0.8325  0.1660
  541MPD2    H3 8087   2.470   0.556  13.341 -1.5130  0.7615 -1.0353
  541MPD2     N 8088   2.496   0.561  12.902  0.2583 -0.5442 -0.2181
  541MPD2    H5 8089   2.458   0.655  12.897 -1.1062 -1.0771  0.0128
  541MPD2    N1 8090   2.598   0.149  13.180 -0.1163  0.7426  0.0560
  541MPD2    H7 8091   2.614   0.119  13.275  0.1730  0.4037 -0.0997
  542TMC3    C1 8092   2.455   0.581  12.672 -0.2108  0.8781  0.0921
  542TMC3    C2 8093   2.492   0.537  12.550 -0.4271 -0.2443  0.1276
  542TMC3    C3 8094   2.460   0.611  12.437 -1.4613  0.2592 -0.0003
  542TMC3    C4 8095   2.350   0.670  12.690 -0.1431  0.0657 -0.8355
  542TMC3    C5 8096   2.302   0.727  12.574 -0.5482 -0.1022  0.0604
  542TMC3    C6 8097   2.360   0.705  12.451 -0.1438 -0.5590 -0.5592
  542TMC3     C 8098   2.505   0.499  12.783 -0.1463 -0.5335  0.6759
  542TMC3     O 8099   2.554   0.391  12.755 -0.4380  0.2222  0.2250
  542TMC3     H 8100   2.563   0.455  12.540  0.1966  0.6920 -3.0640
  542TMC3    H1 8101   2.322   0.697  12.791 -0.7574  0.5800 -1.1483
  542TMC3    H2 8102   2.320   0.757  12.365  0.8842 -2.0797 -1.9548
  542TMC3    C7 8103   2.173   0.800  12.572  0.1982 -0.8254 -0.3503
  542TMC3    C8 8104   2.506   0.572  12.308  0.1481  0.1777  0.2971
  542TMC3    O1 8105   2.169   0.883  12.481  0.3742  0.1608  0.1796
  542TMC3    O2 8106   2.425   0.560  12.216 -0.1548 -0.3162  0.7830
  543TMC3    C1 8107   1.788   2.007  17.002  0.2045  0.2247 -0.6908
  543TMC3    C2 8108   1.762   1.894  17.081 -0.4320  0.1707 -0.0762
  543TMC3    C3 8109   1.757   1.914  17.220 -0.2257  0.2473 -0.4528
  543TMC3    C4 8110   1.809   2.130  17.048 -0.4334  0.2062  0.5666
  543TMC3    C5 8111   1.814   2.137  17.184  0.1287 -0.4739  0.6323
  543TMC3    C6 8112   1.786   2.035  17.274 -0.3038  0.0279  0.1740
  543TMC3     C 8113   1.778   1.980  16.857  0.3288 -0.6946 -0.4162
  543TMC3     O 8114   1.776   1.861  16.833  0.6970  0.1826  0.2452
  543TMC3     H 8115   1.719   1.805  17.036 -1.0959 -1.4835  3.8579
  543TMC3    H1 8116   1.840   2.206  16.977  0.9377 -1.8608 -1.0432
  543TMC3    H2 8117   1.779   2.047  17.382 -1.8648 -1.1352  0.1949
  543TMC3    C7 8118   1.849   2.265  17.241  0.8333 -0.8603  0.0014
  543TMC3    C8 8119   1.776   1.798  17.297  0.1690 -0.0701  0.2693
  543TMC3    O1 8120   1.890   2.274  17.354 -0.6012  0.1426 -0.1536
  543TMC3    O2 8121   1.747   1.813  17.416 -0.6210  0.3903  0.3402
  544MPD2     C 8122   1.850   1.291  17.367 -0.2249 -0.0844  0.4523
  544MPD2    C1 8123   1.804   1.385  17.455  0.0127 -0.0297 -0.1008
  544MPD2    C2 8124   1.799   1.518  17.415 -0.1371 -0.1707 -0.4217
  544MPD2    C3 8125   1.831   1.553  17.281 -0.3161 -0.1642  0.2603
  544MPD2    C4 8126   1.863   1.452  17.186 -0.3475  0.0754 -0.8453
  544MPD2    C5 8127   1.871   1.324  17.236  0.6032  0.1611 -0.1527
  544MPD2     H 8128   1.774   1.599  17.482 -2.1758 -2.5899  1.7193
  544MPD2    H1 8129   1.870   1.468  17.079 -0.7002  2.7227 -0.4674
  544MPD2    H2 8130   1.871   1.190  17.399 -0.6799 -0.0337  0.9183
  544MPD2    H3 8131   1.896   1.247  17.165 -0.6772 -0.7489  0.3814
  544MPD2     N 8132   1.826   1.684  17.232 -0.4927 -0.1470  0.5403
  544MPD2    H5 8133   1.844   1.698  17.133  1.1589  1.9101  1.1162
  544MPD2    N1 8134   1.783   1.339  17.588 -0.1072 -0.1545 -0.9083
  544MPD2    H7 8135   1.801   1.240  17.596  0.0064 -0.0565  0.0951
  545TMC3    C1 8136   1.779   1.336   0.072  0.8978  1.0358  1.1316
  545TMC3    C2 8137   1.877   1.362   0.156  0.0517  0.0507 -0.2937
  545TMC3    C3 8138   1.916   1.257   0.239 -0.4335 -0.0389  1.2003
  545TMC3    C4 8139   1.718   1.215   0.061 -0.0417 -0.1656 -0.2844
  545TMC3    C5 8140   1.756   1.113   0.146 -0.0331 -0.2235  0.1083
  545TMC3    C6 8141   1.849   1.137   0.244  0.7261  0.3409  0.6020
  545TMC3     C 8142   1.779   1.413  17.702 -0.8501  0.3163 -0.6404
  545TMC3     O 8143   1.784   1.535  17.712 -0.5765  0.4725  0.5181
  545TMC3     H 8144   1.931   1.456   0.163  0.4045 -0.1484 -0.3091
  545TMC3    H1 8145   1.647   1.193  17.732 -1.1261  0.4945  0.5032
  545TMC3    H2 8146   1.867   1.074   0.331 -1.6648 -0.7795  0.2684
  545TMC3    C7 8147   1.668   0.996   0.152 -0.5114 -0.1175 -0.8312
  545TMC3    C8 8148   2.011   1.278   0.345 -0.1284  0.4489 -0.6537
  545TMC3    O1 8149   1.577   0.998   0.068 -0.2137 -0.0623 -0.3425
  545TMC3    O2 8150   2.079   1.187   0.390  0.3633  0.1841 -0.0170
  546MPD2     C 8151   3.092   1.650  17.284  0.3183 -0.3084 -0.0996
  546MPD2    C1 8152   3.002   1.709  17.195  0.4144  0.5535  0.2851
  546MPD2    C2 8153   2.977   1.840  17.198 -0.4684  0.0577 -0.1807
  546MPD2    C3 8154   3.072   1.921  17.259 -0.3516 -0.1433  0.1613
  546MPD2    C4 8155   3.170   1.863  17.332 -0.4216 -0.2811 -0.0221
  546MPD2    C5 8156   3.176   1.732  17.354 -0.0321  0.0205  0.5218
  546MPD2     H 8157   2.904   1.886  17.132 -1.2012 -0.9612 -0.0883
  546MPD2    H1 8158   3.242   1.917  17.392 -1.9960  1.0759  0.6487
  546MPD2    H2 8159   3.116   1.546  17.302  2.5783  0.4995  1.5614
  546MPD2    H3 8160   3.263   1.691  17.404  3.2558  1.4275 -4.0374
  546MPD2     N 8161   3.076   2.061  17.252  0.9817  0.5844 -0.7948
  546MPD2    H5 8162   3.162   2.110  17.275  1.8202 -1.0094 -0.4995
  546MPD2    N1 8163   2.918   1.620  17.119  0.1514 -0.1318 -0.1548
  546MPD2    H7 8164   2.945   1.522  17.122 -0.5893 -0.2801  1.6294
  547TMC3    C1 8165   2.739   1.531  17.000  0.4336  0.1686 -0.6128
  547TMC3    C2 8166   2.655   1.517  16.892  0.0017  0.2058  0.4189
  547TMC3    C3 8167   2.562   1.417  16.891  0.8135  0.6099  0.1444
  547TMC3    C4 8168   2.736   1.433  17.098 -0.0064  0.1966  0.1345
  547TMC3    C5 8169   2.652   1.329  17.083 -0.2304 -0.0103  0.5145
  547TMC3    C6 8170   2.555   1.325  16.989 -0.2067 -0.3575  0.2761
  547TMC3     C 8171   2.817   1.643  17.027  0.3567  0.5541  0.4846
  547TMC3     O 8172   2.770   1.753  16.991 -0.3289  0.1932 -0.0842
  547TMC3     H 8173   2.656   1.600  16.822 -0.5185 -0.1873 -0.0558
  547TMC3    H1 8174   2.792   1.427  17.191  0.2939  0.2852 -0.0410
  547TMC3    H2 8175   2.481   1.245  16.983  0.3573 -0.8579 -0.0461
  547TMC3    C7 8176   2.631   1.237  17.184  0.4203 -0.3740 -0.2835
  547TMC3    C8 8177   2.457   1.419  16.789  0.6340 -0.7483  0.5563
  547TMC3    O1 8178   2.523   1.189  17.215 -0.2294  0.4201  0.2041
  547TMC3    O2 8179   2.481   1.491  16.696  0.3118  0.2380  0.5239
  548MPD2     C 8180   2.748   2.036  12.494 -0.0619  0.3209  0.0632
  548MPD2    C1 8181   2.738   1.897  12.487 -1.1122  0.6208  0.3521
  548MPD2    C2 8182   2.859   1.821  12.481 -0.2020 -0.1542  0.1941
  548MPD2    C3 8183   2.981   1.890  12.498 -0.0400 -0.4052  0.4784
  548MPD2    C4 8184   2.982   2.026  12.507  0.4508  0.2488  0.8802
  548MPD2    C5 8185   2.868   2.095  12.502 -0.1818 -0.0649  0.2485
  548MPD2     H 8186   2.851   1.714  12.467 -0.0913  0.1510 -2.1803
  548MPD2    H1 8187   3.070   2.083  12.483  0.5992 -0.7818 -1.0607
  548MPD2    H2 8188   2.656   2.094  12.489 -0.8003 -0.9543 -1.1018
  548MPD2    H3 8189   2.870   2.203  12.510  0.8404  0.0182 -1.1500
  548MPD2     N 8190   3.099   1.812  12.511 -0.2314  0.2521  0.2966
  548MPD2    H5 8191   3.089   1.711  12.502  0.5001  0.3010 -1.0951
  548MPD2    N1 8192   2.604   1.851  12.503 -0.0063  0.1854  0.0582
  548MPD2    H7 8193   2.523   1.912  12.508  0.2765  0.4273  1.9525
  549TMC3    C1 8194   2.447   1.687  12.587  0.2953  0.7935  0.5048
  549TMC3    C2 8195   2.345   1.778  12.564  0.1316 -0.9280 -0.7212
  549TMC3    C3 8196   2.222   1.719  12.528 -0.3536  0.0762 -0.5405
  549TMC3    C4 8197   2.425   1.552  12.583 -0.5260  0.0392  0.5380
  549TMC3    C5 8198   2.295   1.496  12.556 -0.1995  0.9190  0.3990
  549TMC3    C6 8199   2.201   1.583  12.521  0.3795  0.5593 -0.3185
  549TMC3     C 8200   2.581   1.717  12.537 -0.0114 -0.3964 -0.4134
  549TMC3     O 8201   2.661   1.627  12.535 -0.2788  0.5904  0.5581
  549TMC3     H 8202   2.356   1.885  12.574  2.3092 -0.9725 -2.6674
  549TMC3    H1 8203   2.497   1.490  12.634  0.6789 -0.9008 -2.3131
  549TMC3    H2 8204   2.107   1.539  12.488  1.2066 -1.7597  0.3976
  549TMC3    C7 8205   2.304   1.375  12.483 -0.5600  0.9156  0.0925
  549TMC3    C8 8206   2.111   1.803  12.481 -0.5676  0.0605 -0.1102
  549TMC3    O1 8207   2.266   1.376  12.366 -0.3702  0.1681  0.4258
  549TMC3    O2 8208   2.052   1.765  12.380 -0.4759 -0.1142  0.1612
  550TMC3    C1 8209   1.693   0.095  12.938 -0.1067 -0.4500 -0.0326
  550TMC3    C2 8210   1.602   0.192  12.975  0.8542  0.6172 -0.0226
  550TMC3    C3 8211   1.478   0.188  12.915  0.3297  0.2718 -0.1788
  550TMC3    C4 8212   1.659   4.724  12.862  0.4126 -0.1944 -0.2571
  550TMC3    C5 8213   1.530   4.725  12.807 -0.3938 -0.3321 -0.1773
  550TMC3    C6 8214   1.444   0.092  12.825  0.7211 -1.3869  0.4309
  550TMC3     C 8215   1.838   0.121  12.962  0.8208 -0.2177  0.1665
  550TMC3     O 8216   1.867   0.165  13.074 -0.0697  0.2797 -0.0400
  550TMC3     H 8217   1.629   0.278  13.036 -0.2828  0.7236  0.3276
  550TMC3    H1 8218   1.726   4.640  12.846 -0.1757 -0.6777 -0.2027
  550TMC3    H2 8219   1.346   0.094  12.779  1.8001  1.9664 -1.7319
  550TMC3    C7 8220   1.482   4.618  12.727 -0.2796  0.1922  0.3223
  550TMC3    C8 8221   1.383   0.300  12.933 -0.3073  0.4323  0.6072
  550TMC3    O1 8222   1.359   4.601  12.722  0.8398 -1.2488 -0.2337
  550TMC3    O2 8223   1.296   0.309  12.848  0.6830 -0.2976  0.5688
  551TMC3    C1 8224   4.466   2.558  13.227  0.0737 -0.1642  0.8743
  551TMC3    C2 8225   4.575   2.519  13.155 -0.1846  1.0671  0.2942
  551TMC3    C3 8226   4.701   2.553  13.198 -0.3146 -0.0112  0.1637
  551TMC3    C4 8227   4.478   2.624  13.346  0.2195 -0.6611 -0.6803
  551TMC3    C5 8228   4.605   2.672  13.375  0.8372 -0.2438 -0.5756
  551TMC3    C6 8229   4.718   2.636  13.306  0.2404 -0.4932  0.3791
  551TMC3     C 8230   4.343   2.560  13.159 -0.2394 -0.2407 -0.3488
  551TMC3     O 8231   4.243   2.505  13.206  0.5196  0.4906  0.5832
  551TMC3     H 8232   4.565   2.461  13.064 -3.6256  1.4312  0.4380
  551TMC3    H1 8233   4.393   2.667  13.397  0.0417 -0.3762 -1.2193
  551TMC3    H2 8234   0.075   2.681  13.333 -1.1230  2.9211 -0.5905
  551TMC3    C7 8235   4.628   2.734  13.496 -0.2950  0.1776 -0.0648
  551TMC3    C8 8236   0.073   2.515  13.117 -1.2945  0.6599 -0.0098
  551TMC3    O1 8237   4.736   2.716  13.550  0.1763  0.1790  0.4480
  551TMC3    O2 8238   0.048   2.416  13.047  0.1645  0.1695  0.2173
  552MPD2     C 8239   1.569   0.004  13.676  0.4976  0.7029  0.7418
  552MPD2    C1 8240   1.562   4.623  13.745  0.0708  0.4012  0.6635
  552MPD2    C2 8241   1.648   4.597  13.848 -0.5566 -0.7312 -0.0452
  552MPD2    C3 8242   1.740   4.697  13.893 -0.5617 -0.4049  0.0176
  552MPD2    C4 8243   1.738   0.083  13.834  0.2026  0.2620  0.2541
  552MPD2    C5 8244   1.660   0.097  13.723 -0.8114  0.4775 -0.7160
  552MPD2     H 8245   1.634   4.502  13.900 -1.2564  0.1982  1.4603
  552MPD2    H1 8246   1.803   0.163  13.867  0.4523 -0.0537  0.5319
  552MPD2    H2 8247   1.509   0.017  13.587 -0.3012 -0.3222  1.1290
  552MPD2    H3 8248   1.658   0.198  13.684  0.8563  0.7045 -0.2092
  552MPD2     N 8249   1.824   4.677  13.999  0.0152  0.7352  0.1935
  552MPD2    H5 8250   1.878   0.020  14.028 -0.5300  0.8784  0.8192
  552MPD2    N1 8251   1.480   4.521  13.701  0.0854 -0.0328 -0.0304
  552MPD2    H7 8252   1.484   4.435  13.753  0.6387 -0.1127 -0.1991
  553TMC3    C1 8253   1.356   4.379  13.557  0.1090  0.0086 -0.5000
  553TMC3    C2 8254   1.328   4.350  13.425  0.3795  0.9097  0.7611
  553TMC3    C3 8255   1.279   4.226  13.387  0.3329 -0.1749  0.6926
  553TMC3    C4 8256   1.330   4.293  13.660 -0.4093 -0.7791 -0.1029
  553TMC3    C5 8257   1.266   4.175  13.623  0.4213 -0.3814 -0.4992
  553TMC3    C6 8258   1.237   4.140  13.489  0.4261  0.9473  0.5037
  553TMC3     C 8259   1.390   4.519  13.595 -0.4229  1.1789  0.0617
  553TMC3     O 8260   1.339   4.607  13.522 -0.4559 -0.4564  0.2676
  553TMC3     H 8261   1.375   4.406  13.345  0.9451 -0.7486 -0.0789
  553TMC3    H1 8262   1.348   4.303  13.766 -1.7690  1.6936 -0.1194
  553TMC3    H2 8263   1.185   4.049  13.465  1.2584  0.6743 -0.2607
  553TMC3    C7 8264   1.295   4.053  13.696  0.4209 -1.0192  0.6574
  553TMC3    C8 8265   1.375   4.164  13.288 -0.0161  0.3258  0.2122
  553TMC3    O1 8266   1.206   3.975  13.708  0.6266 -0.6123  0.0062
  553TMC3    O2 8267   1.481   4.219  13.261 -0.1590  0.8081 -1.1176
  554TMC3    C1 8268   2.849   2.832  11.447  0.3782  0.7827  0.1189
  554TMC3    C2 8269   2.811   2.837  11.308 -0.1836 -0.1670 -0.5219
  554TMC3    C3 8270   2.916   2.857  11.221  0.5072  0.2538  0.1080
  554TMC3    C4 8271   2.963   2.881  11.498 -0.2892 -0.4153 -0.2602
  554TMC3    C5 8272   3.060   2.916  11.406  0.9172  0.2762  0.5303
  554TMC3    C6 8273   3.040   2.900  11.272 -0.3476 -0.0358  0.7431
  554TMC3     C 8274   2.748   2.789  11.535  0.1599 -0.5486  0.5987
  554TMC3     O 8275   2.638   2.823  11.500 -0.2571  0.5867  0.5065
  554TMC3     H 8276   2.706   2.825  11.282 -0.4494 -0.1619  0.5704
  554TMC3    H1 8277   2.976   2.887  11.606 -3.1329 -1.0887  0.1258
  554TMC3    H2 8278   3.111   2.928  11.196  1.9166 -3.4187  1.6177
  554TMC3    C7 8279   3.144   3.035  11.429  0.5930 -0.5442 -0.0443
  554TMC3    C8 8280   2.881   2.898  11.082  0.3595 -0.0334  1.4166
  554TMC3    O1 8281   3.187   3.085  11.329  0.0664  0.1012  0.6005
  554TMC3    O2 8282   2.945   2.995  11.041  0.5925  0.4297  0.4421
  555TMC3    C1 8283   2.288   3.395  15.283 -0.0823 -0.2352 -0.0872
  555TMC3    C2 8284   2.335   3.422  15.410 -0.5943 -0.2864  0.9799
  555TMC3    C3 8285   2.358   3.318  15.497 -0.5943 -0.0526 -0.4708
  555TMC3    C4 8286   2.253   3.267  15.247 -0.0877 -0.2649 -0.0767
  555TMC3    C5 8287   2.268   3.175  15.343 -0.2199 -0.0141  0.7662
  555TMC3    C6 8288   2.315   3.193  15.467  0.0514  0.1858 -0.3695
  555TMC3     C 8289   2.291   3.499  15.178 -0.2217  0.4050  0.0540
  555TMC3     O 8290   2.346   3.603  15.211  0.1277  0.5766  0.3436
  555TMC3     H 8291   2.381   3.518  15.429 -1.0623  0.0357  0.4770
  555TMC3    H1 8292   2.215   3.250  15.147  0.0278 -0.7501 -0.0377
  555TMC3    H2 8293   2.306   3.120  15.547 -0.0421 -0.6370 -1.1389
  555TMC3    C7 8294   2.209   3.042  15.316  0.1074  1.2787  0.6098
  555TMC3    C8 8295   2.416   3.351  15.620  0.6032 -0.0130 -0.7247
  555TMC3    O1 8296   2.155   2.969  15.402  0.0601  0.2383  0.6235
  555TMC3    O2 8297   2.422   3.468  15.654  0.1587  0.0053  0.6422
  556MPD2     C 8298   0.787   3.854  10.683  0.4167  0.2375 -0.0878
  556MPD2    C1 8299   0.653   3.885  10.687  0.2074 -0.0622  0.1162
  556MPD2    C2 8300   0.573   3.802  10.606 -0.2913 -1.1583 -0.5103
  556MPD2    C3 8301   0.627   3.711  10.519  0.2142  0.1260 -0.4667
  556MPD2    C4 8302   0.763   3.697  10.507  0.1648 -0.1368  0.3241
  556MPD2    C5 8303   0.846   3.761  10.594  0.7246  0.5239 -0.2054
  556MPD2     H 8304   0.466   3.815  10.612 -0.0142 -0.5180  2.8513
  556MPD2    H1 8305   0.812   3.616  10.454 -0.0676 -0.2686  0.3093
  556MPD2    H2 8306   0.857   3.904  10.749  1.8112 -1.0430 -0.5893
  556MPD2    H3 8307   0.950   3.734  10.603  0.0578 -1.6619  1.1205
  556MPD2     N 8308   0.544   3.623  10.455 -0.3572 -0.1679 -0.0173
  556MPD2    H5 8309   0.451   3.602  10.487 -0.9647 -1.5210 -2.6288
  556MPD2    N1 8310   0.617   3.994  10.773  0.0175 -0.0673 -0.2681
  556MPD2    H7 8311   0.695   4.036  10.822  0.2182  0.7800 -1.3320
  557TMC3    C1 8312   0.470   3.445  10.330 -0.2838  0.2154 -0.5368
  557TMC3    C2 8313   0.457   3.404  10.211  0.6059  0.2065  0.3976
  557TMC3    C3 8314   0.368   3.305  10.185 -0.2655 -0.2902 -0.5304
  557TMC3    C4 8315   0.386   3.405  10.433 -0.1589  0.5383  0.4627
  557TMC3    C5 8316   0.295   3.311  10.398  0.0980 -0.0031 -0.5986
  557TMC3    C6 8317   0.287   3.256  10.275 -0.5193  0.0590  0.0968
  557TMC3     C 8318   0.582   3.542  10.354  0.2244 -0.3366  0.1195
  557TMC3     O 8319   0.678   3.556  10.280  0.1423  0.2000 -0.0158
  557TMC3     H 8320   0.523   3.438  10.133 -1.5578  0.6772 -1.2243
  557TMC3    H1 8321   0.400   3.434  10.536 -3.0718  1.2845  0.6531
  557TMC3    H2 8322   0.212   3.186  10.238 -0.3565 -0.5466  0.9220
  557TMC3    C7 8323   0.189   3.296  10.500  0.4694 -0.1700 -0.3025
  557TMC3    C8 8324   0.358   3.275  10.044  0.1865 -0.2908  0.5488
  557TMC3    O1 8325   0.201   3.374  10.596  0.1630 -0.0983 -0.0413
  557TMC3    O2 8326   0.386   3.360   9.964 -0.2283  0.4868 -0.1392
  558TMC3    C1 8327   2.518   2.301   9.611 -0.3591 -0.4078 -0.5864
  558TMC3    C2 8328   2.416   2.276   9.698  0.2768  0.4322  0.9852
  558TMC3    C3 8329   2.292   2.258   9.642 -0.5694  0.3466 -0.2718
  558TMC3    C4 8330   2.508   2.312   9.474 -0.1131 -0.5944  0.4146
  558TMC3    C5 8331   2.383   2.292   9.428  0.7453  0.2612 -0.7294
  558TMC3    C6 8332   2.272   2.260   9.506  0.2137  0.6479 -0.0279
  558TMC3     C 8333   2.649   2.280   9.664 -0.4028 -0.7133 -0.3045
  558TMC3     O 8334   2.737   2.361   9.644  0.3490 -1.5649 -0.0377
  558TMC3     H 8335   2.431   2.277   9.805 -3.1451  0.1107  1.4737
  558TMC3    H1 8336   2.597   2.308   9.413  0.0111 -1.1963  0.6310
  558TMC3    H2 8337   2.177   2.240   9.457 -0.4216 -0.5647  1.7098
  558TMC3    C7 8338   2.367   2.261   9.287  0.5653 -0.0007 -0.3684
  558TMC3    C8 8339   2.177   2.193   9.719 -0.4760 -0.3560 -0.2436
  558TMC3    O1 8340   2.443   2.317   9.205 -0.5761 -0.1278 -0.4158
  558TMC3    O2 8341   2.080   2.168   9.650 -0.7365  0.3945 -0.7175
  559MPD2     C 8342   2.821   2.996  10.211  0.2202 -0.5897 -0.5307
  559MPD2    C1 8343   2.738   2.902  10.262  0.0047 -0.2830 -0.2985
  559MPD2    C2 8344   2.783   2.839  10.380  0.2938 -0.0529  0.1005
  559MPD2    C3 8345   2.907   2.860  10.435 -0.0874  0.5168  0.3764
  559MPD2    C4 8346   2.988   2.953  10.379  0.6755  0.4603 -0.0680
  559MPD2    C5 8347   2.943   3.021  10.266 -0.6801  0.0529 -0.5051
  559MPD2     H 8348   2.721   2.767  10.431  0.5673 -0.3469  0.0127
  559MPD2    H1 8349   3.081   2.972  10.430 -0.3859 -0.7097  2.3103
  559MPD2    H2 8350   2.784   3.040  10.119 -0.0278 -0.2955 -0.2903
  559MPD2    H3 8351   3.013   3.089  10.220 -2.4901  0.5305 -2.5480
  559MPD2     N 8352   2.923   2.795  10.557 -0.1626  0.0426 -1.0327
  559MPD2    H5 8353   2.837   2.761  10.598  0.7118 -0.3402  0.4758
  559MPD2    N1 8354   2.609   2.885  10.204 -0.0144  0.3572  0.3005
  559MPD2    H7 8355   2.593   2.939  10.119 -0.6910  1.8574  1.3841
  560TMC3    C1 8356   3.026   2.689  10.744  0.0971 -0.6559 -0.2147
  560TMC3    C2 8357   2.926   2.599  10.749  0.3298 -0.2842  0.0374
  560TMC3    C3 8358   2.916   2.508  10.849  0.4141  0.2144 -0.1569
  560TMC3    C4 8359   3.112   2.700  10.847 -0.2657 -0.3753 -0.0055
  560TMC3    C5 8360   3.084   2.622  10.961  0.2777 -0.1391 -0.1867
  560TMC3    C6 8361   2.991   2.520  10.966 -0.1768  0.3161 -0.3325
  560TMC3     C 8362   3.040   2.779  10.631 -0.0232  0.3579 -0.1207
  560TMC3     O 8363   3.153   2.830  10.611  0.7627  0.0455  0.6933
  560TMC3     H 8364   2.854   2.583  10.669  1.0108 -2.7040 -0.0947
  560TMC3    H1 8365   3.178   2.786  10.837 -1.4268  0.4377 -0.7194
  560TMC3    H2 8366   2.974   2.472  11.062  3.0649  2.9470  1.5608
  560TMC3    C7 8367   3.161   2.644  11.076  0.2065  0.6721 -0.1032
  560TMC3    C8 8368   2.811   2.409  10.850 -0.3456  0.1913  0.1173
  560TMC3    O1 8369   3.123   2.596  11.181 -0.0383  0.4709  0.5920
  560TMC3    O2 8370   2.714   2.423  10.777 -0.5966  0.1044 -0.2111
  561TMC3    C1 8371   0.659   1.570  10.800  0.8073 -0.2390 -0.4850
  561TMC3    C2 8372   0.622   1.490  10.904 -0.5698  0.4813 -0.2338
  561TMC3    C3 8373   0.553   1.539  11.015 -0.2486 -0.3470 -0.3732
  561TMC3    C4 8374   0.646   1.708  10.814 -0.1037  0.4253 -0.0765
  561TMC3    C5 8375   0.590   1.755  10.928 -0.4316 -0.3981 -0.2948
  561TMC3    C6 8376   0.532   1.671  11.021 -0.0606 -0.2853 -0.1951
  561TMC3     C 8377   0.704   1.509  10.678  0.2685  0.1048 -0.2559
  561TMC3     O 8378   0.709   1.387  10.676  0.3208 -0.1575 -0.3886
  561TMC3     H 8379   0.637   1.383  10.889 -0.8411  0.5299 -0.8693
  561TMC3    H1 8380   0.653   1.771  10.726  1.0214 -0.9983 -1.0114
  561TMC3    H2 8381   0.448   1.705  11.082 -0.4280 -0.8147 -0.4087
  561TMC3    C7 8382   0.597   1.896  10.974  0.0796 -0.1635 -0.5599
  561TMC3    C8 8383   0.506   1.452  11.121  0.0900  0.5306  0.7630
  561TMC3    O1 8384   0.532   1.927  11.072  0.1876  0.2771 -0.0464
  561TMC3    O2 8385   0.538   1.336  11.124 -0.2565  0.2752 -0.0034
  562TMC3    C1 8386   2.621   3.487  16.116  0.0621  0.1310 -1.0346
  562TMC3    C2 8387   2.585   3.601  16.052 -0.1503 -0.5585 -0.5001
  562TMC3    C3 8388   2.472   3.583  15.976 -0.1506  0.2122 -0.0274
  562TMC3    C4 8389   2.544   3.372  16.122  1.0924  0.8170 -0.3063
  562TMC3    C5 8390   2.420   3.370  16.062  0.5143  0.0864 -0.5394
  562TMC3    C6 8391   2.386   3.476  15.978 -0.1525 -0.4043 -0.5888
  562TMC3     C 8392   2.746   3.488  16.185 -0.2331 -1.0493 -0.2440
  562TMC3     O 8393   2.812   3.385  16.204 -0.3896 -0.5538  0.2492
  562TMC3     H 8394   2.656   3.682  16.048 -0.4263 -0.2374  1.1457
  562TMC3    H1 8395   2.585   3.291  16.180 -0.5632  0.3261  0.1665
  562TMC3    H2 8396   2.283   3.484  15.945  0.6090  0.1872 -2.7637
  562TMC3    C7 8397   2.327   3.262  16.073 -0.9847 -0.0693  0.2645
  562TMC3    C8 8398   2.424   3.713  15.915 -0.2738  0.2712 -0.2407
  562TMC3    O1 8399   2.231   3.267  16.001 -0.4076  0.0047 -0.9748
  562TMC3    O2 8400   2.483   3.813  15.954  0.1101 -0.5361  0.3593
  563MPD2     C 8401   0.139   4.679  15.648  0.4016 -0.0434  0.0758
  563MPD2    C1 8402   0.070   4.653  15.770  0.4714  0.4945  0.3798
  563MPD2    C2 8403   0.143   4.670  15.887  0.4922 -0.0363  0.0969
  563MPD2    C3 8404   0.274   4.718  15.888  0.3180  0.6580  0.3618
  563MPD2    C4 8405   0.346   4.731  15.769 -0.2493  0.0462 -0.7871
  563MPD2    C5 8406   0.273   4.714  15.651  0.1389  0.4459 -1.0991
  563MPD2     H 8407   0.099   4.650  15.984 -2.8206  1.7634 -1.0495
  563MPD2    H1 8408   0.442   0.041  15.759 -0.5947  1.4198  2.6162
  563MPD2    H2 8409   0.083   4.678  15.555  2.6461  3.8080 -1.3005
  563MPD2    H3 8410   0.325   4.729  15.557  1.6901 -0.5576 -0.4044
  563MPD2     N 8411   0.324   0.010  16.019  0.2772 -0.1311 -0.0808
  563MPD2    H5 8412   0.255   4.736  16.092 -1.2673  1.8533 -1.1778
  563MPD2    N1 8413   4.670   4.626  15.792  0.3635 -0.1104  0.0974
  563MPD2    H7 8414   4.636   4.645  15.886  0.6184 -1.3373  0.4317
  564TMC3    C1 8415   4.436   4.633  15.762  0.0019  0.8205 -0.2646
  564TMC3    C2 8416   4.346   4.530  15.741  0.7322 -0.8170  0.3192
  564TMC3    C3 8417   4.263   4.507  15.845  0.0592  0.1050  0.0076
  564TMC3    C4 8418   4.443   4.703  15.882 -0.2844  0.1221  0.1660
  564TMC3    C5 8419   4.370   4.655  15.986  0.4305  0.1462 -0.3933
  564TMC3    C6 8420   4.275   4.558  15.969  0.3492 -0.2978  0.8726
  564TMC3     C 8421   4.568   4.598  15.699  0.1340 -0.5045  1.1233
  564TMC3     O 8422   4.572   4.576  15.577  0.2740 -0.3639 -0.4391
  564TMC3     H 8423   4.360   4.473  15.650  2.5774  0.0593  0.0610
  564TMC3    H1 8424   4.511   0.048  15.897 -0.7970  0.4806  0.4978
  564TMC3    H2 8425   4.199   4.552  16.045 -1.1334 -2.0499 -0.7404
  564TMC3    C7 8426   4.435   4.657  16.114 -0.3269  0.5927  0.7244
  564TMC3    C8 8427   4.158   4.409  15.833 -0.0481 -0.5393  0.0105
  564TMC3    O1 8428   4.519   0.010  16.125  0.0575  0.6711  0.5470
  564TMC3    O2 8429   4.099   4.377  15.936 -0.2475  0.2020 -0.0451
  565TMC3    C1 8430   0.326   0.772  10.061  0.5875  0.3989  0.0006
  565TMC3    C2 8431   0.303   0.674  10.150 -0.1607  0.4736  0.1616
  565TMC3    C3 8432   0.276   0.544  10.108 -0.0719  0.3225 -0.6490
  565TMC3    C4 8433   0.313   0.736   9.928  0.3703  0.6785 -0.0706
  565TMC3    C5 8434   0.286   0.603   9.892 -0.1796 -0.1090 -0.5586
  565TMC3    C6 8435   0.280   0.502   9.981 -0.2840  0.1986 -0.0326
  565TMC3     C 8436   0.352   0.910  10.102 -0.3237 -0.4253  0.4058
  565TMC3     O 8437   0.402   0.983  10.022 -0.2226  0.3914 -1.1722
  565TMC3     H 8438   0.315   0.698  10.255 -0.9726  1.8047 -0.0476
  565TMC3    H1 8439   0.324   0.807   9.847 -0.2613  0.5480 -0.2660
  565TMC3    H2 8440   0.221   0.417   9.950  0.9750 -0.7309  0.1275
  565TMC3    C7 8441   0.284   0.586   9.750  0.1696 -0.0362  0.3646
  565TMC3    C8 8442   0.210   0.469  10.209 -0.4781 -0.2390 -0.4904
  565TMC3    O1 8443   0.290   0.684   9.675 -0.1870 -0.0706 -0.4794
  565TMC3    O2 8444   0.177   0.535  10.305  0.7979 -0.5715  0.5129
  566MPD2     C 8445   2.296   2.479  14.756 -0.5469 -0.4082  0.3771
  566MPD2    C1 8446   2.373   2.437  14.649 -0.3590 -0.1908 -0.2977
  566MPD2    C2 8447   2.318   2.363  14.537  0.3649  0.2796  0.5913
  566MPD2    C3 8448   2.183   2.339  14.540  0.6779  0.6807 -0.3407
  566MPD2    C4 8449   2.115   2.368  14.662  0.3323  0.3596  0.6305
  566MPD2    C5 8450   2.169   2.446  14.766 -0.0511  0.8522 -0.3860
  566MPD2     H 8451   2.368   2.314  14.455 -0.3236  0.0581  0.3066
  566MPD2    H1 8452   2.010   2.345  14.675  0.3249 -0.0271 -0.1075
  566MPD2    H2 8453   2.334   2.517  14.850 -1.4395 -0.2684  0.6851
  566MPD2    H3 8454   2.110   2.450  14.857  1.3896  0.6669  0.5581
  566MPD2     N 8455   2.116   2.292  14.426  0.3134 -0.3875  0.0055
  566MPD2    H5 8456   2.169   2.264  14.344 -0.2831  1.0670 -0.8802
  566MPD2    N1 8457   2.500   2.499  14.637 -0.1663 -0.6365  0.2098
  566MPD2    H7 8458   2.523   2.559  14.716 -0.1946 -0.7876  0.3327
  567TMC3    C1 8459   2.672   2.592  14.510  0.3274 -0.8565 -0.2152
  567TMC3    C2 8460   2.762   2.586  14.404 -0.2039 -0.1878 -0.1236
  567TMC3    C3 8461   2.796   2.693  14.328 -0.0335  0.1479  0.1280
  567TMC3    C4 8462   2.618   2.722  14.535  0.2700  0.1415 -0.1269
  567TMC3    C5 8463   2.655   2.826  14.463  0.2060  0.7481 -0.6108
  567TMC3    C6 8464   2.759   2.820  14.370  0.3346  0.1750  0.0843
  567TMC3     C 8465   2.584   2.480  14.530 -0.0244 -0.6912  0.1187
  567TMC3     O 8466   2.594   2.386  14.452  0.4649  0.3131  0.1359
  567TMC3     H 8467   2.786   2.490  14.360  3.0484  0.3159  0.5598
  567TMC3    H1 8468   2.542   2.737  14.611 -1.7781  0.6489 -2.2766
  567TMC3    H2 8469   2.784   2.906  14.310  2.6681  0.9427  2.1815
  567TMC3    C7 8470   2.593   2.956  14.488 -0.4079  0.7236 -0.1599
  567TMC3    C8 8471   2.793   2.689  14.179 -0.4936 -0.3778 -0.1156
  567TMC3    O1 8472   2.654   3.047  14.435 -0.2696 -0.0455 -0.0523
  567TMC3    O2 8473   2.742   2.777  14.113  0.0972  0.3859 -0.1520
  568MPD2     C 8474   3.765   3.123  16.471 -0.2940  0.8753  0.4149
  568MPD2    C1 8475   3.793   3.250  16.522  0.0452 -0.5638 -0.8929
  568MPD2    C2 8476   3.789   3.361  16.439  0.1905 -0.1129 -0.4138
  568MPD2    C3 8477   3.749   3.349  16.305 -0.1973 -0.0330  0.2062
  568MPD2    C4 8478   3.718   3.228  16.259 -0.2055 -0.1740 -0.4192
  568MPD2    C5 8479   3.727   3.115  16.338  0.3683 -0.0154  0.0142
  568MPD2     H 8480   3.799   3.460  16.481 -2.0713  1.0369 -2.6169
  568MPD2    H1 8481   3.668   3.212  16.164 -0.1363 -0.6159 -0.3844
  568MPD2    H2 8482   3.753   3.033  16.531  1.5834  0.6472  0.4707
  568MPD2    H3 8483   3.689   3.022  16.297 -1.6849  0.5596  0.5702
  568MPD2     N 8484   3.738   3.470  16.222  0.1156  0.7945 -0.2574
  568MPD2    H5 8485   3.743   3.559  16.270  0.9567  0.3886  0.4068
  568MPD2    N1 8486   3.801   3.257  16.665 -0.2707 -0.4668 -0.4935
  568MPD2    H7 8487   3.785   3.170  16.715  0.7874 -0.9445 -0.9850
  569TMC3    C1 8488   3.673   3.618  16.055  0.5539  0.2846 -0.2388
  569TMC3    C2 8489   3.630   3.702  16.149  0.4268 -0.1159  0.0667
  569TMC3    C3 8490   3.639   3.835  16.124  0.1268 -0.9888  0.0875
  569TMC3    C4 8491   3.718   3.669  15.935 -1.3084 -0.4094 -0.0448
  569TMC3    C5 8492   3.737   3.806  15.918  0.3990 -0.4037  0.2851
  569TMC3    C6 8493   3.691   3.895  16.012 -0.7801  0.6879 -0.0508
  569TMC3     C 8494   3.707   3.483  16.087  0.1829 -0.8242  0.1645
  569TMC3     O 8495   3.701   3.398  15.998  0.1567 -0.4283  0.0222
  569TMC3     H 8496   3.559   3.672  16.225  0.9685  0.4777  0.8132
  569TMC3    H1 8497   3.771   3.602  15.867 -0.6130 -1.6681  1.7368
  569TMC3    H2 8498   3.690   4.003  15.999 -0.2079  0.5563 -1.1516
  569TMC3    C7 8499   3.777   3.864  15.791 -0.6057  0.1637  0.1942
  569TMC3    C8 8500   3.613   3.919  16.242 -1.0068  0.1329 -0.2464
  569TMC3    O1 8501   3.752   3.799  15.689  0.0204 -0.6608 -0.3324
  569TMC3    O2 8502   3.541   3.873  16.326  0.1269  0.3782 -0.6609
  570TMC3    C1 8503   3.374   2.342  16.041 -0.2215  0.1051  0.5865
  570TMC3    C2 8504   3.474   2.355  15.944  0.2706  0.3351 -0.6852
  570TMC3    C3 8505   3.590   2.425  15.973  0.3857  0.3313 -0.0826
  570TMC3    C4 8506   3.384   2.412  16.160 -0.2666 -0.4879 -0.9690
  570TMC3    C5 8507   3.498   2.484  16.186  1.1672 -0.1301  1.2678
  570TMC3    C6 8508   3.595   2.493  16.091  0.1379  0.9977  0.1880
  570TMC3     C 8509   3.270   2.230  16.025  0.2152 -0.0387  0.1547
  570TMC3     O 8510   3.257   2.185  15.910  0.0861  0.2696  0.8503
  570TMC3     H 8511   3.448   2.314  15.847 -0.6538  1.5468 -0.9483
  570TMC3    H1 8512   3.297   2.422  16.224  0.9528  1.1610  0.4286
  570TMC3    H2 8513   3.683   2.552  16.113 -0.6841  2.2982 -0.0349
  570TMC3    C7 8514   3.469   2.599  16.262  0.4743 -0.7434  0.4731
  570TMC3    C8 8515   3.681   2.475  15.867  0.1318  0.4188 -0.1548
  570TMC3    O1 8516   3.407   2.588  16.367  0.3711 -0.4782 -0.2901
  570TMC3    O2 8517   3.788   2.520  15.897 -0.5100 -0.6226 -0.5980
  571MPD2     C 8518   1.396   4.657   0.659 -0.2946 -0.1714 -0.1704
  571MPD2    C1 8519   1.511   4.653   0.737 -0.0730 -0.2475  0.1824
  571MPD2    C2 8520   1.558   0.026   0.799 -0.6585 -0.2945  0.2383
  571MPD2    C3 8521   1.494   0.148   0.778  0.0934 -0.7002  0.4393
  571MPD2    C4 8522   1.386   0.143   0.692  0.2498 -0.2107 -0.6198
  571MPD2    C5 8523   1.339   0.038   0.630 -0.0002  0.2418  1.0092
  571MPD2     H 8524   1.652   0.020   0.853 -0.8920 -2.8426  0.3624
  571MPD2    H1 8525   1.340   0.239   0.672 -0.4827  0.3222  3.5592
  571MPD2    H2 8526   1.361   4.566   0.611  0.5091 -0.4270 -0.2672
  571MPD2    H3 8527   1.262   0.039   0.554 -0.0401 -1.3402  1.0292
  571MPD2     N 8528   1.537   0.272   0.823 -0.3844 -0.3954  0.0699
  571MPD2    H5 8529   1.499   0.353   0.776  0.8159  0.0512 -0.1340
  571MPD2    N1 8530   1.572   4.520   0.752 -0.1332  0.5715  0.5232
  571MPD2    H7 8531   1.510   4.442   0.733  0.5250  0.2494 -0.3171
  572TMC3    C1 8532   1.695   0.423   0.916  0.2760 -0.7686  0.5267
  572TMC3    C2 8533   1.754   0.458   1.033 -0.8594  0.1571 -0.1490
  572TMC3    C3 8534   1.773   0.594   1.052 -0.6234  0.5098 -0.2616
  572TMC3    C4 8535   1.680   0.509   0.811 -0.1198  0.7365  0.7883
  572TMC3    C5 8536   1.708   0.636   0.840 -0.3041 -1.1210 -0.4042
  572TMC3    C6 8537   1.750   0.684   0.958 -0.0720  0.4137  0.0834
  572TMC3     C 8538   1.644   0.286   0.906  0.0907 -0.1388 -0.1827
  572TMC3     O 8539   1.704   0.209   0.981  0.6637  0.9950  1.0195
  572TMC3     H 8540   1.759   0.383   1.111 -1.0524 -1.7045 -1.9498
  572TMC3    H1 8541   1.637   0.481   0.716 -2.6766  0.5373  2.0035
  572TMC3    H2 8542   1.753   0.788   0.985 -0.0131  0.1018  1.2662
  572TMC3    C7 8543   1.694   0.725   0.724 -0.8743 -0.2606 -0.3666
  572TMC3    C8 8544   1.838   0.637   1.176 -0.0844 -0.1693 -0.3765
  572TMC3    O1 8545   1.602   0.710   0.641 -0.3598  0.0991  0.1248
  572TMC3    O2 8546   1.829   0.758   1.208 -0.1552  0.3177 -0.0528
  573MPD2     C 8547   2.325   0.105   1.140  0.1251 -0.5478  0.4921
  573MPD2    C1 8548   2.296   0.229   1.094  0.2066  0.1048 -0.0307
  573MPD2    C2 8549   2.182   0.243   1.008 -0.6825 -0.4100  0.0552
  573MPD2    C3 8550   2.127   0.125   0.955 -0.0775  0.4372 -0.6414
  573MPD2    C4 8551   2.163   0.003   1.007 -0.8126  0.0413 -0.4702
  573MPD2    C5 8552   2.251   4.729   1.105 -0.4982 -0.0698  0.5364
  573MPD2     H 8553   2.144   0.339   0.975  1.6480  1.6782  3.4968
  573MPD2    H1 8554   2.117   4.650   0.973 -0.1278 -0.2511 -0.6063
  573MPD2    H2 8555   2.404   0.102   1.214 -0.3282  0.2522  1.0028
  573MPD2    H3 8556   2.285   4.630   1.136  0.3418 -0.3073 -1.1612
  573MPD2     N 8557   2.033   0.119   0.844  0.5392 -0.4303  0.0475
  573MPD2    H5 8558   2.021   0.024   0.811 -0.9085 -0.9524  2.1379
  573MPD2    N1 8559   2.377   0.343   1.138 -0.6963 -0.0003 -0.7825
  573MPD2    H7 8560   2.468   0.325   1.179 -1.0173  1.3673  0.5174
  574TMC3    C1 8561   1.894   0.176   0.665  0.2014  0.6388  0.4244
  574TMC3    C2 8562   1.829   0.275   0.599 -0.0162 -0.5503 -0.3635
  574TMC3    C3 8563   1.756   0.244   0.485  0.4706  0.5943  0.3118
  574TMC3    C4 8564   1.890   0.047   0.627  0.5910  0.2707  0.1943
  574TMC3    C5 8565   1.813   0.015   0.517  0.7406 -0.1874 -0.3352
  574TMC3    C6 8566   1.740   0.112   0.456  0.0860  0.4813 -0.3822
  574TMC3     C 8567   1.976   0.222   0.776 -0.8781 -1.1931 -0.3610
  574TMC3     O 8568   1.977   0.345   0.804  0.0148  0.6634 -0.5981
  574TMC3     H 8569   1.844   0.380   0.620 -1.4540 -0.4037 -0.0369
  574TMC3    H1 8570   1.922   4.701   0.688 -1.6883 -0.4137  0.4776
  574TMC3    H2 8571   1.670   0.084   0.377  1.0856 -0.8399 -0.8122
  574TMC3    C7 8572   1.786   4.613   0.483  0.1550  0.4509 -0.1728
  574TMC3    C8 8573   1.655   0.334   0.449  0.2354  0.6227  1.1465
  574TMC3    O1 8574   1.690   4.589   0.405  0.0840  0.2879 -0.0061
  574TMC3    O2 8575   1.545   0.284   0.430 -0.1186  0.1683 -0.4568
  575TMC3    C1 8576   0.076   0.410  11.033  0.1794 -0.1671  0.5545
  575TMC3    C2 8577   0.049   0.292  11.097  0.2568 -0.0655  0.3365
  575TMC3    C3 8578   4.730   0.192  11.021  0.4793  0.5504  0.4313
  575TMC3    C4 8579   0.055   0.430  10.896 -0.0480 -0.2300  0.3303
  575TMC3    C5 8580   4.726   0.325  10.828  0.2769  0.2747  0.4141
  575TMC3    C6 8581   4.693   0.209  10.894 -0.1657 -0.4366 -0.5800
  575TMC3     C 8582   0.129   0.525  11.100 -0.1397 -0.7418 -0.6425
  575TMC3     O 8583   0.137   0.628  11.036 -0.2162 -0.3001 -0.2223
  575TMC3     H 8584   0.079   0.272  11.199 -2.1058 -0.1301  1.0026
  575TMC3    H1 8585   0.077   0.525  10.848  1.3851 -0.2615  0.9311
  575TMC3    H2 8586   4.662   0.119  10.843 -0.7707 -0.4707 -0.1473
  575TMC3    C7 8587   0.022   0.330  10.693 -0.1664  0.4554 -0.4664
  575TMC3    C8 8588   4.647   0.101  11.097  0.5083  0.4396  0.0039
  575TMC3    O1 8589   0.091   0.424  10.651 -0.4458 -0.1810 -0.4375
  575TMC3    O2 8590   4.696   0.043  11.193  0.6679 -0.6900  0.7241
  576MPD2     C 8591   4.724   1.866  12.446  0.2947 -0.6615 -0.5752
  576MPD2    C1 8592   0.011   1.964  12.347 -0.1118  0.2310 -0.3859
  576MPD2    C2 8593   0.006   2.090  12.395  0.1314 -0.0049 -0.2855
  576MPD2    C3 8594   4.711   2.120  12.529  0.5333  0.0812 -0.0396
  576MPD2    C4 8595   4.681   2.024  12.621 -0.3673 -0.2783 -0.4370
  576MPD2    C5 8596   4.688   1.890  12.574 -0.1584 -0.3577 -0.1360
  576MPD2     H 8597   0.030   2.174  12.331  3.2264 -0.4730  0.2646
  576MPD2    H1 8598   4.665   2.050  12.725 -0.0320 -1.7804 -0.0101
  576MPD2    H2 8599   4.707   1.764  12.415 -2.4433 -0.5677  0.6680
  576MPD2    H3 8600   4.652   1.815  12.644 -0.2613 -0.0244  0.1642
  576MPD2     N 8601   4.716   2.259  12.561 -0.5520  0.0852  1.0423
  576MPD2    H5 8602   0.006   2.321  12.486  1.4446 -0.5328  1.2928
  576MPD2    N1 8603   0.035   1.933  12.217  0.4641 -0.1568  0.1899
  576MPD2    H7 8604   0.038   2.007  12.147 -0.7436 -1.6684 -1.4405
  577TMC3    C1 8605   0.066   1.810  12.023 -0.4824 -0.4279 -0.3838
  577TMC3    C2 8606   0.144   1.724  11.958 -0.1835 -0.0357 -0.5160
  577TMC3    C3 8607   0.142   1.728  11.822 -0.2165 -0.1703  0.2252
  577TMC3    C4 8608   4.716   1.890  11.955  0.3628 -0.1340  0.3643
  577TMC3    C5 8609   4.716   1.885  11.822 -0.0668  0.5145  0.2323
  577TMC3    C6 8610   0.052   1.805  11.748 -0.5069 -0.4736  0.1155
  577TMC3     C 8611   0.068   1.815  12.165 -0.2359 -0.5928  0.8360
  577TMC3     O 8612   0.112   1.711  12.220  0.3342 -0.1650 -0.0494
  577TMC3     H 8613   0.210   1.659  12.015 -0.3965  2.2678  2.3516
  577TMC3    H1 8614   4.634   1.943  12.003  0.4171 -1.4224  1.8917
  577TMC3    H2 8615   0.051   1.823  11.641 -2.5730  1.2445  0.4473
  577TMC3    C7 8616   4.637   1.995  11.760  0.4005  0.0270  0.4587
  577TMC3    C8 8617   0.190   1.614  11.757  0.8511  0.3280 -0.3953
  577TMC3    O1 8618   4.520   2.011  11.788  0.1444 -0.5781  0.5592
  577TMC3    O2 8619   0.189   1.515  11.823  0.1037 -0.4241 -0.5213
  578MPD2     C 8620   2.902   3.466   1.165  0.2958 -1.1201 -0.1423
  578MPD2    C1 8621   2.903   3.359   1.074  0.4218  0.5039  0.7761
  578MPD2    C2 8622   2.981   3.252   1.108  0.5315 -0.1058  0.0691
  578MPD2    C3 8623   3.050   3.236   1.227 -0.0518 -0.5600  0.2589
  578MPD2    C4 8624   3.057   3.345   1.305  0.2269  0.0334 -0.3005
  578MPD2    C5 8625   2.979   3.453   1.275 -0.0578  0.5367 -0.5969
  578MPD2     H 8626   2.973   3.164   1.045  0.2872  2.7403 -3.8951
  578MPD2    H1 8627   3.123   3.353   1.390  0.5697 -0.2139 -0.5433
  578MPD2    H2 8628   2.847   3.558   1.148  0.2750 -1.9378 -4.3480
  578MPD2    H3 8629   2.982   3.541   1.338  0.6357 -0.2905  0.5256
  578MPD2     N 8630   3.116   3.106   1.256 -0.4233  0.0711 -0.1013
  578MPD2    H5 8631   3.117   3.045   1.175  0.0717  0.5162 -0.4347
  578MPD2    N1 8632   2.827   3.373   0.951 -0.7289  0.0318 -0.6670
  578MPD2    H7 8633   2.765   3.453   0.948  2.2835  2.3761  0.5602
  579TMC3    C1 8634   3.271   2.962   1.362  0.6154  0.0127 -0.9311
  579TMC3    C2 8635   3.350   2.937   1.472 -0.0275 -0.0962 -0.0723
  579TMC3    C3 8636   3.456   2.842   1.469 -0.0216 -0.3697  0.4610
  579TMC3    C4 8637   3.304   2.905   1.239  0.4883  0.2628  0.4879
  579TMC3    C5 8638   3.400   2.810   1.244  0.0630 -0.0970  0.0734
  579TMC3    C6 8639   3.475   2.773   1.352 -0.0621 -0.0179  0.5398
  579TMC3     C 8640   3.181   3.080   1.372 -0.3471 -0.2369 -0.3380
  579TMC3     O 8641   3.195   3.144   1.472  0.3241 -0.3373  0.5506
  579TMC3     H 8642   3.314   2.982   1.564 -0.0566 -1.6881  0.6884
  579TMC3    H1 8643   3.259   2.938   1.146 -1.5662  1.0449  1.7682
  579TMC3    H2 8644   3.550   2.695   1.352 -1.5599 -1.4339  0.8243
  579TMC3    C7 8645   3.420   2.729   1.128 -0.5873  0.6837  0.1155
  579TMC3    C8 8646   3.568   2.854   1.564 -0.7665 -0.3190  0.3635
  579TMC3    O1 8647   3.520   2.660   1.131  0.0659 -0.1194 -0.0388
  579TMC3    O2 8648   3.551   2.904   1.674 -0.0808 -0.0915  0.2628
  580TMC3    C1 8649   2.469   1.365  11.819  0.5119 -0.6062 -0.2209
  580TMC3    C2 8650   2.535   1.468  11.771  0.6062  0.5241  0.5973
  580TMC3    C3 8651   2.663   1.477  11.813 -0.1453  0.0629 -0.0548
  580TMC3    C4 8652   2.517   1.276  11.909  0.5152  0.0607  0.2246
  580TMC3    C5 8653   2.630   1.304  11.970  0.1712 -0.2881  0.1189
  580TMC3    C6 8654   2.708   1.400  11.914  0.0560  0.5011 -0.0475
  580TMC3     C 8655   2.364   1.322  11.725 -0.1209 -0.1768  0.1954
  580TMC3     O 8656   2.323   1.406  11.654 -0.4807  0.3517  1.3455
  580TMC3     H 8657   2.495   1.532  11.692  4.0525  0.4199 -1.2483
  580TMC3    H1 8658   2.455   1.195  11.945 -1.6346  1.4255 -0.4341
  580TMC3    H2 8659   2.809   1.416  11.951  0.0995  0.8995 -0.3403
  580TMC3    C7 8660   2.698   1.213  12.055  0.3971 -0.0246 -0.7298
  580TMC3    C8 8661   2.738   1.582  11.763  0.4946 -0.3115  0.2296
  580TMC3    O1 8662   2.784   1.255  12.131 -0.0087  0.1389 -0.6893
  580TMC3    O2 8663   2.834   1.626  11.823 -0.5363 -0.4208 -0.2469
  581MPD2     C 8664   0.516   0.910  15.264 -0.0085  0.5580 -0.3641
  581MPD2    C1 8665   0.480   1.005  15.360 -0.8964 -0.0781  0.0786
  581MPD2    C2 8666   0.449   1.131  15.323  0.2081 -0.6087  0.3820
  581MPD2    C3 8667   0.430   1.161  15.185 -0.4968 -0.2711  0.4743
  581MPD2    C4 8668   0.460   1.065  15.092  0.2404  0.0411  0.0234
  581MPD2    C5 8669   0.495   0.939  15.131  0.4596  0.6662 -0.4238
  581MPD2     H 8670   0.413   1.203  15.396 -1.4554 -0.6930 -0.3690
  581MPD2    H1 8671   0.459   1.076  14.984 -3.6099  1.9632  0.2495
  581MPD2    H2 8672   0.541   0.806  15.286 -0.8865 -0.0251 -2.1060
  581MPD2    H3 8673   0.525   0.867  15.056  3.9954  2.9609 -1.2267
  581MPD2     N 8674   0.360   1.282  15.146 -0.5677 -0.0660  0.3764
  581MPD2    H5 8675   0.357   1.351  15.221  2.0135  0.6304 -0.1516
  581MPD2    N1 8676   0.471   0.963  15.495  0.0996  0.8193  0.1927
  581MPD2    H7 8677   0.487   0.863  15.502 -2.8304  0.4247  1.1094
  582TMC3    C1 8678   0.390   0.948  15.713 -0.5787  0.0463 -0.1771
  582TMC3    C2 8679   0.406   0.986  15.842 -0.5017 -0.6336  0.5233
  582TMC3    C3 8680   0.332   0.923  15.944  0.3402  0.3225  0.3903
  582TMC3    C4 8681   0.289   0.866  15.679 -0.3190  0.2206 -0.5986
  582TMC3    C5 8682   0.202   0.815  15.773 -0.1399  0.0224 -0.3947
  582TMC3    C6 8683   0.235   0.831  15.904 -0.0887  0.8478 -0.1741
  582TMC3     C 8684   0.427   1.037  15.602 -0.3949  0.1240  0.6973
  582TMC3     O 8685   0.400   1.158  15.619 -0.1407  0.3708  0.2002
  582TMC3     H 8686   0.474   1.066  15.869 -2.4614  2.1528 -2.7531
  582TMC3    H1 8687   0.265   0.853  15.574 -2.6995 -0.6638  0.0617
  582TMC3    H2 8688   0.170   0.778  15.974  3.4986 -0.0940  2.4199
  582TMC3    C7 8689   0.067   0.845  15.745 -0.4952 -0.4647  0.0700
  582TMC3    C8 8690   0.332   0.973  16.080  0.3733 -0.2355  0.0485
  582TMC3    O1 8691   4.718   0.774  15.792 -0.2162  0.6104 -0.6986
  582TMC3    O2 8692   0.266   0.908  16.155 -0.3622  0.0947  0.2768
  583MPD2     C 8693   0.452   3.223  16.848 -0.5201 -0.4105 -0.1445
  583MPD2    C1 8694   0.416   3.332  16.770  0.8013  0.4453 -0.1151
  583MPD2    C2 8695   0.368   3.437  16.838 -0.1651 -0.1475  0.0068
  583MPD2    C3 8696   0.364   3.448  16.975  0.2140  0.4670  0.4084
  583MPD2    C4 8697   0.417   3.346  17.053  0.3448 -1.0426  0.4473
  583MPD2    C5 8698   0.453   3.238  16.981 -0.2653 -0.1199  0.4074
  583MPD2     H 8699   0.319   3.514  16.780 -2.2358 -1.9786 -0.6912
  583MPD2    H1 8700   0.436   3.345  17.160  1.4923  1.7261  0.2754
  583MPD2    H2 8701   0.477   3.123  16.815 -2.3549 -1.0508  0.4057
  583MPD2    H3 8702   0.488   3.151  17.035  0.3287 -0.1748 -0.0760
  583MPD2     N 8703   0.310   3.563  17.038 -0.0659 -0.5647 -0.1410
  583MPD2    H5 8704   0.268   3.639  16.987 -0.7163 -0.3454  0.7182
  583MPD2    N1 8705   0.415   3.331  16.626  0.1829  0.3082 -0.2528
  583MPD2    H7 8706   0.382   3.414  16.578 -1.2620  1.0310  1.9669
  584TMC3    C1 8707   0.231   3.690  17.220  0.4281 -0.7902 -0.7120
  584TMC3    C2 8708   0.280   3.805  17.171  0.0925  0.2327 -0.0804
  584TMC3    C3 8709   0.254   3.929  17.231  0.0126  0.2738  0.0238
  584TMC3    C4 8710   0.189   3.689  17.347 -0.2915 -0.1906 -0.2567
  584TMC3    C5 8711   0.163   3.809  17.404  0.6439  0.3843 -0.3991
  584TMC3    C6 8712   0.190   3.933  17.345 -0.3768 -0.1678  0.1259
  584TMC3     C 8713   0.288   3.565  17.172  0.0757  0.2033 -0.1760
  584TMC3     O 8714   0.317   3.498  17.272  0.0910 -0.2243  0.3584
  584TMC3     H 8715   0.332   3.798  17.076  2.2673  0.7210  1.0752
  584TMC3    H1 8716   0.155   3.602  17.402 -0.8738 -0.2566 -0.7114
  584TMC3    H2 8717   0.163   4.031  17.382 -0.1986  0.4236 -1.3251
  584TMC3    C7 8718   0.137   3.808  17.547 -0.2946  0.4867  0.3177
  584TMC3    C8 8719   0.270   4.050  17.147  0.2356  0.2670 -0.0996
  584TMC3    O1 8720   0.107   3.703  17.601  0.3249 -0.1836 -0.7167
  584TMC3    O2 8721   0.260   4.033  17.026 -0.2443  0.0846 -0.3306
  585MPD2     C 8722   3.903   2.692   0.259  0.3788 -0.8286 -0.5439
  585MPD2    C1 8723   4.008   2.729   0.181  0.0503 -0.0433  0.6646
  585MPD2    C2 8724   4.101   2.636   0.142 -0.4231 -0.4561 -0.0114
  585MPD2    C3 8725   4.071   2.503   0.157 -0.2500  0.1144  0.2635
  585MPD2    C4 8726   3.959   2.467   0.225  0.5075 -0.4703  0.4208
  585MPD2    C5 8727   3.873   2.560   0.272 -0.2573 -0.5992  0.5478
  585MPD2     H 8728   4.191   2.654   0.085 -1.6600 -2.6473 -2.6899
  585MPD2    H1 8729   3.931   2.363   0.240 -1.4183  0.3043  2.2603
  585MPD2    H2 8730   3.840   2.769   0.302  1.8637 -0.9169  1.7693
  585MPD2    H3 8731   3.781   2.524   0.318 -1.4746 -2.3603 -3.2778
  585MPD2     N 8732   4.154   2.396   0.102  0.6361 -0.0399 -0.7131
  585MPD2    H5 8733   4.108   2.306   0.101  1.6193 -0.5310 -2.3773
  585MPD2    N1 8734   4.026   2.869   0.171  0.3638 -0.1368  0.1912
  585MPD2    H7 8735   3.970   2.931   0.229  1.1455 -1.2615  2.1438
  586TMC3    C1 8736   4.317   2.311  17.698 -0.9408 -0.3542  0.1133
  586TMC3    C2 8737   4.439   2.328  17.645 -0.7872  0.2113  0.2594
  586TMC3    C3 8738   4.474   2.263  17.524 -0.8998 -0.8766  0.1334
  586TMC3    C4 8739   4.228   2.235  17.636  0.0281  0.3165  0.3367
  586TMC3    C5 8740   4.262   2.169  17.524  0.0624 -0.1834  0.4555
  586TMC3    C6 8741   4.384   2.182  17.469 -0.5228  0.5192 -0.0226
  586TMC3     C 8742   4.281   2.413   0.052  0.0891  0.1715 -0.0280
  586TMC3     O 8743   4.364   2.503   0.056 -0.2186 -0.1853 -0.4677
  586TMC3     H 8744   4.516   2.390  17.689  1.0715 -1.5531 -0.4844
  586TMC3    H1 8745   4.135   2.209  17.685 -0.7533 -1.1544 -1.9635
  586TMC3    H2 8746   4.421   2.124  17.386 -0.8437  0.8610 -0.4091
  586TMC3    C7 8747   4.177   2.060  17.470  0.2862  0.1212 -0.3344
  586TMC3    C8 8748   4.611   2.256  17.486 -0.2366  0.4648 -0.3598
  586TMC3    O1 8749   4.058   2.062  17.496 -0.7016  0.4766  0.6072
  586TMC3    O2 8750   4.689   2.195  17.561  0.0077  0.5649  0.0078
  587TMC3    C1 8751   1.697   0.812  16.224  0.4032  0.0369  0.7742
  587TMC3    C2 8752   1.698   0.809  16.361 -0.0164 -0.4249  0.0927
  587TMC3    C3 8753   1.816   0.786  16.424  0.3670 -0.8199  0.6189
  587TMC3    C4 8754   1.812   0.796  16.148  0.3933 -0.6530  0.0689
  587TMC3    C5 8755   1.928   0.767  16.220  0.4072 -0.0326 -0.2301
  587TMC3    C6 8756   1.930   0.760  16.354  0.3506  0.7439  0.0163
  587TMC3     C 8757   1.574   0.824  16.147  0.9047  0.0318 -0.6152
  587TMC3     O 8758   1.587   0.856  16.031 -0.2713 -0.6400  0.6120
  587TMC3     H 8759   1.608   0.815  16.422 -0.7624  0.7871 -1.1107
  587TMC3    H1 8760   1.793   0.783  16.042 -3.3654 -0.2428  0.6977
  587TMC3    H2 8761   2.022   0.739  16.407  0.7109  1.7297 -0.2222
  587TMC3    C7 8762   2.048   0.739  16.154  0.1275  0.2908  0.5648
  587TMC3    C8 8763   1.832   0.809  16.561 -0.8876 -0.1930 -0.3370
  587TMC3    O1 8764   2.123   0.656  16.202 -0.1236 -0.1464 -0.1824
  587TMC3    O2 8765   1.917   0.746  16.623  0.0096  0.4554  0.1724
  588TMC3    C1 8766   4.003   3.082   9.821  0.1195  0.2177 -0.1977
  588TMC3    C2 8767   3.980   2.968   9.744 -1.0950  0.2708 -0.4955
  588TMC3    C3 8768   4.081   2.874   9.752  0.1866  0.4061  0.2164
  588TMC3    C4 8769   4.119   3.106   9.890  0.5445  0.1886  0.2796
  588TMC3    C5 8770   4.215   3.007   9.893 -0.1261  0.0681 -0.4538
  588TMC3    C6 8771   4.196   2.893   9.825 -0.5940 -0.0179  0.1239
  588TMC3     C 8772   3.907   3.188   9.816  0.1973  0.3266  0.2285
  588TMC3     O 8773   3.848   3.213   9.715 -0.1965  0.1211  0.3171
  588TMC3     H 8774   3.890   2.943   9.690 -3.3399  3.4093  1.8095
  588TMC3    H1 8775   4.141   3.204   9.931 -0.0367 -0.6071  2.5297
  588TMC3    H2 8776   4.281   2.826   9.827 -0.2184  0.4267 -1.0093
  588TMC3    C7 8777   4.349   3.036   9.941 -0.5057 -0.1682 -1.3602
  588TMC3    C8 8778   4.077   2.771   9.655 -0.1279  0.7295 -0.5316
  588TMC3    O1 8779   4.448   2.989   9.881  0.2095  0.1615  0.4045
  588TMC3    O2 8780   3.997   2.785   9.563  0.5197  0.0588 -0.0342
  589TMC3    C1 8781   3.381   1.576   1.049  0.6892  0.1445  0.5255
  589TMC3    C2 8782   3.484   1.552   1.131 -0.0765  0.2107 -0.7775
  589TMC3    C3 8783   3.562   1.439   1.116 -0.6921  0.3525  0.1784
  589TMC3    C4 8784   3.351   1.485   0.952 -1.2914 -1.2131 -0.0101
  589TMC3    C5 8785   3.432   1.368   0.942  0.6038  0.4217 -0.0957
  589TMC3    C6 8786   3.536   1.339   1.024  0.7572  0.2522  0.2452
  589TMC3     C 8787   3.293   1.686   1.075  0.6718  0.2241 -0.0424
  589TMC3     O 8788   3.196   1.708   1.002 -0.2798 -0.0329 -0.2188
  589TMC3     H 8789   3.531   1.630   1.190 -0.3614  0.4770 -0.9029
  589TMC3    H1 8790   3.270   1.503   0.882  0.7799  0.1982 -2.0393
  589TMC3    H2 8791   3.589   1.245   1.012 -0.6050 -0.5471  0.5471
  589TMC3    C7 8792   3.425   1.304   0.807 -0.3914 -0.0330 -0.3631
  589TMC3    C8 8793   3.659   1.414   1.216  0.5353 -0.4471 -0.0405
  589TMC3    O1 8794   3.317   1.309   0.753  0.5343 -0.7798  0.1436
  589TMC3    O2 8795   3.649   1.488   1.306  0.5623 -0.6092  0.4305
  590MPD2     C 8796   2.859   3.964  16.964 -0.5878 -0.3892 -0.3604
  590MPD2    C1 8797   2.815   4.074  16.896 -0.1708  0.3477 -0.8752
  590MPD2    C2 8798   2.905   4.128  16.806 -0.4958  0.2668  0.5110
  590MPD2    C3 8799   3.038   4.076  16.790 -0.6290  0.0046  0.0224
  590MPD2    C4 8800   3.077   3.964  16.871  0.5067  0.1930 -0.2926
  590MPD2    C5 8801   2.984   3.914  16.959  0.5772  0.1291 -0.2738
  590MPD2     H 8802   2.881   4.216  16.747 -0.2009 -0.7657 -1.1336
  590MPD2    H1 8803   3.175   3.920  16.871 -0.2151 -1.4078  2.7421
  590MPD2    H2 8804   2.789   3.914  17.029  0.1917 -0.2380  0.5892
  590MPD2    H3 8805   3.010   3.832  17.024  0.8581  0.5608  0.1540
  590MPD2     N 8806   3.115   4.132  16.681  0.1092 -0.1627 -0.5222
  590MPD2    H5 8807   3.074   4.201  16.618 -0.1181 -1.2639 -1.5912
  590MPD2    N1 8808   2.677   4.098  16.881 -0.6803  0.3085 -0.0265
  590MPD2    H7 8809   2.611   4.036  16.927 -0.3777  0.1220  0.1550
  591TMC3    C1 8810   3.266   4.153  16.511 -0.3494 -0.0946  0.2218
  591TMC3    C2 8811   3.298   4.083  16.404 -0.9653 -0.0199 -0.3594
  591TMC3    C3 8812   3.316   4.136  16.283  0.2892  0.5641  0.1765
  591TMC3    C4 8813   3.262   4.285  16.505  0.0588 -0.1708  0.0741
  591TMC3    C5 8814   3.281   4.339  16.381 -0.0725 -0.6097 -0.0103
  591TMC3    C6 8815   3.304   4.270  16.264  0.5016  0.1182  0.3555
  591TMC3     C 8816   3.229   4.084  16.638  0.3709 -0.6117  0.7128
  591TMC3     O 8817   3.282   3.977  16.659 -0.7960  0.5497  0.1737
  591TMC3     H 8818   3.309   3.976  16.423 -3.0147 -0.6549 -2.7923
  591TMC3    H1 8819   3.240   4.350  16.589  2.0108  1.5382 -0.7443
  591TMC3    H2 8820   3.333   4.317  16.171  0.3254 -0.5982 -0.0596
  591TMC3    C7 8821   3.215   4.463  16.356  0.1689  1.1161 -0.7118
  591TMC3    C8 8822   3.313   4.052  16.163  0.6658 -0.7456 -0.6331
  591TMC3    O1 8823   3.117   4.487  16.428 -0.6356  0.3355  0.2135
  591TMC3    O2 8824   3.277   3.938  16.176  0.0376 -0.1547  0.0128
  592MPD2     C 8825   3.119   1.573  11.384 -0.7687  0.9489  0.5742
  592MPD2    C1 8826   3.156   1.593  11.517  0.1304 -0.4774 -0.9566
  592MPD2    C2 8827   3.106   1.505  11.615  0.6139  0.2916  0.3165
  592MPD2    C3 8828   3.028   1.396  11.574  0.2993  0.3559 -0.5357
  592MPD2    C4 8829   2.995   1.380  11.443 -0.2672  0.1203  0.4272
  592MPD2    C5 8830   3.036   1.469  11.349 -0.0628 -0.0257 -0.2987
  592MPD2     H 8831   3.116   1.533  11.719  0.9936  0.7415  0.1575
  592MPD2    H1 8832   2.931   1.301  11.407 -0.5790  1.6929 -2.4679
  592MPD2    H2 8833   3.150   1.641  11.306 -0.1967  0.6908  0.5798
  592MPD2    H3 8834   3.010   1.465  11.244  0.4452  0.2855 -0.4413
  592MPD2     N 8835   2.992   1.298  11.670 -0.0968 -0.6676 -0.0073
  592MPD2    H5 8836   3.032   1.317  11.761 -0.6784  1.7940 -0.2689
  592MPD2    N1 8837   3.253   1.693  11.541 -0.5435 -0.8272  0.8053
  592MPD2    H7 8838   3.260   1.758  11.464  0.4058 -0.7187  0.9784
  593TMC3    C1 8839   3.437   1.793  11.644  0.3606 -0.2258 -0.4614
  593TMC3    C2 8840   3.464   1.862  11.761 -0.6528  0.2051  0.4148
  593TMC3    C3 8841   3.508   1.988  11.751  0.2804  0.6149  0.3404
  593TMC3    C4 8842   3.456   1.854  11.525 -0.6916 -1.0174  0.4306
  593TMC3    C5 8843   3.497   1.982  11.515  0.0073  0.6226 -0.0167
  593TMC3    C6 8844   3.517   2.052  11.626  0.1574  0.8773  0.1561
  593TMC3     C 8845   3.335   1.694  11.653  0.0773 -0.8351  0.5863
  593TMC3     O 8846   3.342   1.622  11.752  0.0517 -0.3706 -0.3443
  593TMC3     H 8847   3.454   1.815  11.858  1.4247 -1.4786 -0.1914
  593TMC3    H1 8848   3.450   1.799  11.432  0.4774  1.0688 -0.8792
  593TMC3    H2 8849   3.556   2.152  11.631  3.9091 -0.6481  1.4633
  593TMC3    C7 8850   3.540   2.037  11.388 -0.3139 -0.7022 -0.4017
  593TMC3    C8 8851   3.554   2.059  11.862 -0.4397  0.6186  0.2823
  593TMC3    O1 8852   3.572   1.965  11.299  0.3293 -0.1200 -0.1137
  593TMC3    O2 8853   3.540   2.180  11.856 -0.5698  0.5776  0.0645
  594MPD2     C 8854   2.414   0.122  13.873 -0.7503 -0.5729 -0.4662
  594MPD2    C1 8855   2.403   0.098  14.008 -0.5665  0.4028 -0.2223
  594MPD2    C2 8856   2.472   0.191  14.094 -0.4665  0.3696 -0.0365
  594MPD2    C3 8857   2.564   0.280  14.041  0.0592 -0.5167  0.4131
  594MPD2    C4 8858   2.586   0.287  13.906  0.0948  0.5338 -0.0239
  594MPD2    C5 8859   2.502   0.215  13.827  1.1839 -0.1316 -0.2486
  594MPD2     H 8860   2.461   0.184  14.202  0.3242  0.1079  0.0284
  594MPD2    H1 8861   2.634   0.369  13.855 -0.6628  0.5434 -0.7240
  594MPD2    H2 8862   2.339   0.084  13.804 -1.4670 -0.3403  0.1904
  594MPD2    H3 8863   2.507   0.229  13.719 -2.1262 -0.2642 -0.4365
  594MPD2     N 8864   2.619   0.371  14.124 -0.1856  0.0208  0.9893
  594MPD2    H5 8865   2.593   0.364  14.222  1.9546  1.8475  1.6686
  594MPD2    N1 8866   2.313   4.738  14.048  0.4887 -0.0090 -0.2902
  594MPD2    H7 8867   2.256   4.704  13.971  0.7204  0.0794 -0.5017
  595TMC3    C1 8868   2.941   0.627  14.335  0.2810  0.2365  0.6465
  595TMC3    C2 8869   2.910   0.549  14.235  1.0040 -0.2818  0.7482
  595TMC3    C3 8870   2.773   0.540  14.204 -0.2943  0.4809 -0.3605
  595TMC3    C4 8871   2.849   0.700  14.408 -0.3935 -1.1941 -0.1136
  595TMC3    C5 8872   2.718   0.690  14.384 -0.5082  0.8988  0.7570
  595TMC3    C6 8873   2.681   0.612  14.276 -0.9225  0.3506 -0.0824
  595TMC3     C 8874   3.068   0.617  14.388  0.3872  0.5892  1.0310
  595TMC3     O 8875   3.106   0.715  14.452 -0.5778  0.4881 -0.1899
  595TMC3     H 8876   2.984   0.491  14.182  1.1864  1.0331 -0.4342
  595TMC3    H1 8877   2.880   0.758  14.494 -0.6359 -0.5278 -0.4703
  595TMC3    H2 8878   2.579   0.626  14.244 -0.9519 -0.7011 -0.4335
  595TMC3    C7 8879   2.620   0.776  14.450  0.1560 -1.1698  0.1721
  595TMC3    C8 8880   2.730   0.458  14.093  0.5496  0.2312  0.1796
  595TMC3    O1 8881   2.520   0.720  14.496  0.1610 -0.0092 -0.1215
  595TMC3    O2 8882   2.810   0.454  13.998 -0.3895 -0.3903  0.6635
  596MPD2     C 8883   1.194   2.999  16.593 -0.1586 -0.1441  0.3411
  596MPD2    C1 8884   1.177   3.121  16.534 -0.0447 -0.1205 -0.1566
  596MPD2    C2 8885   1.160   3.132  16.394 -0.4057 -0.5654  0.2791
  596MPD2    C3 8886   1.161   3.012  16.313  0.2804  0.6840 -0.0267
  596MPD2    C4 8887   1.165   2.891  16.383  1.1456  0.0114 -0.0649
  596MPD2    C5 8888   1.178   2.887  16.520  0.0963 -0.2527 -0.3276
  596MPD2     H 8889   1.153   3.233  16.354  0.0592 -1.0783 -1.0948
  596MPD2    H1 8890   1.153   2.798  16.328  0.2674 -0.9869  1.8065
  596MPD2    H2 8891   1.200   2.989  16.701  2.0779 -0.3118  0.1874
  596MPD2    H3 8892   1.183   2.789  16.566 -2.3869 -0.3332 -0.2266
  596MPD2     N 8893   1.141   3.011  16.173 -0.1935 -0.0017 -0.2365
  596MPD2    H5 8894   1.142   2.924  16.122 -1.8525  0.1779 -0.5670
  596MPD2    N1 8895   1.177   3.245  16.605 -0.2302 -0.3526  0.3486
  596MPD2    H7 8896   1.182   3.328  16.548 -0.7319 -0.2298  0.4774
  597TMC3    C1 8897   1.172   3.410  16.774 -0.2593  0.2506 -0.2686
  597TMC3    C2 8898   1.244   3.501  16.704  0.4631  0.5771  0.1222
  597TMC3    C3 8899   1.237   3.634  16.740  0.7115  0.3882 -0.8900
  597TMC3    C4 8900   1.098   3.452  16.884  0.1488 -0.2231  0.4869
  597TMC3    C5 8901   1.088   3.582  16.907  0.7240  0.7138  0.3609
  597TMC3    C6 8902   1.152   3.680  16.839  0.0375  0.4960  0.2399
  597TMC3     C 8903   1.180   3.270  16.737  0.8400  0.6771 -0.0679
  597TMC3     O 8904   1.140   3.200  16.830 -0.1309  0.0590 -0.0937
  597TMC3     H 8905   1.317   3.469  16.630  1.4737  0.9328  0.9674
  597TMC3    H1 8906   1.036   3.376  16.932 -0.9368 -1.2596 -2.5610
  597TMC3    H2 8907   1.160   3.785  16.866  2.9693  0.2024  0.5702
  597TMC3    C7 8908   0.987   3.624  17.005 -1.0691 -0.0219 -0.3686
  597TMC3    C8 8909   1.303   3.734  16.656  0.5366  0.5788  0.2932
  597TMC3    O1 8910   0.964   3.551  17.097  0.4659 -0.3766  0.3525
  597TMC3    O2 8911   1.285   3.852  16.682 -0.0650  0.3364 -0.0381
  598TMC3    C1 8912   4.348   4.476  15.256  0.4507 -0.0084  0.4120
  598TMC3    C2 8913   4.248   4.417  15.182 -0.1357  0.3563 -0.0164
  598TMC3    C3 8914   4.256   4.423  15.045 -1.1535  0.3041 -0.3107
  598TMC3    C4 8915   4.457   4.539  15.190 -1.3826  0.0791  0.6529
  598TMC3    C5 8916   4.458   4.542  15.053  0.3826  0.2318  0.2561
  598TMC3    C6 8917   4.363   4.482  14.977 -0.4104 -0.3472 -0.9859
  598TMC3     C 8918   4.362   4.414  15.392 -1.0671 -0.3907 -0.7058
  598TMC3     O 8919   4.259   4.412  15.459  0.0846 -0.5705  0.0987
  598TMC3     H 8920   4.168   4.361  15.229  1.5826 -1.2765  0.9419
  598TMC3    H1 8921   4.538   4.584  15.245 -1.0346  0.7050 -0.3770
  598TMC3    H2 8922   4.380   4.473  14.870  0.4238 -0.0651 -0.8748
  598TMC3    C7 8923   4.548   4.626  14.980  0.1274 -0.1363 -0.0317
  598TMC3    C8 8924   4.216   4.310  14.968 -0.7886 -0.3336 -0.1508
  598TMC3    O1 8925   4.580   4.584  14.869 -0.5008  0.5785  0.0946
  598TMC3    O2 8926   4.284   4.280  14.869 -0.0873 -0.5247 -0.6895
  599MPD2     C 8927   4.300   2.325  15.570 -0.2548 -0.1670  0.2099
  599MPD2    C1 8928   4.311   2.216  15.662 -0.1249 -0.0821 -0.0042
  599MPD2    C2 8929   4.197   2.186  15.739  0.3088 -0.0641 -0.2168
  599MPD2    C3 8930   4.089   2.268  15.738  0.2653  0.0714  0.3300
  599MPD2    C4 8931   4.083   2.366  15.649  0.3745 -0.4604 -0.4737
  599MPD2    C5 8932   4.186   2.397  15.569 -0.4089 -0.3285 -0.4683
  599MPD2     H 8933   4.195   2.101  15.807  1.7283 -1.8832 -2.4355
  599MPD2    H1 8934   4.002   2.438  15.651  0.2401 -0.6638  2.7720
  599MPD2    H2 8935   4.384   2.341  15.503  1.7106  0.9036  2.8857
  599MPD2    H3 8936   4.171   2.486  15.509  0.1382 -0.4965 -0.8562
  599MPD2     N 8937   3.979   2.270  15.825 -0.1779  0.8689 -0.0881
  599MPD2    H5 8938   3.908   2.342  15.816 -0.9497  0.1471  0.2882
  599MPD2    N1 8939   4.426   2.142  15.667 -0.0897 -0.2946  0.6142
  599MPD2    H7 8940   4.503   2.173  15.610 -0.3309 -0.0865  0.4022
  600TMC3    C1 8941   3.883   2.204  16.035  0.0184 -0.1376  0.3564
  600TMC3    C2 8942   3.784   2.116  16.086  0.0312 -0.2412  0.8720
  600TMC3    C3 8943   3.729   2.137  16.211 -0.3873 -0.1849  0.2295
  600TMC3    C4 8944   3.911   2.320  16.100 -0.7832 -0.8482  0.2792
  600TMC3    C5 8945   3.862   2.333  16.228 -0.3376 -0.5453 -0.3674
  600TMC3    C6 8946   3.790   2.233  16.294 -0.4556  0.4179 -0.0324
  600TMC3     C 8947   3.972   2.169  15.916 -0.0159  0.2661 -0.1979
  600TMC3     O 8948   3.981   2.044  15.900  0.0002  0.0044 -0.2626
  600TMC3     H 8949   3.761   2.022  16.037  0.4439 -1.1743  2.4371
  600TMC3    H1 8950   3.980   2.389  16.052 -1.6345 -0.1834  0.0196
  600TMC3    H2 8951   3.747   2.252  16.392 -1.6369 -1.7287 -0.1329
  600TMC3    C7 8952   3.914   2.451  16.294  0.0727 -0.7029 -0.2594
  600TMC3    C8 8953   3.636   2.045  16.269 -0.2831  0.3054  0.0410
  600TMC3    O1 8954   4.024   2.496  16.267 -0.3308  0.4117  0.1143
  600TMC3    O2 8955   3.635   2.052  16.393  0.5899 -0.2125 -0.1089
  601MPD2     C 8956   1.772   1.210   0.582 -0.1726 -0.0256  0.3251
  601MPD2    C1 8957   1.662   1.134   0.569  0.0101 -0.0548 -0.6576
  601MPD2    C2 8958   1.672   0.999   0.613 -0.1993  0.4051  0.0788
  601MPD2    C3 8959   1.777   0.951   0.692  0.1624  0.2612 -0.1923
  601MPD2    C4 8960   1.877   1.038   0.726 -0.0906 -0.0258 -0.3346
  601MPD2    C5 8961   1.875   1.163   0.664  0.2966 -0.2798  0.3066
  601MPD2     H 8962   1.590   0.935   0.583 -0.5780 -0.2489  2.5212
  601MPD2    H1 8963   1.967   0.996   0.769 -0.6242 -0.5589  0.2535
  601MPD2    H2 8964   1.779   1.310   0.541 -0.1215  0.7836  2.3031
  601MPD2    H3 8965   1.961   1.224   0.688  1.0705 -1.2885  0.1085
  601MPD2     N 8966   1.793   0.823   0.739 -0.4198  0.7668  0.4302
  601MPD2    H5 8967   1.874   0.800   0.797  0.4689 -0.0703 -1.1362
  601MPD2    N1 8968   1.557   1.174   0.480 -0.0026 -0.6277  0.0638
  601MPD2    H7 8969   1.492   1.097   0.466 -2.0884  1.0617  0.4492
  602TMC3    C1 8970   1.436   1.298   0.320 -0.7901  0.3521 -0.3995
  602TMC3    C2 8971   1.414   1.421   0.264 -0.5298  0.1922 -0.6297
  602TMC3    C3 8972   1.305   1.439   0.178  0.6645  0.4828  0.1528
  602TMC3    C4 8973   1.372   1.182   0.266 -0.3487 -0.1615 -0.6930
  602TMC3    C5 8974   1.273   1.205   0.171 -0.1786 -0.0081  0.3400
  602TMC3    C6 8975   1.243   1.330   0.128 -0.0210  0.0935  0.1862
  602TMC3     C 8976   1.546   1.294   0.414 -0.3278  0.4263  0.3920
  602TMC3     O 8977   1.607   1.398   0.425  0.3593  0.0968 -0.8483
  602TMC3     H 8978   1.472   1.509   0.290 -1.2745  0.0802  1.3717
  602TMC3    H1 8979   1.392   1.082   0.302 -2.3564 -0.4714 -0.4417
  602TMC3    H2 8980   1.170   1.341   0.049 -0.0279  1.7160  0.4202
  602TMC3    C7 8981   1.182   1.098   0.130  0.2478 -0.0214 -0.6015
  602TMC3    C8 8982   1.249   1.572   0.149 -0.4489  0.0557 -0.3327
  602TMC3    O1 8983   1.214   0.981   0.125 -0.4953  0.4247  0.4765
  602TMC3    O2 8984   1.332   1.661   0.160 -0.1577 -0.1705 -0.5241
  603TMC3    C1 8985   4.046   0.482  10.441  0.1500  0.5742  0.0620
  603TMC3    C2 8986   4.095   0.461  10.570 -0.6520  0.3225  0.0779
  603TMC3    C3 8987   4.119   0.570  10.653  0.2582  0.0533 -0.5677
  603TMC3    C4 8988   4.039   0.603  10.391 -0.1012 -0.2532  0.1661
  603TMC3    C5 8989   4.054   0.712  10.477  0.2219  0.1973  0.7987
  603TMC3    C6 8990   4.089   0.697  10.605 -0.3837  0.1140 -0.1235
  603TMC3     C 8991   4.067   0.367  10.359  0.0195 -0.6058  0.2308
  603TMC3     O 8992   4.052   0.257  10.413 -0.0091 -0.5705  0.5139
  603TMC3     H 8993   4.104   0.362  10.613 -0.9376  0.0227 -0.5555
  603TMC3    H1 8994   4.013   0.611  10.286 -0.0934  0.5498  0.2267
  603TMC3    H2 8995   4.072   0.776  10.677  2.5915 -0.1787  0.8917
  603TMC3    C7 8996   4.014   0.842  10.430  0.5835  0.8224  0.0096
  603TMC3    C8 8997   4.167   0.537  10.787 -0.0372  0.4099  0.8386
  603TMC3    O1 8998   4.064   0.943  10.476 -0.6752  0.0585  0.6413
  603TMC3    O2 8999   4.152   0.418  10.828 -0.2813 -0.2321  0.4644
  604MPD2     C 9000   0.838   0.037  16.400 -0.2291 -0.2754  0.1676
  604MPD2    C1 9001   0.715   4.710  16.396  0.4220  0.7330  0.1209
  604MPD2    C2 9002   0.697   4.627  16.284 -0.4513 -0.6093 -0.1632
  604MPD2    C3 9003   0.784   4.646  16.175  0.7495 -0.3764 -0.0855
  604MPD2    C4 9004   0.905   4.711  16.187  0.0963 -0.0733  0.3111
  604MPD2    C5 9005   0.932   0.029  16.302 -0.1253  0.4058  0.2348
  604MPD2     H 9006   0.602   4.581  16.260 -0.5168 -1.9276  2.5242
  604MPD2    H1 9007   0.973   4.713  16.102  2.3903 -0.5853  2.1310
  604MPD2    H2 9008   0.867   0.101  16.482  0.5871 -0.9648  0.4157
  604MPD2    H3 9009   1.021   0.089  16.314 -1.1683  2.4023 -1.8735
  604MPD2     N 9010   0.729   4.603  16.050  0.3864  0.8515  0.2887
  604MPD2    H5 9011   0.635   4.564  16.048  1.1604 -1.0303  0.1729
  604MPD2    N1 9012   0.620   4.728  16.495 -0.5110 -0.5253 -0.1392
  604MPD2    H7 9013   0.642   0.063  16.562 -0.8946  1.2110 -1.9372
  605TMC3    C1 9014   0.396   4.703  16.592 -0.2778 -0.0081 -0.0565
  605TMC3    C2 9015   0.411   0.091  16.644 -0.1782  0.2984 -0.0931
  605TMC3    C3 9016   0.294   0.163  16.677 -0.0178  0.0016  0.3544
  605TMC3    C4 9017   0.268   4.649  16.583  0.1557 -0.3102 -0.3961
  605TMC3    C5 9018   0.158   4.732  16.606  0.0329  0.4223  0.0467
  605TMC3    C6 9019   0.174   0.123  16.640  0.3745  0.4035 -0.5438
  605TMC3     C 9020   0.502   4.648  16.505 -0.0257 -0.2653 -0.1839
  605TMC3     O 9021   0.465   4.555  16.436 -0.5163  0.2418  0.5611
  605TMC3     H 9022   0.511   0.131  16.653  0.5203 -1.3585 -0.4569
  605TMC3    H1 9023   0.258   4.543  16.568 -0.1832 -0.3749  0.2944
  605TMC3    H2 9024   0.092   0.190  16.665  0.5296 -0.0871  1.2932
  605TMC3    C7 9025   0.034   4.698  16.536 -0.6158 -0.6834 -0.0845
  605TMC3    C8 9026   0.313   0.295  16.735  0.2940 -0.5638 -0.5071
  605TMC3    O1 9027   4.703   0.052  16.491  0.0656  0.1067  0.5101
  605TMC3    O2 9028   0.239   0.390  16.706  0.0435  0.3217  0.3265
  606TMC3    C1 9029   1.390   3.816  17.107  0.1025 -0.1774 -0.5082
  606TMC3    C2 9030   1.376   3.792  17.242 -0.2500 -0.1486 -0.2455
  606TMC3    C3 9031   1.413   3.673  17.293  0.6122 -0.3616  0.2609
  606TMC3    C4 9032   1.445   3.718  17.023  0.5307  0.0133 -0.6097
  606TMC3    C5 9033   1.448   3.593  17.075  0.4822 -0.2808 -0.4966
  606TMC3    C6 9034   1.444   3.566  17.212 -0.6124  0.5717 -0.1154
  606TMC3     C 9035   1.331   3.938  17.052 -0.5305 -0.4079 -0.0063
  606TMC3     O 9036   1.245   3.992  17.117  0.1731 -0.0418 -0.8762
  606TMC3     H 9037   1.349   3.873  17.309 -1.5425 -2.0178  1.5012
  606TMC3    H1 9038   1.470   3.730  16.918  1.6174  0.5606 -0.2788
  606TMC3    H2 9039   1.465   3.476  17.268  1.7892  0.7378 -0.7583
  606TMC3    C7 9040   1.487   3.481  16.995 -0.0397 -0.5008  0.0824
  606TMC3    C8 9041   1.423   3.662  17.443  0.1401  0.5028  1.3580
  606TMC3    O1 9042   1.533   3.501  16.883 -0.0731  0.0974  0.0680
  606TMC3    O2 9043   1.345   3.731  17.508 -0.0254  0.0925 -0.6414
  607MPD2     C 9044   3.128   0.990  11.373 -0.1467  0.4459  0.2935
  607MPD2    C1 9045   3.230   1.056  11.442 -0.7323 -0.2019 -0.3448
  607MPD2    C2 9046   3.273   0.993  11.559 -0.5904  0.4861 -0.0480
  607MPD2    C3 9047   3.235   0.868  11.590 -0.3903  0.5387  0.3545
  607MPD2    C4 9048   3.136   0.806  11.522  0.6477  0.0239 -0.0030
  607MPD2    C5 9049   3.085   0.864  11.410  0.2882 -0.2919  0.4735
  607MPD2     H 9050   3.356   1.039  11.612 -0.3727 -0.2076  0.2075
  607MPD2    H1 9051   3.096   0.713  11.560  0.4104  0.8421  1.7753
  607MPD2    H2 9052   3.078   1.041  11.292 -1.6983  1.5761  1.9638
  607MPD2    H3 9053   3.003   0.830  11.348  0.3031  2.0168 -0.8369
  607MPD2     N 9054   3.314   0.816  11.693 -0.1608  0.1529  0.2090
  607MPD2    H5 9055   3.394   0.868  11.727 -0.6110  1.1308 -0.2206
  607MPD2    N1 9056   3.293   1.179  11.405  0.1129 -0.0824  0.0812
  607MPD2    H7 9057   3.348   1.225  11.476  2.6062 -2.2430 -0.4381
  608TMC3    C1 9058   3.372   1.356  11.280  0.1591  0.0256  0.1788
  608TMC3    C2 9059   3.444   1.401  11.383 -0.1792 -0.5294 -0.2713
  608TMC3    C3 9060   3.549   1.478  11.363  0.4926  0.1944 -0.6353
  608TMC3    C4 9061   3.388   1.406  11.152  0.0807  0.9291 -0.0471
  608TMC3    C5 9062   3.487   1.498  11.142 -0.3032 -0.2718 -0.0514
  608TMC3    C6 9063   3.574   1.525  11.238  0.4896 -1.0881 -0.1088
  608TMC3     C 9064   3.275   1.248  11.286 -0.0367 -0.3672  0.3353
  608TMC3     O 9065   3.218   1.223  11.181 -0.0917  0.2595 -0.7318
  608TMC3     H 9066   3.414   1.381  11.486  0.2846 -1.3900 -0.3104
  608TMC3    H1 9067   3.316   1.385  11.074  0.1151  0.8355 -0.0541
  608TMC3    H2 9068   3.674   1.565  11.224  0.2758  0.1449  1.8582
  608TMC3    C7 9069   3.530   1.508  11.003  0.2367 -0.2655  0.8998
  608TMC3    C8 9070   3.652   1.481  11.468 -0.6188 -0.4361  0.4540
  608TMC3    O1 9071   3.476   1.432  10.927 -0.0700  0.7479  0.0405
  608TMC3    O2 9072   3.715   1.585  11.479  0.1550  0.2581 -0.2095
  609TMC3    C1 9073   2.128   4.456   9.273  0.1203 -0.3572  0.4021
  609TMC3    C2 9074   2.140   4.551   9.178  0.3438 -0.2049 -0.6848
  609TMC3    C3 9075   2.267   4.595   9.145 -0.0263 -0.2983 -0.0239
  609TMC3    C4 9076   2.236   4.394   9.332  0.3226  1.2040 -0.6074
  609TMC3    C5 9077   2.359   4.433   9.284  0.7027  0.4325  0.0205
  609TMC3    C6 9078   2.374   4.531   9.190  0.2189 -0.2093  0.0015
  609TMC3     C 9079   2.004   4.415   9.326 -0.5360  0.8658  0.5990
  609TMC3     O 9080   1.999   4.305   9.373  0.2137 -0.0498 -0.1714
  609TMC3     H 9081   2.060   4.583   9.111 -0.2332  1.3679  0.7642
  609TMC3    H1 9082   2.231   4.316   9.408 -1.4493  2.0462  0.1491
  609TMC3    H2 9083   2.473   4.566   9.161 -0.5937  2.6006  0.6330
  609TMC3    C7 9084   2.471   4.365   9.329 -0.0225  0.1156  0.3858
  609TMC3    C8 9085   2.274   4.715   9.059 -0.1881 -0.5600 -0.3163
  609TMC3    O1 9086   2.478   4.330   9.448  0.1791  0.1250 -0.1034
  609TMC3    O2 9087   2.169   0.033   9.029  0.0119 -0.4399 -0.2043
  610TMC3    C1 9088   3.810   0.519  12.174  0.3825 -0.5269 -0.1156
  610TMC3    C2 9089   3.914   0.498  12.090 -0.4350 -0.7615 -0.0961
  610TMC3    C3 9090   3.986   0.391  12.086 -0.4143  0.1294  1.0283
  610TMC3    C4 9091   3.788   0.429  12.272  0.0873 -0.9519 -0.3172
  610TMC3    C5 9092   3.870   0.321  12.283  0.4796  0.5172  0.0267
  610TMC3    C6 9093   3.967   0.297  12.184 -1.0606  0.1408  0.2299
  610TMC3     C 9094   3.743   0.650  12.174 -0.2979 -0.1603 -0.0295
  610TMC3     O 9095   3.628   0.663  12.211  0.0429  0.4638 -0.0206
  610TMC3     H 9096   3.935   0.573  12.015 -0.2949 -1.3491 -0.6441
  610TMC3    H1 9097   3.712   0.444  12.348 -1.2957  0.3424 -1.9435
  610TMC3    H2 9098   4.028   0.208  12.186 -1.3526 -0.0701 -0.3733
  610TMC3    C7 9099   3.907   0.262  12.415 -0.8455 -0.5203  0.1574
  610TMC3    C8 9100   4.107   0.384  12.006  1.0026 -0.1222 -0.2357
  610TMC3    O1 9101   4.001   0.185  12.407 -0.2833  0.4454 -0.2210
  610TMC3    O2 9102   4.193   0.310  12.042 -0.1625 -1.1613  0.8586
  611MPD2     C 9103   3.363   0.203  10.182  0.7137 -0.3252 -0.5565
  611MPD2    C1 9104   3.246   0.248  10.123 -0.0281  0.1741  0.5138
  611MPD2    C2 9105   3.245   0.364  10.039  0.4337 -0.3995  0.5948
  611MPD2    C3 9106   3.365   0.437  10.024  0.1669  0.9614  0.2107
  611MPD2    C4 9107   3.480   0.393  10.087  0.6689  0.2514  0.3681
  611MPD2    C5 9108   3.477   0.279  10.166  0.5621 -0.0911  0.2119
  611MPD2     H 9109   3.157   0.403   9.990 -0.8763  0.3459  3.5629
  611MPD2    H1 9110   3.578   0.437  10.075 -0.1942  1.8815 -0.6536
  611MPD2    H2 9111   3.363   0.122  10.254 -0.1101  0.8246  0.7249
  611MPD2    H3 9112   3.568   0.248  10.217  0.5933 -0.7989 -0.2740
  611MPD2     N 9113   3.374   0.557   9.949 -0.0760  0.5574  0.2965
  611MPD2    H5 9114   3.462   0.607   9.959 -0.0582  0.6735 -0.4507
  611MPD2    N1 9115   3.129   0.183  10.165 -0.3043  0.3358  0.1718
  611MPD2    H7 9116   3.144   0.096  10.214 -1.0329  0.1166  0.0060
  612TMC3    C1 9117   3.334   0.735   9.801  0.1739 -0.6905 -0.5002
  612TMC3    C2 9118   3.387   0.825   9.891  0.0344 -0.9144  0.5558
  612TMC3    C3 9119   3.413   0.951   9.843 -0.0243 -0.0688  0.1234
  612TMC3    C4 9120   3.285   0.773   9.683 -0.2282  0.4838 -0.0073
  612TMC3    C5 9121   3.306   0.902   9.647  0.1052  0.1474  0.2192
  612TMC3    C6 9122   3.380   0.990   9.720 -1.0440 -0.6434 -0.3116
  612TMC3     C 9123   3.285   0.603   9.862 -0.2111 -0.2478 -0.0410
  612TMC3     O 9124   3.178   0.560   9.826 -0.3742 -0.2756  0.3003
  612TMC3     H 9125   3.389   0.801   9.997 -0.3345 -1.3033  0.4783
  612TMC3    H1 9126   3.250   0.693   9.619 -0.3766  1.1435 -0.7629
  612TMC3    H2 9127   3.425   1.078   9.675 -1.1782 -0.1767  0.4500
  612TMC3    C7 9128   3.258   0.940   9.513 -0.0548  0.2230  0.4076
  612TMC3    C8 9129   3.525   1.023   9.906  0.2588  0.2252 -0.2526
  612TMC3    O1 9130   3.253   0.846   9.433 -0.2548 -0.3211 -0.1222
  612TMC3    O2 9131   3.547   1.142   9.881 -0.1245  0.4694 -0.4962
  613MPD2     C 9132   2.935   3.103  16.493  0.2587  0.0187  0.0913
  613MPD2    C1 9133   2.950   2.977  16.439  0.3326 -0.0673  0.2052
  613MPD2    C2 9134   2.866   2.872  16.483 -0.1236 -0.1857  0.5172
  613MPD2    C3 9135   2.777   2.882  16.585 -0.2551 -0.0993  0.1807
  613MPD2    C4 9136   2.768   3.007  16.649 -0.4742 -0.4125  0.3456
  613MPD2    C5 9137   2.848   3.112  16.600 -0.3818 -0.1381 -0.7287
  613MPD2     H 9138   2.891   2.775  16.441 -0.7797  0.0922 -0.4908
  613MPD2    H1 9139   2.722   3.015  16.747  1.1702 -1.5869  1.2126
  613MPD2    H2 9140   2.993   3.188  16.459  0.8251 -0.7254 -0.8039
  613MPD2    H3 9141   2.838   3.210  16.646  2.6788 -1.0693  1.9144
  613MPD2     N 9142   2.705   2.767  16.630  0.2307  0.2603 -0.5649
  613MPD2    H5 9143   2.719   2.682  16.576  1.9495 -0.1008  0.4451
  613MPD2    N1 9144   3.033   2.960  16.328  0.1743 -0.0069  0.4968
  613MPD2    H7 9145   3.041   3.045  16.273 -1.7810 -0.7958 -1.0350
  614TMC3    C1 9146   3.098   2.827  16.135 -0.7475 -0.3079 -0.1217
  614TMC3    C2 9147   3.128   2.696  16.096  0.0221  0.5049 -0.5207
  614TMC3    C3 9148   3.046   2.634  15.996 -0.1940  0.0671 -0.8233
  614TMC3    C4 9149   3.017   2.901  16.049 -0.2981 -0.5012 -0.0670
  614TMC3    C5 9150   2.957   2.845  15.943 -0.5921 -0.5319 -0.6442
  614TMC3    C6 9151   2.960   2.709  15.921  0.5062  0.2824  0.2056
  614TMC3     C 9152   3.075   2.837  16.281 -0.3295  0.3227  0.1761
  614TMC3     O 9153   3.090   2.736  16.351 -0.0538 -0.0632  0.3546
  614TMC3     H 9154   3.192   2.644  16.166 -0.6942 -0.8917 -0.8977
  614TMC3    H1 9155   2.998   3.005  16.075  0.8844 -0.3853  0.3335
  614TMC3    H2 9156   2.920   2.671  15.828  1.3676 -1.4539  0.5412
  614TMC3    C7 9157   2.862   2.926  15.874 -0.1641 -0.1899 -0.4270
  614TMC3    C8 9158   2.989   2.513  16.055 -0.0068 -0.1961 -0.4891
  614TMC3    O1 9159   2.765   2.871  15.829  0.4710  0.7450 -0.1550
  614TMC3    O2 9160   3.020   2.500  16.173  0.9681 -0.1802  0.5104
  615MPD2     C 9161   1.977   3.574  16.109 -0.5150  0.4236  0.1058
  615MPD2    C1 9162   1.896   3.683  16.116  0.2140  1.0201 -0.7503
  615MPD2    C2 9163   1.858   3.748  16.008  0.6484  0.0598  0.1927
  615MPD2    C3 9164   1.892   3.704  15.879 -0.4387  0.8835  0.1679
  615MPD2    C4 9165   1.969   3.588  15.872  0.4632 -0.2610 -0.2687
  615MPD2    C5 9166   2.011   3.531  15.987  0.2481 -0.5916  0.2232
  615MPD2     H 9167   1.788   3.830  16.011  2.0774  1.2513  0.7948
  615MPD2    H1 9168   2.002   3.545  15.778  2.5950 -1.9334  1.2555
  615MPD2    H2 9169   2.009   3.515  16.194  0.2401  3.0598  1.6405
  615MPD2    H3 9170   2.072   3.442  15.972 -0.3362 -1.2876  1.9471
  615MPD2     N 9171   1.853   3.767  15.760  0.6921  0.1269  0.4303
  615MPD2    H5 9172   1.873   3.719  15.673  1.6596 -0.1430  0.7989
  615MPD2    N1 9173   1.872   3.754  16.234 -0.2210  0.8591  0.2225
  615MPD2    H7 9174   1.838   3.850  16.236 -2.1338  0.2224 -1.7855
  616TMC3    C1 9175   1.865   3.796  16.464  0.2606 -0.2272 -0.5281
  616TMC3    C2 9176   1.896   3.929  16.451  0.1696 -0.0282  0.2479
  616TMC3    C3 9177   1.863   4.014  16.551 -0.0079  0.0358  0.6270
  616TMC3    C4 9178   1.802   3.741  16.570 -0.0170 -0.5642  0.2867
  616TMC3    C5 9179   1.765   3.832  16.671  0.3709  0.1349  0.3135
  616TMC3    C6 9180   1.812   3.962  16.663  0.3615 -0.8496 -0.0540
  616TMC3     C 9181   1.895   3.700  16.362 -0.4360 -0.0102 -0.3438
  616TMC3     O 9182   1.902   3.583  16.392 -0.1495  0.6638 -0.1498
  616TMC3     H 9183   1.954   3.963  16.366 -0.0999  1.1830  0.5565
  616TMC3    H1 9184   1.771   3.638  16.564 -1.4810 -0.0897 -0.2903
  616TMC3    H2 9185   1.805   4.036  16.741  1.7364  0.0142 -0.7594
  616TMC3    C7 9186   1.767   3.782  16.807  0.1376  0.5523 -0.2147
  616TMC3    C8 9187   1.907   4.156  16.559 -0.0031  0.0254 -0.0201
  616TMC3    O1 9188   1.703   3.852  16.882  0.3965 -0.3540  0.1542
  616TMC3    O2 9189   1.930   4.224  16.660 -0.4587  0.4136 -0.9367
  617MPD2     C 9190   4.383   2.466  13.712 -0.4770 -0.0960  0.3033
  617MPD2    C1 9191   4.495   2.459  13.796  0.0837 -0.0735 -0.2279
  617MPD2    C2 9192   4.483   2.421  13.931  0.0998  0.4263 -0.0285
  617MPD2    C3 9193   4.365   2.368  13.977 -0.1974 -0.5807 -0.6303
  617MPD2    C4 9194   4.254   2.374  13.886  0.0412 -0.0403  0.0256
  617MPD2    C5 9195   4.266   2.418  13.757  0.2652  0.1211 -0.0122
  617MPD2     H 9196   4.570   2.407  13.993  2.0367  2.7314 -2.1942
  617MPD2    H1 9197   4.158   2.340  13.924  0.2416 -1.5557 -0.8135
  617MPD2    H2 9198   4.379   2.506  13.611  2.0303 -0.1070  0.2199
  617MPD2    H3 9199   4.174   2.427  13.701 -0.1799 -3.0750  0.2540
  617MPD2     N 9200   4.356   2.305  14.106  0.0245 -0.0159 -0.4807
  617MPD2    H5 9201   4.268   2.257  14.123  0.1657 -0.5713 -1.3220
  617MPD2    N1 9202   4.626   2.485  13.738  0.3499  0.5306  0.4832
  617MPD2    H7 9203   4.626   2.485  13.637  1.2961  1.2235  0.4843
  618TMC3    C1 9204   0.123   2.502  13.715 -0.8408  0.4435  0.0334
  618TMC3    C2 9205   0.245   2.514  13.777  0.0157 -0.2117 -0.6085
  618TMC3    C3 9206   0.358   2.466  13.714  0.0153  0.0446  0.0087
  618TMC3    C4 9207   0.117   2.444  13.590 -0.1655  0.6520  1.1046
  618TMC3    C5 9208   0.230   2.417  13.525 -0.3095 -0.1150 -0.2761
  618TMC3    C6 9209   0.354   2.415  13.589  0.4032  0.0324 -0.2749
  618TMC3     C 9210   0.003   2.514  13.799 -0.2977 -0.0160 -0.2255
  618TMC3     O 9211   0.012   2.556  13.915 -0.1179 -0.5138 -0.2186
  618TMC3     H 9212   0.255   2.558  13.876  3.0491  1.8352 -1.8468
  618TMC3    H1 9213   0.022   2.432  13.539  0.3816 -0.1932  0.3097
  618TMC3    H2 9214   0.443   2.392  13.531  2.0607  0.6879  2.0576
  618TMC3    C7 9215   0.221   2.310  13.434  0.6351  0.4875 -0.3010
  618TMC3    C8 9216   0.490   2.476  13.783 -0.0103  0.2508  0.0802
  618TMC3    O1 9217   0.120   2.241  13.436  0.3643 -0.0374  0.1317
  618TMC3    O2 9218   0.506   2.565  13.869  0.6496  0.2426  0.2750
  619MPD2     C 9219   1.989   3.432  13.625  0.0254  0.0098  0.4096
  619MPD2    C1 9220   1.903   3.525  13.570 -0.1075  0.0173  0.3954
  619MPD2    C2 9221   1.764   3.508  13.596  0.4887  0.5111  0.0971
  619MPD2    C3 9222   1.721   3.402  13.670 -0.3099  0.2403  0.6938
  619MPD2    C4 9223   1.811   3.314  13.731  0.4871  0.2269  0.2205
  619MPD2    C5 9224   1.945   3.325  13.702 -0.3855 -0.7552  0.1771
  619MPD2     H 9225   1.697   3.576  13.544  1.0409 -1.6771 -3.4883
  619MPD2    H1 9226   1.775   3.232  13.792  0.6564  0.3264  0.4517
  619MPD2    H2 9227   2.096   3.437  13.610 -0.2091 -0.8448 -1.5464
  619MPD2    H3 9228   2.014   3.258  13.752  0.1545  0.3278  0.8985
  619MPD2     N 9229   1.585   3.380  13.699  0.9006 -0.1517 -0.2320
  619MPD2    H5 9230   1.567   3.300  13.759  0.8875  0.5033  0.6480
  619MPD2    N1 9231   1.942   3.630  13.483  0.3857 -0.5101  0.0418
  619MPD2    H7 9232   1.868   3.684  13.441  2.4291  1.1786 -1.3461
  620TMC3    C1 9233   2.065   3.772  13.345  0.3287  0.1607  0.0436
  620TMC3    C2 9234   1.967   3.767  13.247  0.6540  0.5956  0.7907
  620TMC3    C3 9235   1.970   3.879  13.162 -0.3859 -1.2008 -0.3913
  620TMC3    C4 9236   2.148   3.878  13.359  1.1691 -0.4873 -0.1649
  620TMC3    C5 9237   2.135   3.985  13.285 -0.2758  0.9163  0.0132
  620TMC3    C6 9238   2.053   3.985  13.177  0.2602 -0.6957 -0.5533
  620TMC3     C 9239   2.071   3.667  13.442 -0.2605  0.7203 -0.4991
  620TMC3     O 9240   2.181   3.644  13.491 -0.2338  0.3496 -0.4280
  620TMC3     H 9241   1.908   3.678  13.229 -0.3891  1.2969  0.7312
  620TMC3    H1 9242   2.214   3.876  13.445  1.8024  0.8986 -0.6213
  620TMC3    H2 9243   2.055   4.071  13.112 -2.5966 -0.4798 -0.3784
  620TMC3    C7 9244   2.121   4.107  13.363 -0.5115 -0.2071 -0.5401
  620TMC3    C8 9245   1.843   3.933  13.116 -0.5533  0.8361 -0.1935
  620TMC3    O1 9246   2.186   4.113  13.467 -0.3936 -0.0586 -0.9324
  620TMC3    O2 9247   1.829   4.053  13.146 -0.4022  0.4106  0.5324
  621MPD2     C 9248   2.219   2.799   9.855 -0.4315 -0.5309  0.5241
  621MPD2    C1 9249   2.097   2.812   9.792  0.1129  0.1998 -0.5166
  621MPD2    C2 9250   2.049   2.937   9.754  0.0854  0.3497  0.1057
  621MPD2    C3 9251   2.112   3.054   9.790  0.3081  0.4864 -0.6603
  621MPD2    C4 9252   2.242   3.046   9.838  0.1404  0.7419  0.1565
  621MPD2    C5 9253   2.293   2.922   9.877  0.1835 -1.2549 -0.5927
  621MPD2     H 9254   1.949   2.943   9.714 -0.4523  0.9050  1.5394
  621MPD2    H1 9255   2.311   3.130   9.842  0.0221  0.7326  2.5650
  621MPD2    H2 9256   2.267   2.709   9.892 -1.1149 -0.8148  0.7147
  621MPD2    H3 9257   2.386   2.927   9.932  0.6123 -1.7804 -1.2674
  621MPD2     N 9258   2.072   3.187   9.743 -0.8306  0.5155  0.3013
  621MPD2    H5 9259   1.993   3.199   9.682 -1.3330 -0.6814  0.7007
  621MPD2    N1 9260   2.013   2.699   9.756  0.1874 -0.0061  0.4968
  621MPD2    H7 9261   1.925   2.713   9.707  0.0689 -2.4187  0.0613
  622TMC3    C1 9262   1.927   2.487   9.762  0.3913 -0.5993  0.0871
  622TMC3    C2 9263   1.868   2.411   9.859 -0.3914 -0.0902  1.0335
  622TMC3    C3 9264   1.758   2.339   9.823 -0.1981 -0.5102 -0.1115
  622TMC3    C4 9265   1.871   2.512   9.641 -0.1743  0.2975 -0.3278
  622TMC3    C5 9266   1.765   2.426   9.604  0.7090  0.1923 -0.3941
  622TMC3    C6 9267   1.706   2.341   9.693  0.8097  0.1491 -0.2313
  622TMC3     C 9268   2.038   2.571   9.792  0.3551 -0.5790  0.0149
  622TMC3     O 9269   2.127   2.519   9.859  0.4801 -0.3230 -0.8866
  622TMC3     H 9270   1.925   2.385   9.948  2.8676  2.7286 -0.2370
  622TMC3    H1 9271   1.925   2.575   9.571 -1.9250  1.9084 -0.2167
  622TMC3    H2 9272   1.621   2.280   9.664 -0.2124  1.2331  0.4960
  622TMC3    C7 9273   1.701   2.441   9.475  0.0092 -0.4691 -0.3016
  622TMC3    C8 9274   1.653   2.330   9.924 -0.4096  0.4769  0.3282
  622TMC3    O1 9275   1.639   2.345   9.427  0.1709 -0.5418  0.6390
  622TMC3    O2 9276   1.575   2.236   9.919 -0.4876 -0.2565 -0.1026
  623MPD2     C 9277   0.949   0.439  16.277  0.5421  0.8603 -0.2264
  623MPD2    C1 9278   0.854   0.411  16.377  0.2927  0.1031 -0.7863
  623MPD2    C2 9279   0.888   0.422  16.514 -0.4118  0.1717  0.4708
  623MPD2    C3 9280   1.016   0.455  16.548 -0.1795 -0.0550 -0.3660
  623MPD2    C4 9281   1.105   0.495  16.452  0.4283 -0.3892  0.1305
  623MPD2    C5 9282   1.074   0.477  16.322 -0.2627 -0.3100 -0.3423
  623MPD2     H 9283   0.824   0.386  16.593  0.6650 -2.7218  0.0339
  623MPD2    H1 9284   1.205   0.531  16.476  0.6872 -0.7761 -0.3729
  623MPD2    H2 9285   0.935   0.427  16.170 -1.5018  0.7008  0.0527
  623MPD2    H3 9286   1.147   0.512  16.250  0.6892  1.8443  1.7005
  623MPD2     N 9287   1.048   0.447  16.688 -0.2024 -0.5404 -0.1448
  623MPD2    H5 9288   0.987   0.407  16.758 -2.3611 -0.0553 -1.7554
  623MPD2    N1 9289   0.726   0.365  16.332 -0.6658 -0.0413  0.0155
  623MPD2    H7 9290   0.714   0.346  16.233 -2.7468 -1.3707  0.5051
  624TMC3    C1 9291   1.212   0.233  16.982  0.3487 -0.1158  0.2896
  624TMC3    C2 9292   1.088   0.240  17.045 -0.0218  0.0455 -0.4938
  624TMC3    C3 9293   1.015   0.357  17.037  0.3968  0.6108  0.0812
  624TMC3    C4 9294   1.259   0.332  16.898 -0.1671 -0.3989 -0.4072
  624TMC3    C5 9295   1.176   0.440  16.878 -0.4900 -0.1807  0.1987
  624TMC3    C6 9296   1.055   0.450  16.945 -0.4252 -0.5677 -0.0611
  624TMC3     C 9297   1.298   0.118  17.004 -0.4214  0.4371 -0.0300
  624TMC3     O 9298   1.251   0.044  17.090 -0.7229 -0.4345  0.7447
  624TMC3     H 9299   1.054   0.164  17.115 -3.7951  1.9585 -0.2669
  624TMC3    H1 9300   1.345   0.330  16.832 -0.3743  0.4572 -0.7016
  624TMC3    H2 9301   0.989   0.530  16.915  0.4350  0.6381  1.2690
  624TMC3    C7 9302   1.171   0.486  16.739  0.0120  0.8678 -0.5343
  624TMC3    C8 9303   0.875   0.329  17.041 -0.3520 -0.3477 -0.0596
  624TMC3    O1 9304   1.276   0.521  16.685  0.5607 -0.3332  0.2196
  624TMC3    O2 9305   0.838   0.217  17.010  0.2166  0.7531  0.2137
  625MPD2     C 9306   1.160   1.828   0.821 -0.1167  0.2549 -0.3220
  625MPD2    C1 9307   1.244   1.942   0.796 -0.4125 -0.1894  0.7025
  625MPD2    C2 9308   1.361   1.947   0.865 -0.2473 -0.4668 -0.0053
  625MPD2    C3 9309   1.408   1.841   0.941 -0.0514 -0.0756  0.7861
  625MPD2    C4 9310   1.330   1.722   0.952 -0.1128  0.2655 -0.3703
  625MPD2    C5 9311   1.207   1.719   0.891  0.5536 -0.3340  0.3470
  625MPD2     H 9312   1.431   2.027   0.844 -2.0834  0.7312 -1.5368
  625MPD2    H1 9313   1.367   1.633   1.002  1.7015  0.1246 -1.9656
  625MPD2    H2 9314   1.064   1.813   0.772 -1.1245  1.4110  1.2634
  625MPD2    H3 9315   1.140   1.637   0.915  0.5019  0.3415  2.5905
  625MPD2     N 9316   1.535   1.858   1.004  0.3892 -0.1718  0.1903
  625MPD2    H5 9317   1.569   1.953   0.994  0.0353  0.1296  2.0075
  625MPD2    N1 9318   1.210   2.051   0.707 -0.0528 -0.0109 -0.0607
  625MPD2    H7 9319   1.281   2.123   0.709  1.6362 -1.6689 -0.4904
  626TMC3    C1 9320   1.090   2.189   0.564  0.0144  0.2537  0.1832
  626TMC3    C2 9321   1.019   2.185   0.445  0.4881 -0.0838 -0.0692
  626TMC3    C3 9322   0.918   2.272   0.426 -0.0977  0.1169 -0.0867
  626TMC3    C4 9323   1.067   2.291   0.655  0.1918  0.0227  0.5835
  626TMC3    C5 9324   0.974   2.392   0.617 -0.3726 -0.3243  0.0296
  626TMC3    C6 9325   0.890   2.379   0.508  0.5081  0.5656  0.8882
  626TMC3     C 9326   1.098   2.057   0.631  0.3162 -0.6562 -1.1469
  626TMC3     O 9327   1.008   1.974   0.613  0.4470  0.7056 -0.2707
  626TMC3     H 9328   1.014   2.090   0.393  0.4580 -0.8968  1.4164
  626TMC3    H1 9329   1.109   2.293   0.755  2.7188  0.0925 -0.5051
  626TMC3    H2 9330   0.830   2.467   0.488 -1.0005 -0.5127  0.7213
  626TMC3    C7 9331   0.937   2.478   0.723  0.1743  0.1198 -0.2931
  626TMC3    C8 9332   0.848   2.256   0.303 -0.8364 -0.3951 -0.3170
  626TMC3    O1 9333   1.024   2.507   0.802  0.1208 -0.1294  0.3693
  626TMC3    O2 9334   0.900   2.193   0.214  0.7534  0.0363 -0.4771
  627MPD2     C 9335   4.297   1.408  14.895  1.2262 -0.1778  0.0677
  627MPD2    C1 9336   4.399   1.329  14.860  0.1707  0.1576 -0.2766
  627MPD2    C2 9337   4.380   1.215  14.777  0.3010 -0.6688 -0.0290
  627MPD2    C3 9338   4.258   1.187  14.717  0.1778 -0.4759 -0.3393
  627MPD2    C4 9339   4.149   1.264  14.762 -0.1131  0.3014 -0.3571
  627MPD2    C5 9340   4.175   1.375  14.846 -0.1189 -0.2757  0.4834
  627MPD2     H 9341   4.469   1.160  14.747 -0.7498 -3.0804  1.2717
  627MPD2    H1 9342   4.051   1.246  14.719  0.5159 -2.1558 -0.7823
  627MPD2    H2 9343   4.306   1.499  14.954 -0.3800 -0.3460  0.5673
  627MPD2    H3 9344   4.088   1.438  14.862 -0.1505 -0.5471  1.3316
  627MPD2     N 9345   4.255   1.084  14.617 -0.4532 -0.0321  0.7341
  627MPD2    H5 9346   4.344   1.042  14.593  0.3369  1.6486  0.7270
  627MPD2    N1 9347   4.531   1.350  14.910  0.4599  0.4265 -0.2669
  627MPD2    H7 9348   4.601   1.292  14.867 -0.8084 -0.2080 -1.4813
  628TMC3    C1 9349   4.712   1.475  14.996 -0.2715 -0.3580 -0.4516
  628TMC3    C2 9350   0.069   1.376  14.988  0.6179  0.2120 -0.0644
  628TMC3    C3 9351   0.198   1.403  15.025  0.3093 -0.0902 -0.4556
  628TMC3    C4 9352   0.003   1.598  15.043 -0.1263  0.3273  0.6401
  628TMC3    C5 9353   0.140   1.626  15.057  0.1135  1.0631 -0.0795
  628TMC3    C6 9354   0.235   1.527  15.069  0.2159  0.0393 -0.0550
  628TMC3     C 9355   4.572   1.450  14.995  0.2445  0.2742  0.3969
  628TMC3     O 9356   4.501   1.523  15.065 -0.1814 -0.6856 -0.2730
  628TMC3     H 9357   0.042   1.274  14.963  0.3992  0.2437  0.0429
  628TMC3    H1 9358   4.676   1.684  15.055 -1.0749 -0.1696 -0.8864
  628TMC3    H2 9359   0.336   1.554  15.099  0.4667 -0.6654 -0.2817
  628TMC3    C7 9360   0.180   1.767  15.045  0.4515 -0.2551  0.7022
  628TMC3    C8 9361   0.287   1.290  15.025 -0.1722  0.3015 -0.3424
  628TMC3    O1 9362   0.251   1.820  15.125  0.5715  0.8397 -0.3197
  628TMC3    O2 9363   0.267   1.204  14.941  0.0555  0.0490  0.1701
  629MPD2     C 9364   2.132   4.542  16.294  0.0783 -0.7770  0.2900
  629MPD2    C1 9365   2.150   4.504  16.424 -0.4667  0.8240 -0.2201
  629MPD2    C2 9366   2.091   4.384  16.469  0.6440  0.8058  0.2618
  629MPD2    C3 9367   2.000   4.319  16.393 -0.2634  0.1333 -0.1104
  629MPD2    C4 9368   1.978   4.364  16.267 -0.5331 -0.5406 -0.1810
  629MPD2    C5 9369   2.042   4.474  16.220  0.6789 -0.5195  0.4958
  629MPD2     H 9370   2.127   4.349  16.566  2.3051 -2.8409 -1.6836
  629MPD2    H1 9371   1.912   4.316  16.196  0.0339 -1.4000 -0.1162
  629MPD2    H2 9372   2.183   4.630  16.257 -1.2384 -0.0958  0.1084
  629MPD2    H3 9373   2.029   4.512  16.119 -0.2755 -1.0670  0.4109
  629MPD2     N 9374   1.933   4.199  16.434  0.1692  0.3109  0.2586
  629MPD2    H5 9375   1.892   4.143  16.360 -0.8967  0.2310  0.9271
  629MPD2    N1 9376   2.245   4.569  16.503  0.8810  0.3243  0.5592
  629MPD2    H7 9377   2.289   4.652  16.462 -0.1772 -0.3412 -1.9458
  630TMC3    C1 9378   2.374   4.642  16.685  0.8290  0.3876 -0.3531
  630TMC3    C2 9379   2.415   0.005  16.607  0.5074  0.1963  0.2334
  630TMC3    C3 9380   2.529   0.061  16.641 -0.1812  0.4151  0.3629
  630TMC3    C4 9381   2.437   4.598  16.795  0.6416 -0.9071 -0.2648
  630TMC3    C5 9382   2.556   4.664  16.827 -0.2510 -0.0018  0.0670
  630TMC3    C6 9383   2.600   0.032  16.757 -0.2337  0.2415  0.9485
  630TMC3     C 9384   2.279   4.545  16.633 -0.7270 -0.2469  0.4951
  630TMC3     O 9385   2.226   4.476  16.715  0.4361  0.1235  0.3374
  630TMC3     H 9386   2.366   0.032  16.514  3.6077 -1.1232 -1.7866
  630TMC3    H1 9387   2.422   4.494  16.821  0.5012 -0.6291  0.7536
  630TMC3    H2 9388   2.697   0.074  16.779 -0.6533  1.5399  0.3202
  630TMC3    C7 9389   2.608   4.638  16.959 -0.3829 -0.1834 -0.3639
  630TMC3    C8 9390   2.547   0.198  16.592 -0.9782  0.3304 -1.2974
  630TMC3    O1 9391   2.609   4.526  17.008  0.9267  0.4077 -0.1475
  630TMC3    O2 9392   2.598   0.216  16.480 -0.1092 -0.2916  0.3185
  631MPD2     C 9393   1.292   3.852  14.955  0.9751 -0.3413  0.1512
  631MPD2    C1 9394   1.334   3.977  14.953 -0.2510  0.7030  0.4221
  631MPD2    C2 9395   1.445   4.008  15.033 -0.2268  0.0925 -0.5389
  631MPD2    C3 9396   1.494   3.918  15.125  0.6362 -0.4062  0.0725
  631MPD2    C4 9397   1.436   3.790  15.127  0.4561 -0.1470 -1.0729
  631MPD2    C5 9398   1.345   3.756  15.037  0.1242  0.6539  0.6550
  631MPD2     H 9399   1.481   4.108  15.014 -1.6606  0.1005 -3.2412
  631MPD2    H1 9400   1.470   3.717  15.200  0.7233  2.0565  1.0124
  631MPD2    H2 9401   1.218   3.823  14.882  1.8464 -0.9803 -0.4865
  631MPD2    H3 9402   1.307   3.655  15.029 -0.8817  1.1507 -0.7652
  631MPD2     N 9403   1.599   3.953  15.211  0.3997  0.2076  0.2873
  631MPD2    H5 9404   1.643   4.043  15.191  0.1797  0.2115 -0.1588
  631MPD2    N1 9405   1.276   4.080  14.873 -0.0703  0.6950 -0.1530
  631MPD2    H7 9406   1.207   4.058  14.801 -1.5113 -1.2413  1.8133
  632TMC3    C1 9407   1.184   4.298  14.842 -0.6684  0.2093  0.4707
  632TMC3    C2 9408   1.120   4.391  14.912 -0.3606 -0.0649 -0.2772
  632TMC3    C3 9409   1.016   4.466  14.855 -0.8038  0.5838 -1.0395
  632TMC3    C4 9410   1.159   4.269  14.708 -0.2071  0.0170  0.0242
  632TMC3    C5 9411   1.061   4.341  14.653 -0.4208  0.3045 -0.8016
  632TMC3    C6 9412   0.986   4.433  14.725 -0.9987  0.1087  0.3493
  632TMC3     C 9413   1.277   4.218  14.914  0.0404  0.1356  0.4675
  632TMC3     O 9414   1.330   4.273  15.008 -0.3407  0.0000  0.1579
  632TMC3     H 9415   1.134   4.394  15.020  1.0031  0.2418 -0.4646
  632TMC3    H1 9416   1.226   4.203  14.654  0.7425 -0.6440  2.0053
  632TMC3    H2 9417   0.919   4.501  14.673  0.7896  1.8168  0.2639
  632TMC3    C7 9418   1.062   4.360  14.511  0.4682  0.2104  0.1245
  632TMC3    C8 9419   0.919   4.523  14.957  0.7473 -0.2752  0.3596
  632TMC3    O1 9420   1.027   4.471  14.470  0.1004  0.1779  0.2388
  632TMC3    O2 9421   0.945   4.501  15.074  0.1052  0.6735  0.1491
  633MPD2     C 9422   0.841   3.102  17.396  0.2960 -0.0255  0.4991
  633MPD2    C1 9423   0.945   3.099  17.302  0.3506 -0.1148  0.3900
  633MPD2    C2 9424   1.052   3.025  17.331 -0.3111  0.8531 -0.2581
  633MPD2    C3 9425   1.061   2.960  17.457  0.3024  0.2190  0.8920
  633MPD2    C4 9426   0.955   2.968  17.553 -0.1569 -0.5887  0.0553
  633MPD2    C5 9427   0.842   3.037  17.518  0.3941  0.3722 -0.3770
  633MPD2     H 9428   1.130   3.007  17.258 -1.2829 -0.4999 -0.9574
  633MPD2    H1 9429   0.952   2.904  17.640 -0.5189 -1.1500 -0.3726
  633MPD2    H2 9430   0.745   3.150  17.376 -0.0079 -0.6510  0.4689
  633MPD2    H3 9431   0.756   3.039  17.584  1.9788  0.3136  1.7015
  633MPD2     N 9432   1.152   2.855  17.488  0.0595 -0.1994 -0.9041
  633MPD2    H5 9433   1.130   2.791  17.563 -0.9520  2.2263  0.8986
  633MPD2    N1 9434   0.920   3.143  17.164  0.0768  0.5479 -0.3308
  633MPD2    H7 9435   0.989   3.125  17.092 -1.6152 -0.9628 -1.5630
  634TMC3    C1 9436   0.805   3.229  16.978  0.0059  0.1277 -0.2745
  634TMC3    C2 9437   0.830   3.120  16.907  0.7193  0.1430  0.4682
  634TMC3    C3 9438   0.825   3.132  16.768 -0.6107  0.2635 -0.4276
  634TMC3    C4 9439   0.762   3.347  16.919 -0.3330  0.3820  0.1981
  634TMC3    C5 9440   0.768   3.358  16.781 -0.1925 -0.0838  0.0490
  634TMC3    C6 9441   0.803   3.254  16.705 -0.0562  0.4599 -0.3840
  634TMC3     C 9442   0.808   3.224  17.122  0.8358  0.1812  0.1347
  634TMC3     O 9443   0.726   3.291  17.181 -0.7896  0.0815 -0.2829
  634TMC3     H 9444   0.844   3.028  16.964 -2.9754  0.4564  1.8606
  634TMC3    H1 9445   0.743   3.421  16.996 -2.0827  0.7176 -0.5545
  634TMC3    H2 9446   0.820   3.265  16.598  0.7905  0.5564 -0.2389
  634TMC3    C7 9447   0.732   3.479  16.716 -0.0824  0.0336 -0.5720
  634TMC3    C8 9448   0.821   3.010  16.693  0.3231 -0.4233  0.4465
  634TMC3    O1 9449   0.746   3.481  16.597 -0.0697  0.1813 -0.0378
  634TMC3    O2 9450   0.792   2.905  16.747  0.2410  0.3911 -0.2134
  635TMC3    C1 9451   1.725   4.356   0.826 -0.1796  0.4404 -0.4061
  635TMC3    C2 9452   1.629   4.258   0.827  0.8364  0.4435  0.0575
  635TMC3    C3 9453   1.664   4.127   0.853 -0.1295 -0.0643  0.1712
  635TMC3    C4 9454   1.855   4.333   0.864  0.3520 -0.0587 -0.3577
  635TMC3    C5 9455   1.881   4.201   0.894  0.2166  0.1429 -0.4958
  635TMC3    C6 9456   1.796   4.096   0.879  0.2291  0.3466 -0.0664
  635TMC3     C 9457   1.694   4.495   0.812  0.1620  0.4972 -0.0038
  635TMC3     O 9458   1.782   4.571   0.838 -0.6678 -0.0922 -0.5992
  635TMC3     H 9459   1.525   4.284   0.812  0.8678  0.7405  0.3608
  635TMC3    H1 9460   1.929   4.408   0.889  1.0253 -0.2013 -1.9386
  635TMC3    H2 9461   1.822   3.991   0.891 -1.8980 -0.3748 -1.7524
  635TMC3    C7 9462   2.019   4.173   0.933  0.9470 -0.3360 -0.1282
  635TMC3    C8 9463   1.575   4.023   0.810  0.0180  0.3161 -0.7704
  635TMC3    O1 9464   2.105   4.252   0.895 -0.0511 -0.0763 -0.0157
  635TMC3    O2 9465   1.459   4.047   0.816 -0.1296 -0.1039 -0.3698
  636MPD2     C 9466   2.174   3.015  16.117  0.1939 -0.1115 -0.0659
  636MPD2    C1 9467   2.280   3.053  16.194 -0.4752  0.0523 -0.2102
  636MPD2    C2 9468   2.326   2.960  16.294  0.7676 -0.3421  0.4153
  636MPD2    C3 9469   2.251   2.843  16.319 -0.4087  0.0517  0.4287
  636MPD2    C4 9470   2.145   2.808  16.236 -0.0959 -0.1702 -0.3396
  636MPD2    C5 9471   2.112   2.896  16.136  0.7148 -0.5329  0.5154
  636MPD2     H 9472   2.413   2.996  16.347  1.0893 -0.9476  0.2943
  636MPD2    H1 9473   2.084   2.719  16.250 -0.8511  0.2362 -1.0647
  636MPD2    H2 9474   2.119   3.069  16.041 -1.7443  0.5422  1.8036
  636MPD2    H3 9475   2.016   2.880  16.088  0.8514  1.9460 -0.5861
  636MPD2     N 9476   2.309   2.758  16.421 -0.3898  0.7934  0.7886
  636MPD2    H5 9477   2.387   2.786  16.478  0.2872  0.2877  0.1105
  636MPD2    N1 9478   2.349   3.179  16.181 -0.0096  0.2937 -0.0909
  636MPD2    H7 9479   2.418   3.207  16.249  0.4665 -3.2693  0.9006
  637TMC3    C1 9480   2.350   2.581  16.546  0.2022  1.1330 -0.1462
  637TMC3    C2 9481   2.409   2.672  16.637  0.7498  0.4269 -0.0701
  637TMC3    C3 9482   2.531   2.641  16.692 -0.2042 -0.1119  0.6766
  637TMC3    C4 9483   2.400   2.453  16.529 -0.1757  0.1613 -0.0320
  637TMC3    C5 9484   2.538   2.446  16.564 -0.1283 -0.4413 -0.0292
  637TMC3    C6 9485   2.607   2.532  16.651  0.0159  0.1801 -0.3469
  637TMC3     C 9486   2.259   2.631  16.448 -0.1699  0.5022 -0.1627
  637TMC3     O 9487   2.193   2.551  16.387 -0.1898  0.9215 -0.4785
  637TMC3     H 9488   2.368   2.769  16.665  1.0299  0.4857  0.1330
  637TMC3    H1 9489   2.348   2.375  16.475 -0.5968  0.4214 -0.0035
  637TMC3    H2 9490   2.710   2.518  16.682 -0.3594 -2.2291 -0.1945
  637TMC3    C7 9491   2.626   2.428  16.449 -0.5552 -0.0681  0.4598
  637TMC3    C8 9492   2.605   2.766  16.720  0.2240  0.1205  0.2501
  637TMC3    O1 9493   2.742   2.480  16.460  0.8707  0.0009  0.4575
  637TMC3    O2 9494   2.551   2.856  16.787 -0.1195 -0.1417 -0.3868
  638MPD2     C 9495   1.483   2.085  15.038  0.4701 -0.6597 -0.7611
  638MPD2    C1 9496   1.569   2.000  14.976 -0.2615  0.5765 -0.0955
  638MPD2    C2 9497   1.606   1.882  15.022 -0.5134  0.3217 -0.2028
  638MPD2    C3 9498   1.548   1.832  15.139 -0.0514 -0.0312 -0.0482
  638MPD2    C4 9499   1.453   1.911  15.204 -0.3555 -0.9905 -0.0721
  638MPD2    C5 9500   1.421   2.035  15.150 -0.6334 -0.4730  0.5760
  638MPD2     H 9501   1.693   1.828  14.988 -1.2961 -2.0550  1.6030
  638MPD2    H1 9502   1.399   1.872  15.289 -0.6414 -1.1965 -0.3470
  638MPD2    H2 9503   1.451   2.179  14.995  1.3906  0.6843  1.4879
  638MPD2    H3 9504   1.361   2.101  15.212 -0.1691 -0.4237  0.9723
  638MPD2     N 9505   1.584   1.700  15.176 -0.3663  0.0687  0.4502
  638MPD2    H5 9506   1.665   1.670  15.123 -0.6614  0.2288 -0.0982
  638MPD2    N1 9507   1.630   2.041  14.856  0.2071 -0.0402  1.1034
  638MPD2    H7 9508   1.638   2.140  14.834  2.8388 -0.5959 -0.4835
  639TMC3    C1 9509   1.550   1.482  15.221  0.0559  0.3868 -0.1851
  639TMC3    C2 9510   1.485   1.423  15.113 -0.1041 -0.6134  0.4524
  639TMC3    C3 9511   1.559   1.328  15.046 -0.3266 -1.2439 -0.0058
  639TMC3    C4 9512   1.683   1.462  15.246 -0.0042  0.6017  0.1883
  639TMC3    C5 9513   1.754   1.375  15.166  0.4890  0.6566  0.4776
  639TMC3    C6 9514   1.692   1.302  15.070  0.2648 -0.0089 -1.0652
  639TMC3     C 9515   1.495   1.617  15.237  0.8755 -0.9865  0.1299
  639TMC3     O 9516   1.376   1.638  15.253 -0.3991 -0.3127  0.3877
  639TMC3     H 9517   1.380   1.439  15.091 -0.1630 -1.3001  0.2429
  639TMC3    H1 9518   1.721   1.512  15.335 -2.7025 -2.2680  2.9702
  639TMC3    H2 9519   1.742   1.230  15.006 -3.2610 -1.1105 -2.6107
  639TMC3    C7 9520   1.891   1.337  15.212  0.0583 -1.2112  0.0767
  639TMC3    C8 9521   1.505   1.262  14.933  0.0219 -0.1026 -0.4398
  639TMC3    O1 9522   1.922   1.345  15.331 -0.2453  0.1714 -0.6135
  639TMC3    O2 9523   1.539   1.150  14.917  0.1833 -0.8441  0.3390
  640MPD2     C 9524   1.779   4.628   9.674 -0.4230 -0.1470 -0.6842
  640MPD2    C1 9525   1.837   4.712   9.576 -0.1796 -0.3938 -0.0151
  640MPD2    C2 9526   1.753   0.066   9.516 -0.2968  0.3119 -0.2478
  640MPD2    C3 9527   1.626   0.086   9.561  0.1595  0.6639  0.4957
  640MPD2    C4 9528   1.577   0.001   9.655 -1.0020  0.5151 -0.5427
  640MPD2    C5 9529   1.646   4.632   9.709  0.0058  0.0190 -0.6784
  640MPD2     H 9530   1.794   0.142   9.449  2.0566 -1.2694 -0.6158
  640MPD2    H1 9531   1.476   0.004   9.694 -0.7769  1.3492 -0.0245
  640MPD2    H2 9532   1.844   4.553   9.716 -2.2215 -1.6170 -0.4947
  640MPD2    H3 9533   1.613   4.571   9.792  0.4245 -0.8175 -1.1208
  640MPD2     N 9534   1.538   0.185   9.507  0.2152 -0.1641 -0.1041
  640MPD2    H5 9535   1.451   0.197   9.558  0.3178  1.5806 -0.3218
  640MPD2    N1 9536   1.976   4.720   9.560  0.2181 -0.2501 -0.2149
  640MPD2    H7 9537   2.030   4.654   9.614  0.1149  0.7115  1.0787
  641TMC3    C1 9538   2.194   0.046   9.465  0.0439  0.6586  0.0756
  641TMC3    C2 9539   2.258   4.710   9.557 -0.1761 -0.4989  0.0773
  641TMC3    C3 9540   2.394   4.723   9.569  0.4718 -0.3529  0.3667
  641TMC3    C4 9541   2.260   0.136   9.384 -0.4481  0.8755  0.3661
  641TMC3    C5 9542   2.399   0.140   9.391 -0.3765  0.3677  0.0453
  641TMC3    C6 9543   2.463   0.064   9.489  0.0309  0.1992 -0.2052
  641TMC3     C 9544   2.045   0.065   9.478 -0.6199 -0.3299 -0.7267
  641TMC3     O 9545   2.002   0.119   9.378 -0.6252  0.0983  0.0862
  641TMC3     H 9546   2.203   4.638   9.616  0.6824 -1.6227 -0.4950
  641TMC3    H1 9547   2.211   0.199   9.311 -0.4785 -0.2880 -0.6037
  641TMC3    H2 9548   2.565   0.077   9.523 -0.0904  0.0376  0.2178
  641TMC3    C7 9549   2.465   0.240   9.317  0.1469  0.4609  0.0806
  641TMC3    C8 9550   2.463   4.631   9.657  0.2371  0.0037 -1.2452
  641TMC3    O1 9551   2.394   0.326   9.268  0.0188 -0.3305  0.5510
  641TMC3    O2 9552   2.577   4.603   9.621  0.2976 -0.0508  0.8160
  642TMC3    C1 9553   3.316   1.747  12.513  0.1757  0.2069  0.1714
  642TMC3    C2 9554   3.422   1.743  12.594  0.3331  0.2905  0.2816
  642TMC3    C3 9555   3.500   1.630  12.589  0.1582 -0.5907  0.0318
  642TMC3    C4 9556   3.284   1.652  12.424 -0.5269 -0.4889  0.5459
  642TMC3    C5 9557   3.370   1.545  12.421 -0.4321 -0.3013 -0.4055
  642TMC3    C6 9558   3.479   1.525  12.504 -0.2396 -0.2210  0.3639
  642TMC3     C 9559   3.223   1.857  12.538 -0.8165 -0.6571 -0.2611
  642TMC3     O 9560   3.248   1.956  12.603 -0.2587  0.5047 -0.4136
  642TMC3     H 9561   3.439   1.828  12.660 -1.6311  0.9375 -0.0591
  642TMC3    H1 9562   3.205   1.668  12.352  0.4918  2.6595  0.1540
  642TMC3    H2 9563   3.547   1.441  12.501 -0.4216 -0.2569 -2.4590
  642TMC3    C7 9564   3.325   1.436  12.342  0.5310 -0.1580 -0.4638
  642TMC3    C8 9565   3.630   1.637  12.647  0.8816 -0.1393 -0.2606
  642TMC3    O1 9566   3.230   1.459  12.272  0.4844  0.0535  0.4478
  642TMC3    O2 9567   3.710   1.561  12.590 -0.5057 -0.0114  0.1401
  643TMC3    C1 9568   2.502   1.275   0.196 -0.4225  0.8277 -0.2117
  643TMC3    C2 9569   2.384   1.336   0.166  0.2941 -0.7077 -0.9314
  643TMC3    C3 9570   2.295   1.281   0.072  0.1882 -0.4423  0.8804
  643TMC3    C4 9571   2.544   1.171   0.121 -0.3768  0.5835  0.2282
  643TMC3    C5 9572   2.453   1.109   0.036 -0.4773  0.3976  0.2302
  643TMC3    C6 9573   2.333   1.159   0.019 -0.5681  0.3180 -0.2086
  643TMC3     C 9574   2.554   1.312   0.326  0.2776 -0.1573 -0.4683
  643TMC3     O 9575   2.479   1.371   0.403  0.7465 -1.2317 -0.3064
  643TMC3     H 9576   2.337   1.415   0.225  1.5711 -0.8146  0.2251
  643TMC3    H1 9577   2.633   1.117   0.151 -0.9914 -0.2533  0.5308
  643TMC3    H2 9578   2.274   1.121  17.688 -0.7331 -1.6842  0.8294
  643TMC3    C7 9579   2.505   1.048  17.668 -0.0384  0.5853  0.4350
  643TMC3    C8 9580   2.226   1.374  17.730 -0.3302 -0.1122 -0.1379
  643TMC3    O1 9581   2.429   1.024  17.575  0.4371 -0.2315 -0.3451
  643TMC3    O2 9582   2.132   1.325  17.668  0.1429 -0.3113 -0.8175
  644MPD2     C 9583   2.987   0.901   9.794  0.2635 -0.4056 -0.1321
  644MPD2    C1 9584   2.926   0.917   9.671  0.1209 -0.0182  0.0667
  644MPD2    C2 9585   2.920   1.047   9.619  0.0144  0.2118 -0.5345
  644MPD2    C3 9586   2.970   1.154   9.684  0.3830  0.3122 -0.2921
  644MPD2    C4 9587   3.037   1.134   9.806 -0.0258 -0.6069  0.5037
  644MPD2    C5 9588   3.040   1.008   9.856  0.1993  0.4405  0.1396
  644MPD2     H 9589   2.871   1.062   9.524 -2.6077  1.6278  1.0571
  644MPD2    H1 9590   3.088   1.211   9.862  1.8635 -2.2766  1.1012
  644MPD2    H2 9591   2.990   0.805   9.844  2.1510 -0.2711 -0.0105
  644MPD2    H3 9592   3.085   0.993   9.953 -0.4980  2.2780  0.7478
  644MPD2     N 9593   2.968   1.283   9.624 -1.0381  0.0391  0.3341
  644MPD2    H5 9594   2.923   1.290   9.534  1.2283  1.6838 -0.6758
  644MPD2    N1 9595   2.868   0.801   9.607  0.3472 -0.3998  0.1956
  644MPD2    H7 9596   2.868   0.714   9.658  3.3096  0.9342  2.4608
  645TMC3    C1 9597   3.049   1.496   9.550  0.7819  0.4985 -0.5073
  645TMC3    C2 9598   3.166   1.571   9.547  0.1793 -0.7742 -0.0803
  645TMC3    C3 9599   3.168   1.676   9.465 -0.0363 -0.0330 -0.2117
  645TMC3    C4 9600   2.941   1.517   9.471  0.2958 -0.7056  0.4555
  645TMC3    C5 9601   2.947   1.627   9.389  0.1813  0.9021  0.3937
  645TMC3    C6 9602   3.058   1.715   9.389 -0.3341  0.4289  0.4397
  645TMC3     C 9603   3.045   1.391   9.655 -0.0662 -0.3570  0.1523
  645TMC3     O 9604   3.133   1.411   9.742 -0.3928  0.5282 -0.1848
  645TMC3     H 9605   3.248   1.556   9.615  1.4110  0.3965 -1.3150
  645TMC3    H1 9606   2.847   1.465   9.482  0.3081 -0.6791  0.6747
  645TMC3    H2 9607   3.054   1.800   9.321 -0.4712  0.6777  0.7540
  645TMC3    C7 9608   2.838   1.660   9.300  0.3727  0.1271  0.3690
  645TMC3    C8 9609   3.303   1.730   9.445  0.4971 -0.6195  0.1134
  645TMC3    O1 9610   2.840   1.767   9.245  0.2631 -0.7779 -0.2106
  645TMC3    O2 9611   3.386   1.639   9.448  0.2648  0.0284  0.4811
  646MPD2     C 9612   2.179   0.851  14.412  0.5917 -0.4518 -0.4995
  646MPD2    C1 9613   2.113   0.774  14.505 -0.0474  0.3167  0.1073
  646MPD2    C2 9614   1.972   0.756  14.493  0.3155  0.0099  0.4986
  646MPD2    C3 9615   1.907   0.803  14.382 -0.1097  0.2430 -0.3539
  646MPD2    C4 9616   1.979   0.858  14.276  0.4933  0.7548 -0.0451
  646MPD2    C5 9617   2.116   0.881  14.297 -0.1306  0.8768  0.1579
  646MPD2     H 9618   1.915   0.720  14.578 -0.4066 -0.9745 -0.4163
  646MPD2    H1 9619   1.936   0.876  14.177 -2.4923 -2.4294  0.6592
  646MPD2    H2 9620   2.285   0.869  14.425  0.8357 -1.4266 -1.1602
  646MPD2    H3 9621   2.176   0.935  14.224 -0.6880  1.1293 -0.1138
  646MPD2     N 9622   1.767   0.780  14.384  0.2782  0.3032 -0.7491
  646MPD2    H5 9623   1.728   0.743  14.470  0.3781 -0.5977 -1.0910
  646MPD2    N1 9624   2.182   0.730  14.617 -0.3317  0.4589  0.1017
  646MPD2    H7 9625   2.279   0.755  14.636  0.2756 -1.3532 -0.5919
  647TMC3    C1 9626   2.221   0.633  14.819  0.1142  0.1280 -0.4296
  647TMC3    C2 9627   2.174   0.588  14.937 -0.9602 -0.1752 -0.0014
  647TMC3    C3 9628   2.271   0.577  15.034  0.1974  0.0587 -0.0831
  647TMC3    C4 9629   2.357   0.660  14.797  0.3426 -0.9594  0.9525
  647TMC3    C5 9630   2.438   0.672  14.910 -0.2146  0.0126  0.1224
  647TMC3    C6 9631   2.397   0.627  15.029 -0.3188  0.2645  0.6368
  647TMC3     C 9632   2.128   0.651  14.716  0.0178 -0.7351  0.8347
  647TMC3     O 9633   2.012   0.614  14.738  0.0694  0.7392 -0.0118
  647TMC3     H 9634   2.072   0.561  14.958 -1.0217  0.8440  1.0137
  647TMC3    H1 9635   2.394   0.692  14.700  2.6648 -2.0400  1.5155
  647TMC3    H2 9636   2.461   0.622  15.117 -1.6110 -3.6720  1.3630
  647TMC3    C7 9637   2.586   0.670  14.902  0.2279 -0.3914 -0.0417
  647TMC3    C8 9638   2.264   0.464  15.128 -1.0291  0.5290 -0.9888
  647TMC3    O1 9639   2.642   0.687  15.010  0.2614  0.1106  0.6399
  647TMC3    O2 9640   2.325   0.472  15.234  0.5471 -0.1196  0.1921
  648TMC3    C1 9641   1.078   3.098  15.966 -0.5433  0.1976  0.8216
  648TMC3    C2 9642   1.142   2.992  15.906 -0.4653 -0.9641 -0.6910
  648TMC3    C3 9643   1.128   2.989  15.770  0.1744 -0.0412 -1.1623
  648TMC3    C4 9644   1.006   3.193  15.897 -0.4478  0.8420 -0.0119
  648TMC3    C5 9645   1.002   3.191  15.762  0.3509  0.6905  0.4867
  648TMC3    C6 9646   1.073   3.088  15.697 -0.1134 -0.4693  0.5107
  648TMC3     C 9647   1.097   3.122  16.103 -0.6330 -0.2063  0.1053
  648TMC3     O 9648   1.065   3.229  16.153  0.1720 -0.5561  0.2117
  648TMC3     H 9649   1.223   2.934  15.950  1.2931  3.6119  2.1629
  648TMC3    H1 9650   0.960   3.275  15.951 -2.1801  0.6586 -1.1904
  648TMC3    H2 9651   1.058   3.080  15.590 -1.1041 -2.9401  0.8160
  648TMC3    C7 9652   0.983   3.311  15.679 -0.2989 -0.7575 -0.1486
  648TMC3    C8 9653   1.190   2.874  15.702 -0.5298  0.1775 -0.1353
  648TMC3    O1 9654   1.021   3.310  15.563  0.1527  0.0115 -0.0910
  648TMC3    O2 9655   1.222   2.895  15.585 -0.2163 -0.3931 -0.0993
  649TMC3    C1 9656   0.669   3.586  12.615  0.2467 -0.1595 -0.3919
  649TMC3    C2 9657   0.802   3.580  12.616  0.8070  0.0246  0.0051
  649TMC3    C3 9658   0.860   3.498  12.708  0.6228 -0.0598 -0.1824
  649TMC3    C4 9659   0.601   3.530  12.722  0.1915 -0.1217  0.5075
  649TMC3    C5 9660   0.657   3.447  12.810 -0.1170 -0.0693  0.3880
  649TMC3    C6 9661   0.793   3.427  12.807 -0.0966  0.3473  0.3001
  649TMC3     C 9662   0.590   3.678  12.538  0.2379  0.1399  0.6233
  649TMC3     O 9663   0.480   3.703  12.577 -0.7513 -0.1668 -0.3907
  649TMC3     H 9664   0.853   3.665  12.572  4.6187 -1.5948  1.3131
  649TMC3    H1 9665   0.494   3.547  12.730  0.1672  0.0640 -0.2474
  649TMC3    H2 9666   0.849   3.363  12.874 -0.6393  1.6889  2.0246
  649TMC3    C7 9667   0.567   3.378  12.904  0.1036  0.0660  0.6881
  649TMC3    C8 9668   1.011   3.491  12.729  0.1988  0.5587  0.3780
  649TMC3    O1 9669   0.465   3.440  12.932 -0.1641 -0.4803 -0.0968
  649TMC3    O2 9670   1.060   3.445  12.832  0.1072 -0.0339 -0.0045
  650TMC3    C1 9671   3.022   0.742  12.771  0.2549 -0.0102 -0.0013
  650TMC3    C2 9672   2.916   0.819  12.815  0.1903  0.3412  0.7740
  650TMC3    C3 9673   2.884   0.923  12.739 -0.0431  0.3484 -0.3844
  650TMC3    C4 9674   3.095   0.763  12.654  0.3035  0.1762  0.0148
  650TMC3    C5 9675   3.053   0.867  12.576  0.2700 -0.1659  0.6380
  650TMC3    C6 9676   2.953   0.945  12.620  0.5474  0.3238  0.0292
  650TMC3     C 9677   3.058   0.635  12.863 -0.1522  0.6312  0.0285
  650TMC3     O 9678   3.021   0.654  12.977  0.1263 -0.0114  0.2435
  650TMC3     H 9679   2.853   0.791  12.898  1.1821 -0.8602  1.1272
  650TMC3    H1 9680   3.186   0.715  12.621 -0.4334 -0.6437 -0.8043
  650TMC3    H2 9681   2.929   1.031  12.559  4.0411  0.0043 -1.8214
  650TMC3    C7 9682   3.041   0.819  12.441  0.1849  0.2942  0.8397
  650TMC3    C8 9683   2.743   0.955  12.725 -0.7841  0.1674 -0.1635
  650TMC3    O1 9684   3.043   0.695  12.432  0.1161  0.5859  0.0511
  650TMC3    O2 9685   2.670   0.980  12.821 -0.2622 -0.1841 -0.1909
  651MPD2     C 9686   1.738   2.248  10.358 -0.5833  0.0719  0.1738
  651MPD2    C1 9687   1.718   2.371  10.422 -0.3853 -0.6209 -0.0992
  651MPD2    C2 9688   1.809   2.469  10.396  1.1469  0.2920  0.3869
  651MPD2    C3 9689   1.918   2.451  10.315  1.1987 -0.1723  0.0804
  651MPD2    C4 9690   1.951   2.320  10.273 -0.7481  0.6564  0.3737
  651MPD2    C5 9691   1.850   2.228  10.289  0.4479 -0.1104 -0.2018
  651MPD2     H 9692   1.796   2.564  10.448  1.4447  0.4097  0.2445
  651MPD2    H1 9693   2.036   2.308  10.207 -0.2609 -1.8793  1.4587
  651MPD2    H2 9694   1.665   2.168  10.358  1.2310 -1.5769 -0.8606
  651MPD2    H3 9695   1.864   2.129  10.250  0.5742 -0.1791  0.0155
  651MPD2     N 9696   1.996   2.565  10.280  0.6876  0.3159 -0.5382
  651MPD2    H5 9697   1.964   2.657  10.308 -2.2954 -0.0319 -2.7674
  651MPD2    N1 9698   1.604   2.409  10.499  0.6166  0.0399 -0.2080
  651MPD2    H7 9699   1.598   2.506  10.528 -1.5532 -0.0214 -0.4343
  652TMC3    C1 9700   2.384   2.814  10.193 -0.7429 -0.7244 -0.2243
  652TMC3    C2 9701   2.313   2.699  10.167 -0.0620  0.5760 -0.2088
  652TMC3    C3 9702   2.176   2.698  10.185 -0.4814  0.2182 -0.6970
  652TMC3    C4 9703   2.321   2.935  10.222  0.1913  0.4269 -0.1496
  652TMC3    C5 9704   2.189   2.931  10.226  0.3032 -0.2535 -0.2020
  652TMC3    C6 9705   2.113   2.820  10.219  0.2586 -0.4139 -0.2729
  652TMC3     C 9706   2.517   2.795  10.249 -0.4255  0.6294 -0.8849
  652TMC3     O 9707   2.526   2.700  10.329 -0.1550  0.2507  0.1449
  652TMC3     H 9708   2.367   2.606  10.158 -0.5485  0.0670  2.0274
  652TMC3    H1 9709   2.375   3.023  10.254 -0.4226  0.6534  0.2463
  652TMC3    H2 9710   2.005   2.822  10.227  0.2879 -0.2239  0.0516
  652TMC3    C7 9711   2.133   3.038  10.303 -0.3331  0.3073  0.2462
  652TMC3    C8 9712   2.117   2.567  10.207 -0.4519 -0.1042 -0.4597
  652TMC3    O1 9713   2.063   3.012  10.400 -0.3019 -0.2200 -0.0614
  652TMC3    O2 9714   2.191   2.470  10.200  0.3877  0.1085  0.0471
  653MPD2     C 9715   0.478   3.120  17.499  0.0091  0.0067 -0.3766
  653MPD2    C1 9716   0.396   3.216  17.442 -0.1091 -0.2318 -0.2173
  653MPD2    C2 9717   0.319   3.191  17.334  0.4216  0.3719  0.2591
  653MPD2    C3 9718   0.328   3.063  17.273  0.0404 -0.5392  0.1667
  653MPD2    C4 9719   0.405   2.963  17.329 -0.4081  0.1359  0.5742
  653MPD2    C5 9720   0.488   2.994  17.435 -0.8998 -0.2098 -0.2773
  653MPD2     H 9721   0.256   3.269  17.293 -0.3999 -0.1156  0.5906
  653MPD2    H1 9722   0.413   2.861  17.294 -0.0499  0.1869  0.5164
  653MPD2    H2 9723   0.537   3.138  17.588 -0.3784 -1.7473  0.2306
  653MPD2    H3 9724   0.542   2.922  17.495 -1.6037  0.7856  1.5676
  653MPD2     N 9725   0.250   3.037  17.156 -0.5196  0.5247  0.4441
  653MPD2    H5 9726   0.177   3.102  17.129  1.4227  2.0965 -1.0368
  653MPD2    N1 9727   0.386   3.350  17.492 -0.2568  0.3076  0.4621
  653MPD2    H7 9728   0.340   3.416  17.430 -0.7686  0.8643  1.4537
  654TMC3    C1 9729   0.168   2.940  16.965  0.0394  0.0536 -0.2129
  654TMC3    C2 9730   0.039   2.962  17.004 -0.5270 -0.3619 -0.3699
  654TMC3    C3 9731   4.671   2.896  16.940  0.1467  0.7796  0.1726
  654TMC3    C4 9732   0.197   2.868  16.855 -0.3604  0.0556  0.2445
  654TMC3    C5 9733   0.092   2.809  16.794  0.3617 -0.6554  0.5743
  654TMC3    C6 9734   4.698   2.821  16.828  0.1611 -0.0469 -0.6091
  654TMC3     C 9735   0.265   2.929  17.066  0.1069 -0.2958 -0.3802
  654TMC3     O 9736   0.349   2.840  17.057  0.6421 -0.6936  0.5231
  654TMC3     H 9737   0.017   3.019  17.093  0.4761 -1.8790  0.8518
  654TMC3    H1 9738   0.297   2.845  16.820  0.7773  0.9453  2.8828
  654TMC3    H2 9739   4.620   2.789  16.761  0.0971  0.8806 -0.9824
  654TMC3    C7 9740   0.126   2.687  16.727  0.1565  0.0923 -0.1074
  654TMC3    C8 9741   4.535   2.911  16.984 -0.3210  0.2051  0.2537
  654TMC3    O1 9742   0.042   2.633  16.656 -0.8499 -0.4447 -0.2837
  654TMC3    O2 9743   4.505   3.021  17.031  0.9253  0.3427 -0.6729
  655MPD2     C 9744   1.805   3.337  15.647  0.1370 -0.0886  0.1247
  655MPD2    C1 9745   1.690   3.383  15.581  0.9266 -0.0973  0.3430
  655MPD2    C2 9746   1.689   3.366  15.445  0.0330  0.1958 -0.3982
  655MPD2    C3 9747   1.781   3.283  15.384  0.2514 -1.0030 -0.7922
  655MPD2    C4 9748   1.894   3.238  15.455  0.4077  0.0463  0.0397
  655MPD2    C5 9749   1.907   3.275  15.584 -0.0882  0.5789 -0.3822
  655MPD2     H 9750   1.603   3.396  15.387  2.0533  0.8181 -3.1255
  655MPD2    H1 9751   1.965   3.167  15.414  0.8175 -0.3183  1.3747
  655MPD2    H2 9752   1.821   3.357  15.753  1.4609  2.1760 -0.4971
  655MPD2    H3 9753   1.998   3.246  15.636 -0.7454 -0.4769  0.1856
  655MPD2     N 9754   1.758   3.237  15.255 -0.0234  0.2688  0.2995
  655MPD2    H5 9755   1.661   3.234  15.225 -0.3953  0.8203  1.4798
  655MPD2    N1 9756   1.591   3.466  15.644  0.2311  0.2382  0.3314
  655MPD2    H7 9757   1.522   3.503  15.580  0.1799 -0.7484 -0.1895
  656TMC3    C1 9758   1.492   3.602  15.803 -0.0768  0.7206  0.5476
  656TMC3    C2 9759   1.434   3.624  15.919  0.2583 -0.4230 -0.3641
  656TMC3    C3 9760   1.377   3.747  15.940  1.1008 -0.5142 -0.0207
  656TMC3    C4 9761   1.497   3.706  15.709  0.1027 -0.1380 -0.2773
  656TMC3    C5 9762   1.439   3.830  15.732 -0.0542 -0.1637 -0.5479
  656TMC3    C6 9763   1.383   3.854  15.856  0.3217  0.6121 -0.0278
  656TMC3     C 9764   1.578   3.487  15.779 -0.1465 -0.2542  0.6125
  656TMC3     O 9765   1.632   3.438  15.874 -0.2064  0.0668  0.3488
  656TMC3     H 9766   1.429   3.546  15.993  0.4453  0.0678  0.1619
  656TMC3    H1 9767   1.549   3.692  15.615  0.0808  2.1827 -0.6475
  656TMC3    H2 9768   1.343   3.952  15.879 -0.2508  1.0412 -2.8679
  656TMC3    C7 9769   1.391   3.896  15.611  0.4128 -0.0496  0.2090
  656TMC3    C8 9770   1.290   3.760  16.050 -0.2162  0.1474 -0.5834
  656TMC3    O1 9771   1.400   3.821  15.516  0.2966 -0.2050 -0.3707
  656TMC3    O2 9772   1.283   3.875  16.095 -0.0979 -0.3336  0.7734
  657TMC3    C1 9773   0.544   2.019  14.916 -0.4577  0.6329  0.3495
  657TMC3    C2 9774   0.650   2.077  14.980  0.4787  0.5974  0.0364
  657TMC3    C3 9775   0.684   2.203  14.935  0.0897 -0.2471 -0.3047
  657TMC3    C4 9776   0.464   2.093  14.830 -0.3114  0.1586 -0.3370
  657TMC3    C5 9777   0.499   2.224  14.797 -0.2057 -0.1327 -0.1045
  657TMC3    C6 9778   0.608   2.281  14.851 -0.3369  0.6103 -0.5823
  657TMC3     C 9779   0.537   1.869  14.915 -0.2059  0.2002 -0.0203
  657TMC3     O 9780   0.484   1.828  14.813  0.0299 -0.1722  0.7457
  657TMC3     H 9781   0.723   2.019  15.036 -1.3542 -0.0770  1.6944
  657TMC3    H1 9782   0.371   2.054  14.791 -0.9405 -0.4426  1.7743
  657TMC3    H2 9783   0.639   2.383  14.832 -0.7411  0.6587 -0.9641
  657TMC3    C7 9784   0.395   2.321  14.772  0.0299 -0.1975 -0.2934
  657TMC3    C8 9785   0.807   2.258  14.988  0.1684  0.5794  0.3292
  657TMC3    O1 9786   0.394   2.418  14.842 -0.4431 -0.1278  0.0155
  657TMC3    O2 9787   0.856   2.228  15.095  0.1601 -0.3695 -0.4341
  658MPD2     C 9788   2.272   3.293  14.689 -0.1661  0.3991  0.0685
  658MPD2    C1 9789   2.204   3.171  14.676 -0.8646  0.2342 -1.0418
  658MPD2    C2 9790   2.270   3.057  14.639  0.6040  0.5643  0.9131
  658MPD2    C3 9791   2.402   3.066  14.591  0.4659 -0.8291  0.5009
  658MPD2    C4 9792   2.472   3.187  14.594  0.9213  0.7529 -0.3581
  658MPD2    C5 9793   2.400   3.293  14.640  0.0237 -0.1506 -0.5947
  658MPD2     H 9794   2.222   2.960  14.641 -0.9936  1.2928 -2.0133
  658MPD2    H1 9795   2.567   3.207  14.546  1.2228 -0.2615 -0.2042
  658MPD2    H2 9796   2.223   3.386  14.714  2.0594  1.9614 -1.3707
  658MPD2    H3 9797   2.451   3.389  14.640  3.2894 -1.9034  1.7598
  658MPD2     N 9798   2.458   2.952  14.537  0.4738  0.1806  0.1633
  658MPD2    H5 9799   2.408   2.867  14.562  0.4748  0.8941  2.5978
  658MPD2    N1 9800   2.066   3.173  14.717  0.4660 -0.2380 -0.3172
  658MPD2    H7 9801   2.028   3.262  14.749 -3.3390 -1.4989 -1.3455
  659TMC3    C1 9802   1.871   3.068  14.820  0.1580 -0.2332  0.0067
  659TMC3    C2 9803   1.893   3.154  14.929  0.3083 -0.7206  0.3582
  659TMC3    C3 9804   1.818   3.143  15.043 -0.5921  0.3753 -0.2901
  659TMC3    C4 9805   1.797   2.958  14.838 -0.3884 -0.3429 -0.5383
  659TMC3    C5 9806   1.731   2.941  14.966  0.2192  0.0411  0.1325
  659TMC3    C6 9807   1.737   3.038  15.061 -0.2544  0.1893  0.1406
  659TMC3     C 9808   1.983   3.064  14.715 -0.1058 -0.0448  0.1148
  659TMC3     O 9809   1.982   2.970  14.637  0.6036 -0.0421 -0.0262
  659TMC3     H 9810   1.971   3.228  14.920  1.0299 -1.3983  0.9786
  659TMC3    H1 9811   1.766   2.903  14.751  1.8234 -3.5304  0.7111
  659TMC3    H2 9812   1.657   3.043  15.134 -0.3983 -0.0581  0.0034
  659TMC3    C7 9813   1.649   2.826  15.005 -0.0854 -0.6615  0.2833
  659TMC3    C8 9814   1.860   3.225  15.155 -0.5615  0.5047  0.3678
  659TMC3    O1 9815   1.606   2.817  15.118 -0.0740 -0.0924  0.0970
  659TMC3    O2 9816   1.969   3.280  15.144 -0.3342 -0.1197  0.6005
  660MPD2     C 9817   4.641   1.357  12.554  0.0722 -0.1785  0.6218
  660MPD2    C1 9818   4.573   1.472  12.591 -0.1530 -0.7020  0.2111
  660MPD2    C2 9819   4.539   1.494  12.726 -0.3835  0.9372 -0.6301
  660MPD2    C3 9820   4.588   1.409  12.825 -0.6287  1.7709  0.7669
  660MPD2    C4 9821   4.665   1.301  12.784  0.1140  0.1428 -0.2764
  660MPD2    C5 9822   4.689   1.272  12.651 -0.3911 -0.5317  0.4425
  660MPD2     H 9823   4.466   1.570  12.755 -1.6597 -0.7212  0.4842
  660MPD2    H1 9824   4.718   1.245  12.861 -1.1063  0.1064  0.5252
  660MPD2    H2 9825   4.670   1.343  12.450  0.3360 -2.5302  1.0280
  660MPD2    H3 9826   0.005   1.181  12.630  1.6519  1.1310 -1.5374
  660MPD2     N 9827   4.564   1.417  12.960 -0.5462  0.1493  0.6666
  660MPD2    H5 9828   4.596   1.347  13.026 -0.7436 -0.6454 -0.0883
  660MPD2    N1 9829   4.534   1.548  12.479 -0.4168 -0.3271 -0.0610
  660MPD2    H7 9830   4.573   1.522  12.389 -2.5354  0.0160 -1.0714
  661TMC3    C1 9831   4.382   1.680  12.351 -0.0893 -0.3525 -0.3637
  661TMC3    C2 9832   4.440   1.643  12.228 -0.0265 -0.3110 -0.1241
  661TMC3    C3 9833   4.397   1.702  12.112 -0.3665  1.1298 -0.4231
  661TMC3    C4 9834   4.291   1.784  12.348 -0.4170 -0.3786  0.1971
  661TMC3    C5 9835   4.253   1.835  12.231 -0.2230  0.1687  0.1395
  661TMC3    C6 9836   4.305   1.800  12.111  0.1493 -0.3573  0.7169
  661TMC3     C 9837   4.426   1.633  12.480  0.6483 -0.1168 -0.9193
  661TMC3     O 9838   4.351   1.656  12.572  0.0715  0.1300 -0.2001
  661TMC3     H 9839   4.514   1.563  12.227  0.6743  0.3442 -1.2997
  661TMC3    H1 9840   4.251   1.823  12.441  1.6962  1.1873  0.4555
  661TMC3    H2 9841   4.267   1.849  12.022  0.2037 -0.1428  0.8141
  661TMC3    C7 9842   4.154   1.936  12.242  0.5185 -0.3503 -0.4566
  661TMC3    C8 9843   4.437   1.662  11.982 -0.3942  0.3344 -0.4495
  661TMC3    O1 9844   4.152   1.996  12.347 -0.0600  0.4093 -0.4140
  661TMC3    O2 9845   4.420   1.741  11.890  1.3064  0.2792 -0.3340
  662MPD2     C 9846   0.113   2.123  17.055 -0.2224  0.5797 -0.0077
  662MPD2    C1 9847   0.079   2.046  17.167  0.7062  0.3100 -0.5228
  662MPD2    C2 9848   0.017   2.108  17.274 -0.5675 -0.1166 -0.4801
  662MPD2    C3 9849   4.716   2.242  17.269 -0.7872  0.1619  0.5101
  662MPD2    C4 9850   4.736   2.309  17.157  0.2503 -0.1506  0.2681
  662MPD2    C5 9851   0.073   2.257  17.057  0.0286 -0.2858  0.6113
  662MPD2     H 9852   4.725   2.044  17.356 -0.3789  0.8915  0.3647
  662MPD2    H1 9853   4.703   2.411  17.142  0.2179 -0.1075  0.6226
  662MPD2    H2 9854   0.174   2.086  16.974  0.0405  0.4262  0.2602
  662MPD2    H3 9855   0.105   2.328  16.982 -0.6394 -0.6184  0.0062
  662MPD2     N 9856   4.622   2.290  17.356 -0.3491 -0.9203  0.5152
  662MPD2    H5 9857   4.555   2.357  17.320  0.7203 -0.4274 -0.5339
  662MPD2    N1 9858   0.100   1.909  17.183  0.3523  0.5641  0.0562
  662MPD2    H7 9859   0.081   1.865  17.273  0.5993 -0.1048 -0.2214
  663TMC3    C1 9860   0.090   1.686  17.123 -0.4459  0.3847  0.1172
  663TMC3    C2 9861   0.133   1.650  17.249 -1.0974 -0.1528 -0.4677
  663TMC3    C3 9862   0.104   1.525  17.292 -0.3694  0.6585 -0.0680
  663TMC3    C4 9863   0.012   1.609  17.045 -0.7537  0.6704 -0.1513
  663TMC3    C5 9864   4.721   1.485  17.089  0.3276 -0.4129  0.9013
  663TMC3    C6 9865   0.034   1.436  17.204 -0.3298 -0.1230 -0.1304
  663TMC3     C 9866   0.120   1.823  17.083 -0.9696  0.4110 -0.4935
  663TMC3     O 9867   0.127   1.852  16.968 -0.0335  0.5456 -0.1131
  663TMC3     H 9868   0.201   1.712  17.305 -1.2324 -0.9040  0.5285
  663TMC3    H1 9869   4.715   1.647  16.949  0.2464 -0.9609 -1.1629
  663TMC3    H2 9870   4.710   1.359  17.248 -0.2297 -1.2530 -2.0143
  663TMC3    C7 9871   4.648   1.404  16.999  0.3168  0.3412  0.6742
  663TMC3    C8 9872   0.083   1.508  17.429  0.2182  0.6896  0.0435
  663TMC3    O1 9873   4.594   1.467  16.907 -0.1686 -0.2958 -0.5058
  663TMC3    O2 9874   0.103   1.605  17.504  0.2187  0.4760 -0.4022
  664MPD2     C 9875   2.165   0.548  17.674  0.1323  0.3686 -0.7691
  664MPD2    C1 9876   2.292   0.538  17.723  0.7057  0.3041 -0.0033
  664MPD2    C2 9877   2.312   0.498   0.099 -0.2352 -0.3157 -0.2011
  664MPD2    C3 9878   2.203   0.460   0.185 -0.3063 -1.0284 -0.6958
  664MPD2    C4 9879   2.082   0.457   0.130 -0.4095  0.1185 -0.9145
  664MPD2    C5 9880   2.060   0.508   0.007  0.0000 -0.2190 -0.7181
  664MPD2     H 9881   2.410   0.503   0.146 -0.8932 -0.2730  1.1422
  664MPD2    H1 9882   1.994   0.414   0.178  0.4292 -0.7489 -0.1536
  664MPD2    H2 9883   2.144   0.571  17.570 -0.7198  1.3880 -0.3618
  664MPD2    H3 9884   1.962   0.500  17.711 -0.6477 -0.3020  0.6541
  664MPD2     N 9885   2.215   0.438   0.318 -0.4934  0.2040 -0.7711
  664MPD2    H5 9886   2.310   0.423   0.350 -1.3218  2.2110  2.6016
  664MPD2    N1 9887   2.409   0.568  17.653  0.6137  0.1930  0.1860
  664MPD2    H7 9888   2.501   0.543  17.689  0.5280 -1.7055 -0.9455
  665TMC3    C1 9889   2.187   0.488   0.542 -0.2317 -0.4712  1.3441
  665TMC3    C2 9890   2.295   0.402   0.577 -0.9605 -0.5305 -0.2305
  665TMC3    C3 9891   2.367   0.447   0.686  0.2373 -0.1547  0.1393
  665TMC3    C4 9892   2.162   0.608   0.609  0.2192 -0.0127  0.4261
  665TMC3    C5 9893   2.253   0.652   0.706  0.0848 -0.9469  0.6619
  665TMC3    C6 9894   2.353   0.576   0.747  0.8882 -0.4238 -0.6004
  665TMC3     C 9895   2.122   0.475   0.410  0.5195  0.4096 -0.3471
  665TMC3     O 9896   2.014   0.531   0.392 -0.5992 -0.1111  0.4372
  665TMC3     H 9897   2.324   0.319   0.514  2.5084  1.1044 -0.8071
  665TMC3    H1 9898   2.094   0.679   0.564 -1.7429 -1.7275  0.6961
  665TMC3    H2 9899   2.409   0.593   0.838  0.6084 -2.0722 -0.1099
  665TMC3    C7 9900   2.251   0.794   0.729 -0.5768 -0.3131 -0.6221
  665TMC3    C8 9901   2.476   0.369   0.745 -0.3888  0.0553 -0.1150
  665TMC3    O1 9902   2.150   0.852   0.703  0.2667 -0.1559  0.2026
  665TMC3    O2 9903   2.569   0.432   0.790 -0.0178 -0.1434  0.1841
  666TMC3    C1 9904   2.040   3.417   9.735 -0.2939 -0.0011 -0.7487
  666TMC3    C2 9905   2.051   3.429   9.603 -0.9353  0.4275  0.5843
  666TMC3    C3 9906   2.021   3.549   9.541  0.0313 -0.2514 -0.0671
  666TMC3    C4 9907   1.996   3.508   9.820 -0.3476 -0.0173 -0.1069
  666TMC3    C5 9908   1.953   3.625   9.759 -0.1928 -0.0294 -0.6468
  666TMC3    C6 9909   1.956   3.642   9.623 -0.3453  0.2344  0.8674
  666TMC3     C 9910   2.113   3.305   9.797  1.0526 -0.4579 -0.4182
  666TMC3     O 9911   2.172   3.320   9.901 -0.4162  0.7076 -0.5420
  666TMC3     H 9912   2.098   3.351   9.544  0.8699  1.3642  0.7931
  666TMC3    H1 9913   1.992   3.495   9.927  0.4897 -0.4315 -0.1224
  666TMC3    H2 9914   1.927   3.730   9.567  2.2021 -0.1114 -0.9832
  666TMC3    C7 9915   1.920   3.734   9.844  0.7488 -0.9237 -0.1782
  666TMC3    C8 9916   2.006   3.553   9.394  0.1304  0.4738  0.6729
  666TMC3    O1 9917   1.915   3.714   9.965  0.1924  0.1863  0.4804
  666TMC3    O2 9918   1.967   3.447   9.350  0.1816 -0.2710 -0.0173
  667MPD2     C 9919   3.845   4.381  14.754 -0.2915 -0.3291  0.0592
  667MPD2    C1 9920   3.789   4.465  14.865 -0.0253 -0.5487  0.4274
  667MPD2    C2 9921   3.667   4.424  14.916 -0.0406  0.6648 -0.2510
  667MPD2    C3 9922   3.595   4.328  14.856 -0.0016 -0.2470  0.7744
  667MPD2    C4 9923   3.648   4.250  14.760  0.0432 -0.5725 -0.5803
  667MPD2    C5 9924   3.773   4.276  14.707  0.3977 -0.5517  0.2550
  667MPD2     H 9925   3.621   4.485  14.993 -0.1705  3.2883 -2.4328
  667MPD2    H1 9926   3.583   4.171  14.724  1.3318 -1.7872 -0.2588
  667MPD2    H2 9927   3.935   4.405  14.699 -0.0818  1.8868  1.3625
  667MPD2    H3 9928   3.813   4.230  14.616  1.1082 -0.5395  0.5581
  667MPD2     N 9929   3.460   4.306  14.894  0.0613 -0.0723  0.4712
  667MPD2    H5 9930   3.411   4.240  14.835 -0.0434  0.3013  0.1388
  667MPD2    N1 9931   3.854   4.575  14.923 -0.1281  0.0325  0.5664
  667MPD2    H7 9932   3.803   4.635  14.988 -1.4404 -0.5830  0.1109
  668TMC3    C1 9933   4.027   4.725  14.971  0.0321  0.8194 -0.2864
  668TMC3    C2 9934   4.115   0.075  14.915  0.0466 -1.0265  0.2041
  668TMC3    C3 9935   4.185   0.155  15.002 -0.6623  0.7968 -0.0773
  668TMC3    C4 9936   4.005   4.717  15.108  0.8038 -0.8631 -0.2475
  668TMC3    C5 9937   4.082   0.068  15.185 -0.0428 -0.3023 -0.0007
  668TMC3    C6 9938   4.177   0.142  15.133  0.3670 -0.7111 -0.0745
  668TMC3     C 9939   3.977   4.623  14.880 -0.5021 -1.1558 -0.7659
  668TMC3     O 9940   4.050   4.592  14.789  0.0197 -0.1917  0.3959
  668TMC3     H 9941   4.133   0.089  14.809 -3.9798  1.4451 -0.1461
  668TMC3    H1 9942   3.927   4.648  15.140 -1.6000  1.9342 -0.0216
  668TMC3    H2 9943   4.239   0.203  15.199 -2.3389 -0.1996  2.0016
  668TMC3    C7 9944   4.083   0.052  15.330  0.3110  0.4583  0.4071
  668TMC3    C8 9945   4.295   0.236  14.956 -0.2473  0.0582 -0.1259
  668TMC3    O1 9946   4.181   0.097  15.390  0.1032  0.1942 -0.1986
  668TMC3    O2 9947   4.338   0.317  15.037  0.6081 -0.1825  0.4509
  669TMC3    C1 9948   2.064   4.466  14.350 -0.2702  0.1688  0.0889
  669TMC3    C2 9949   1.949   4.475  14.272 -0.6531  1.0788 -0.1262
  669TMC3    C3 9950   1.949   4.561  14.164  0.2331 -0.7834 -0.0960
  669TMC3    C4 9951   2.177   4.534  14.314  0.0337 -0.2349  0.5796
  669TMC3    C5 9952   2.184   4.613  14.206  0.9570  0.4819 -0.2154
  669TMC3    C6 9953   2.068   4.633  14.132  0.8618  0.5179  0.0442
  669TMC3     C 9954   2.051   4.395  14.481  0.0557  0.2581 -0.5491
  669TMC3     O 9955   1.948   4.329  14.504 -0.1836  0.3979 -0.6474
  669TMC3     H 9956   1.863   4.416  14.301 -1.0344  1.1342 -1.1628
  669TMC3    H1 9957   2.275   4.526  14.359  0.4906 -2.2027 -0.7797
  669TMC3    H2 9958   2.075   4.694  14.043  0.2436  1.8325  0.8997
  669TMC3    C7 9959   2.310   4.693  14.183  0.9077 -0.0241 -0.1365
  669TMC3    C8 9960   1.842   4.558  14.068 -0.1969  0.2782  0.2770
  669TMC3    O1 9961   2.405   4.681  14.259  0.0756 -0.3341 -0.4496
  669TMC3    O2 9962   1.774   4.457  14.079 -0.1579 -0.0517  0.0237
  670MPD2     C 9963   4.671   1.822  13.766 -0.2943 -0.0120  0.2284
  670MPD2    C1 9964   0.053   1.765  13.807  0.2015 -0.7511 -0.0515
  670MPD2    C2 9965   0.101   1.800  13.933 -0.2370 -0.3236 -0.2738
  670MPD2    C3 9966   0.027   1.877  14.026 -0.1559 -0.8294  0.6753
  670MPD2    C4 9967   4.643   1.931  13.983  0.0974  0.1963 -0.1234
  670MPD2    C5 9968   4.599   1.905  13.851  0.6952  0.1730  0.1508
  670MPD2     H 9969   0.203   1.772  13.957  0.1341  2.0558  0.9093
  670MPD2    H1 9970   4.591   2.004  14.043 -0.6565 -0.7537  0.3879
  670MPD2    H2 9971   4.631   1.809  13.666 -0.2069 -0.5832  0.2727
  670MPD2    H3 9972   4.509   1.947  13.808 -0.7474 -1.7408  1.2923
  670MPD2     N 9973   0.082   1.906  14.158 -0.0605  0.0780 -0.3173
  670MPD2    H5 9974   0.175   1.877  14.185 -0.1645 -0.8559 -0.9642
  670MPD2    N1 9975   0.143   1.701  13.720 -0.1146  0.2333  1.1892
  670MPD2    H7 9976   0.238   1.689  13.753 -0.2390  0.1897  1.5243
  671TMC3    C1 9977   0.072   1.960  14.388 -0.1650 -0.3060  0.4659
  671TMC3    C2 9978   0.209   1.958  14.369  0.7403  0.4422 -0.5673
  671TMC3    C3 9979   0.286   1.901  14.467  0.2208  0.0389  0.0260
  671TMC3    C4 9980   0.011   1.874  14.475  0.0057 -0.5917  0.7797
  671TMC3    C5 9981   0.087   1.820  14.567 -0.2519 -0.7466 -0.0312
  671TMC3    C6 9982   0.224   1.841  14.572  1.0187 -0.3476  0.6740
  671TMC3     C 9983   0.001   1.964  14.259  0.0724  1.2280  0.1093
  671TMC3     O 9984   4.618   1.978  14.267  0.0632 -0.6666 -0.4708
  671TMC3     H 9985   0.256   2.029  14.301  0.5568  1.1420  0.0271
  671TMC3    H1 9986   4.646   1.842  14.465 -0.3472  0.5052  0.9919
  671TMC3    H2 9987   0.280   1.789  14.650  1.3725 -1.0084 -0.0209
  671TMC3    C7 9988   0.041   1.692  14.628  0.1852  0.7543  0.4935
  671TMC3    C8 9989   0.408   1.845  14.419 -0.4825 -0.6186 -0.8719
  671TMC3    O1 9990   0.108   1.648  14.721  0.3319 -0.4633 -0.2726
  671TMC3    O2 9991   0.419   1.840  14.292 -0.1757  0.4084 -0.4703
  672MPD2     C 9992   0.542   3.277   0.916 -0.2511  0.9439  0.1083
  672MPD2    C1 9993   0.649   3.218   0.859 -0.4149  0.0293 -0.4843
  672MPD2    C2 9994   0.763   3.294   0.858  0.7863 -0.4061  0.9574
  672MPD2    C3 9995   0.774   3.421   0.920 -0.3140  0.0797  0.3655
  672MPD2    C4 9996   0.659   3.479   0.971  0.2620 -0.0420  0.7363
  672MPD2    C5 9997   0.547   3.403   0.967  0.1438 -0.3368 -0.6559
  672MPD2     H 9998   0.855   3.257   0.815  1.0793 -0.0263  1.2571
  672MPD2    H1 9999   0.658   3.579   1.013  0.3473 -1.3313  3.7910
  672MPD2    H210000   0.441   3.238   0.910 -0.4578  1.3898  0.7435
  672MPD2    H310001   0.456   3.443   1.011  0.2320 -0.3426 -0.4696
  672MPD2     N10002   0.894   3.493   0.929 -0.0240 -0.4496 -0.1937
  672MPD2    H510003   0.880   3.587   0.967  1.9383 -0.3028  0.1401
  672MPD2    N110004   0.646   3.089   0.792 -0.2484 -0.3016  0.3421
  672MPD2    H710005   0.734   3.055   0.755 -1.0119 -0.7705 -1.0835
  673TMC3    C110006   0.529   2.913   0.687  0.4984  0.0707 -0.0903
  673TMC3    C210007   0.655   2.884   0.634 -0.3758 -0.1636  0.7501
  673TMC3    C310008   0.649   2.833   0.506  0.7478  0.3807  0.0632
  673TMC3    C410009   0.405   2.899   0.629  0.1936  0.2230  0.5328
  673TMC3    C510010   0.406   2.854   0.505 -0.8100  0.0281 -0.0218
  673TMC3    C610011   0.524   2.820   0.442 -0.2035 -0.2305  0.3829
  673TMC3     C10012   0.533   3.014   0.788 -0.3934 -0.2257 -0.2236
  673TMC3     O10013   0.424   3.026   0.844  0.4214  1.1334  0.3799
  673TMC3     H10014   0.741   2.882   0.701 -0.0374 -1.2211  0.2850
  673TMC3    H110015   0.318   2.917   0.691 -0.4817  1.5685 -0.7974
  673TMC3    H210016   0.517   2.792   0.338 -1.4882  2.7772 -0.3497
  673TMC3    C710017   0.280   2.866   0.420  1.0553 -0.4728 -0.0077
  673TMC3    C810018   0.763   2.775   0.443  0.6814  0.4643  0.5059
  673TMC3    O110019   0.283   2.812   0.311  0.1012  0.1152 -0.1390
  673TMC3    O210020   0.732   2.710   0.342 -0.0333 -0.4459  0.5556
  674MPD2     C10021   4.704   3.398  17.541  0.7751 -0.2036  0.0552
  674MPD2    C110022   4.682   3.262  17.575 -0.0605  0.5205 -0.4854
  674MPD2    C210023   4.548   3.218  17.590  0.0262 -0.1214 -0.1138
  674MPD2    C310024   4.440   3.295  17.560 -0.3974 -0.7577  0.3173
  674MPD2    C410025   4.466   3.422  17.517  0.0124 -0.0118 -0.1440
  674MPD2    C510026   4.592   3.471  17.511 -0.3489  0.6382  0.1506
  674MPD2     H10027   4.519   3.117  17.617  1.9531 -0.7887 -0.5245
  674MPD2    H110028   4.390   3.498  17.507  1.1940  1.1354 -0.4298
  674MPD2    H210029   0.065   3.442  17.539  0.4224  0.6422  1.3075
  674MPD2    H310030   4.612   3.572  17.477 -2.6999  0.5948 -1.3162
  674MPD2     N10031   4.310   3.243  17.586 -0.3831  0.0043 -0.0852
  674MPD2    H510032   4.305   3.150  17.628 -1.8544 -0.8122 -2.1028
  674MPD2    N110033   0.058   3.176  17.595  0.6358 -0.4568  0.3155
  674MPD2    H710034   0.152   3.212  17.608  1.3257 -2.5670  1.1652
  675TMC3    C110035   0.173   2.965  17.600 -0.1137 -0.3504 -0.6703
  675TMC3    C210036   0.157   2.831  17.589 -0.9075  0.3543 -0.4149
  675TMC3    C310037   0.231   2.752  17.675  0.0193 -0.3282  0.8541
  675TMC3    C410038   0.267   3.020  17.686 -0.2387  0.1035  0.0177
  675TMC3    C510039   0.340   2.940   0.018 -0.8141  0.0770 -0.2137
  675TMC3    C610040   0.324   2.804   0.008 -0.5345  0.3048  0.1128
  675TMC3     C10041   0.047   3.036  17.593  0.5134  0.3297  0.4384
  675TMC3     O10042   4.685   2.971  17.604  0.2095 -0.5453  0.2296
  675TMC3     H10043   0.073   2.790  17.535  0.2721 -0.1749 -1.8522
  675TMC3    H110044   0.281   3.127  17.693 -0.3646  0.1647 -0.6801
  675TMC3    H210045   0.394   2.742   0.063 -0.9638  1.2893  1.7812
  675TMC3    C710046   0.453   2.990   0.094  0.6839  0.0399 -0.3977
  675TMC3    C810047   0.152   2.641  17.725 -0.8669 -0.0117  0.1696
  675TMC3    O110048   0.550   2.921   0.105 -0.2241 -0.0514  0.2029
  675TMC3    O210049   0.091   2.582  17.640  0.4692  0.0150 -0.2436
  676MPD2     C10050   2.380   0.139  10.801  0.2381  0.4960  0.2610
  676MPD2    C110051   2.361   0.140  10.939 -0.5602 -0.8652 -0.4947
  676MPD2    C210052   2.401   0.025  11.013  0.0567 -0.1632  0.3116
  676MPD2    C310053   2.441   4.648  10.945 -0.1367 -0.1243  0.5591
  676MPD2    C410054   2.460   4.662  10.811  0.0714 -0.4087  0.4583
  676MPD2    C510055   2.432   0.038  10.738 -0.2202  0.0687  0.2068
  676MPD2     H10056   2.391   0.021  11.120  0.2923 -0.9332  0.3025
  676MPD2    H110057   2.505   4.580  10.756 -0.1815  1.8176 -3.0780
  676MPD2    H210058   2.361   0.227  10.742  0.1328  0.5255  0.3396
  676MPD2    H310059   2.454   0.051  10.633 -0.0429  1.4656  0.4122
  676MPD2     N10060   2.482   4.527  11.001  0.8820  0.5940  0.9017
  676MPD2    H510061   2.514   4.455  10.936 -2.0947  0.3873 -0.3393
  676MPD2    N110062   2.304   0.254  11.004 -0.0839  0.2372  0.2860
  676MPD2    H710063   2.317   0.254  11.105 -1.3285 -1.3169  0.4563
  677TMC3    C110064   2.265   0.487  11.009  0.6311  0.6515 -0.5989
  677TMC3    C210065   2.352   0.502  11.115  0.0236  0.8242  0.3660
  677TMC3    C310066   2.366   0.624  11.170  0.2879 -0.0865  1.0871
  677TMC3    C410067   2.185   0.592  10.971 -0.5881 -0.5302 -0.1397
  677TMC3    C510068   2.200   0.709  11.042  0.7301  0.3496 -0.6532
  677TMC3    C610069   2.278   0.723  11.144  0.6180  0.6507 -0.6322
  677TMC3     C10070   2.248   0.359  10.932 -0.2747 -0.5559  0.0075
  677TMC3     O10071   2.205   0.370  10.817 -0.2288  0.1693  0.5642
  677TMC3     H10072   2.422   0.421  11.131 -1.5310 -0.2122  1.9303
  677TMC3    H110073   2.115   0.589  10.888  0.2859 -0.2201 -0.8857
  677TMC3    H210074   2.294   0.816  11.198 -0.6277  1.4320 -1.6063
  677TMC3    C710075   2.162   0.829  10.966 -0.2823  0.9342 -0.2040
  677TMC3    C810076   2.458   0.634  11.278 -0.0696 -0.4419  0.4427
  677TMC3    O110077   2.063   0.819  10.896 -0.3429  0.1754  0.2871
  677TMC3    O210078   2.432   0.717  11.362 -0.6900  0.6862 -0.6223
  678MPD2     C10079   4.053   1.230   1.437 -0.0764 -0.5607  0.4196
  678MPD2    C110080   4.060   1.210   1.299 -0.3201  0.4705 -0.1676
  678MPD2    C210081   3.952   1.227   1.218  0.3778 -0.1420 -0.7109
  678MPD2    C310082   3.847   1.283   1.277 -0.6765  0.4707 -0.2203
  678MPD2    C410083   3.835   1.302   1.410 -0.2920  0.3510  0.1467
  678MPD2    C510084   3.937   1.269   1.495 -0.4002 -0.3359  0.2728
  678MPD2     H10085   3.968   1.223   1.111 -0.5574  0.5576 -0.8757
  678MPD2    H110086   3.741   1.336   1.454 -1.0293 -2.4378  0.7299
  678MPD2    H210087   4.138   1.203   1.500  1.1174  4.3541  0.9187
  678MPD2    H310088   3.936   1.289   1.601  0.9647 -3.1479  0.8174
  678MPD2     N10089   3.759   1.331   1.179 -0.0168  0.1986 -0.3414
  678MPD2    H510090   3.753   1.297   1.083 -0.9771 -1.6803  0.3833
  678MPD2    N110091   4.176   1.153   1.247  0.0145 -0.5707  0.0901
  678MPD2    H710092   4.167   1.143   1.147  1.4082  0.7917 -0.1900
  679TMC3    C110093   4.577   0.922   1.175 -0.2230  0.5547  0.2445
  679TMC3    C210094   4.475   0.951   1.257  0.5171  0.7470  0.2220
  679TMC3    C310095   4.390   1.053   1.218 -0.2700  0.2352 -0.0751
  679TMC3    C410096   4.617   0.990   1.062  0.1551  0.4300  0.1364
  679TMC3    C510097   4.534   1.094   1.033  0.2668  0.1516 -0.4126
  679TMC3    C610098   4.422   1.128   1.106 -0.1939  0.1769 -0.0666
  679TMC3     C10099   4.642   0.795   1.193 -0.3331  0.2718  0.4736
  679TMC3     O10100   4.690   0.746   1.089  0.0167 -0.4399 -0.3257
  679TMC3     H10101   4.442   0.885   1.336 -1.3225 -2.4644 -3.2497
  679TMC3    H110102   4.700   0.963   0.998 -0.3193  1.3375 -0.8693
  679TMC3    H210103   4.357   1.206   1.068 -3.1139 -2.5632 -0.7041
  679TMC3    C710104   4.585   1.183   0.932  0.8437 -1.1436 -0.4071
  679TMC3    C810105   4.285   1.090   1.307 -0.0730  0.1938  0.4739
  679TMC3    O110106   4.505   1.245   0.868 -0.4835 -0.3202 -0.6631
  679TMC3    O210107   4.303   1.053   1.420 -0.7489  0.3387 -0.4482
  680MPD2     C10108   4.439   3.580  12.961 -0.3296 -0.0152  0.4924
  680MPD2    C110109   4.497   3.516  13.066  0.1475  0.0432  0.3399
  680MPD2    C210110   4.522   3.595  13.179 -0.4789 -0.2654 -0.5835
  680MPD2    C310111   4.482   3.724  13.191 -0.1140 -0.2547 -0.5644
  680MPD2    C410112   4.410   3.779  13.091  0.0813  0.5360  0.6018
  680MPD2    C510113   4.387   3.706  12.980  0.0056 -0.0080 -0.4103
  680MPD2     H10114   4.553   3.535  13.264  0.6494  0.9438 -0.1437
  680MPD2    H110115   4.361   3.874  13.107 -2.3778 -0.7857  0.9356
  680MPD2    H210116   4.416   3.535  12.865  3.0155  1.7493 -1.1166
  680MPD2    H310117   4.319   3.749  12.906  0.3589 -0.8960 -1.2534
  680MPD2     N10118   4.515   3.806  13.306  0.0754  0.7283  0.1549
  680MPD2    H510119   4.490   3.904  13.299  0.9689  0.8335 -1.5255
  680MPD2    N110120   4.544   3.382  13.062  0.4542  0.7920 -0.2067
  680MPD2    H710121   4.599   3.346  13.140  0.3191  3.4943  1.1440
  681TMC3    C110122   4.519   3.156  13.028 -0.4531 -0.1516  1.0761
  681TMC3    C210123   4.420   3.111  13.107 -0.1775  0.0088 -0.3638
  681TMC3    C310124   4.462   3.027  13.211  0.5384 -0.3563 -0.3999
  681TMC3    C410125   4.646   3.115  13.034  0.2839 -0.1500 -0.1582
  681TMC3    C510126   4.686   3.033  13.138  0.2658 -0.3458 -0.7733
  681TMC3    C610127   4.591   2.979  13.221  0.3415  0.1341  0.2730
  681TMC3     C10128   4.496   3.288  12.977 -0.1881 -0.3535 -0.2038
  681TMC3     O10129   4.413   3.304  12.887 -0.3260  0.1304 -0.1115
  681TMC3     H10130   4.318   3.146  13.099  0.3475  1.1518 -1.9416
  681TMC3    H110131   4.711   3.161  12.961  0.8398 -0.6920 -0.0097
  681TMC3    H210132   4.622   2.936  13.316  0.2261 -0.6340 -0.0346
  681TMC3    C710133   0.086   2.991  13.149  0.9559  0.0705 -0.2228
  681TMC3    C810134   4.387   3.037  13.332 -0.3490 -0.2772 -0.4338
  681TMC3    O110135   0.103   2.873  13.190  0.5760 -0.0607 -0.1662
  681TMC3    O210136   4.338   2.935  13.376 -0.6619 -0.3386 -0.1920
  682MPD2     C10137   1.394   4.688  10.721 -0.1556 -0.1523 -0.8183
  682MPD2    C110138   1.508   4.620  10.750  0.0296 -0.0224 -0.5066
  682MPD2    C210139   1.582   4.652  10.864  1.0966  0.4950  0.6447
  682MPD2    C310140   1.539   0.021  10.945 -0.3300 -0.5598  0.1352
  682MPD2    C410141   1.428   0.095  10.908  0.3405 -0.1327  0.0822
  682MPD2    C510142   1.360   0.050  10.797  0.4447 -0.2973  0.6036
  682MPD2     H10143   1.660   4.584  10.896 -0.6071 -1.0091  1.6299
  682MPD2    H110144   1.401   0.192  10.950 -2.9475 -1.4590  1.0136
  682MPD2    H210145   1.329   4.679  10.635 -2.3954 -0.0433  0.8737
  682MPD2    H310146   1.265   0.097  10.775  0.6333 -0.1275  0.1458
  682MPD2     N10147   1.593   0.047  11.070  0.1059 -0.3117 -0.1998
  682MPD2    H510148   1.577   0.135  11.118  1.6924 -0.6376  0.9548
  682MPD2    N110149   1.572   4.527  10.661  0.4672  0.4852 -0.3938
  682MPD2    H710150   1.665   4.497  10.687 -0.2272 -2.2959 -1.0978
  683TMC3    C110151   1.743   0.185  11.428 -0.2942  0.5811  0.6755
  683TMC3    C210152   1.771   0.095  11.528 -0.4763  1.4605 -0.3455
  683TMC3    C310153   1.753   4.701  11.494 -0.4759 -0.0865  0.9569
  683TMC3    C410154   1.723   0.152  11.301 -0.2878 -0.1032  1.1483
  683TMC3    C510155   1.723   0.019  11.268 -0.1936  0.1939  0.1528
  683TMC3    C610156   1.735   4.663  11.362 -0.0919 -0.7342 -0.3430
  683TMC3     C10157   1.732   0.325  11.449 -0.0399  0.6586 -0.2368
  683TMC3     O10158   1.675   0.391  11.361 -0.4731  0.2851 -0.3510
  683TMC3     H10159   1.778   0.111  11.635 -1.5599  0.7953 -0.1738
  683TMC3    H110160   1.729   0.223  11.219 -1.8366 -1.7569 -0.4384
  683TMC3    H210161   1.705   4.562  11.333  2.6809 -2.2813  2.2791
  683TMC3    C710162   1.691   4.710  11.136  0.3484 -0.0172 -0.0915
  683TMC3    C810163   1.797   4.580  11.575 -0.8363 -0.5989 -0.0281
  683TMC3    O110164   1.732   4.594  11.110 -0.2045  0.2328  0.2447
  683TMC3    O210165   1.752   4.472  11.539  0.9357  0.1050 -0.4294
  684MPD2     C10166   4.612   0.467  16.410 -0.3442  0.1411 -0.2555
  684MPD2    C110167   4.735   0.501  16.461 -0.2180 -0.7578 -0.4139
  684MPD2    C210168   0.005   0.616  16.538 -0.7637  0.0745 -0.7594
  684MPD2    C310169   4.635   0.705  16.546 -0.0210  0.3463 -0.0147
  684MPD2    C410170   4.519   0.661  16.490 -0.2171  0.2035  0.5397
  684MPD2    C510171   4.504   0.542  16.429 -0.1720 -0.0997  0.3989
  684MPD2     H10172   0.108   0.642  16.563 -0.8863 -0.0527 -0.1288
  684MPD2    H110173   4.432   0.727  16.488  1.4690  2.4079 -0.0410
  684MPD2    H210174   4.598   0.372  16.359 -0.4189  0.0671 -0.0992
  684MPD2    H310175   4.412   0.510  16.383  0.3564 -1.9465  0.6207
  684MPD2     N10176   4.641   0.838  16.593 -0.6864 -0.1337 -0.6963
  684MPD2    H510177   4.567   0.905  16.573 -0.3047  0.5453  0.1312
  684MPD2    N110178   0.116   0.426  16.431 -0.5524  0.2636 -0.0710
  684MPD2    H710179   0.200   0.447  16.483 -0.0289  0.2495 -0.9125
  685TMC3    C110180   0.267   0.280  16.316  0.6586  0.1136 -0.8051
  685TMC3    C210181   0.282   0.187  16.213  0.0653 -0.5555 -0.1002
  685TMC3    C310182   0.410   0.143  16.182  0.1373 -0.4792  0.0223
  685TMC3    C410183   0.367   0.340  16.376 -0.0799 -0.1672 -0.5329
  685TMC3    C510184   0.495   0.307  16.343 -0.0211  0.1540  0.1037
  685TMC3    C610185   0.508   0.217  16.239 -0.0508 -0.1599  0.2695
  685TMC3     C10186   0.132   0.325  16.331  0.3605 -0.8046  0.4070
  685TMC3     O10187   0.054   0.281  16.250 -0.1910  0.4809  0.7409
  685TMC3     H10188   0.196   0.169  16.150  2.0297  1.4244 -3.3142
  685TMC3    H110189   0.351   0.407  16.460 -0.2397  0.6065 -1.1800
  685TMC3    H210190   0.609   0.183  16.216  0.0941 -0.7211  1.7212
  685TMC3    C710191   0.609   0.366  16.406 -0.8340  0.6785  0.3686
  685TMC3    C810192   0.437   0.082  16.051 -0.1701 -0.4439 -0.0355
  685TMC3    O110193   0.596   0.392  16.525  0.4047 -0.8814  0.3315
  685TMC3    O210194   0.541   0.088  15.995 -0.3010 -0.3813 -0.2684
  686MPD2     C10195   1.853   0.013  15.731 -0.3832  0.9751 -0.3504
  686MPD2    C110196   1.841   4.657  15.828  0.3129 -0.4271 -0.4949
  686MPD2    C210197   1.824   4.530  15.784  0.2401 -0.0827 -0.0472
  686MPD2    C310198   1.815   4.487  15.652  0.4724 -0.9609 -0.4854
  686MPD2    C410199   1.830   4.579  15.556  0.4802 -0.1003 -0.5424
  686MPD2    C510200   1.858   4.709  15.598 -0.4214 -1.0773  0.0073
  686MPD2     H10201   1.805   4.461  15.865  1.8881  0.6008  0.9315
  686MPD2    H110202   1.838   4.554  15.450  0.2327 -0.2362 -0.5288
  686MPD2    H210203   1.859   0.121  15.741  0.0103  1.0152 -1.0555
  686MPD2    H310204   1.886   0.041  15.520 -0.8875 -0.2268  0.6072
  686MPD2     N10205   1.789   4.353  15.626 -0.0357 -0.0658  0.3111
  686MPD2    H510206   1.818   4.293  15.703 -0.4374  1.0470  1.3351
  686MPD2    N110207   1.829   4.682  15.967  0.3182 -0.0558 -0.1711
  686MPD2    H710208   1.828   4.602  16.030 -0.5775 -0.8826 -1.2478
  687TMC3    C110209   1.793   4.152  15.502  0.1986 -0.0306  0.0534
  687TMC3    C210210   1.756   4.085  15.390 -1.0676 -0.0387  0.6741
  687TMC3    C310211   1.751   3.941  15.397 -0.2365  0.2656 -0.3223
  687TMC3    C410212   1.838   4.086  15.613 -0.2264 -0.2798 -0.5830
  687TMC3    C510213   1.834   3.949  15.615 -0.1546 -0.2107  0.2481
  687TMC3    C610214   1.789   3.876  15.508 -0.4699  0.1057 -0.6367
  687TMC3     C10215   1.779   4.296  15.501  0.0866 -0.5524 -0.4983
  687TMC3     O10216   1.747   4.350  15.395 -0.5711  1.0599  0.0911
  687TMC3     H10217   1.734   4.136  15.297 -0.2275  1.3210  1.2277
  687TMC3    H110218   1.892   4.139  15.691 -0.2291 -1.3459  0.1537
  687TMC3    H210219   1.767   3.772  15.531 -1.7962  0.3502 -0.8162
  687TMC3    C710220   1.812   3.898  15.747  0.2511 -0.0925  0.5283
  687TMC3    C810221   1.655   3.870  15.309 -0.0813  0.0026  0.3273
  687TMC3    O110222   1.784   3.980  15.833 -0.3334  0.0280 -0.6063
  687TMC3    O210223   1.663   3.748  15.307 -0.0834  0.1476  0.1297
  688MPD2     C10224   0.652   3.961  17.202  0.3560 -0.1702  1.1725
  688MPD2    C110225   0.672   3.828  17.228 -0.5139 -0.4334  0.1418
  688MPD2    C210226   0.759   3.745  17.154  0.5271  0.6409  0.1686
  688MPD2    C310227   0.836   3.810  17.052  0.2889 -0.4694 -0.3540
  688MPD2    C410228   0.816   3.938  17.019  0.8292 -0.7703 -0.3101
  688MPD2    C510229   0.724   4.012  17.097  0.5647 -0.0504 -0.4120
  688MPD2     H10230   0.774   3.644  17.191 -1.0010 -0.1119 -1.2909
  688MPD2    H110231   0.876   3.992  16.947 -1.2114 -0.4253 -1.7460
  688MPD2    H210232   0.583   4.026  17.255 -1.0817  0.7403 -1.7862
  688MPD2    H310233   0.728   4.117  17.071 -2.8099 -0.1805 -1.3938
  688MPD2     N10234   0.929   3.741  16.978  0.6501 -0.3324 -0.4322
  688MPD2    H510235   0.952   3.783  16.889 -0.9007 -1.1291 -1.1969
  688MPD2    N110236   0.625   3.767  17.345 -0.3654  0.4351  0.1682
  688MPD2    H710237   0.670   3.678  17.363  1.4044  1.8453  2.5851
  689TMC3    C110238   0.525   3.733  17.551 -0.5947  0.4814 -0.6797
  689TMC3    C210239   0.514   3.787  17.672  0.0688 -0.3309 -0.4257
  689TMC3    C310240   0.426   3.730   0.010 -0.1364 -1.0611 -0.2223
  689TMC3    C410241   0.464   3.618  17.518 -0.6233 -1.0066  0.4315
  689TMC3    C510242   0.398   3.548  17.612  0.8758  0.6015  0.1273
  689TMC3    C610243   0.381   3.605  17.734  0.7859 -0.6712 -0.2184
  689TMC3     C10244   0.542   3.820  17.440  0.3554  0.8605  0.4206
  689TMC3     O10245   0.496   3.935  17.449 -0.2378 -0.5172  0.0129
  689TMC3     H10246   0.567   3.876  17.703 -2.2922  0.9824 -0.2142
  689TMC3    H110247   0.490   3.578  17.421 -0.1835  2.7584 -0.9877
  689TMC3    H210248   0.338   3.543   0.060 -0.5510  2.3720  1.4577
  689TMC3    C710249   0.407   3.401  17.620  0.2227 -0.1366  0.1640
  689TMC3    C810250   0.392   3.806   0.126 -0.1023  0.1355 -0.5358
  689TMC3    O110251   0.460   3.348  17.716 -0.2351  0.3857 -0.3588
  689TMC3    O210252   0.442   3.913   0.137 -0.1574  0.4658  0.3041
  690MPD2     C10253   3.408   0.895  15.914  0.4709 -0.7501  0.4499
  690MPD2    C110254   3.314   0.906  15.814 -1.1273  0.3496  0.4057
  690MPD2    C210255   3.364   0.924  15.685  0.0320 -0.4807  0.0626
  690MPD2    C310256   3.499   0.925  15.651 -0.1917  0.0799 -0.2355
  690MPD2    C410257   3.581   0.916  15.755  0.3885 -0.3359 -0.0262
  690MPD2    C510258   3.541   0.903  15.883  0.1139  0.1751 -0.2534
  690MPD2     H10259   3.295   0.931  15.602  0.1508  0.7484  0.0771
  690MPD2    H110260   3.687   0.932  15.736  0.2992 -0.4897 -0.6581
  690MPD2    H210261   3.377   0.899  16.018  0.4775 -2.4946  0.5121
  690MPD2    H310262   3.609   0.905  15.967 -1.3976  0.8139  0.9783
  690MPD2     N10263   3.537   0.953  15.515  0.2700 -0.4266 -0.1541
  690MPD2    H510264   3.461   0.979  15.451 -0.2595  1.6176  1.3300
  690MPD2    N110265   3.175   0.897  15.831  0.6028 -0.3016  0.4543
  690MPD2    H710266   3.118   0.905  15.747  2.4603  1.9430 -0.5794
  691TMC3    C110267   2.972   0.860  15.944 -0.3740  0.4580  0.0515
  691TMC3    C210268   2.919   0.919  15.833 -0.5431  0.2144 -0.4072
  691TMC3    C310269   2.797   0.887  15.796  0.5465 -0.3283 -0.6600
  691TMC3    C410270   2.907   0.769  16.014  1.7080 -0.1162  0.0172
  691TMC3    C510271   2.778   0.739  15.971  0.1263  0.5700  0.2472
  691TMC3    C610272   2.716   0.799  15.866  0.2011  0.0489  0.3773
  691TMC3     C10273   3.115   0.854  15.946  0.6543  0.8278  0.2286
  691TMC3     O10274   3.160   0.796  16.046  0.1689 -1.0923 -0.3740
  691TMC3     H10275   2.964   1.006  15.786 -1.1226  0.2911 -0.8224
  691TMC3    H110276   2.957   0.704  16.085 -0.0073  0.7969  2.0657
  691TMC3    H210277   2.614   0.778  15.837  0.4521 -0.4688 -0.1218
  691TMC3    C710278   2.706   0.631  16.039  1.0695 -0.2957 -0.0765
  691TMC3    C810279   2.748   0.968  15.681  0.1068  0.1433 -0.1884
  691TMC3    O110280   2.738   0.617  16.157 -0.3354  0.1147  0.1537
  691TMC3    O210281   2.832   1.012  15.599  0.4718 -0.5011  0.1947
  692TMC3    C110282   4.576   1.958  15.718 -0.0267 -0.7076  0.7008
  692TMC3    C210283   4.688   2.031  15.748 -0.4428 -0.5644  0.0732
  692TMC3    C310284   0.029   1.985  15.845 -0.1251  0.3901 -0.3281
  692TMC3    C410285   4.577   1.825  15.747  0.1198 -0.3776 -0.1236
  692TMC3    C510286   4.665   1.779  15.838 -0.0813  0.1367 -0.5157
  692TMC3    C610287   0.015   1.859  15.901  0.6455 -0.0982  0.3809
  692TMC3     C10288   4.444   2.022  15.741 -0.3049 -0.0032  0.1076
  692TMC3     O10289   4.363   1.947  15.802  0.1040  0.0903  0.3288
  692TMC3     H10290   4.683   2.136  15.724  1.8308 -0.1005  1.6361
  692TMC3    H110291   4.490   1.771  15.712 -0.5898 -0.4496  1.7397
  692TMC3    H210292   0.098   1.812  15.953 -0.8996 -1.4246  1.6199
  692TMC3    C710293   4.666   1.636  15.865 -0.0439 -0.3005  0.0554
  692TMC3    C810294   0.044   2.088  15.944  0.0335  0.0015 -0.2091
  692TMC3    O110295   4.615   1.564  15.775  0.1770  0.4180 -0.2383
  692TMC3    O210296   0.088   2.199  15.907 -0.0892  0.2619 -0.2422
  693MPD2     C10297   3.915   3.929  11.517 -0.3717  0.1367 -0.1401
  693MPD2    C110298   3.878   3.879  11.393 -0.1082 -0.3003 -0.3231
  693MPD2    C210299   3.958   3.807  11.307 -0.6109  0.5689 -0.6387
  693MPD2    C310300   4.089   3.798  11.342  0.5106  0.5642  0.1173
  693MPD2    C410301   4.125   3.843  11.469 -0.3999 -0.0251  0.4254
  693MPD2    C510302   4.047   3.912  11.552  0.0651  0.7654  0.3743
  693MPD2     H10303   3.919   3.768  11.213 -2.6530 -0.1612  0.5122
  693MPD2    H110304   4.229   3.839  11.500 -0.4964 -1.6277  0.5344
  693MPD2    H210305   3.840   3.972  11.583  1.4122 -0.4704  2.2580
  693MPD2    H310306   4.076   3.956  11.647  0.0723  1.9845 -0.1962
  693MPD2     N10307   4.187   3.743  11.255  0.2906  0.4211  0.3702
  693MPD2    H510308   4.283   3.752  11.289  0.6575  0.7890 -0.7475
  693MPD2    N110309   3.738   3.900  11.363  0.0642 -0.0291 -0.2029
  693MPD2    H710310   3.684   3.925  11.445 -0.7240 -0.0205 -0.7299
  694TMC3    C110311   3.537   3.857  11.270 -0.2402  0.3093  0.1072
  694TMC3    C210312   3.460   3.838  11.159 -0.2615  0.0095 -0.1191
  694TMC3    C310313   3.349   3.759  11.168 -0.6962 -0.4379  0.0076
  694TMC3    C410314   3.488   3.813  11.392 -0.1545 -0.7944  0.0010
  694TMC3    C510315   3.378   3.730  11.393  0.1355  0.8882 -0.3021
  694TMC3    C610316   3.317   3.684  11.278 -0.0310 -0.6697  0.1022
  694TMC3     C10317   3.680   3.871  11.242 -0.0171 -0.8509 -0.2590
  694TMC3     O10318   3.727   3.841  11.132  0.2965  0.1111  0.1035
  694TMC3     H10319   3.497   3.866  11.061  1.9128  1.6149  1.1747
  694TMC3    H110320   3.540   3.832  11.485  0.5021 -0.1485 -0.5076
  694TMC3    H210321   3.223   3.635  11.298 -1.0827  1.1657 -0.3233
  694TMC3    C710322   3.370   3.654  11.516  1.1025 -0.3723  0.3547
  694TMC3    C810323   3.262   3.749  11.054 -0.3087 -0.5204  0.0598
  694TMC3    O110324   3.395   3.710  11.621 -0.5013 -0.5400  0.3029
  694TMC3    O210325   3.197   3.646  11.047 -0.9972  0.0892 -0.4236
  695MPD2     C10326   0.130   1.225  13.596 -0.4442  0.4027  0.0686
  695MPD2    C110327   0.140   1.263  13.733  0.4400  0.2313  0.3228
  695MPD2    C210328   0.039   1.314  13.808 -0.0661 -0.1294 -0.1109
  695MPD2    C310329   4.655   1.317  13.752  0.2043  0.0260 -0.2513
  695MPD2    C410330   4.643   1.274  13.618  0.5179  0.3748 -0.2928
  695MPD2    C510331   0.003   1.222  13.548 -0.4748  0.3682 -0.2079
  695MPD2     H10332   0.063   1.348  13.908 -1.4374  0.1594  0.1187
  695MPD2    H110333   4.548   1.275  13.564  0.0395 -1.7024  0.5040
  695MPD2    H210334   0.207   1.180  13.534 -0.0453  1.1700  0.0105
  695MPD2    H310335   4.721   1.186  13.448 -0.5043  0.4083 -0.2161
  695MPD2     N10336   4.550   1.339  13.844 -0.2482  0.0328  0.1417
  695MPD2    H510337   4.583   1.350  13.940  0.6293 -2.1140  0.0808
  695MPD2    N110338   0.265   1.261  13.799 -0.3606  0.5738  0.7233
  695MPD2    H710339   0.276   1.306  13.889  0.2711 -0.3125  1.0894
  696TMC3    C110340   4.340   1.275  13.929 -0.3027  0.6036  0.5874
  696TMC3    C210341   4.398   1.242  14.050 -0.4396  0.2525 -0.4022
  696TMC3    C310342   4.317   1.235  14.156 -0.1364  0.3860  0.3954
  696TMC3    C410343   4.207   1.257  13.909  0.0439 -0.4049 -0.1165
  696TMC3    C510344   4.132   1.252  14.018  0.4627 -0.3121 -0.1672
  696TMC3    C610345   4.188   1.260  14.137 -0.2078 -0.1384  0.1888
  696TMC3     C10346   4.420   1.318  13.814  0.6961 -0.1285 -0.5037
  696TMC3     O10347   4.364   1.307  13.705 -0.4533  0.2464  0.2408
  696TMC3     H10348   4.502   1.263  14.073 -0.8614  0.1698  1.5517
  696TMC3    H110349   4.152   1.289  13.821 -1.9594 -0.6322  1.0699
  696TMC3    H210350   4.121   1.250  14.221  0.8040 -0.9706  0.9032
  696TMC3    C710351   4.028   1.357  14.020 -0.5196 -0.6928 -0.3229
  696TMC3    C810352   4.368   1.304  14.272 -0.3883  0.0438 -0.3559
  696TMC3    O110353   3.941   1.354  13.937 -1.0145  0.2198  0.1289
  696TMC3    O210354   4.309   1.404  14.310  0.3823  0.1641 -0.6168
  697MPD2     C10355   4.117   3.606  15.613 -0.1138 -0.3684 -0.2178
  697MPD2    C110356   4.184   3.530  15.518 -0.0954 -0.2239 -0.0223
  697MPD2    C210357   4.253   3.596  15.417  0.0535 -0.5801 -0.0858
  697MPD2    C310358   4.257   3.731  15.408 -0.0199  0.3051 -0.0593
  697MPD2    C410359   4.210   3.804  15.515 -0.3302  0.3492 -0.0012
  697MPD2    C510360   4.141   3.742  15.612 -0.0679 -0.0624 -0.4202
  697MPD2     H10361   4.295   3.534  15.338  0.7552 -2.7080  1.9516
  697MPD2    H110362   4.221   3.912  15.517 -1.8058  0.5013 -0.0289
  697MPD2    H210363   4.062   3.557  15.693 -0.8970  1.1470  0.1617
  697MPD2    H310364   4.100   3.806  15.689 -2.4329 -3.8533  1.4943
  697MPD2     N10365   4.328   3.783  15.296  0.4411  1.0384 -0.2826
  697MPD2    H510366   4.388   3.722  15.241  0.5497  0.4897  0.4465
  697MPD2    N110367   4.192   3.384  15.517 -0.8479 -0.4548 -0.4033
  697MPD2    H710368   4.232   3.339  15.435 -0.0097 -2.0146  0.8532
  698TMC3    C110369   4.398   3.952  15.149  0.0268  0.9792 -0.4969
  698TMC3    C210370   4.450   4.076  15.144 -0.2266  0.6000 -0.3375
  698TMC3    C310371   4.513   4.127  15.038 -0.1259 -0.0959 -0.0172
  698TMC3    C410372   4.382   3.881  15.036  0.1588 -0.3663 -0.4961
  698TMC3    C510373   4.433   3.935  14.921  0.0080 -0.1915  0.4190
  698TMC3    C610374   4.501   4.057  14.916  0.0660 -0.3199 -0.3673
  698TMC3     C10375   4.312   3.915  15.255  0.5035  0.0766 -0.3686
  698TMC3     O10376   4.235   3.997  15.298 -0.0394 -0.6219 -0.6104
  698TMC3     H10377   4.450   4.147  15.225 -0.9718  0.3371 -0.1101
  698TMC3    H110378   4.340   3.781  15.037 -0.1921 -0.2031  0.7736
  698TMC3    H210379   4.546   4.089  14.823  0.2071  0.3731 -0.0618
  698TMC3    C710380   4.420   3.854  14.803  0.2809 -0.3327  0.4221
  698TMC3    C810381   4.615   4.228  15.056 -0.2010 -0.9104 -0.1957
  698TMC3    O110382   4.328   3.772  14.799 -0.3100  0.7405 -0.1836
  698TMC3    O210383   4.627   4.275  15.173 -0.4771 -0.0679 -0.1928
  699TMC3    C110384   4.469   1.484  13.162 -0.1077 -0.0911 -0.9752
  699TMC3    C210385   4.433   1.357  13.188  0.0009  0.9017  0.2519
  699TMC3    C310386   4.381   1.331  13.310 -0.0326  0.1792 -0.5265
  699TMC3    C410387   4.463   1.582  13.255 -0.0674 -0.0064 -0.0367
  699TMC3    C510388   4.413   1.550  13.383 -0.2191  0.5116 -0.3132
  699TMC3    C610389   4.370   1.418  13.411 -0.1272 -0.5829  0.1753
  699TMC3     C10390   4.498   1.519  13.025  0.5698  0.1020  0.1185
  699TMC3     O10391   4.441   1.621  12.986 -0.3519 -0.1702  0.1593
  699TMC3     H10392   4.413   1.286  13.108  0.5748  2.9432 -1.7116
  699TMC3    H110393   4.490   1.685  13.234  0.0230 -0.0089  0.0662
  699TMC3    H210394   4.327   1.381  13.504 -2.7471  2.6721  0.2728
  699TMC3    C710395   4.397   1.659  13.478 -0.6480  0.1891 -0.2555
  699TMC3    C810396   4.341   1.196  13.339 -0.0944 -0.6865  0.8307
  699TMC3    O110397   4.402   1.777  13.441 -0.1255 -0.1559 -0.3864
  699TMC3    O210398   4.258   1.174  13.431 -0.4520 -0.1773 -0.1422
  700TMC3    C110399   3.189   4.263  17.181 -0.3983 -0.0341 -0.1659
  700TMC3    C210400   3.212   4.126  17.177  0.2612  0.8481  0.4032
  700TMC3    C310401   3.329   4.082  17.238  0.2130 -0.1566 -0.7867
  700TMC3    C410402   3.279   4.352  17.235 -0.5752  0.3563 -0.2687
  700TMC3    C510403   3.409   4.305  17.272  0.1714 -0.3809  0.0858
  700TMC3    C610404   3.430   4.170  17.284 -0.8134  0.1116 -0.2636
  700TMC3     C10405   3.122   4.323  17.068  0.3708 -0.4641 -0.1839
  700TMC3     O10406   3.019   4.387  17.092 -0.1117 -0.3025  0.6483
  700TMC3     H10407   3.146   4.053  17.130  0.2154  1.8796 -1.1209
  700TMC3    H110408   3.246   4.454  17.223  0.0232  0.7493  1.4830
  700TMC3    H210409   3.528   4.137  17.317  0.9231  4.2825 -1.1463
  700TMC3    C710410   3.530   4.386  17.272 -0.2082 -0.0829 -0.3347
  700TMC3    C810411   3.360   3.934  17.241  0.5987 -0.1572 -0.1643
  700TMC3    O110412   3.633   4.338  17.320  0.1330 -0.3111 -0.1556
  700TMC3    O210413   3.479   3.910  17.240  0.6678  0.2336  0.3331
  701TMC3    C110414   2.735   3.515  14.893 -0.4155  0.4427 -0.2072
  701TMC3    C210415   2.811   3.437  14.811  0.5257  0.0083  0.1596
  701TMC3    C310416   2.777   3.304  14.794 -0.1287  0.1202 -0.0312
  701TMC3    C410417   2.629   3.461  14.959 -0.0330  0.5164 -0.1254
  701TMC3    C510418   2.593   3.329  14.939  0.4987 -0.1529 -0.4410
  701TMC3    C610419   2.678   3.247  14.870  0.8903  0.0246  0.4748
  701TMC3     C10420   2.819   3.590  14.986 -0.1561  0.2176 -0.2970
  701TMC3     O10421   2.797   3.572  15.104  0.0803  0.0034  0.4179
  701TMC3     H10422   2.909   3.474  14.780  0.1392  0.5812 -0.3771
  701TMC3    H110423   2.569   3.519  15.028  0.2533  0.8320 -0.1425
  701TMC3    H210424   2.652   3.142  14.855  1.7717  0.0402 -1.1921
  701TMC3    C710425   2.553   3.268  15.062 -0.1269 -0.5256 -0.5818
  701TMC3    C810426   2.862   3.232  14.698  0.4867  0.3747  0.5099
  701TMC3    O110427   2.474   3.175  15.067  0.1670 -0.1037  0.0840
  701TMC3    O210428   2.914   3.296  14.610  0.2912 -0.3567  0.3355
  702MPD2     C10429   3.029   4.299  10.810  0.8195  1.2016  0.2275
  702MPD2    C110430   2.900   4.348  10.796 -0.5920  0.0156  0.9649
  702MPD2    C210431   2.885   4.455  10.712 -0.5492  1.0013  0.1170
  702MPD2    C310432   2.983   4.507  10.640  0.8114 -0.6620 -0.2076
  702MPD2    C410433   3.108   4.442  10.642 -0.4020 -0.0557 -0.5249
  702MPD2    C510434   3.135   4.345  10.733  0.1949 -0.3272 -0.2023
  702MPD2     H10435   2.784   4.495  10.713 -1.0411 -0.2586  0.9456
  702MPD2    H110436   3.191   4.479  10.582  1.0306 -1.0450  0.8421
  702MPD2    H210437   3.046   4.214  10.875  0.2520 -1.6287 -3.3774
  702MPD2    H310438   3.236   4.306  10.739  0.1353 -0.1821  1.9716
  702MPD2     N10439   2.970   4.620  10.546 -0.1125 -0.0032 -0.1566
  702MPD2    H510440   3.047   4.647  10.486 -0.6364 -1.2685 -1.3954
  702MPD2    N110441   2.791   4.295  10.869 -0.5183  1.2109  0.7823
  702MPD2    H710442   2.701   4.341  10.858 -1.3781 -0.7589 -0.4761
  703TMC3    C110443   2.833   0.022  10.396 -0.0066  0.3077  0.4750
  703TMC3    C210444   2.703   0.070  10.379  0.1829  0.0821 -0.4348
  703TMC3    C310445   2.675   0.162  10.281  0.0806  0.5859  0.1594
  703TMC3    C410446   2.933   0.053  10.308  0.4436  0.7339 -0.0953
  703TMC3    C510447   2.891   0.147  10.209 -0.5433  0.1982  0.3666
  703TMC3    C610448   2.769   0.206  10.193  0.1981  0.6134  0.3891
  703TMC3     C10449   2.851   4.686  10.529 -0.1602  0.0010  0.3438
  703TMC3     O10450   2.750   4.685  10.600 -0.0434 -0.0728  0.0094
  703TMC3     H10451   2.632   0.044  10.457  1.6704 -1.8552  0.2502
  703TMC3    H110452   3.031   0.010  10.324  0.4382  1.0201  0.6886
  703TMC3    H210453   2.744   0.279  10.117  1.2600  1.1906  0.5830
  703TMC3    C710454   3.002   0.236  10.157 -0.3210 -0.0283  0.3291
  703TMC3    C810455   2.579   0.256  10.319  0.1085  0.0013  0.4585
  703TMC3    O110456   2.972   0.352  10.121  0.0965  0.3521 -0.0707
  703TMC3    O210457   2.639   0.357  10.345 -0.0514 -0.0192  0.6128
  704TMC3    C110458   0.851   2.992  12.008  0.7444 -0.5282 -0.6152
  704TMC3    C210459   0.882   2.929  11.889 -0.1268 -0.1336 -0.5649
  704TMC3    C310460   0.995   2.850  11.890 -0.1088  0.0102  0.3600
  704TMC3    C410461   0.931   2.987  12.119 -0.9918  0.2086 -0.2607
  704TMC3    C510462   1.054   2.928  12.106  0.2631 -0.5132  0.8288
  704TMC3    C610463   1.088   2.862  11.995 -0.2444  0.4134  0.3465
  704TMC3     C10464   0.716   3.023  12.040 -0.2802  0.2617 -0.4206
  704TMC3     O10465   0.681   3.037  12.158 -1.0119 -0.2656 -0.1265
  704TMC3     H10466   0.808   2.909  11.811 -1.1583  1.6503 -0.0444
  704TMC3    H110467   0.894   3.020  12.215  0.4942 -0.4625  0.5528
  704TMC3    H210468   1.180   2.805  11.990 -0.0055  0.6332  2.2175
  704TMC3    C710469   1.113   2.874  12.228  0.2321  0.7309  0.1274
  704TMC3    C810470   0.994   2.716  11.846 -0.0519 -0.3958 -0.5003
  704TMC3    O110471   1.033   2.850  12.322 -0.1124  0.1423  0.6290
  704TMC3    O210472   1.045   2.632  11.917  0.0758  0.2238 -0.4030
  705MPD2     C10473   4.599   1.980  16.881 -0.4477  0.7667  0.4642
  705MPD2    C110474   4.564   1.896  16.779 -0.3705  0.4362 -0.3193
  705MPD2    C210475   4.440   1.837  16.778 -0.6253  0.4507 -0.2255
  705MPD2    C310476   4.345   1.872  16.871  0.3601  0.6463  0.4251
  705MPD2    C410477   4.386   1.944  16.983  0.5078 -0.7453 -0.3829
  705MPD2    C510478   4.520   1.982  16.991  0.3346 -0.1316 -0.0389
  705MPD2     H10479   4.432   1.773  16.691  2.1623  1.3776 -1.1622
  705MPD2    H110480   4.320   1.969  17.065  1.6818  2.3533 -0.3932
  705MPD2    H210481   4.691   2.038  16.881  0.4751 -0.7227 -0.6711
  705MPD2    H310482   4.540   2.052  17.071  2.6366 -0.7069 -0.1096
  705MPD2     N10483   4.208   1.832  16.869 -0.1252  0.2091 -0.5559
  705MPD2    H510484   4.139   1.864  16.937  0.4320 -2.1633  1.1399
  705MPD2    N110485   4.650   1.871  16.671  0.2522 -0.4409  0.7865
  705MPD2    H710486   4.627   1.786  16.619 -0.5043  0.0444  0.3335
  706TMC3    C110487   0.213   1.688  16.451  0.1243 -0.2029 -0.2998
  706TMC3    C210488   0.223   1.750  16.331  0.2920  1.4114 -0.5410
  706TMC3    C310489   0.181   1.880  16.311  0.4161 -0.3012  0.3927
  706TMC3    C410490   0.138   1.748  16.551  0.1642 -0.3601 -0.5206
  706TMC3    C510491   0.095   1.878  16.529  0.0631 -0.3108 -0.1075
  706TMC3    C610492   0.128   1.945  16.416 -0.2427 -0.2651  0.7345
  706TMC3     C10493   0.283   1.563  16.482  0.8188  0.4743 -0.5747
  706TMC3     O10494   0.265   1.527  16.597 -0.0852  0.1434 -0.2463
  706TMC3     H10495   0.294   1.700  16.265  1.3494  0.1684  1.5487
  706TMC3    H110496   0.116   1.694  16.643 -2.1584  1.6571  0.1067
  706TMC3    H210497   0.093   2.047  16.409 -0.5692 -0.3700  0.8573
  706TMC3    C710498   0.016   1.944  16.630  0.4177  0.3021  0.6396
  706TMC3    C810499   0.262   1.964  16.220  0.2501  0.0220  0.7442
  706TMC3    O110500   0.052   2.053  16.664 -0.7869  0.4065  0.3047
  706TMC3    O210501   0.285   1.916  16.108  0.8917 -0.8747  0.2177
  707TMC3    C110502   2.592   1.244   1.589  0.6505  0.0112  0.0929
  707TMC3    C210503   2.718   1.220   1.540  0.3437 -0.0166 -0.0391
  707TMC3    C310504   2.752   1.087   1.528 -0.5233  0.5171  0.2839
  707TMC3    C410505   2.504   1.158   1.653  0.5966  0.8640 -0.8549
  707TMC3    C510506   2.557   1.030   1.649  0.2107 -0.5665 -0.2852
  707TMC3    C610507   2.678   0.990   1.589  0.2795 -0.2484  0.4067
  707TMC3     C10508   2.538   1.372   1.553 -0.0992  0.2424 -0.3312
  707TMC3     O10509   2.603   1.470   1.584  0.5051  0.3114 -0.0212
  707TMC3     H10510   2.772   1.298   1.487 -0.3613  0.8182  0.4641
  707TMC3    H110511   2.399   1.173   1.673  0.7677 -1.8911  2.2275
  707TMC3    H210512   2.704   0.886   1.580 -0.0394 -0.2622 -0.2861
  707TMC3    C710513   2.471   0.917   1.681 -0.2787  0.2829  0.3751
  707TMC3    C810514   2.886   1.064   1.486  0.2045 -1.2490 -0.5512
  707TMC3    O110515   2.492   0.814   1.613 -0.4887  0.9349  0.2995
  707TMC3    O210516   2.972   1.154   1.492  0.1091  0.4369  0.7984
  708MPD2     C10517   3.531   4.333  13.856 -0.1939  0.1390 -0.3411
  708MPD2    C110518   3.474   4.453  13.884 -0.7515 -0.1049 -0.1954
  708MPD2    C210519   3.441   4.483  14.017 -0.4050 -0.3144  0.6691
  708MPD2    C310520   3.453   4.388  14.116  0.2245  0.2902 -0.2176
  708MPD2    C410521   3.493   4.261  14.078  0.0656  0.5360 -0.0975
  708MPD2    C510522   3.535   4.236  13.949  0.2095  0.1334  0.4291
  708MPD2     H10523   3.401   4.581  14.042 -1.4421  0.3689 -3.7250
  708MPD2    H110524   3.511   4.181  14.149  0.1908 -0.1220 -0.8737
  708MPD2    H210525   3.562   4.301  13.758 -2.2532  0.0041 -0.9417
  708MPD2    H310526   3.560   4.135  13.920  2.2401  0.7115  0.1870
  708MPD2     N10527   3.435   4.421  14.249 -0.4647  0.6152  0.6264
  708MPD2    H510528   3.418   4.518  14.274 -1.9937  0.2150  1.1427
  708MPD2    N110529   3.464   4.545  13.778  0.3352 -0.0861 -0.6108
  708MPD2    H710530   3.461   4.505  13.685 -1.8196  1.4644 -1.1958
  709TMC3    C110531   3.372   0.010  13.699 -0.0656 -0.2330  0.2994
  709TMC3    C210532   3.348   4.676  13.582  0.0479 -0.2504 -0.2319
  709TMC3    C310533   3.222   4.689  13.536 -0.0619 -0.6430 -0.4079
  709TMC3    C410534   3.282   0.090  13.760 -0.5884  0.6408 -0.5393
  709TMC3    C510535   3.151   0.086  13.723  0.3492  0.0768  0.3976
  709TMC3    C610536   3.127   0.020  13.605  0.0751 -0.3782  0.6397
  709TMC3     C10537   3.448   4.679  13.799  0.1303  0.3304 -0.1410
  709TMC3     O10538   3.469   0.001  13.906 -0.1798 -0.3038 -0.0432
  709TMC3     H10539   3.419   4.606  13.540 -0.9605  0.5756 -3.2646
  709TMC3    H110540   3.309   0.139  13.853 -1.4177 -2.3154  1.2196
  709TMC3    H210541   3.023   0.013  13.573  0.5001 -1.5976 -0.4604
  709TMC3    C710542   3.093   0.042  13.848 -0.5508  0.1366 -0.1104
  709TMC3    C810543   3.174   4.607  13.425 -0.1569 -0.4859  0.4941
  709TMC3    O110544   3.109   4.660  13.873 -0.3705 -0.3635 -0.4973
  709TMC3    O210545   3.059   4.567  13.426  0.2547 -0.2671 -0.4782
  710TMC3    C110546   4.440   1.790   0.391  0.0616  0.0654 -0.4691
  710TMC3    C210547   4.466   1.727   0.273 -0.0179  0.5092 -0.5911
  710TMC3    C310548   4.568   1.638   0.272  0.4093  0.8586  0.6441
  710TMC3    C410549   4.511   1.772   0.498 -0.8755 -0.4059 -0.1124
  710TMC3    C510550   4.616   1.684   0.492 -0.2516 -0.2321 -0.0004
  710TMC3    C610551   4.657   1.622   0.375 -0.1244  0.3632 -0.0581
  710TMC3     C10552   4.314   1.868   0.407  0.7837 -0.3919  0.6845
  710TMC3     O10553   4.220   1.836   0.335 -0.2625 -0.1710  0.5022
  710TMC3     H10554   4.392   1.725   0.194 -0.4417 -0.4923 -0.1756
  710TMC3    H110555   4.488   1.803   0.599  0.7944 -0.6332  0.3258
  710TMC3    H210556   0.002   1.554   0.363 -0.1343  0.5956 -1.4939
  710TMC3    C710557   4.656   1.628   0.620 -0.2162  0.0108  0.3300
  710TMC3    C810558   4.596   1.576   0.155 -0.1455 -0.3876 -0.0026
  710TMC3    O110559   4.565   1.603   0.699  0.1145 -0.3255  0.8191
  710TMC3    O210560   4.593   1.655   0.062 -0.0402 -0.6036 -0.0696
  711TMC3    C110561   4.011   2.480  14.930 -0.3471 -0.1451  0.4904
  711TMC3    C210562   4.043   2.555  15.039 -0.0338  0.1145 -0.2813
  711TMC3    C310563   4.176   2.576  15.069 -0.6241  0.1769 -0.7301
  711TMC3    C410564   4.109   2.404  14.866 -0.0079 -0.8391  0.1123
  711TMC3    C510565   4.240   2.426  14.898 -0.0624  0.0928 -1.3615
  711TMC3    C610566   4.272   2.515  14.995 -0.4695  0.8699  0.0440
  711TMC3     C10567   3.879   2.424  14.917 -0.0318  0.3949  0.5840
  711TMC3     O10568   3.884   2.312  14.860  0.0347  0.2023 -0.5591
  711TMC3     H10569   3.967   2.609  15.093  0.6950  1.6754 -0.8380
  711TMC3    H110570   4.092   2.352  14.773 -1.5379 -1.2907  0.6476
  711TMC3    H210571   4.376   2.530  15.021  0.2740 -2.2286 -1.1222
  711TMC3    C710572   4.303   2.301  14.933 -0.9716  0.4199  0.4243
  711TMC3    C810573   4.201   2.619  15.204  0.7036  0.0273  0.2147
  711TMC3    O110574   4.367   2.306  15.035 -0.5392  0.8888 -0.0958
  711TMC3    O210575   4.110   2.655  15.279 -0.5404 -0.0350  0.9350
  712MPD2     C10576   1.284   2.544  13.569  0.4677  0.4202  0.0546
  712MPD2    C110577   1.173   2.615  13.541 -0.1905 -0.1054 -0.2425
  712MPD2    C210578   1.181   2.751  13.558 -0.6369 -0.5051 -0.1575
  712MPD2    C310579   1.291   2.825  13.595 -0.0202 -0.4191 -0.3215
  712MPD2    C410580   1.408   2.754  13.607  0.8819  0.4818 -0.2778
  712MPD2    C510581   1.398   2.614  13.601  0.2001 -0.0347  0.3203
  712MPD2     H10582   1.089   2.800  13.529 -0.4613  0.0748  0.2923
  712MPD2    H110583   1.506   2.797  13.626  1.5741 -0.2228 -2.2002
  712MPD2    H210584   1.289   2.436  13.568  0.4263  0.4009  1.7161
  712MPD2    H310585   1.488   2.559  13.628  0.2936  0.4839  1.0707
  712MPD2     N10586   1.291   2.966  13.617 -0.3299 -0.1594  0.5547
  712MPD2    H510587   1.380   3.012  13.637 -0.5934  0.0861  1.1571
  712MPD2    N110588   1.043   2.567  13.496  0.3693 -0.0102  0.7731
  712MPD2    H710589   0.963   2.629  13.493 -0.9813 -1.8123 -0.7443
  713TMC3    C110590   1.206   3.185  13.659  0.3531  0.7341  0.0120
  713TMC3    C210591   1.333   3.241  13.665 -1.0326  0.0048 -1.0368
  713TMC3    C310592   1.341   3.374  13.694  0.5733  0.0211 -0.4643
  713TMC3    C410593   1.093   3.266  13.659 -0.0497 -0.2651 -0.6137
  713TMC3    C510594   1.112   3.400  13.683  0.0195  0.4658 -0.4539
  713TMC3    C610595   1.233   3.460  13.704  0.8516  0.9395 -0.0849
  713TMC3     C10596   1.173   3.043  13.619  0.3828  0.1643  0.0207
  713TMC3     O10597   1.058   3.007  13.590 -0.1085 -0.2212  0.3103
  713TMC3     H10598   1.429   3.192  13.650 -1.8070 -1.7881 -0.1010
  713TMC3    H110599   0.995   3.223  13.640 -0.8066  0.5200  1.5487
  713TMC3    H210600   1.237   3.565  13.731 -0.1763  1.6372 -2.6979
  713TMC3    C710601   0.997   3.482  13.718 -0.7798 -0.7126 -0.3907
  713TMC3    C810602   1.470   3.441  13.652 -0.6137  0.0765  0.4791
  713TMC3    O110603   1.011   3.564  13.808 -0.4727  0.4035  0.4910
  713TMC3    O210604   1.456   3.549  13.593  0.1309 -0.0710  0.0172
  714MPD2     C10605   3.029   2.680   1.399 -0.4029 -0.3374  0.8570
  714MPD2    C110606   3.025   2.587   1.288  0.5438  0.6078  0.0947
  714MPD2    C210607   2.901   2.587   1.217 -0.2963  0.5613 -0.4311
  714MPD2    C310608   2.803   2.680   1.236  0.2229  0.4697  0.0040
  714MPD2    C410609   2.815   2.767   1.337 -0.2415  0.6566  0.0520
  714MPD2    C510610   2.929   2.768   1.418  0.0856  0.0900 -0.0113
  714MPD2     H10611   2.890   2.517   1.135 -1.9225  1.3009 -0.8408
  714MPD2    H110612   2.737   2.839   1.358 -0.6910  0.7338 -1.8352
  714MPD2    H210613   3.121   2.680   1.457 -0.6393  1.5765  1.2345
  714MPD2    H310614   2.944   2.832   1.505 -2.0742 -1.1711  1.2812
  714MPD2     N10615   2.682   2.677   1.166  0.1784  0.3497 -0.1352
  714MPD2    H510616   2.678   2.614   1.086 -1.0577 -1.4629  1.3503
  714MPD2    N110617   3.135   2.502   1.262 -0.0405  0.0213 -0.1322
  714MPD2    H710618   3.219   2.512   1.319  0.5275 -2.1340 -0.6290
  715TMC3    C110619   3.284   2.370   1.145  0.3730 -0.5753 -0.0763
  715TMC3    C210620   3.293   2.259   1.062  0.4830 -0.1878 -0.5725
  715TMC3    C310621   3.408   2.184   1.071 -0.3965 -0.0540  0.9255
  715TMC3    C410622   3.389   2.404   1.226 -1.1799  0.6234 -0.1074
  715TMC3    C510623   3.493   2.319   1.233  0.0474 -0.2707 -0.6360
  715TMC3    C610624   3.514   2.217   1.153  0.2409  0.3912 -0.2912
  715TMC3     C10625   3.151   2.428   1.150  0.7286 -0.1160  0.2752
  715TMC3     O10626   3.076   2.386   1.065  0.4058  0.8444 -0.2831
  715TMC3     H10627   3.203   2.221   1.016  0.6827  0.3963 -1.4597
  715TMC3    H110628   3.381   2.493   1.287  0.1918  0.6776  0.0022
  715TMC3    H210629   3.620   2.200   1.142 -0.5824 -2.5925 -3.4769
  715TMC3    C710630   3.602   2.346   1.328  0.3111 -0.5169  0.1021
  715TMC3    C810631   3.414   2.068   0.983  0.3203  0.2893  0.0695
  715TMC3    O110632   3.712   2.298   1.307  0.3847 -0.0485  0.0697
  715TMC3    O210633   3.331   2.049   0.895  0.1301  0.2467  0.1170
  716MPD2     C10634   2.351   4.505   9.985 -0.3069  0.5296  0.6080
  716MPD2    C110635   2.436   4.520   9.873  0.0275 -0.4139 -0.1270
  716MPD2    C210636   2.554   4.449   9.867  0.1361 -0.1851 -0.8387
  716MPD2    C310637   2.598   4.372   9.968  0.2702  0.0301 -0.9626
  716MPD2    C410638   2.522   4.377  10.083 -0.1085 -0.3336 -0.4749
  716MPD2    C510639   2.402   4.438  10.089  0.3056 -0.1315  0.3705
  716MPD2     H10640   2.616   4.460   9.779  0.7385 -0.1104 -0.3973
  716MPD2    H110641   2.564   4.339  10.175 -0.8733 -1.4032 -0.5556
  716MPD2    H210642   2.257   4.557  10.001  0.2972  1.5154  0.9338
  716MPD2    H310643   2.340   4.430  10.177 -0.0702 -0.2011  0.0975
  716MPD2     N10644   2.723   4.312   9.950 -0.4186 -0.1871 -0.3020
  716MPD2    H510645   2.754   4.311   9.853 -1.6714  2.2085 -0.7178
  716MPD2    N110646   2.391   4.600   9.768  0.0690  0.3342 -0.4041
  716MPD2    H710647   2.306   4.654   9.778 -0.8723 -0.7483 -2.4257
  717TMC3    C110648   2.913   4.220   9.989 -0.1289 -0.4197  1.2879
  717TMC3    C210649   2.931   4.273   9.865 -0.1185 -0.6162  0.9444
  717TMC3    C310650   2.968   4.195   9.754  0.3236  0.2843  0.5317
  717TMC3    C410651   2.948   4.084  10.010 -0.2590  0.1658  0.1826
  717TMC3    C510652   2.977   4.011   9.896  0.1239  0.2637 -0.2782
  717TMC3    C610653   2.999   4.064   9.771  0.5560 -0.2658 -0.3357
  717TMC3     C10654   2.800   4.270  10.055 -0.4180  0.1172 -0.0203
  717TMC3     O10655   2.769   4.255  10.173 -0.1112 -0.0629 -0.1403
  717TMC3     H10656   2.928   4.381   9.852  1.4361 -0.8322 -1.3539
  717TMC3    H110657   2.926   4.040  10.106  0.6500  1.9480  1.2192
  717TMC3    H210658   3.005   4.006   9.680 -1.1772  0.5159 -0.9378
  717TMC3    C710659   3.024   3.875   9.911 -0.9538  0.2827  0.3116
  717TMC3    C810660   2.884   4.236   9.644 -0.0035 -0.1417  0.0536
  717TMC3    O110661   3.075   3.833   9.813  0.6268  0.2037 -0.3380
  717TMC3    O210662   2.792   4.310   9.674  0.0633  0.1510 -0.2774
  718MPD2     C10663   2.378   3.493  12.327  0.3594 -0.5946 -0.2622
  718MPD2    C110664   2.297   3.391  12.275  1.2000 -0.0057  0.1615
  718MPD2    C210665   2.308   3.264  12.324  0.2201  0.3803  0.5629
  718MPD2    C310666   2.405   3.232  12.416 -0.0951 -0.8100 -0.9297
  718MPD2    C410667   2.484   3.329  12.465  0.1326  0.1219  0.9536
  718MPD2    C510668   2.474   3.460  12.423 -0.2915 -0.0216 -0.0478
  718MPD2     H10669   2.251   3.183  12.281  1.2341 -0.1435  0.2114
  718MPD2    H110670   2.576   3.312  12.520  1.2366  0.6139 -0.7466
  718MPD2    H210671   2.363   3.597  12.299 -1.9477 -0.6813  0.6602
  718MPD2    H310672   2.536   3.534  12.474  1.8284 -1.6691 -0.2293
  718MPD2     N10673   2.429   3.095  12.452  0.4843 -0.0606 -0.7200
  718MPD2    H510674   2.367   3.024  12.417 -0.2975 -0.0372  0.6292
  718MPD2    N110675   2.219   3.424  12.163  0.4009 -0.1455  0.8025
  718MPD2    H710676   2.243   3.511  12.115  1.3312 -0.7936  0.0967
  719TMC3    C110677   2.147   3.363  11.956  0.4469  0.7783 -0.0875
  719TMC3    C210678   2.104   3.254  11.889 -0.0870 -0.3055  0.8253
  719TMC3    C310679   2.181   3.188  11.802  0.8816 -0.4776 -0.3620
  719TMC3    C410680   2.268   3.421  11.923  0.9799 -0.6305  0.2497
  719TMC3    C510681   2.348   3.353  11.830  0.0937 -0.3613 -0.5769
  719TMC3    C610682   2.305   3.245  11.760  0.1951  0.5141 -0.1069
  719TMC3     C10683   2.127   3.339  12.097  0.3171 -0.1994  0.0727
  719TMC3     O10684   2.075   3.237  12.138 -0.5094 -0.0518 -0.5716
  719TMC3     H10685   2.013   3.211  11.928 -0.9751  1.1964  0.3902
  719TMC3    H110686   2.301   3.519  11.955 -2.2889 -0.0751  1.9338
  719TMC3    H210687   2.362   3.197  11.681 -1.6786  1.1230 -1.8358
  719TMC3    C710688   2.471   3.333  11.911  0.3901  0.0530 -0.4387
  719TMC3    C810689   2.214   3.055  11.831 -0.2580 -0.3745  0.1241
  719TMC3    O110690   2.523   3.432  11.963 -0.2618  0.0322  0.2672
  719TMC3    O210691   2.325   3.011  11.801  0.6015 -0.3620 -0.0207
  720MPD2     C10692   0.435   0.242  13.705  1.0522 -0.5544 -0.3550
  720MPD2    C110693   0.530   0.290  13.616  0.0562  0.3517 -0.7553
  720MPD2    C210694   0.666   0.250  13.632 -0.1241  0.6095 -0.4766
  720MPD2    C310695   0.699   0.174  13.746  0.0271 -0.5346  0.3022
  720MPD2    C410696   0.595   0.142  13.837 -0.2599  0.6085  0.2997
  720MPD2    C510697   0.467   0.172  13.809  0.2774 -0.9069 -0.4497
  720MPD2     H10698   0.743   0.282  13.564  0.6256 -0.6551 -0.2231
  720MPD2    H110699   0.618   0.086  13.927  1.9900  1.0183 -0.0250
  720MPD2    H210700   0.328   0.255  13.694  1.3900  3.6188  1.2014
  720MPD2    H310701   0.394   0.145  13.884 -0.9111  0.5781 -1.0755
  720MPD2     N10702   0.833   0.124  13.770 -0.8052  0.4614 -0.6695
  720MPD2    H510703   0.838   0.052  13.841 -0.6587  0.7183 -0.4165
  720MPD2    N110704   0.486   0.355  13.502  0.2783 -0.0574 -0.8403
  720MPD2    H710705   0.547   0.374  13.423  1.9729  1.4598  0.8529
  721TMC3    C110706   1.061   0.106  13.765 -0.2004  0.3359  0.1287
  721TMC3    C210707   1.066   4.706  13.779  0.1913 -0.1363  0.0638
  721TMC3    C310708   1.171   4.655  13.852  0.3812  0.1241  0.2163
  721TMC3    C410709   1.173   0.181  13.784 -0.0822  0.0739 -0.2514
  721TMC3    C510710   1.285   0.115  13.844  0.6463 -0.0418  0.4974
  721TMC3    C610711   1.280   4.722  13.888  0.2219  0.6666 -0.0672
  721TMC3     C10712   0.947   0.166  13.702  0.3268  0.2764 -0.1375
  721TMC3     O10713   0.963   0.257  13.620 -0.0782  0.2070 -0.3088
  721TMC3     H10714   0.987   4.641  13.742 -1.1301  1.7772 -0.4612
  721TMC3    H110715   1.174   0.288  13.771 -0.5377  0.0141 -0.7730
  721TMC3    H210716   1.369   4.673  13.927 -1.0795 -1.1830  0.5816
  721TMC3    C710717   1.384   0.204  13.906  0.4432 -0.0928  0.5916
  721TMC3    C810718   1.154   4.514  13.884  0.7385  0.0904  0.7217
  721TMC3    O110719   1.396   0.310  13.843  0.3953  0.4880 -0.0926
  721TMC3    O210720   1.082   4.453  13.808  0.2119 -0.2241 -0.4149
  722MPD2     C10721   0.075   3.308  12.795  0.6824  0.1003 -0.4478
  722MPD2    C110722   0.073   3.447  12.802 -0.1931 -0.5299  0.1140
  722MPD2    C210723   4.734   3.524  12.714  0.2160  0.9899  0.0945
  722MPD2    C310724   4.648   3.454  12.626 -0.0167  0.5366  0.1060
  722MPD2    C410725   4.654   3.313  12.619  0.0453  0.5488  0.4736
  722MPD2    C510726   0.001   3.248  12.705  0.0560 -0.3805  0.1192
  722MPD2     H10727   4.723   3.630  12.733 -0.0764  0.8889  0.5067
  722MPD2    H110728   4.582   3.259  12.557  0.2474 -0.5739  1.2198
  722MPD2    H210729   0.117   3.231  12.859 -2.4893  0.5335  2.1442
  722MPD2    H310730   0.019   3.142  12.694  0.8320 -0.3788  1.3851
  722MPD2     N10731   4.566   3.537  12.548 -0.4709 -0.0005  0.5819
  722MPD2    H510732   4.554   3.626  12.594 -1.0328  0.4383 -0.4168
  722MPD2    N110733   0.144   3.510  12.911 -1.1874 -0.2834  0.1733
  722MPD2    H710734   0.178   3.605  12.901  1.0710 -1.3162 -1.9396
  723TMC3    C110735   4.367   3.571  12.444 -0.2447 -0.0478  0.1197
  723TMC3    C210736   4.250   3.505  12.464  0.4696  0.2986 -0.3130
  723TMC3    C310737   4.147   3.573  12.518 -0.2912  0.5250  0.4829
  723TMC3    C410738   4.383   3.702  12.477 -0.2425 -0.6874  0.1105
  723TMC3    C510739   4.273   3.775  12.523 -0.4682  0.0367  0.7430
  723TMC3    C610740   4.158   3.703  12.550  0.2007  0.0683  0.2293
  723TMC3     C10741   4.482   3.492  12.446 -0.2948  0.1941 -0.4072
  723TMC3     O10742   4.488   3.388  12.379 -0.5334  0.0795 -0.0351
  723TMC3     H10743   4.250   3.398  12.453  0.3215  0.1579  1.1296
  723TMC3    H110744   4.476   3.756  12.461 -2.2077  1.9439 -2.3839
  723TMC3    H210745   4.064   3.754  12.570  0.4459  0.4181  0.4854
  723TMC3    C710746   4.291   3.903  12.574  0.2339 -1.0066  0.1822
  723TMC3    C810747   4.024   3.500  12.544  0.1262  0.4289 -0.4284
  723TMC3    O110748   4.395   3.952  12.539  0.0673  0.1253  0.8332
  723TMC3    O210749   3.916   3.563  12.549 -0.1456 -0.1183  0.0904
  724TMC3    C110750   4.691   1.163  10.227 -0.5898  0.0138 -1.0029
  724TMC3    C210751   0.013   1.210  10.113  0.2906  0.4988 -0.1742
  724TMC3    C310752   0.046   1.344  10.117  0.2216  0.5887 -0.5722
  724TMC3    C410753   4.639   1.242  10.331  0.1732  0.2931  0.7837
  724TMC3    C510754   4.652   1.374  10.317  0.5373  0.2089  0.7016
  724TMC3    C610755   4.723   1.427  10.212  0.2564  0.2278 -0.5078
  724TMC3     C10756   4.670   1.020  10.248 -0.0536  0.3863  1.5829
  724TMC3     O10757   4.615   0.992  10.352 -0.4354  0.0840  0.6553
  724TMC3     H10758   0.069   1.135  10.059 -1.6012 -1.4543  0.5722
  724TMC3    H110759   4.573   1.196  10.404 -0.7158  0.2936 -0.0112
  724TMC3    H210760   4.735   1.534  10.211 -0.4029  0.2983 -0.8182
  724TMC3    C710761   4.652   1.462  10.437  0.1497 -0.3681  0.1268
  724TMC3    C810762   0.130   1.392  10.011  0.6722 -0.2066  0.4229
  724TMC3    O110763   4.676   1.579  10.409  0.1042 -0.5476 -0.3120
  724TMC3    O210764   0.141   1.317   9.916  0.7213 -0.4214 -0.0633
  725TMC3    C110765   0.974   1.044  12.724  0.2331  0.2737  0.2980
  725TMC3    C210766   0.917   0.965  12.630  0.9218 -0.9231 -0.3220
  725TMC3    C310767   0.858   0.846  12.674  0.2167 -1.0095  0.3586
  725TMC3    C410768   0.982   1.006  12.856  0.1969  0.3929  0.5851
  725TMC3    C510769   0.921   0.888  12.888 -0.3372 -0.0919 -0.0946
  725TMC3    C610770   0.863   0.801  12.808 -0.6170  0.5616  0.6226
  725TMC3     C10771   1.015   1.176  12.685  0.3575  0.0438 -0.0544
  725TMC3     O10772   1.035   1.252  12.778 -0.2107  0.0936  0.1595
  725TMC3     H10773   0.906   0.999  12.527 -1.8127  1.1209  0.6714
  725TMC3    H110774   1.028   1.069  12.931  0.1855 -2.8257  3.3338
  725TMC3    H210775   0.830   0.705  12.844 -0.8130  0.6453  0.6646
  725TMC3    C710776   0.994   0.835  13.007 -0.1307  0.6658  0.6334
  725TMC3    C810777   0.808   0.742  12.585  0.1549  0.3904  0.3687
  725TMC3    O110778   1.010   0.912  13.102  0.2188 -0.2007 -0.0545
  725TMC3    O210779   0.734   0.656  12.634  0.3119  0.1763 -0.4675
  726MPD2     C10780   3.635   2.072   9.710 -0.2473 -0.9000  0.5224
  726MPD2    C110781   3.534   2.161   9.680  0.4230 -0.2877 -0.2400
  726MPD2    C210782   3.405   2.109   9.679 -0.8561  0.4603 -0.4884
  726MPD2    C310783   3.389   1.979   9.726 -0.0601 -1.0969  0.5484
  726MPD2    C410784   3.494   1.900   9.766 -0.9662  0.0912  0.0131
  726MPD2    C510785   3.618   1.947   9.752  0.6210 -0.2542  0.4318
  726MPD2     H10786   3.328   2.176   9.641 -1.6928  1.3122  2.6999
  726MPD2    H110787   3.480   1.797   9.798 -0.0872  0.3656  1.2721
  726MPD2    H210788   3.741   2.092   9.697 -0.6273  2.3393  2.1569
  726MPD2    H310789   3.701   1.890   9.791  1.0887 -0.6102 -1.0715
  726MPD2     N10790   3.257   1.930   9.755 -0.2675  0.0474  0.2559
  726MPD2    H510791   3.254   1.838   9.799  1.0288 -1.2018 -2.2631
  726MPD2    N110792   3.558   2.299   9.641  0.1249  0.1299 -0.1431
  726MPD2    H710793   3.479   2.356   9.613  1.0404  0.9547 -1.0415
  727TMC3    C110794   3.679   2.509   9.653  0.1692 -0.4539 -0.5201
  727TMC3    C210795   3.749   2.574   9.745  0.3403  1.0343 -0.2886
  727TMC3    C310796   3.708   2.694   9.786  0.1778 -0.3194  0.2243
  727TMC3    C410797   3.573   2.566   9.594  0.1963  0.7311  0.4056
  727TMC3    C510798   3.525   2.688   9.648 -0.2590 -0.0965  0.8296
  727TMC3    C610799   3.592   2.751   9.752  0.0720  0.2655  0.3117
  727TMC3     C10800   3.676   2.367   9.676 -0.2664  0.2758  0.2882
  727TMC3     O10801   3.775   2.325   9.732 -0.4680  0.2130 -0.3308
  727TMC3     H10802   3.841   2.528   9.779 -0.3665  0.1566  0.4450
  727TMC3    H110803   3.518   2.519   9.513  1.8548 -2.8046  1.3727
  727TMC3    H210804   3.554   2.840   9.802  0.9371 -1.7476  4.5233
  727TMC3    C710805   3.409   2.741   9.589 -0.4932  0.6977 -0.3732
  727TMC3    C810806   3.789   2.747   9.896  0.3798 -0.4290 -0.5108
  727TMC3    O110807   3.358   2.661   9.508  0.4132  0.0232  0.2536
  727TMC3    O210808   3.877   2.677   9.946 -0.2544 -0.0574 -0.9201
  728TMC3    C110809   3.684   1.013  15.343 -0.9649 -0.7857  0.5984
  728TMC3    C210810   3.801   0.999  15.276 -0.0449 -0.8386 -0.2582
  728TMC3    C310811   3.824   1.063  15.157 -0.5466 -0.0046 -0.3898
  728TMC3    C410812   3.586   1.087  15.286  0.2734 -0.1523 -0.0928
  728TMC3    C510813   3.607   1.145  15.163  0.3104  0.2528 -0.2874
  728TMC3    C610814   3.729   1.139  15.098  0.0198  0.1941 -0.0225
  728TMC3     C10815   3.664   0.945  15.466  0.4771  0.8076 -0.7471
  728TMC3     O10816   3.762   0.910  15.529  0.0978  0.0925  0.2230
  728TMC3     H10817   3.883   0.938  15.313  0.0140 -0.5818  0.0425
  728TMC3    H110818   3.485   1.084  15.324 -0.3001  0.6794 -1.5749
  728TMC3    H210819   3.734   1.157  14.991 -0.8153 -0.2698 -0.1417
  728TMC3    C710820   3.497   1.150  15.064  0.3581  0.4178 -0.2912
  728TMC3    C810821   3.916   0.999  15.061  0.3833 -0.1281  0.2759
  728TMC3    O110822   3.405   1.071  15.090  0.3065  0.4105 -0.1992
  728TMC3    O210823   3.924   1.045  14.949  0.3017 -0.0668  0.0281
  729MPD2     C10824   0.693   2.696  16.988 -0.7233  0.7647 -0.1254
  729MPD2    C110825   0.756   2.576  16.978  0.7457  0.0541 -0.2844
  729MPD2    C210826   0.865   2.552  17.058 -0.7374  0.1423  0.3021
  729MPD2    C310827   0.912   2.647  17.141 -0.1580 -0.3520 -0.0167
  729MPD2    C410828   0.833   2.756  17.161 -0.8166  0.0340 -0.1638
  729MPD2    C510829   0.729   2.782  17.085  0.4237  0.5324 -0.0219
  729MPD2     H10830   0.932   2.470  17.036  1.8599  1.3280  3.8263
  729MPD2    H110831   0.847   2.828  17.241  0.3642  0.9119 -1.1802
  729MPD2    H210832   0.608   2.710  16.922 -0.7092 -2.3267 -0.8302
  729MPD2    H310833   0.665   2.869  17.087 -1.9006 -1.1873 -0.2622
  729MPD2     N10834   1.029   2.638  17.214  0.5296 -0.6368  0.1046
  729MPD2    H510835   1.051   2.710  17.281  0.9094  1.0501 -1.8482
  729MPD2    N110836   0.711   2.488  16.875 -0.1833 -0.0486  0.2093
  729MPD2    H710837   0.643   2.533  16.814 -0.8180  0.4234  1.2691
  730TMC3    C110838   1.254   2.576  17.250 -0.1735 -0.2606 -0.3222
  730TMC3    C210839   1.364   2.596  17.173 -0.1648 -0.3791  0.2067
  730TMC3    C310840   1.455   2.688  17.208  0.4214  0.3990  0.8767
  730TMC3    C410841   1.233   2.641  17.365  0.2646 -0.0887 -0.0435
  730TMC3    C510842   1.332   2.731  17.404 -0.2809  0.8645  0.4718
  730TMC3    C610843   1.444   2.755  17.323  0.0835 -0.5352  0.0280
  730TMC3     C10844   1.133   2.562  17.164 -0.0666 -0.2129 -0.3114
  730TMC3     O10845   1.150   2.500  17.059 -0.3571  0.6357 -0.7878
  730TMC3     H10846   1.371   2.529  17.088 -1.8669 -0.6696  0.2806
  730TMC3    H110847   1.145   2.624  17.427  0.1390 -0.9440 -0.4529
  730TMC3    H210848   1.516   2.832  17.346 -0.5346 -1.1781  4.1170
  730TMC3    C710849   1.274   2.860  17.430 -0.0191  0.5654 -0.4923
  730TMC3    C810850   1.507   2.763  17.089  0.5136 -0.1354 -0.4474
  730TMC3    O110851   1.332   2.958  17.389  0.4671  0.0054  0.1523
  730TMC3    O210852   1.511   2.699  16.983 -0.0320  0.4794 -0.1029
  731MPD2     C10853   0.498   4.107  12.598  0.3120 -0.0051 -0.4072
  731MPD2    C110854   0.627   4.068  12.616  0.6247  0.4185 -0.2369
  731MPD2    C210855   0.660   4.021  12.741 -0.3987  0.3591 -0.2512
  731MPD2    C310856   0.569   4.014  12.844  0.2733  0.2947 -0.6199
  731MPD2    C410857   0.446   4.085  12.828  0.0954 -0.6023  0.3805
  731MPD2    C510858   0.409   4.117  12.700 -0.4690  0.7916 -0.3092
  731MPD2     H10859   0.761   3.997  12.773 -0.1693  0.9298 -0.5336
  731MPD2    H110860   0.372   4.109  12.904 -1.3629 -1.0047 -0.9403
  731MPD2    H210861   0.479   4.151  12.501 -2.4347  2.9742  1.4868
  731MPD2    H310862   0.313   4.161  12.677  0.5170  1.7721 -2.5770
  731MPD2     N10863   0.605   3.964  12.969  0.2596  0.3501  0.2276
  731MPD2    H510864   0.701   3.934  12.983 -0.2562 -1.3533  0.0795
  731MPD2    N110865   0.717   4.078  12.512 -0.2623  0.3282  0.1577
  731MPD2    H710866   0.689   4.121  12.425 -3.1051  0.5851  1.1961
  732TMC3    C110867   0.929   4.074  12.417 -0.2554  0.1021 -0.2895
  732TMC3    C210868   0.872   4.082  12.290  0.6888 -0.2453  0.3496
  732TMC3    C310869   0.959   4.098  12.186  0.0214  0.5086  0.2136
  732TMC3    C410870   1.065   4.094  12.444  0.6434  0.6982  0.4197
  732TMC3    C510871   1.144   4.097  12.332 -0.7647 -0.8149  0.3027
  732TMC3    C610872   1.093   4.099  12.203 -0.0312 -0.0267  0.0765
  732TMC3     C10873   0.847   4.031  12.522 -0.1720  0.0476  0.7067
  732TMC3     O10874   0.898   3.967  12.613 -0.5088 -0.2043  0.0650
  732TMC3     H10875   0.768   4.058  12.271  1.6652 -3.9701 -0.2066
  732TMC3    H110876   1.099   4.100  12.547 -2.7646  0.2063  1.5989
  732TMC3    H210877   1.151   4.079  12.114  0.0576 -0.6553  0.2709
  732TMC3    C710878   1.286   4.126  12.352 -0.3763 -0.5091  0.6447
  732TMC3    C810879   0.913   4.136  12.054  0.5078  0.0615 -0.5162
  732TMC3    O110880   1.359   4.077  12.268 -0.5060 -0.4574 -0.1966
  732TMC3    O210881   1.002   4.158  11.972 -0.0879 -0.2288 -0.2436
  733TMC3    C110882   2.473   2.707  12.667 -0.2577  0.1165  0.3320
  733TMC3    C210883   2.519   2.838  12.664  0.3880  0.1761  0.0665
  733TMC3    C310884   2.519   2.902  12.546 -0.3534  0.0570  0.5652
  733TMC3    C410885   2.430   2.646  12.551 -0.1301  0.1502  0.2593
  733TMC3    C510886   2.441   2.713  12.433 -0.4893  0.1161 -0.5271
  733TMC3    C610887   2.499   2.845  12.425  0.0149  0.0671 -0.0887
  733TMC3     C10888   2.397   2.677  12.784  0.1445 -0.1539  0.2738
  733TMC3     O10889   2.355   2.781  12.838  0.1563  1.3830 -0.5252
  733TMC3     H10890   2.554   2.884  12.756  0.4443 -0.7755  0.5282
  733TMC3    H110891   2.368   2.559  12.570 -0.8303  0.1463 -2.1350
  733TMC3    H210892   2.516   2.901  12.333 -0.3779  0.3795  0.0277
  733TMC3    C710893   2.370   2.651  12.321 -0.5571 -0.0586  0.2267
  733TMC3    C810894   2.521   3.043  12.546 -0.8978 -0.2921 -0.2972
  733TMC3    O110895   2.310   2.544  12.335  0.4623  0.1927 -0.5480
  733TMC3    O210896   2.563   3.097  12.646 -0.4567 -0.4014 -0.2534
  734MPD2     C10897   3.924   1.173  11.784 -1.0079  0.1098 -0.0007
  734MPD2    C110898   3.803   1.113  11.740  0.3219 -0.3590  0.2815
  734MPD2    C210899   3.709   1.177  11.663  0.0358 -0.0935 -0.0683
  734MPD2    C310900   3.742   1.295  11.613  0.4142 -0.4283  0.3383
  734MPD2    C410901   3.857   1.359  11.652 -0.6137 -0.0146  0.7378
  734MPD2    C510902   3.940   1.300  11.740  0.2581  0.1356 -0.2976
  734MPD2     H10903   3.622   1.125  11.625 -1.5741  2.1728  0.5152
  734MPD2    H110904   3.880   1.455  11.607  0.3076  0.3881  2.0882
  734MPD2    H210905   3.982   1.122  11.860 -1.7955 -3.4787 -1.7684
  734MPD2    H310906   4.020   1.364  11.776 -1.1399  1.9250 -0.3706
  734MPD2     N10907   3.646   1.355  11.527 -0.6567  0.1389  0.0353
  734MPD2    H510908   3.566   1.299  11.501 -0.0355 -0.2962 -0.9281
  734MPD2    N110909   3.773   0.989  11.801 -0.0459 -0.3556  0.5346
  734MPD2    H710910   3.853   0.932  11.827  0.1805  0.1594  0.9649
  735TMC3    C110911   3.608   0.817  11.870 -0.2757 -0.2933  0.5296
  735TMC3    C210912   3.473   0.793  11.875 -0.9841 -0.2870  0.0141
  735TMC3    C310913   3.429   0.673  11.825  0.3192  0.4890  0.1984
  735TMC3    C410914   3.695   0.710  11.862  0.0297 -0.1798 -0.4380
  735TMC3    C510915   3.643   0.586  11.826 -0.5464 -0.1131  1.0616
  735TMC3    C610916   3.515   0.570  11.792 -0.2139  0.0837  0.0789
  735TMC3     C10917   3.636   0.948  11.814  0.5954 -0.0026  0.3654
  735TMC3     O10918   3.532   1.003  11.780  0.2310  0.0135  0.1277
  735TMC3     H10919   3.406   0.873  11.904  0.7593  0.9590  0.6010
  735TMC3    H110920   3.802   0.726  11.871  0.1310 -0.0667 -1.9400
  735TMC3    H210921   3.486   0.475  11.748  0.2570  0.8278 -1.8668
  735TMC3    C710922   3.738   0.480  11.800  0.0864 -0.4387 -0.4635
  735TMC3    C810923   3.308   0.688  11.742  0.0472 -0.5782 -0.0920
  735TMC3    O110924   3.854   0.510  11.774  0.6057 -0.6877 -0.5732
  735TMC3    O210925   3.239   0.593  11.711 -0.4143 -0.3109 -0.2574
  736MPD2     C10926   3.734   0.127  11.917 -0.2632  0.1463  0.7824
  736MPD2    C110927   3.771   0.241  11.844 -0.4707  0.2196  0.5265
  736MPD2    C210928   3.886   0.223  11.773 -0.3032 -0.7937  0.1348
  736MPD2    C310929   3.965   0.111  11.774 -0.2581 -0.1170 -0.3658
  736MPD2    C410930   3.926   0.002  11.850  0.1953  0.6876  0.1180
  736MPD2    C510931   3.804   0.004  11.920 -0.0458 -0.6737  0.4484
  736MPD2     H10932   3.926   0.309  11.720 -0.6743 -0.0243  1.0984
  736MPD2    H110933   3.980   4.646  11.852 -0.7273  0.1116 -2.4539
  736MPD2    H210934   3.634   0.124  11.961  0.0392 -2.1736  1.3172
  736MPD2    H310935   3.779   4.658  11.983 -0.7622 -1.7518 -1.2938
  736MPD2     N10936   4.087   0.099  11.701 -0.2549 -0.6638 -0.6949
  736MPD2    H510937   4.146   0.022  11.731 -0.8707 -0.1936  1.7285
  736MPD2    N110938   3.691   0.358  11.834  0.1396 -0.6219 -0.0882
  736MPD2    H710939   3.604   0.353  11.885  0.2596 -0.7260  0.1070
  737TMC3    C110940   4.252   0.157  11.539  0.5192  0.4210 -0.5498
  737TMC3    C210941   4.295   0.247  11.444  0.0484 -0.4366  1.2770
  737TMC3    C310942   4.423   0.231  11.404 -0.0110  0.2791  0.2721
  737TMC3    C410943   4.332   0.060  11.580 -0.4349  0.5639  0.2183
  737TMC3    C510944   4.459   0.036  11.525 -0.6433 -0.4356 -0.2699
  737TMC3    C610945   4.508   0.128  11.438 -0.2628  0.2750 -0.9376
  737TMC3     C10946   4.126   0.188  11.604  0.2520 -0.0436 -0.0769
  737TMC3     O10947   4.054   0.272  11.546  0.2089  0.5970  0.1096
  737TMC3     H10948   4.231   0.320  11.396 -0.6606  0.3133  3.3824
  737TMC3    H110949   4.293   4.725  11.650  1.4142  0.2461  0.9358
  737TMC3    H210950   4.608   0.127  11.396  0.1898  1.0883  0.1153
  737TMC3    C710951   4.517   4.644  11.540  0.0641  0.1217  0.7894
  737TMC3    C810952   4.484   0.339  11.325 -0.0670  0.0441  0.1992
  737TMC3    O110953   4.475   4.582  11.637 -0.0125  0.4331 -0.1012
  737TMC3    O210954   4.604   0.361  11.344  0.1731 -0.0924 -0.0855
  738MPD2     C10955   0.112   4.408  15.054 -0.5460  0.1382 -0.0028
  738MPD2    C110956   0.067   4.339  14.952 -0.1516 -0.7501  0.4271
  738MPD2    C210957   0.137   4.349  14.836 -0.5668  0.0789  0.5049
  738MPD2    C310958   0.240   4.437  14.814  0.3628  0.0349  0.2520
  738MPD2    C410959   0.278   4.507  14.923 -0.9302  0.1407 -0.2373
  738MPD2    C510960   0.220   4.488  15.044 -0.0816 -0.0968  0.1815
  738MPD2     H10961   0.105   4.289  14.752  0.9533  0.1982 -0.1478
  738MPD2    H110962   0.375   4.555  14.920 -0.6152 -0.5054 -0.4158
  738MPD2    H210963   0.073   4.398  15.155  0.2124  0.5828  0.3315
  738MPD2    H310964   0.249   4.541  15.134  0.6017  0.7087 -0.5062
  738MPD2     N10965   0.318   4.437  14.700  0.2296  0.0212 -0.6765
  738MPD2    H510966   0.411   4.477  14.711  0.4881 -0.9554  0.7333
  738MPD2    N110967   4.694   4.254  14.949 -0.1501 -0.4312 -0.0444
  738MPD2    H710968   4.667   4.213  14.860  1.3982 -0.6199 -0.4158
  739TMC3    C110969   0.390   4.324  14.508  0.1324 -0.5029  0.1953
  739TMC3    C210970   0.359   4.279  14.380  0.7097 -0.7933  0.4697
  739TMC3    C310971   0.455   4.226  14.300 -0.5832 -0.3023 -0.4980
  739TMC3    C410972   0.516   4.302  14.566 -0.5347 -0.1745 -0.0434
  739TMC3    C510973   0.607   4.245  14.479  0.2138 -0.2854 -0.2345
  739TMC3    C610974   0.582   4.211  14.350 -0.2479  0.2631  0.2895
  739TMC3     C10975   0.281   4.376  14.584 -0.5935 -0.0584  0.1427
  739TMC3     O10976   0.175   4.342  14.536 -0.6231  0.5149 -0.4890
  739TMC3     H10977   0.262   4.285  14.333 -0.1998 -2.9390  2.0940
  739TMC3    H110978   0.546   4.332  14.665 -0.4762  1.8021 -0.6629
  739TMC3    H210979   0.653   4.150  14.296 -2.2627 -2.4389  0.6936
  739TMC3    C710980   0.729   4.172  14.532 -0.3799 -0.1230  0.1405
  739TMC3    C810981   0.401   4.146  14.193  0.3294  0.0564 -0.2729
  739TMC3    O110982   0.806   4.116  14.455  0.0803 -0.5794 -0.2477
  739TMC3    O210983   0.285   4.115  14.211  0.0188 -0.2560  0.4304
  740TMC3    C110984   0.554   0.731  14.140 -0.1126  0.2702  0.2252
  740TMC3    C210985   0.490   0.614  14.191 -0.0367  0.4703  0.1866
  740TMC3    C310986   0.482   0.504  14.104 -0.0083  0.2953 -0.9404
  740TMC3    C410987   0.602   0.741  14.010 -0.7160  0.0635  0.2366
  740TMC3    C510988   0.576   0.632  13.931  0.2034  0.2077 -0.1538
  740TMC3    C610989   0.529   0.509  13.975  0.2055  0.1232  0.3486
  740TMC3     C10990   0.548   0.858  14.213 -0.2455 -0.8983  0.4393
  740TMC3     O10991   0.621   0.945  14.170  0.5327  0.2330  0.3422
  740TMC3     H10992   0.446   0.611  14.290  0.3690  1.6352  0.3977
  740TMC3    H110993   0.641   0.834  13.969 -0.2597 -0.0023  0.5217
  740TMC3    H210994   0.509   0.433  13.901 -1.3524  0.5362  0.3375
  740TMC3    C710995   0.643   0.604  13.807 -0.7568 -0.1456 -0.2278
  740TMC3    C810996   0.457   0.375  14.165  0.3245  0.3751  0.0595
  740TMC3    O110997   0.718   0.507  13.807 -0.0566 -0.0342  0.5549
  740TMC3    O210998   0.483   0.280  14.096  0.1184 -0.2370 -0.1593
  741TMC3    C110999   4.413   0.215  13.227 -0.3355 -0.0189 -0.3731
  741TMC3    C211000   4.345   0.152  13.325 -0.1919  1.1678 -0.2318
  741TMC3    C311001   4.422   0.098  13.433 -0.0381 -0.3543 -0.0959
  741TMC3    C411002   4.546   0.198  13.208 -0.2001 -0.2428  0.9107
  741TMC3    C511003   4.614   0.134  13.311 -0.8675 -0.5465  0.8935
  741TMC3    C611004   4.556   0.092  13.427 -1.2043 -0.1862 -0.3595
  741TMC3     C11005   4.343   0.292  13.127  0.5816  0.1273 -0.3579
  741TMC3     O11006   4.400   0.295  13.016 -1.0238 -0.1771 -0.7070
  741TMC3     H11007   4.238   0.166  13.339 -0.2557 -0.2081  0.6371
  741TMC3    H111008   4.604   0.237  13.125  0.2752 -0.8858  0.9383
  741TMC3    H211009   4.614   0.046  13.507 -2.0389 -1.9811 -0.7770
  741TMC3    C711010   0.015   0.105  13.281  0.2479 -0.0771  0.2310
  741TMC3    C811011   4.357   0.023  13.539 -0.3508 -0.0177  0.5626
  741TMC3    O111012   0.060   0.131  13.170 -0.5207  0.3643  0.2062
  741TMC3    O211013   4.257   0.065  13.587  0.1187  0.5471 -0.9395
  742TMC3    C111014   0.579   3.437  15.213 -0.4918  0.3849  0.1210
  742TMC3    C211015   0.555   3.423  15.082  0.0267 -0.0043 -0.1200
  742TMC3    C311016   0.616   3.314  15.016  0.5183  0.6037 -0.8670
  742TMC3    C411017   0.650   3.346  15.283 -0.1790 -0.0330  0.7293
  742TMC3    C511018   0.712   3.248  15.218  0.0502  0.1190 -0.2007
  742TMC3    C611019   0.699   3.233  15.085  0.0009  0.7863 -0.9637
  742TMC3     C11020   0.519   3.549  15.280 -0.0287  0.4197  0.0603
  742TMC3     O11021   0.412   3.586  15.238  0.4938  0.3808  0.0857
  742TMC3     H11022   0.512   3.511  15.035  0.3183 -0.7200 -1.7264
  742TMC3    H111023   0.657   3.350  15.392  1.4714 -1.0262  0.6562
  742TMC3    H211024   0.738   3.145  15.036  0.9831  1.1457 -0.8256
  742TMC3    C711025   0.769   3.139  15.301 -1.1988  0.2051  0.3875
  742TMC3    C811026   0.568   3.276  14.881 -0.2432 -0.3235 -0.7061
  742TMC3    O111027   0.882   3.099  15.268 -0.1324  0.0304 -0.3679
  742TMC3    O211028   0.610   3.173  14.829  0.6051  0.3623  0.5538
  743MPD2     C11029   3.667   0.114   1.343 -0.8044 -0.0218  0.4555
  743MPD2    C111030   3.561   0.115   1.249 -0.0316 -0.2868 -0.3739
  743MPD2    C211031   3.600   0.123   1.112  0.1533  0.1863  0.0821
  743MPD2    C311032   3.737   0.143   1.075  0.6109  0.0253  0.6584
  743MPD2    C411033   3.834   0.135   1.175 -0.4887  0.1139  0.2704
  743MPD2    C511034   3.800   0.122   1.305  0.3727  0.0728 -0.0053
  743MPD2     H11035   3.523   0.133   1.037  0.6658 -0.6151 -0.5529
  743MPD2    H111036   3.940   0.156   1.158 -0.7369  0.1657 -1.2813
  743MPD2    H211037   3.636   0.106   1.447 -1.7590 -0.2154  0.1583
  743MPD2    H311038   3.875   0.128   1.382  0.3892  0.3181 -0.0392
  743MPD2     N11039   3.766   0.151   0.935 -0.3328  0.5088 -0.1480
  743MPD2    H511040   3.686   0.146   0.873 -0.5329 -0.9595  0.2441
  743MPD2    N111041   3.426   0.120   1.297 -0.3314 -0.5965  0.3258
  743MPD2    H711042   3.402   0.149   1.391  0.2888 -0.1660  0.3515
  744TMC3    C111043   3.193   0.114   1.274  0.3221  0.0602  0.5554
  744TMC3    C211044   3.165   0.246   1.314 -0.0087  0.8772  0.0520
  744TMC3    C311045   3.042   0.298   1.282 -0.3053  0.1588  0.2768
  744TMC3    C411046   3.091   0.042   1.217  0.8746 -0.1561  0.0418
  744TMC3    C511047   2.964   0.089   1.206  0.3115 -0.4898  0.2861
  744TMC3    C611048   2.941   0.221   1.233 -0.1722  0.3056  0.5607
  744TMC3     C11049   3.322   0.086   1.209 -0.1008 -0.2081 -0.6417
  744TMC3     O11050   3.314   0.036   1.099 -0.0616  0.5330  0.0486
  744TMC3     H11051   3.241   0.312   1.354  1.7283 -1.2618  0.2616
  744TMC3    H111052   3.114   4.685   1.169 -0.5243  0.0140 -0.9712
  744TMC3    H211053   2.841   0.257   1.212  0.1187  2.0481  2.2505
  744TMC3    C711054   2.872   0.016   1.118 -0.0889  0.1789  0.1352
  744TMC3    C811055   3.002   0.447   1.289  0.6445  0.0570  0.1829
  744TMC3    O111056   2.870   4.631   1.114 -0.3594  0.0826  0.1753
  744TMC3    O211057   2.883   0.466   1.293 -0.2184 -0.0141  0.3277
  745TMC3    C111058   0.895   2.422  13.390 -0.2213 -0.6566  0.9368
  745TMC3    C211059   0.796   2.494  13.434  1.2623  0.2629 -0.0862
  745TMC3    C311060   0.691   2.511  13.345  0.1745  0.4233 -0.5644
  745TMC3    C411061   0.897   2.360  13.268  0.6205 -0.1456 -0.0712
  745TMC3    C511062   0.797   2.383  13.179  0.0791  0.7678  0.0615
  745TMC3    C611063   0.691   2.452  13.225  0.5199  0.0820  0.8466
  745TMC3     C11064   1.019   2.432  13.462  0.0063 -0.4600 -0.2046
  745TMC3     O11065   1.091   2.329  13.464 -0.1849 -0.3493  0.2019
  745TMC3     H11066   0.791   2.536  13.534  0.2012  1.2306 -0.5514
  745TMC3    H111067   0.988   2.313  13.233  0.3710 -1.4988  1.1131
  745TMC3    H211068   0.610   2.487  13.162  0.8171 -0.3136  0.2455
  745TMC3    C711069   0.833   2.437  13.049 -0.4599  0.7875 -0.2246
  745TMC3    C811070   0.572   2.589  13.384 -0.0128 -0.4553  0.0714
  745TMC3    O111071   0.741   2.463  12.974  0.2770 -0.4433 -0.1696
  745TMC3    O211072   0.462   2.557  13.342  0.0687 -0.3540  0.4296
  746TMC3    C111073   2.523   4.359  11.152  0.2060 -0.2134 -0.2101
  746TMC3    C211074   2.635   4.342  11.072  0.0334 -0.1272  0.3334
  746TMC3    C311075   2.664   4.206  11.036 -0.5165  0.7635 -0.0846
  746TMC3    C411076   2.451   4.257  11.207  1.0622  0.3110 -0.3535
  746TMC3    C511077   2.494   4.131  11.183 -1.2186 -0.3459 -0.8885
  746TMC3    C611078   2.600   4.104  11.103  0.7472 -0.2375  0.5188
  746TMC3     C11079   2.469   4.494  11.135  0.4477 -0.2548 -0.3913
  746TMC3     O11080   2.419   4.561  11.225 -0.4154  0.2259  0.4608
  746TMC3     H11081   2.695   4.425  11.037  2.6201 -2.4352 -0.7312
  746TMC3    H111082   2.356   4.280  11.255  1.6791  1.0583  0.4983
  746TMC3    H211083   2.638   4.004  11.085 -0.8451 -0.8096  0.3645
  746TMC3    C711084   2.409   4.020  11.200 -0.5174  0.5890 -0.4470
  746TMC3    C811085   2.791   4.193  10.959 -0.0130  0.4095 -0.1206
  746TMC3    O111086   2.404   3.946  11.104  0.8183 -0.4023  0.1663
  746TMC3    O211087   2.872   4.104  10.982  0.2075  0.5464 -0.5070
  747TMC3    C111088   0.462   4.119  10.903  0.3945 -0.0269  0.3656
  747TMC3    C211089   0.338   4.172  10.912  0.0710  0.9768  0.2834
  747TMC3    C311090   0.314   4.264  11.009  0.1793  0.2892  0.6771
  747TMC3    C411091   0.559   4.148  10.995 -0.2517 -0.6775 -0.3166
  747TMC3    C511092   0.533   4.240  11.093 -0.3465  0.3131  0.5585
  747TMC3    C611093   0.414   4.309  11.103 -0.0673 -0.2819  0.0058
  747TMC3     C11094   0.489   4.031  10.797 -0.0485  0.4894 -0.8831
  747TMC3     O11095   0.391   4.002  10.731  0.0029  0.3309  0.2576
  747TMC3     H11096   0.269   4.158  10.830  0.3316  1.9466 -0.1083
  747TMC3    H111097   0.649   4.090  11.011 -0.4440 -1.0267 -0.5190
  747TMC3    H211098   0.397   4.369  11.192 -0.1770 -0.3337  0.0196
  747TMC3    C711099   0.633   4.275  11.194  0.2378  0.1428  0.9169
  747TMC3    C811100   0.172   4.278  11.051 -0.1871 -0.4384 -0.2949
  747TMC3    O111101   0.595   4.350  11.283 -0.5225 -0.5121 -0.3455
  747TMC3    O211102   0.099   4.186  11.012 -0.2801  0.0849  0.1137
  748MPD2     C11103   2.081   1.941   1.937  0.2226 -0.1272 -0.0736
  748MPD2    C111104   2.188   1.859   1.918 -0.2574  0.3951  0.1249
  748MPD2    C211105   2.290   1.896   1.832 -0.1365  0.3333  0.4650
  748MPD2    C311106   2.286   2.011   1.758 -1.0292  0.3092  0.4955
  748MPD2    C411107   2.172   2.087   1.778 -0.3892  0.3062 -0.0533
  748MPD2    C511108   2.074   2.059   1.867  0.4588  0.5901 -0.0014
  748MPD2     H11109   2.375   1.830   1.819  0.3783  1.8340 -3.6916
  748MPD2    H111110   2.160   2.182   1.727 -1.0903  0.1238 -0.2198
  748MPD2    H211111   1.999   1.909   2.000  0.4276  0.6039  0.5590
  748MPD2    H311112   1.995   2.131   1.889  1.0862  0.7130  1.8775
  748MPD2     N11113   2.396   2.058   1.682 -0.2049  0.3129  0.4119
  748MPD2    H511114   2.467   1.989   1.658 -1.1265 -0.4295 -0.1716
  748MPD2    N111115   2.174   1.727   1.963  0.2421  0.2389  0.4649
  748MPD2    H711116   2.081   1.701   1.994  0.3195 -1.0593 -0.3870
  749TMC3    C111117   2.543   2.210   1.573 -0.1665  0.3048 -0.3070
  749TMC3    C211118   2.644   2.140   1.634  0.1766 -0.6095 -0.1709
  749TMC3    C311119   2.750   2.101   1.554 -0.7365 -0.0635  0.5235
  749TMC3    C411120   2.554   2.247   1.444 -0.0958 -0.2843  0.1597
  749TMC3    C511121   2.647   2.180   1.369 -0.1800 -1.0449  0.6036
  749TMC3    C611122   2.751   2.105   1.424  0.3884 -0.6758  0.6279
  749TMC3     C11123   2.412   2.185   1.630  0.7514 -0.3212 -0.1254
  749TMC3     O11124   2.325   2.274   1.601 -0.6954  0.2895 -0.1189
  749TMC3     H11125   2.638   2.122   1.740 -0.2138  1.7141  0.2176
  749TMC3    H111126   2.477   2.295   1.386 -1.3241 -1.1085  1.1134
  749TMC3    H211127   2.841   2.085   1.366  0.7641  2.9008 -0.0450
  749TMC3    C711128   2.666   2.233   1.235 -0.3599 -0.6625  0.0790
  749TMC3    C811129   2.839   2.006   1.608  0.0846  0.1113  0.1636
  749TMC3    O111130   2.650   2.353   1.223  0.0495  0.5363 -0.4012
  749TMC3    O211131   2.839   1.996   1.731  0.1627 -0.1702 -0.9083
  750MPD2     C11132   1.637   1.414  10.500  0.5266 -0.0443  0.6424
  750MPD2    C111133   1.699   1.304  10.552  0.3918 -0.1058  0.5007
  750MPD2    C211134   1.699   1.187  10.482  0.3241  0.6276  0.3715
  750MPD2    C311135   1.627   1.173  10.360  0.6476 -0.0309  0.0890
  750MPD2    C411136   1.560   1.281  10.313  0.7277 -0.4108  0.1489
  750MPD2    C511137   1.567   1.402  10.381 -0.0083 -0.4188 -0.2984
  750MPD2     H11138   1.754   1.103  10.524 -1.7502 -0.6799  0.4835
  750MPD2    H111139   1.512   1.285  10.216  0.1662  1.4653  0.4925
  750MPD2    H211140   1.630   1.507  10.554  0.4544 -0.4713  1.3636
  750MPD2    H311141   1.515   1.487  10.338 -1.5072 -1.1216  0.1240
  750MPD2     N11142   1.614   1.045  10.300 -0.5553  0.6469  0.2290
  750MPD2    H511143   1.659   0.966  10.345 -0.0646  0.6304 -0.2928
  750MPD2    N111144   1.769   1.332  10.672 -0.0090 -0.2041 -0.5953
  750MPD2    H711145   1.768   1.425  10.711  2.1951  0.1449 -1.3427
  751TMC3    C111146   1.596   0.869  10.161 -0.4075 -0.0334 -0.0187
  751TMC3    C211147   1.495   0.786  10.135  0.2738  0.1617  0.1534
  751TMC3    C311148   1.521   0.650  10.123 -0.3434 -0.4115  0.5210
  751TMC3    C411149   1.725   0.835  10.163  0.0183  0.1089 -0.2378
  751TMC3    C511150   1.753   0.698  10.143 -0.2924 -0.2565 -0.1975
  751TMC3    C611151   1.652   0.607  10.123  0.4172  0.1526 -0.2088
  751TMC3     C11152   1.555   1.009  10.181 -0.4074 -0.5414  0.0113
  751TMC3     O11153   1.482   1.068  10.105 -0.0142  0.0102  0.4938
  751TMC3     H11154   1.396   0.828  10.141 -0.7868 -2.2315 -0.5431
  751TMC3    H111155   1.808   0.905  10.172 -1.6177  1.5919  3.2650
  751TMC3    H211156   1.678   0.502  10.135 -0.4847 -0.0693 -0.2074
  751TMC3    C711157   1.893   0.671  10.153  0.5997 -0.2495 -0.0368
  751TMC3    C811158   1.459   0.568  10.214 -0.3648 -0.3305  0.1283
  751TMC3    O111159   1.974   0.757  10.190 -0.4072  0.4435 -0.8078
  751TMC3    O211160   1.451   0.599  10.328 -0.3824 -0.2803  0.4831
  752TMC3    C111161   1.394   2.247  17.372 -0.2320 -0.3978 -0.2336
  752TMC3    C211162   1.484   2.318  17.447 -0.0904  0.7798 -0.0260
  752TMC3    C311163   1.447   2.376  17.562  0.0091 -0.3269  0.5318
  752TMC3    C411164   1.263   2.228  17.412  0.1062  0.5127 -1.2727
  752TMC3    C511165   1.224   2.297  17.524 -1.0674 -0.4345  0.7921
  752TMC3    C611166   1.316   2.368  17.598  0.3543  0.1948 -0.1536
  752TMC3     C11167   1.426   2.229  17.228 -0.1776 -0.1846  0.1348
  752TMC3     O11168   1.539   2.228  17.191  0.2512  0.5468 -0.3687
  752TMC3     H11169   1.583   2.331  17.404 -0.7240 -0.4881 -1.9039
  752TMC3    H111170   1.188   2.183  17.348 -0.0840  0.8396 -1.2763
  752TMC3    H211171   1.289   2.418  17.690  0.4763 -1.1700  0.6250
  752TMC3    C711172   1.084   2.342  17.516 -0.0259 -0.1205  0.4238
  752TMC3    C811173   1.516   2.494  17.600  0.6253 -0.0943 -0.2354
  752TMC3    O111174   1.020   2.306  17.418  0.3037  0.0148  0.3041
  752TMC3    O211175   1.445   2.591  17.633 -0.1178  0.0158 -0.1541
  753TMC3    C111176   3.762   2.718  13.441  0.0470  0.3850  0.3467
  753TMC3    C211177   3.825   2.749  13.559 -0.6033 -0.4785  0.1048
  753TMC3    C311178   3.867   2.637  13.629 -0.4370  0.0735 -0.1131
  753TMC3    C411179   3.725   2.593  13.405  0.0596 -0.3093  0.0015
  753TMC3    C511180   3.771   2.491  13.474 -0.4957 -0.1416 -0.3728
  753TMC3    C611181   3.835   2.514  13.594 -0.4599  0.0357 -0.1429
  753TMC3     C11182   3.731   2.827  13.352  0.7790 -0.1977 -0.0483
  753TMC3     O11183   3.795   2.931  13.372 -0.2028  0.3026 -0.2360
  753TMC3     H11184   3.856   2.848  13.590 -1.0419 -0.3092 -0.0082
  753TMC3    H111185   3.695   2.567  13.303 -0.1770 -0.6664  0.1600
  753TMC3    H211186   3.876   2.433  13.653  2.8055  0.8599 -1.3282
  753TMC3    C711187   3.786   2.363  13.419  1.2335 -0.3207 -0.0889
  753TMC3    C811188   3.955   2.651  13.747 -0.4458 -0.3390  0.6368
  753TMC3    O111189   3.681   2.313  13.384 -0.2330  0.2407  0.4413
  753TMC3    O211190   3.979   2.550  13.812 -0.3166 -0.4076  0.6316
  754MPD2     C11191   1.905   1.375  12.433  0.4733  0.5730  0.1047
  754MPD2    C111192   1.878   1.411  12.564  0.4462 -0.0269  0.1788
  754MPD2    C211193   1.801   1.523  12.597 -1.0556 -0.0268  0.0186
  754MPD2    C311194   1.758   1.593  12.484  0.2219 -0.2415  0.1001
  754MPD2    C411195   1.780   1.554  12.355 -0.2758 -0.5437  0.0625
  754MPD2    C511196   1.859   1.444  12.325  0.4906  0.5666  0.3037
  754MPD2     H11197   1.778   1.550  12.700 -0.2437  1.5069 -0.2061
  754MPD2    H111198   1.749   1.619  12.274 -0.2463 -0.0550  0.4432
  754MPD2    H211199   1.966   1.287  12.419  0.5228  0.6853 -0.3837
  754MPD2    H311200   1.881   1.419  12.222 -0.3246  0.2418  0.2032
  754MPD2     N11201   1.678   1.707  12.501 -0.4791  0.7393  0.0075
  754MPD2    H511202   1.627   1.737  12.419 -2.1550 -0.3274  0.6664
  754MPD2    N111203   1.934   1.331  12.667  0.3719  0.0957 -0.0195
  754MPD2    H711204   1.993   1.256  12.635  0.7664  0.7501 -0.8383
  755MPD2     C11205   1.556   1.808  13.373  0.2132  0.3548  0.1134
  755MPD2    C111206   1.427   1.837  13.336 -0.2205  0.3735 -0.9641
  755MPD2    C211207   1.399   1.876  13.205  0.3898 -0.6282  0.0656
  755MPD2    C311208   1.510   1.887  13.117  0.9820 -0.2147 -0.6398
  755MPD2    C411209   1.636   1.844  13.156  0.3258  1.1095 -0.5560
  755MPD2    C511210   1.657   1.801  13.283  0.5485 -0.3102  0.1557
  755MPD2     H11211   1.300   1.911  13.180  0.6593 -0.3313 -0.5969
  755MPD2    H111212   1.721   1.841  13.089 -0.3008 -1.1530 -1.2183
  755MPD2    H211213   1.581   1.772  13.472  0.1803  2.8976  1.0522
  755MPD2    H311214   1.757   1.765  13.304  0.7324  0.6129  0.8489
  755MPD2     N11215   1.499   1.933  12.983 -0.5537 -0.1069  0.0809
  755MPD2    H511216   1.585   1.940  12.930 -0.5238 -0.7675  0.0348
  755MPD2    N111217   1.323   1.828  13.429  0.3668 -0.2524 -0.6884
  755MPD2    H711218   1.233   1.831  13.384  0.2981 -0.4377 -0.5657
  756MPD2     C11219   2.266   2.199   9.009  0.1285  0.0859  0.0031
  756MPD2    C111220   2.243   2.116   9.118  0.0366 -0.1732 -0.5231
  756MPD2    C211221   2.166   2.001   9.097 -0.8350  0.0737  0.6662
  756MPD2    C311222   2.117   1.971   8.974  0.2914 -0.2190 -0.1647
  756MPD2    C411223   2.120   2.063   8.875 -0.2282 -0.1826  0.0923
  756MPD2    C511224   2.199   2.175   8.893 -0.5681  0.2577 -0.1718
  756MPD2     H11225   2.140   1.939   9.183 -2.8604  0.0134  0.0171
  756MPD2    H111226   2.067   2.055   8.781 -0.1871 -2.1406  0.2380
  756MPD2    H211227   2.328   2.288   9.008  1.0600 -0.5598  0.4200
  756MPD2    H311228   2.214   2.242   8.809 -3.4732 -2.1614 -2.6097
  756MPD2     N11229   2.046   1.846   8.963 -0.1541 -0.2299 -0.0283
  756MPD2    H511230   2.043   1.792   9.049  2.1990  1.8712  1.3962
  756MPD2    N111231   2.281   2.158   9.254  0.6128  0.4521 -0.7028
  756MPD2    H711232   2.230   2.115   9.330  0.9262  0.3894 -0.5249
  757MPD2     C11233   1.352   1.341   9.456 -0.5953  0.2224 -0.4394
  757MPD2    C111234   1.347   1.283   9.334 -0.1920 -0.0030 -0.1596
  757MPD2    C211235   1.411   1.336   9.227  0.1295 -0.0533 -0.1953
  757MPD2    C311236   1.488   1.447   9.248  0.3851 -0.4772 -0.6611
  757MPD2    C411237   1.500   1.504   9.375  0.1589 -0.0222 -0.1591
  757MPD2    C511238   1.433   1.450   9.481  0.4409 -0.3660  0.0382
  757MPD2     H11239   1.403   1.297   9.126 -2.4276 -1.6944  0.6348
  757MPD2    H111240   1.557   1.594   9.396 -2.6991  1.5571  0.8988
  757MPD2    H211241   1.292   1.296   9.534 -0.2186  0.7668  0.1739
  757MPD2    H311242   1.424   1.503   9.575 -4.0401  0.6174 -0.9428
  757MPD2     N11243   1.553   1.507   9.133 -0.6036  0.3188  0.1920
  757MPD2    H511244   1.529   1.472   9.041  2.6658  0.4293 -0.6777
  757MPD2    N111245   1.262   1.169   9.324 -0.7367 -0.6967 -0.3314
  757MPD2    H711246   1.215   1.151   9.412  1.3136  0.4577  0.9945
  758MPD2     C11247   2.338   1.789  15.415  0.4679 -0.4269 -0.1633
  758MPD2    C111248   2.404   1.723  15.522 -0.0446  0.0593  0.3234
  758MPD2    C211249   2.356   1.732  15.646  0.1294  0.2609  0.5152
  758MPD2    C311250   2.237   1.796  15.672 -0.1763  0.2755 -0.6882
  758MPD2    C411251   2.164   1.854  15.569 -0.0559 -0.1793  0.8005
  758MPD2    C511252   2.214   1.853  15.442 -0.0070  0.1354  0.4290
  758MPD2     H11253   2.413   1.680  15.722 -0.1053  0.3914  0.7814
  758MPD2    H111254   2.069   1.903  15.589  0.0644  0.1992  0.4476
  758MPD2    H211255   2.371   1.793  15.312 -1.6043  0.2455 -0.7977
  758MPD2    H311256   2.153   1.883  15.358  2.9218 -3.2031 -2.9202
  758MPD2     N11257   2.179   1.790  15.805  0.1351 -0.1036 -1.0055
  758MPD2    H511258   2.096   1.845  15.825 -1.5102 -2.7412 -0.4960
  758MPD2    N111259   2.517   1.640  15.508 -0.1587 -0.6415  0.5948
  758MPD2    H711260   2.569   1.613  15.591  0.2092 -0.3481  0.4546
  759MPD2     C11261   1.700   3.336   9.772 -0.7258 -0.4002  0.1594
  759MPD2    C111262   1.674   3.395   9.895 -0.1833 -0.2402 -0.2090
  759MPD2    C211263   1.623   3.523   9.901 -0.4293 -0.2957 -0.1325
  759MPD2    C311264   1.603   3.598   9.788 -0.1081 -0.1786  0.0977
  759MPD2    C411265   1.625   3.539   9.663 -0.1939 -0.0809 -0.7494
  759MPD2    C511266   1.681   3.412   9.663 -0.7820 -0.8881 -0.4014
  759MPD2     H11267   1.601   3.558  10.001 -0.0255 -0.2349 -0.0647
  759MPD2    H111268   1.633   3.599   9.573 -2.7293  0.3016 -0.7140
  759MPD2    H211269   1.746   3.238   9.763  0.4589  0.1280  0.5454
  759MPD2    H311270   1.708   3.362   9.570  0.9360 -0.6719 -0.0265
  759MPD2     N11271   1.554   3.732   9.801  0.0976 -0.0755  0.3974
  759MPD2    H511272   1.543   3.765   9.896  0.6342 -0.1164  0.4768
  759MPD2    N111273   1.711   3.344  10.018  0.5587  0.1141  0.5181
  759MPD2    H711274   1.709   3.399  10.103  2.4719 -0.1407  0.7200
  760MPD2     C11275   0.542   1.355  11.675 -0.6863  0.2747  0.4582
  760MPD2    C111276   0.647   1.334  11.587 -1.2381  0.3250 -0.0648
  760MPD2    C211277   0.701   1.206  11.583  0.3051 -0.5413  0.6597
  760MPD2    C311278   0.650   1.099  11.654 -0.1154  0.0185  0.3328
  760MPD2    C411279   0.550   1.120  11.742 -0.1576  0.1319  0.2412
  760MPD2    C511280   0.497   1.251  11.746  0.0699 -0.2666 -0.2797
  760MPD2     H11281   0.779   1.182  11.512  0.2822 -0.9584  0.7757
  760MPD2    H111282   0.507   1.047  11.810 -0.2356  0.5829  0.6836
  760MPD2    H211283   0.480   1.444  11.682  0.1183  0.8230  0.6921
  760MPD2    H311284   0.415   1.262  11.816 -1.1065 -5.3245 -0.8896
  760MPD2     N11285   0.717   0.974  11.657  0.5180  0.3448  0.8526
  760MPD2    H511286   0.676   0.908  11.723  0.4735  0.8039  1.2840
  760MPD2    N111287   0.711   1.439  11.507  0.0189  0.0743  1.0476
  760MPD2    H711288   0.783   1.423  11.437 -1.3911  0.5803 -0.5036
  761MPD2     C11289   1.486   0.076  10.291  0.1210  0.3750 -0.5010
  761MPD2    C111290   1.494   0.181  10.380  0.3049 -0.6700 -0.1883
  761MPD2    C211291   1.462   0.308  10.338 -0.9333  0.3985  0.3223
  761MPD2    C311292   1.434   0.322  10.205 -0.2411  0.6676 -0.1018
  761MPD2    C411293   1.427   0.216  10.114 -0.6209  0.5115  0.3572
  761MPD2    C511294   1.452   0.089  10.163 -0.0497 -0.9450 -0.3415
  761MPD2     H11295   1.477   0.392  10.405  0.5008  1.9355 -1.9229
  761MPD2    H111296   1.423   0.224  10.006 -1.3451 -2.8740  0.1211
  761MPD2    H211297   1.522   4.717  10.324 -0.5218  0.0343 -0.8165
  761MPD2    H311298   1.457   0.008  10.092  2.5427 -0.8328 -0.3192
  761MPD2     N11299   1.443   0.444  10.147 -0.3697  0.3704  0.3953
  761MPD2    H511300   1.438   0.457  10.046 -0.5324  1.5804  0.5558
  761MPD2    N111301   1.571   0.163  10.501 -0.8897 -0.1175 -0.4953
  761MPD2    H711302   1.611   0.071  10.514  0.9930  0.3731 -2.7316
  762MPD2     C11303   2.149   0.451  10.519 -0.3852 -0.5776  0.5125
  762MPD2    C111304   2.141   0.310  10.528  0.7956  0.6955  0.8984
  762MPD2    C211305   2.243   0.231  10.471 -0.9282 -0.7464 -0.1802
  762MPD2    C311306   2.354   0.288  10.411  0.1157 -0.2465  0.3721
  762MPD2    C411307   2.358   0.426  10.404  0.0827 -0.3314 -0.4010
  762MPD2    C511308   2.259   0.507  10.455 -0.0866  0.3835  0.2597
  762MPD2     H11309   2.233   0.123  10.481 -3.3390 -0.5652 -0.7084
  762MPD2    H111310   2.437   0.470  10.344 -0.2887 -0.3742 -0.9267
  762MPD2    H211311   2.084   0.528  10.560  0.5350  0.0531  0.8112
  762MPD2    H311312   2.267   0.615  10.451  0.1146  0.3449 -0.2845
  762MPD2     N11313   2.458   0.204  10.359 -0.3258 -0.0216 -0.5110
  762MPD2    H511314   2.429   0.107  10.351 -0.0280 -0.2379  1.1630
  762MPD2    N111315   2.038   0.252  10.615  0.0767 -0.0345 -0.3528
  762MPD2    H711316   1.983   0.321  10.665 -0.8228 -0.4979 -0.7027
  763MPD2     C11317   3.749   1.612  15.974 -0.2329  0.1109  0.1287
  763MPD2    C111318   3.866   1.673  15.929 -0.5633  0.7447  0.0011
  763MPD2    C211319   3.934   1.759  16.019  0.0169  0.1141 -0.0705
  763MPD2    C311320   3.886   1.781  16.147  0.1454 -0.3116 -0.1284
  763MPD2    C411321   3.767   1.722  16.187 -0.2563 -0.1625  0.6161
  763MPD2    C511322   3.708   1.625  16.105  0.0611  0.0370 -0.9607
  763MPD2     H11323   4.027   1.807  15.992 -0.5876 -0.1847 -2.6419
  763MPD2    H111324   3.723   1.736  16.285 -2.4554  1.1470 -0.5474
  763MPD2    H211325   3.687   1.551  15.908  1.4655  1.5109 -2.7482
  763MPD2    H311326   3.610   1.582  16.121 -0.2605  0.6432 -1.3172
  763MPD2     N11327   3.970   1.868  16.223  0.1705  0.4192 -0.2729
  763MPD2    H511328   4.048   1.916  16.179 -0.0990 -0.3816 -1.6428
  763MPD2    N111329   3.934   1.646  15.810  0.0881  0.4452 -0.0108
  763MPD2    H711330   4.022   1.697  15.803 -0.3996  1.1373 -0.9973
  764MPD2     C11331   2.632   3.176  17.177 -0.7105 -0.4754 -0.7857
  764MPD2    C111332   2.502   3.145  17.135 -0.2091  0.4471 -0.1582
  764MPD2    C211333   2.398   3.131  17.224 -0.5676  0.8130 -0.0352
  764MPD2    C311334   2.424   3.123  17.356 -0.2145 -0.1726  0.1107
  764MPD2    C411335   2.552   3.141  17.404  0.2251 -0.1236  0.6959
  764MPD2    C511336   2.645   3.161  17.309  0.1492 -0.5803  0.0481
  764MPD2     H11337   2.300   3.118  17.179  0.9801  0.5790 -3.3666
  764MPD2    H111338   2.586   3.137  17.507 -1.4387  1.2000  1.2978
  764MPD2    H211339   2.716   3.198  17.112 -0.0088 -1.5222 -0.2258
  764MPD2    H311340   2.750   3.158  17.339 -0.2463 -1.0759  1.3808
  764MPD2     N11341   2.313   3.096  17.442  0.1318 -0.0483 -0.4615
  764MPD2    H511342   2.221   3.092  17.399 -0.1342 -0.0339  0.1033
  764MPD2    N111343   2.470   3.155  17.000  0.6781  0.5335 -0.5216
  764MPD2    H711344   2.386   3.114  16.963  0.5804 -1.5429  2.0734
  765MPD2     C11345   2.432   1.244  15.412 -0.1918 -0.4373 -0.3923
  765MPD2    C111346   2.376   1.223  15.534  0.2921 -0.4949 -0.3213
  765MPD2    C211347   2.430   1.128  15.621  0.3003 -0.0545  0.4000
  765MPD2    C311348   2.551   1.074  15.589 -0.1832 -0.2012 -0.1171
  765MPD2    C411349   2.613   1.092  15.461  0.5264 -0.4791  0.1403
  765MPD2    C511350   2.544   1.170  15.374 -0.3515 -0.6959  0.1127
  765MPD2     H11351   2.399   1.113  15.724  1.5787  2.6026  1.1673
  765MPD2    H111352   2.693   1.034  15.416 -0.0110  0.4117 -2.0029
  765MPD2    H211353   2.400   1.323  15.344 -1.9544 -0.6739  0.1750
  765MPD2    H311354   2.563   1.177  15.267 -0.9815 -1.2030 -0.0326
  765MPD2     N11355   2.613   0.991  15.684 -0.4089 -0.0532  0.2802
  765MPD2    H511356   2.562   0.972  15.770  0.3912  0.5928  0.9029
  765MPD2    N111357   2.256   1.299  15.558  0.2568  0.0656 -0.6033
  765MPD2    H711358   2.232   1.377  15.499  1.6609 -0.3123 -1.6619
  766MPD2     C11359   1.548   1.016  15.413  0.3724  0.0762 -0.1520
  766MPD2    C111360   1.679   1.059  15.402 -0.0908 -0.0809 -0.5390
  766MPD2    C211361   1.742   1.021  15.287 -0.4935  0.0699  0.0338
  766MPD2    C311362   1.677   0.949  15.189  0.0888  0.9575 -0.1871
  766MPD2    C411363   1.541   0.927  15.196  0.0628  0.5047 -0.2326
  766MPD2    C511364   1.479   0.941  15.322  0.8575 -0.5453  0.5987
  766MPD2     H11365   1.838   1.069  15.274 -0.5094  0.5835  1.8745
  766MPD2    H111366   1.482   0.879  15.119 -0.1646  0.7392 -0.2033
  766MPD2    H211367   1.497   1.046  15.504  1.9085 -0.9273  1.0323
  766MPD2    H311368   1.373   0.921  15.333  0.6159  0.4951  0.1553
  766MPD2     N11369   1.738   0.933  15.062 -0.1610 -0.5610  0.5114
  766MPD2    H511370   1.681   0.921  14.979  1.5792 -0.3162 -0.7229
  766MPD2    N111371   1.751   1.137  15.501  0.1894  0.3461  0.4713
  766MPD2    H711372   1.850   1.144  15.482 -0.0231  1.5907 -0.1770
  767MPD2     C11373   1.273   1.414  14.688 -0.4418 -0.0663  0.4120
  767MPD2    C111374   1.352   1.311  14.746  0.5004 -0.3519  0.5191
  767MPD2    C211375   1.390   1.207  14.675  0.0408 -0.1067 -0.2118
  767MPD2    C311376   1.319   1.172  14.559  0.3063  0.1457 -0.3791
  767MPD2    C411377   1.222   1.261  14.515  0.0959 -0.5643 -0.3240
  767MPD2    C511378   1.208   1.384  14.570  0.0756 -0.0831  0.1830
  767MPD2     H11379   1.463   1.135  14.709  1.7280  1.3534 -0.7409
  767MPD2    H111380   1.158   1.249  14.429  0.0540  0.4415 -0.4284
  767MPD2    H211381   1.255   1.505  14.743  0.9470  0.6332 -0.2913
  767MPD2    H311382   1.139   1.457  14.530  3.0025  2.2534 -0.6191
  767MPD2     N11383   1.354   1.047  14.502  0.5018 -0.0676 -0.5042
  767MPD2    H511384   1.420   0.988  14.552  0.2414 -0.5661 -0.7492
  767MPD2    N111385   1.411   1.340  14.867  0.3135  0.3127  0.0151
  767MPD2    H711386   1.396   1.436  14.896  0.2333 -0.1232  1.4163
  768MPD2     C11387   2.684   3.613  10.947  0.6257  0.9570  0.0133
  768MPD2    C111388   2.576   3.602  11.033 -0.2243 -0.4902 -0.4684
  768MPD2    C211389   2.581   3.664  11.155  0.5446  0.1064  0.6320
  768MPD2    C311390   2.692   3.745  11.191 -0.3554  0.4280  1.0422
  768MPD2    C411391   2.790   3.769  11.091  0.2151 -0.5970  0.0546
  768MPD2    C511392   2.791   3.700  10.981 -0.0780  0.1515 -0.1245
  768MPD2     H11393   2.500   3.650  11.227  0.8718 -0.7374  0.8393
  768MPD2    H111394   2.876   3.832  11.110 -0.5638  0.1327  1.1702
  768MPD2    H211395   2.703   3.548  10.862  0.9507  1.2648 -0.1485
  768MPD2    H311396   2.879   3.697  10.918 -0.4056 -3.5208 -0.3928
  768MPD2     N11397   2.707   3.799  11.319 -0.4136  0.5571 -0.2494
  768MPD2    H511398   2.775   3.874  11.324 -3.0494  3.0252 -1.2764
  768MPD2    N111399   2.459   3.526  11.005 -0.0291 -0.1396  0.0163
  768MPD2    H711400   2.389   3.532  11.078 -2.2121  1.5596 -2.2372
  769MPD2     C11401   3.053   2.790  14.526 -0.3954 -0.7362 -0.5033
  769MPD2    C111402   2.976   2.760  14.640 -0.0528 -0.1223  0.2873
  769MPD2    C211403   2.915   2.865  14.701 -0.5361  0.5451  0.9472
  769MPD2    C311404   2.931   2.996  14.654 -0.5820 -0.8578  0.1724
  769MPD2    C411405   3.016   3.022  14.544 -0.2109 -0.3325  0.6539
  769MPD2    C511406   3.072   2.916  14.480  0.9720  0.2266 -0.0985
  769MPD2     H11407   2.858   2.854  14.792 -1.9858 -1.8337 -0.2412
  769MPD2    H111408   3.040   3.122  14.510 -1.8404  0.0630  0.7078
  769MPD2    H211409   3.122   2.717  14.484 -1.4333 -0.2647 -3.0641
  769MPD2    H311410   3.126   2.940  14.389 -0.7388 -1.2243 -1.4852
  769MPD2     N11411   2.851   3.098  14.721 -0.1122 -0.2188 -0.0507
  769MPD2    H511412   2.795   3.075  14.802 -0.0072  0.8577  0.3303
  769MPD2    N111413   2.973   2.625  14.684 -0.7644 -0.0765  0.0282
  769MPD2    H711414   3.008   2.548  14.627  0.2157 -0.4004  1.0489
  770MPD2     C11415   2.926   1.676  14.415 -0.0012 -0.0377 -0.3308
  770MPD2    C111416   2.870   1.669  14.535  0.0518  0.5154 -0.3682
  770MPD2    C211417   2.849   1.792  14.603 -0.3615 -0.1645 -0.4325
  770MPD2    C311418   2.873   1.911  14.546  0.0052  0.1382 -0.0035
  770MPD2    C411419   2.923   1.915  14.415  0.3104 -0.2744  0.5342
  770MPD2    C511420   2.948   1.796  14.349  0.0389 -0.1110  0.4599
  770MPD2     H11421   2.817   1.795  14.707 -1.3039  0.4838 -0.7334
  770MPD2    H111422   2.939   2.009  14.365 -2.0983 -0.2096 -0.1383
  770MPD2    H211423   2.947   1.587  14.355 -0.4543 -0.8230  0.6784
  770MPD2    H311424   2.996   1.810  14.253  0.6397 -0.4948  0.7055
  770MPD2     N11425   2.844   2.029  14.625 -0.7377  0.7583  1.1842
  770MPD2    H511426   2.811   2.013  14.719  1.0055 -2.5525  1.2069
  770MPD2    N111427   2.848   1.544  14.595 -0.3477  0.5154  0.3318
  770MPD2    H711428   2.888   1.462  14.550 -1.8529 -1.3007  2.3291
  771MPD2     C11429   3.852   0.013  13.805  0.2167 -0.2163  0.3818
  771MPD2    C111430   3.863   0.081  13.687  0.5403  0.3444 -0.1597
  771MPD2    C211431   3.834   0.007  13.574 -0.1543  0.3200 -0.2270
  771MPD2    C311432   3.778   4.619  13.579 -0.2524 -0.3859  0.7217
  771MPD2    C411433   3.769   4.554  13.697  0.4041  0.4053 -0.0236
  771MPD2    C511434   3.807   4.621  13.810  0.1042  0.4381 -0.2566
  771MPD2     H11435   3.837   0.057  13.478 -0.3889 -0.5649 -0.6928
  771MPD2    H111436   3.742   4.450  13.712 -1.9002  0.9712 -0.2821
  771MPD2    H211437   3.883   0.063  13.897  0.2081 -0.6528  0.6234
  771MPD2    H311438   3.802   4.568  13.904  0.2497  0.7166 -0.0906
  771MPD2     N11439   3.736   4.566  13.458 -0.9018  0.3165  0.0088
  771MPD2    H511440   3.764   4.607  13.370  0.1202  2.0737  1.1329
  771MPD2    N111441   3.911   0.214  13.688  0.9215  0.4201  0.3312
  771MPD2    H711442   3.921   0.253  13.594 -0.5549 -1.0915 -0.4545
  772MPD2     C11443   3.886   0.982  14.079  0.1119  0.7188 -0.2507
  772MPD2    C111444   3.824   0.871  14.014  0.4806 -0.4801  0.2556
  772MPD2    C211445   3.692   0.844  14.029  0.2518 -0.5216 -0.7107
  772MPD2    C311446   3.609   0.918  14.111  0.1675 -0.0896 -0.1471
  772MPD2    C411447   3.670   1.016  14.185 -0.1434 -0.1154  0.5590
  772MPD2    C511448   3.804   1.054  14.167 -0.5162 -0.0683 -0.3742
  772MPD2     H11449   3.650   0.759  13.977 -3.2606 -0.3752  1.8188
  772MPD2    H111450   3.609   1.080  14.249 -3.4613 -0.4187 -2.2957
  772MPD2    H211451   3.986   1.015  14.057  0.3463  0.5896  0.6219
  772MPD2    H311452   3.843   1.134  14.228 -0.6164  0.0184 -0.4238
  772MPD2     N11453   3.468   0.899  14.121  0.3546 -0.3302 -0.1058
  772MPD2    H511454   3.426   0.940  14.205  3.2021  1.4522  0.4565
  772MPD2    N111455   3.894   0.772  13.943 -0.0202 -0.1541  0.6945
  772MPD2    H711456   3.834   0.710  13.890 -0.0825  0.0446  0.5319
  773MPD2     C11457   2.808   2.412   0.162  0.5176 -0.0026 -0.1756
  773MPD2    C111458   2.804   2.282   0.117 -0.3103  0.0102  0.1311
  773MPD2    C211459   2.903   2.194   0.162  0.9051 -0.2342  0.2411
  773MPD2    C311460   3.002   2.240   0.257 -0.0174  0.3563  0.5439
  773MPD2    C411461   3.002   2.371   0.304  0.8976  0.5170 -0.0337
  773MPD2    C511462   2.905   2.459   0.256 -0.0539  0.4401  0.0293
  773MPD2     H11463   2.902   2.090   0.131 -0.8097 -0.3749  0.7445
  773MPD2    H111464   3.076   2.420   0.366  0.0723 -0.0758  1.4321
  773MPD2    H211465   2.737   2.485   0.124  0.6931  1.2827  2.0273
  773MPD2    H311466   2.904   2.564   0.282 -1.7006  0.9487 -2.1008
  773MPD2     N11467   3.101   2.146   0.294  0.4963  0.1373 -0.0127
  773MPD2    H511468   3.093   2.045   0.286  1.7089 -0.2608  3.7200
  773MPD2    N111469   2.725   2.254   0.007  0.2990 -0.5263 -0.7077
  773MPD2    H711470   2.756   2.180  17.695  1.8579  0.6575 -1.3281
  774MPD2     C11471   1.694   0.982  13.603 -0.2346  0.2699  0.3318
  774MPD2    C111472   1.807   0.917  13.560 -0.1178 -0.2756 -0.0057
  774MPD2    C211473   1.863   0.951  13.441  0.0465 -0.6655  0.3922
  774MPD2    C311474   1.821   1.058  13.355  0.7348  0.1985 -0.0418
  774MPD2    C411475   1.703   1.106  13.395 -0.5582 -0.1196 -0.1766
  774MPD2    C511476   1.644   1.079  13.520 -0.6827  0.0251 -0.0352
  774MPD2     H11477   1.944   0.886  13.409 -1.3248 -1.6127 -1.1772
  774MPD2    H111478   1.646   1.164  13.323  0.0580 -0.8784 -1.2652
  774MPD2    H211479   1.639   0.953  13.692 -0.0466 -1.5929 -0.1735
  774MPD2    H311480   1.547   1.127  13.529  0.2438  1.9557 -0.4760
  774MPD2     N11481   1.877   1.098  13.232  0.2548  0.3980  0.5157
  774MPD2    H511482   1.823   1.157  13.169  0.3950 -0.8455 -0.7899
  774MPD2    N111483   1.849   0.809  13.651 -0.1248 -0.6377 -0.0893
  774MPD2    H711484   1.800   0.818  13.740  0.6711  0.8806  0.1980
  775MPD2     C11485   3.678   2.437  15.501 -0.5275  0.0348  0.2918
  775MPD2    C111486   3.691   2.500  15.624  0.0524 -0.0714  0.3394
  775MPD2    C211487   3.772   2.610  15.624  0.5463 -0.5856  0.0854
  775MPD2    C311488   3.839   2.656  15.508 -0.0755  0.7264  0.4861
  775MPD2    C411489   3.820   2.588  15.385  0.7132  0.2220  0.5452
  775MPD2    C511490   3.742   2.485  15.386  0.0861 -0.5327 -0.4215
  775MPD2     H11491   3.787   2.663  15.718 -0.2772  2.4387 -1.4608
  775MPD2    H111492   3.868   2.609  15.290  2.0155 -1.4663  0.8306
  775MPD2    H211493   3.621   2.346  15.488 -1.8966  1.2895 -2.2995
  775MPD2    H311494   3.730   2.429  15.294  2.8379 -1.7354 -0.0502
  775MPD2     N11495   3.926   2.765  15.502  0.4677 -0.1109  0.1796
  775MPD2    H511496   3.984   2.763  15.419  0.7638  0.9514  0.3550
  775MPD2    N111497   3.640   2.437  15.741  0.4620 -0.1107  0.3421
  775MPD2    H711498   3.555   2.383  15.730 -0.7550  1.5761  1.4402
  776MPD2     C11499   2.028   1.864  10.782  0.1639  1.0305 -0.2607
  776MPD2    C111500   2.093   1.791  10.880  0.8580  0.2120  0.0795
  776MPD2    C211501   2.176   1.858  10.966 -0.4842 -0.1218 -0.0260
  776MPD2    C311502   2.208   1.991  10.953  0.7801  0.7897 -0.9157
  776MPD2    C411503   2.149   2.056  10.848  0.5878 -0.6296  0.6501
  776MPD2    C511504   2.057   1.992  10.767 -0.0069 -0.4215 -1.5489
  776MPD2     H11505   2.227   1.805  11.045 -2.9459 -2.9564 -0.3419
  776MPD2    H111506   2.188   2.154  10.820 -3.1826  0.4486 -0.8164
  776MPD2    H211507   1.971   1.807  10.710  1.0001 -3.0690  2.2983
  776MPD2    H311508   2.015   2.046  10.683 -2.7329 -3.0729 -1.9090
  776MPD2     N11509   2.305   2.040  11.040  0.0544  1.1374  0.6339
  776MPD2    H511510   2.353   1.975  11.100  1.3533  0.3717 -1.2394
  776MPD2    N111511   2.067   1.650  10.883 -0.1054 -0.2008 -0.2002
  776MPD2    H711512   2.009   1.614  10.808 -1.1975  0.0148  0.5373
  777MPD2     C11513   2.438   1.214   0.939  0.5044 -0.2562 -0.5484
  777MPD2    C111514   2.531   1.121   0.926  0.0752  0.0762 -0.6270
  777MPD2    C211515   2.509   0.998   0.866 -0.6896 -0.2486  0.0145
  777MPD2    C311516   2.382   0.969   0.838  0.1722 -0.7736 -0.0446
  777MPD2    C411517   2.277   1.059   0.852  0.2039  0.0593 -0.2705
  777MPD2    C511518   2.309   1.185   0.896  0.3340  0.1963  0.1280
  777MPD2     H11519   2.586   0.921   0.860  0.4983  0.7876  1.7925
  777MPD2    H111520   2.172   1.044   0.829 -0.1095  0.2235  1.0302
  777MPD2    H211521   2.467   1.311   0.979  1.9977 -0.4869 -1.0692
  777MPD2    H311522   2.236   1.264   0.904 -0.1684 -0.5380  3.0277
  777MPD2     N11523   2.367   0.841   0.782 -0.1265 -0.6988  0.4248
  777MPD2    H511524   2.441   0.771   0.783 -0.2126 -0.7796  1.0032
  777MPD2    N111525   2.664   1.156   0.977  0.1574 -0.2172 -0.0565
  777MPD2    H711526   2.679   1.252   1.005 -1.6176  0.4516 -1.3781
  778MPD2     C11527   4.486   0.408  14.819 -0.0013 -0.0814 -0.1499
  778MPD2    C111528   4.433   0.297  14.759 -0.1129  0.1269  0.3262
  778MPD2    C211529   4.490   0.262  14.641  0.6180 -0.8343  0.0355
  778MPD2    C311530   4.578   0.340  14.567 -0.2060 -0.2183  0.1751
  778MPD2    C411531   4.624   0.451  14.629 -0.0795 -0.1439 -0.1995
  778MPD2    C511532   4.579   0.492  14.751 -0.5470  0.2497 -0.4397
  778MPD2     H11533   4.451   0.168  14.605 -2.5300 -0.1493  1.6374
  778MPD2    H111534   4.710   0.510  14.598 -1.2444  0.9331 -1.4355
  778MPD2    H211535   4.452   0.462  14.907  0.5324 -1.1354  0.6924
  778MPD2    H311536   4.620   0.578  14.801 -0.4121  0.2692 -0.5836
  778MPD2     N11537   4.608   0.311  14.430 -0.3091 -0.1978  0.2308
  778MPD2    H511538   4.583   0.219  14.396  1.3973 -0.6373  0.1304
  778MPD2    N111539   4.340   0.211  14.832  0.4386 -0.0591 -0.0974
  778MPD2    H711540   4.297   0.131  14.787  1.9110  0.4767 -2.4962
  779MPD2     C11541   3.757   3.862  14.368  0.1093  0.4059 -0.5046
  779MPD2    C111542   3.849   3.883  14.269  0.1649 -0.1436  1.1600
  779MPD2    C211543   3.862   4.008  14.213 -0.8503 -0.1362 -0.5113
  779MPD2    C311544   3.799   4.124  14.264 -0.4789 -0.3306  0.7461
  779MPD2    C411545   3.721   4.100  14.368 -0.2932  0.3379  0.0975
  779MPD2    C511546   3.697   3.974  14.418  0.2181  0.3378  0.2915
  779MPD2     H11547   3.919   4.027  14.122 -0.7114  2.6577  0.1635
  779MPD2    H111548   3.663   4.178  14.416  0.1075  0.2914  0.6486
  779MPD2    H211549   3.728   3.766  14.408  0.5847  0.7040  0.5541
  779MPD2    H311550   3.624   3.959  14.496  1.7306 -1.8821  1.2918
  779MPD2     N11551   3.808   4.245  14.195 -0.1288 -0.3607  0.1391
  779MPD2    H511552   3.855   4.252  14.105  1.7625  0.8864  1.2103
  779MPD2    N111553   3.919   3.782  14.201 -0.3847 -0.1865 -0.5936
  779MPD2    H711554   3.992   3.818  14.142 -0.3405  1.6678  0.6086
  780MPD2     C11555   3.566   4.551   0.778  1.3284  0.2366 -0.0945
  780MPD2    C111556   3.464   4.486   0.708  0.0563  0.2952  0.0650
  780MPD2    C211557   3.477   4.475   0.566  0.0931  0.4104  0.1053
  780MPD2    C311558   3.596   4.521   0.500  0.6047 -0.4133 -0.1871
  780MPD2    C411559   3.691   4.577   0.583 -1.0516  1.0527  0.1407
  780MPD2    C511560   3.685   4.590   0.719 -0.3641 -0.0509 -0.0108
  780MPD2     H11561   3.409   4.423   0.500  0.6920 -1.3346  0.8596
  780MPD2    H111562   3.786   4.597   0.535  0.1791 -1.6925  1.4335
  780MPD2    H211563   3.559   4.558   0.886  1.2847 -0.5711 -0.0405
  780MPD2    H311564   3.765   4.616   0.787 -0.1717 -3.1158  0.9620
  780MPD2     N11565   3.612   4.490   0.365 -0.4646 -0.1814  0.3107
  780MPD2    H511566   3.550   4.420   0.326 -0.3833  0.2183 -0.5323
  780MPD2    N111567   3.354   4.441   0.790 -0.0919 -0.1318 -0.6888
  780MPD2    H711568   3.362   4.444   0.891  0.7415 -0.0843 -0.7515
  781MPD2     C11569   0.657   0.538  11.650 -0.1131 -0.4811 -0.2576
  781MPD2    C111570   0.628   0.482  11.771  0.0047 -0.0321 -0.2523
  781MPD2    C211571   0.676   0.353  11.796 -0.6911  0.5618 -0.1507
  781MPD2    C311572   0.744   0.283  11.696 -0.3713  0.5555 -0.4875
  781MPD2    C411573   0.769   0.341  11.574 -0.4945  0.3250 -0.1131
  781MPD2    C511574   0.719   0.464  11.547 -0.4666 -0.3850 -0.5932
  781MPD2     H11575   0.656   0.315  11.896  1.1230 -2.5088 -0.9388
  781MPD2    H111576   0.819   0.288  11.493 -1.5151  1.5714 -1.5597
  781MPD2    H211577   0.616   0.635  11.621  1.7303 -0.1827 -1.8443
  781MPD2    H311578   0.735   0.513  11.452 -2.6964  0.0673 -0.7446
  781MPD2     N11579   0.819   0.166  11.726  0.1781 -0.3418 -0.2242
  781MPD2    H511580   0.896   0.149  11.663 -0.2336 -3.3193  0.0624
  781MPD2    N111581   0.568   0.552  11.881 -0.2297  0.1943 -0.0855
  781MPD2    H711582   0.538   0.486  11.953  2.1796 -1.3375 -0.4887
  782MPD2     C11583   2.492   1.256   9.619 -1.0646  0.2439  0.0161
  782MPD2    C111584   2.567   1.250   9.736  0.1201  0.0619  0.5238
  782MPD2    C211585   2.631   1.360   9.777  0.6772 -0.8678  0.1075
  782MPD2    C311586   2.629   1.484   9.709 -0.1783  0.6382  0.0532
  782MPD2    C411587   2.550   1.492   9.599 -0.1370 -0.1815  0.5313
  782MPD2    C511588   2.492   1.377   9.550 -0.0396 -0.2509 -0.1609
  782MPD2     H11589   2.695   1.357   9.864  0.8832 -0.7253 -0.0425
  782MPD2    H111590   2.540   1.583   9.541 -0.8868  1.0607  2.5759
  782MPD2    H211591   2.448   1.170   9.569 -2.2389  0.6477  0.3402
  782MPD2    H311592   2.423   1.393   9.468 -2.6162 -0.8553  1.8750
  782MPD2     N11593   2.707   1.591   9.760  0.6041 -0.0677 -0.7319
  782MPD2    H511594   2.766   1.575   9.840  0.6315  2.7455 -0.1732
  782MPD2    N111595   2.576   1.136   9.813  0.3414  1.0886 -0.2663
  782MPD2    H711596   2.627   1.159   9.898  0.5361 -0.7831  0.1330
  783MPD2     C11597   2.072   0.360  10.126  0.1197  0.5873  0.3129
  783MPD2    C111598   2.060   0.494  10.124  0.0252  0.8047  0.2661
  783MPD2    C211599   2.170   0.572  10.120 -0.2633  0.0794  0.4665
  783MPD2    C311600   2.292   0.520  10.088 -1.0364 -0.5333 -0.7340
  783MPD2    C411601   2.305   0.382  10.088 -0.2119 -0.4563 -0.2939
  783MPD2    C511602   2.194   0.305  10.113 -0.0802 -0.3336 -0.3132
  783MPD2     H11603   2.160   0.680  10.126 -1.5384  0.0958 -1.7747
  783MPD2    H111604   2.399   0.335  10.062 -0.4832 -1.4702  0.5774
  783MPD2    H211605   1.985   0.295  10.131 -0.3565  1.0311 -2.2646
  783MPD2    H311606   2.218   0.199  10.117  2.3515  0.2918  1.6623
  783MPD2     N11607   2.394   0.617  10.051 -0.0179 -0.5257 -0.6126
  783MPD2    H511608   2.362   0.713  10.043 -1.5339 -0.8296  1.8725
  783MPD2    N111609   1.930   0.541  10.143 -0.4984  0.0546 -0.0873
  783MPD2    H711610   1.857   0.471  10.144 -0.1494 -0.3123 -0.2316
  784MPD2     C11611   1.249   2.598   0.409  0.0224 -0.2035  0.0709
  784MPD2    C111612   1.234   2.673   0.530  0.1761  0.0897  0.3936
  784MPD2    C211613   1.110   2.732   0.556  0.7771  0.8097 -0.0663
  784MPD2    C311614   1.006   2.728   0.470  0.1376  0.2817 -0.0511
  784MPD2    C411615   1.024   2.661   0.353  0.4875 -0.1855 -0.4369
  784MPD2    C511616   1.140   2.584   0.325 -0.3494  0.1602 -0.2996
  784MPD2     H11617   1.083   2.777   0.651  0.6556 -0.4205  0.4899
  784MPD2    H111618   0.952   2.654   0.272 -2.6262  0.5917  2.2610
  784MPD2    H211619   1.338   2.541   0.385 -1.4454 -2.7701  0.6797
  784MPD2    H311620   1.143   2.524   0.235 -0.1568  0.7697 -0.6976
  784MPD2     N11621   0.881   2.798   0.507  0.3830 -0.7186  0.8670
  784MPD2    H511622   0.889   2.855   0.591  1.6254 -0.5200  0.6222
  784MPD2    N111623   1.345   2.686   0.617 -0.3627  0.6620 -0.1711
  784MPD2    H711624   1.339   2.748   0.697  0.7646 -1.2301  1.3709
  785MPD2     C11625   1.468   4.389  11.045  0.6551 -0.0327 -0.5009
  785MPD2    C111626   1.333   4.362  11.013  0.3635  0.4630  0.4496
  785MPD2    C211627   1.301   4.252  10.933 -0.0427  0.7603  0.5775
  785MPD2    C311628   1.397   4.168  10.884  0.4249 -0.1987 -0.5212
  785MPD2    C411629   1.529   4.199  10.918 -0.1712  0.2288 -0.1766
  785MPD2    C511630   1.564   4.304  11.000 -0.3459 -0.0792  0.6345
  785MPD2     H11631   1.198   4.222  10.919  0.9936 -2.4173 -0.2005
  785MPD2    H111632   1.607   4.132  10.884  0.1462  0.7774 -0.5236
  785MPD2    H211633   1.495   4.477  11.102  2.1033 -1.3425  0.8489
  785MPD2    H311634   1.669   4.315  11.025 -0.6377  2.2588  0.8602
  785MPD2     N11635   1.346   4.074  10.790  0.0032 -0.4064  0.6259
  785MPD2    H511636   1.248   4.075  10.764  0.5073 -1.2722 -1.2936
  785MPD2    N111637   1.226   4.448  11.047 -0.1004  0.4452  0.2052
  785MPD2    H711638   1.131   4.418  11.026  0.6905 -0.1659 -2.4811
  786MPD2     C11639   0.324   3.394  14.466 -0.1627 -0.3277 -0.4606
  786MPD2    C111640   0.347   3.268  14.513  0.1145  0.3763 -0.1555
  786MPD2    C211641   0.401   3.264  14.642  0.5831  0.1028  0.1627
  786MPD2    C311642   0.434   3.383  14.708 -0.2304 -0.1497  0.5043
  786MPD2    C411643   0.408   3.509  14.659 -0.2249 -0.1709 -0.2814
  786MPD2    C511644   0.360   3.510  14.530  0.6775 -0.1316 -0.6618
  786MPD2     H11645   0.410   3.167  14.691 -1.0456 -0.0714  0.1065
  786MPD2    H111646   0.432   3.605  14.703  0.0570 -0.2000 -0.3759
  786MPD2    H211647   0.272   3.416  14.374 -1.7276  2.8247  1.1881
  786MPD2    H311648   0.357   3.602  14.473 -0.7206 -0.3396 -0.9340
  786MPD2     N11649   0.501   3.384  14.830 -0.2287 -0.2752 -0.4659
  786MPD2    H511650   0.521   3.476  14.869  2.1641 -1.4184  0.9714
  786MPD2    N111651   0.304   3.153  14.438  0.5147  0.2045  0.1601
  786MPD2    H711652   0.263   3.184  14.350 -2.8247 -0.5177  1.4592
  787MPD2     C11653   0.126   2.314  14.066  0.2535 -0.8148 -0.0750
  787MPD2    C111654   0.236   2.384  14.123  0.4527  0.4975 -0.5890
  787MPD2    C211655   0.358   2.321  14.111 -0.7059  0.2058 -0.1336
  787MPD2    C311656   0.375   2.190  14.059  0.2584 -0.6775  0.4130
  787MPD2    C411657   0.266   2.129  14.007  0.7530  0.0970 -0.3718
  787MPD2    C511658   0.149   2.197  14.007 -0.6225 -0.4744  0.1885
  787MPD2     H11659   0.447   2.371  14.148 -0.0257  0.1773 -1.7089
  787MPD2    H111660   0.276   2.030  13.964 -0.1345 -0.8018  1.4967
  787MPD2    H211661   0.028   2.361  14.068 -0.0825 -1.5258  0.3664
  787MPD2    H311662   0.060   2.162  13.955 -0.2831 -2.5020  0.9412
  787MPD2     N11663   0.509   2.138  14.057  0.0815  0.5793  0.7601
  787MPD2    H511664   0.589   2.193  14.087  1.6821  0.0319 -2.4294
  787MPD2    N111665   0.211   2.514  14.172 -0.3073 -0.3805  0.0470
  787MPD2    H711666   0.119   2.557  14.170 -0.0934  0.0078 -1.3747
  788MPD2     C11667   1.931   2.404   1.011  0.5132 -0.0168 -1.2696
  788MPD2    C111668   1.980   2.298   0.938  0.0961  0.4090  0.4624
  788MPD2    C211669   2.039   2.324   0.814 -0.0272 -0.4925 -0.7066
  788MPD2    C311670   2.038   2.449   0.753 -0.2615  0.2033  0.4371
  788MPD2    C411671   1.985   2.554   0.830  0.0805 -0.0465  0.0718
  788MPD2    C511672   1.941   2.530   0.960  0.3382  0.2894  0.3463
  788MPD2     H11673   2.074   2.239   0.757  2.2099 -1.2594  1.8031
  788MPD2    H111674   1.972   2.653   0.789 -0.2238  0.4075  1.2624
  788MPD2    H211675   1.892   2.396   1.111  2.0960  0.0289 -0.6489
  788MPD2    H311676   1.907   2.604   1.031 -2.0268 -1.3119  0.8963
  788MPD2     N11677   2.092   2.470   0.621 -0.2748  0.5763  0.0073
  788MPD2    H511678   2.092   2.562   0.579 -2.2742  1.2210  1.3906
  788MPD2    N111679   1.969   2.167   0.984  0.0840  0.6126  0.2162
  788MPD2    H711680   2.004   2.096   0.920 -1.7571 -2.0616  2.1384
  789MPD2     C11681   1.828   0.941  16.832  0.1475  0.6954  0.0587
  789MPD2    C111682   1.757   0.983  16.722  0.0961 -0.2778 -0.5104
  789MPD2    C211683   1.675   1.093  16.728 -0.5048 -0.0610  0.6742
  789MPD2    C311684   1.684   1.176  16.843 -0.3658 -0.5561 -0.1473
  789MPD2    C411685   1.746   1.122  16.949  0.1853 -0.1570  0.8647
  789MPD2    C511686   1.819   1.012  16.948 -0.0445 -0.5316  0.3934
  789MPD2     H11687   1.613   1.100  16.639 -2.3887  2.5266  2.2226
  789MPD2    H111688   1.743   1.174  17.044  2.2263 -0.0073  0.8481
  789MPD2    H211689   1.885   0.850  16.827  1.8388  1.7630  0.0551
  789MPD2    H311690   1.872   0.987  17.040  1.1842  1.5790  0.2607
  789MPD2     N11691   1.639   1.310  16.858 -0.3560 -0.2123 -0.1441
  789MPD2    H511692   1.664   1.363  16.941  1.7400  0.4443 -1.1986
  789MPD2    N111693   1.763   0.921  16.594 -0.1750  0.8330  0.0346
  789MPD2    H711694   1.719   0.974  16.520  0.7001  0.6020 -0.6452
  790MPD2     C11695   2.833   2.963  13.372  0.3253  0.1496  0.3392
  790MPD2    C111696   2.898   2.868  13.445 -0.0504 -0.5269  0.2855
  790MPD2    C211697   2.969   2.770  13.375 -0.4816 -0.1690 -0.5489
  790MPD2    C311698   2.962   2.765  13.238  0.4630  0.2636 -0.1954
  790MPD2    C411699   2.893   2.864  13.170 -0.4006  0.4172 -0.3567
  790MPD2    C511700   2.830   2.958  13.239 -0.8536 -0.2254  0.4536
  790MPD2     H11701   3.008   2.685  13.429 -1.2437 -0.4916 -0.5120
  790MPD2    H111702   2.885   2.875  13.063  0.9731  0.8455 -0.4169
  790MPD2    H211703   2.778   3.039  13.426 -2.2212  0.0092 -2.1114
  790MPD2    H311704   2.772   3.031  13.183 -1.1778 -1.5666 -0.9613
  790MPD2     N11705   3.027   2.658  13.166  0.7276  0.8143 -0.9306
  790MPD2    H511706   3.069   2.583  13.220  1.3273  1.0865 -1.0237
  790MPD2    N111707   2.911   2.880  13.583 -0.0761  0.1907  0.4909
  790MPD2    H711708   2.862   2.962  13.617  0.4527  0.3225  0.9210
  791MPD2     C11709   2.742   1.923  12.859 -0.0179 -0.3386  0.9447
  791MPD2    C111710   2.741   2.038  12.929  0.0456  1.0598 -0.4826
  791MPD2    C211711   2.643   2.066  13.019  0.6966 -0.2953  0.3263
  791MPD2    C311712   2.544   1.970  13.041  0.5485 -0.2199 -0.1312
  791MPD2    C411713   2.537   1.858  12.951 -0.3807 -0.8362  0.3199
  791MPD2    C511714   2.637   1.835  12.862 -0.2898 -0.5836 -0.2107
  791MPD2     H11715   2.650   2.148  13.090 -1.4322 -0.1448  0.3539
  791MPD2    H111716   2.466   1.778  12.966 -2.5030  0.8411 -0.8392
  791MPD2    H211717   2.814   1.899  12.782 -1.1714  0.8762 -0.5261
  791MPD2    H311718   2.638   1.747  12.798  0.6366  0.0325 -1.0277
  791MPD2     N11719   2.444   1.999  13.137 -0.9126 -0.0993 -0.0397
  791MPD2    H511720   2.460   2.077  13.199  0.1323 -1.2766  1.1593
  791MPD2    N111721   2.853   2.127  12.912 -0.0570  0.2127  0.4363
  791MPD2    H711722   2.940   2.084  12.883 -0.9204 -1.3179  0.0970
  792MPD2     C11723   2.814   2.118  11.068  1.1510 -0.9048 -0.4788
  792MPD2    C111724   2.792   2.179  10.942 -1.0237 -0.2598  0.2286
  792MPD2    C211725   2.695   2.132  10.856  0.1818  0.5943  1.1506
  792MPD2    C311726   2.622   2.023  10.879  0.3337  0.2309  0.4831
  792MPD2    C411727   2.648   1.957  10.998 -0.2402  0.1302 -0.1891
  792MPD2    C511728   2.744   2.004  11.092 -0.1628  0.1164  0.1634
  792MPD2     H11729   2.684   2.194  10.767 -1.8067 -1.1031  0.2096
  792MPD2    H111730   2.601   1.862  11.020 -3.2001  1.5617 -0.3541
  792MPD2    H211731   2.874   2.159  11.148 -0.7644 -0.7428  0.8751
  792MPD2    H311732   2.756   1.970  11.194  2.2699 -0.0199 -0.1628
  792MPD2     N11733   2.529   1.960  10.791 -0.5098 -0.5899 -0.1781
  792MPD2    H511734   2.487   1.871  10.816 -0.2624 -0.7147 -0.2131
  792MPD2    N111735   2.852   2.306  10.927 -0.0351  0.4395  0.0755
  792MPD2    H711736   2.933   2.325  10.984 -0.7527 -4.0465  2.5635
  793MPD2     C11737   1.991   2.063   9.914 -0.0802  0.1114 -0.5916
  793MPD2    C111738   2.114   2.111   9.949  0.6082 -0.1825  0.4440
  793MPD2    C211739   2.165   2.099  10.075 -0.3617  0.1049  0.2668
  793MPD2    C311740   2.105   2.009  10.164 -0.2453 -0.4716  0.5663
  793MPD2    C411741   1.989   1.944  10.113  0.6673  0.4326 -0.0565
  793MPD2    C511742   1.928   1.977   9.997  0.2472 -0.3089 -0.7291
  793MPD2     H11743   2.248   2.161  10.104 -0.5203  0.4899 -0.0856
  793MPD2    H111744   1.934   1.874  10.176  0.4468  1.1873  0.5802
  793MPD2    H211745   1.951   2.094   9.818  0.4106  1.3953 -0.3816
  793MPD2    H311746   1.834   1.929   9.972 -1.7768  2.8275  0.7222
  793MPD2     N11747   2.160   1.984  10.295  0.3491 -0.0219 -0.1664
  793MPD2    H511748   2.244   2.032  10.328 -0.1860  0.5926  0.3145
  793MPD2    N111749   2.194   2.177   9.855 -0.0016  0.3744 -0.5972
  793MPD2    H711750   2.279   2.223   9.886 -0.3929 -0.4165  1.6489
  794MPD2     C11751   2.355   2.627  17.081  0.0991 -0.0005  0.1148
  794MPD2    C111752   2.364   2.494  17.075  0.2071  0.2384 -0.0897
  794MPD2    C211753   2.296   2.438  16.968  0.4569  0.5643 -0.4771
  794MPD2    C311754   2.225   2.507  16.872 -0.2476  0.3380 -0.2409
  794MPD2    C411755   2.206   2.638  16.892  0.1575 -0.2725 -0.0596
  794MPD2    C511756   2.287   2.699  16.984  0.1387  0.5050  0.1091
  794MPD2     H11757   2.298   2.330  16.956  1.5435  0.3795  1.4790
  794MPD2    H111758   2.136   2.698  16.835  0.5311 -0.6669 -0.9467
  794MPD2    H211759   2.413   2.685  17.153 -0.9911  0.0083  0.9833
  794MPD2    H311760   2.277   2.806  16.998 -0.5252  0.1643  2.1818
  794MPD2     N11761   2.144   2.444  16.774  0.0880 -0.4922  0.8349
  794MPD2    H511762   2.082   2.506  16.724  0.6173 -0.2980  0.4174
  794MPD2    N111763   2.415   2.416  17.183  0.2318 -0.3614 -0.2365
  794MPD2    H711764   2.413   2.316  17.167  0.1246 -0.2236 -1.0779
  795MPD2     C11765   0.495   3.607  13.675  0.3967  0.5979 -0.2059
  795MPD2    C111766   0.532   3.570  13.546  0.7486 -0.2175 -0.4355
  795MPD2    C211767   0.663   3.521  13.532 -0.0509  0.3833  0.1988
  795MPD2    C311768   0.761   3.524  13.631  0.0937  0.0001 -0.0146
  795MPD2    C411769   0.726   3.579  13.757  0.2391 -0.1864 -0.0167
  795MPD2    C511770   0.589   3.609  13.775  1.0599 -0.0928  0.4310
  795MPD2     H11771   0.698   3.481  13.437 -2.0263 -3.0724  0.9678
  795MPD2    H111772   0.793   3.590  13.841  0.8924  1.9755 -0.8139
  795MPD2    H211773   0.394   3.631  13.708  0.6753  1.5591 -0.0415
  795MPD2    H311774   0.548   3.645  13.869  1.1562 -0.8928  0.7803
  795MPD2     N11775   0.894   3.464  13.624 -0.5856 -0.0112  0.1587
  795MPD2    H511776   0.907   3.416  13.535  1.6798  0.5139  0.2078
  795MPD2    N111777   0.434   3.571  13.448 -0.6064  0.3167  0.1652
  795MPD2    H711778   0.456   3.536  13.355 -0.9398 -0.9577  0.5586
  796MPD2     C11779   4.708   1.192  16.127  0.3937 -0.0069  0.0781
  796MPD2    C111780   4.716   1.295  16.218 -0.2414 -0.7495 -0.4788
  796MPD2    C211781   4.711   1.428  16.178 -0.3617 -0.2004 -0.0195
  796MPD2    C311782   4.699   1.457  16.042  0.0057 -0.2147  0.2407
  796MPD2    C411783   4.696   1.353  15.949 -0.1777  0.0778 -0.3966
  796MPD2    C511784   4.695   1.220  15.989  0.4970 -0.3499 -0.1285
  796MPD2     H11785   4.720   1.511  16.247 -1.5204  1.1140 -1.4494
  796MPD2    H111786   4.688   1.365  15.842  0.7577 -2.0495 -0.6950
  796MPD2    H211787   4.724   1.089  16.158 -0.9169 -0.2993 -0.2204
  796MPD2    H311788   4.686   1.132  15.927  1.1744  0.8193 -1.8705
  796MPD2     N11789   4.691   1.594  16.000 -0.7450  0.0252  0.0927
  796MPD2    H511790   4.716   1.668  16.065 -2.1933  0.0933  0.5797
  796MPD2    N111791   4.706   1.250  16.344  0.0986  0.3164 -1.2523
  796MPD2    H711792   4.714   1.149  16.358  0.6423  0.6847  1.1836
  797MPD2     C11793   0.940   0.960   0.018 -0.0746  0.1121  0.1372
  797MPD2    C111794   0.942   1.092   0.071 -0.0042 -0.4772 -0.2656
  797MPD2    C211795   0.833   1.173   0.062 -0.2223 -0.4876  0.1325
  797MPD2    C311796   0.720   1.134   0.001 -0.2186  0.6047 -0.1625
  797MPD2    C411797   0.704   1.000  17.716  0.2434 -0.1101 -0.0940
  797MPD2    C511798   0.816   0.916  17.716 -0.1451  0.1502  0.8309
  797MPD2     H11799   0.831   1.278   0.089 -0.3020 -0.5083  0.2063
  797MPD2    H111800   0.614   0.956  17.674 -0.1932  1.2192 -0.5549
  797MPD2    H211801   1.025   0.893   0.005 -1.3334 -1.4145 -0.2308
  797MPD2    H311802   0.805   0.815  17.677  0.1371  0.6177 -0.4404
  797MPD2     N11803   0.613   1.227  17.749  0.2256  0.1548 -0.0544
  797MPD2    H511804   0.613   1.314   0.050  0.2752 -0.4102  0.8761
  797MPD2    N111805   1.055   1.153   0.117 -0.0544 -0.0204  0.2379
  797MPD2    H711806   1.038   1.247   0.151 -3.3076 -0.5468  0.0163
  798MPD2     C11807   0.825   1.858   0.066 -0.2410  0.5103  0.0158
  798MPD2    C111808   0.794   1.722   0.092 -0.8762  0.8087 -0.2313
  798MPD2    C211809   0.891   1.634   0.114  0.1582  0.1144  0.0331
  798MPD2    C311810   1.022   1.669   0.121 -0.2752 -0.2824 -0.3073
  798MPD2    C411811   1.054   1.801   0.095  0.0609  0.8075  0.4475
  798MPD2    C511812   0.956   1.888   0.057 -0.5676 -0.5042 -0.3525
  798MPD2     H11813   0.875   1.527   0.128 -0.6904  0.3556  0.9204
  798MPD2    H111814   1.157   1.835   0.101  0.8139 -1.3187 -0.6158
  798MPD2    H211815   0.746   1.931   0.056 -1.4892 -0.8860 -0.2615
  798MPD2    H311816   0.989   1.990   0.045 -1.0630 -0.1285  1.5155
  798MPD2     N11817   1.115   1.565   0.133  0.3642 -1.0102  0.3337
  798MPD2    H511818   1.072   1.479   0.167 -0.1071 -0.8485  0.1393
  798MPD2    N111819   0.655   1.684   0.075 -0.3508 -0.4162 -0.1546
  798MPD2    H711820   0.592   1.746   0.024 -0.8771 -2.1914 -1.6676
  799MPD2     C11821   0.152   2.063  14.981  0.7648 -0.4446  0.5762
  799MPD2    C111822   0.085   1.961  14.916 -1.2167 -0.2144  0.5452
  799MPD2    C211823   4.722   1.998  14.832 -0.3201 -0.1684  0.3547
  799MPD2    C311824   4.687   2.127  14.789 -0.1128 -0.4640 -0.2393
  799MPD2    C411825   0.028   2.225  14.842  0.1761  0.2066  0.2172
  799MPD2    C511826   0.120   2.192  14.939 -0.5436  0.1214  0.5849
  799MPD2     H11827   4.669   1.913  14.791  1.7356 -0.6102 -1.3916
  799MPD2    H111828   0.010   2.330  14.823 -0.6655  0.0904  0.3732
  799MPD2    H211829   0.230   2.057  15.055 -0.8780 -1.1025  2.2549
  799MPD2    H311830   0.163   2.281  14.982  2.2868  0.3338 -2.6758
  799MPD2     N11831   4.589   2.160  14.692  0.3942  0.4331  0.3456
  799MPD2    H511832   4.583   2.260  14.676 -0.8256  0.4749  1.1032
  799MPD2    N111833   0.100   1.822  14.947 -0.0062  0.5718 -0.4957
  799MPD2    H711834   0.055   1.747  14.896  1.0027 -1.1984  1.1865
  800MPD2     C11835   0.358   2.960  13.657  0.2337 -0.0760  0.2429
  800MPD2    C111836   0.493   2.984  13.660 -0.0569  0.8426  0.0931
  800MPD2    C211837   0.569   2.903  13.577 -0.0334  0.1077  0.1902
  800MPD2    C311838   0.516   2.796  13.503  0.0922 -0.0449 -0.6998
  800MPD2    C411839   0.380   2.779  13.505  0.1088  0.5873 -0.6257
  800MPD2    C511840   0.301   2.856  13.584  0.3903 -0.3326  0.2785
  800MPD2     H11841   0.677   2.917  13.572  0.1009 -1.7507 -1.9940
  800MPD2    H111842   0.324   2.706  13.448  2.8811 -1.8144 -0.2943
  800MPD2    H211843   0.287   3.011  13.720 -1.1067  0.0709 -1.3923
  800MPD2    H311844   0.195   2.852  13.561  0.2502 -0.9068  1.0280
  800MPD2     N11845   0.605   2.707  13.435  0.1157 -0.5298 -0.5063
  800MPD2    H511846   0.702   2.734  13.446 -0.1986  0.9747 -1.4379
  800MPD2    N111847   0.547   3.076  13.747 -0.5849  0.6601 -0.1857
  800MPD2    H711848   0.481   3.117  13.812 -0.6169 -0.0302  0.2142
  801MPD2     C11849   0.392   3.663  14.182  0.0524 -0.7193 -0.3264
  801MPD2    C111850   0.341   3.564  14.106 -0.2499 -0.5466 -0.5034
  801MPD2    C211851   0.210   3.580  14.058  0.3794 -0.0428 -0.0710
  801MPD2    C311852   0.132   3.686  14.095 -0.8574 -0.2442  0.3872
  801MPD2    C411853   0.187   3.782  14.171 -0.2797 -0.3195  0.4756
  801MPD2    C511854   0.311   3.765  14.219 -0.5551  0.2442 -0.5587
  801MPD2     H11855   0.169   3.498  13.999  0.4618 -0.5097  0.5137
  801MPD2    H111856   0.133   3.865  14.215  1.3748  0.6312  0.7223
  801MPD2    H211857   0.496   3.664  14.211  0.1894  1.6226 -0.8948
  801MPD2    H311858   0.346   3.848  14.279 -0.6497  1.3790 -2.0721
  801MPD2     N11859   0.003   3.707  14.060 -0.3997 -0.1129  0.1667
  801MPD2    H511860   4.702   3.794  14.095  0.9070  0.7005 -0.3758
  801MPD2    N111861   0.417   3.455  14.061  0.1089 -0.3800  1.0065
  801MPD2    H711862   0.372   3.388  14.000 -1.3113  0.4974  1.1011
  802MPD2     C11863   4.668   0.404   0.116 -0.0726 -0.2864  0.4596
  802MPD2    C111864   4.586   0.390   0.001  0.3961  0.2136  0.3905
  802MPD2    C211865   4.610   0.281  17.672  0.5713 -0.5467 -0.7297
  802MPD2    C311866   4.713   0.193  17.689 -0.0081  0.0551  0.6929
  802MPD2    C411867   0.066   0.218   0.039 -0.1036  0.4669 -0.6299
  802MPD2    C511868   0.046   0.328   0.122  0.0844 -0.0147  0.2590
  802MPD2     H11869   4.532   0.262  17.599  1.5128  1.3103 -2.2148
  802MPD2    H111870   0.151   0.155   0.064 -0.4476 -0.4547 -1.7846
  802MPD2    H211871   4.662   0.490   0.182  0.1018  0.9760 -1.1816
  802MPD2    H311872   0.118   0.351   0.200  0.0164 -0.6062  0.4935
  802MPD2     N11873   4.719   0.077  17.606 -0.0839  0.9027 -0.5581
  802MPD2    H511874   4.653   0.077  17.528 -1.5918 -0.6495  0.7256
  802MPD2    N111875   4.472   0.474  17.726 -0.0587  0.0073  0.4016
  802MPD2    H711876   4.402   0.445  17.658 -0.0716  0.4541  0.2275
  803MPD2     C11877   0.554   2.031  12.617 -0.0739  0.9576  0.5841
  803MPD2    C111878   0.638   2.100  12.541 -0.5338 -0.4826  0.0050
  803MPD2    C211879   0.766   2.119  12.589  0.6889 -0.1185  0.5433
  803MPD2    C311880   0.802   2.103  12.718 -0.4185  0.2566  0.8150
  803MPD2    C411881   0.705   2.043  12.793  0.8336  0.7898 -0.1555
  803MPD2    C511882   0.587   1.999  12.744  0.0442  0.2681  0.1649
  803MPD2     H11883   0.831   2.166  12.517  2.2699 -0.0179  2.0625
  803MPD2    H111884   0.735   2.015  12.894 -0.3041  0.9517  0.2334
  803MPD2    H211885   0.465   1.986  12.575  1.3042  0.2082 -1.5636
  803MPD2    H311886   0.515   1.936  12.795  0.6599  1.2216  2.2209
  803MPD2     N11887   0.924   2.148  12.775  0.6115 -0.0809 -0.3810
  803MPD2    H511888   0.947   2.125  12.871  0.8671  0.0031 -0.4224
  803MPD2    N111889   0.616   2.120  12.402 -0.2191 -0.8124  0.9418
  803MPD2    H711890   0.691   2.157  12.345 -2.7545  1.4463 -0.9457
  804MPD2     C11891   0.262   4.335  17.048  0.5018 -0.1327  0.1302
  804MPD2    C111892   0.316   4.293  17.168  0.1480 -0.9150 -0.2325
  804MPD2    C211893   0.385   4.384  17.252  0.5704  0.2507 -0.3176
  804MPD2    C311894   0.393   4.518  17.216  0.1161 -0.0695  0.3950
  804MPD2    C411895   0.346   4.559  17.090 -0.0354 -0.0849  0.3422
  804MPD2    C511896   0.277   4.467  17.008 -0.2978 -0.9088  0.0309
  804MPD2     H11897   0.422   4.349  17.348  0.1355  1.1209  0.1608
  804MPD2    H111898   0.355   4.662  17.058 -0.2664  0.1780  1.1285
  804MPD2    H211899   0.214   4.263  16.983  0.5310 -1.1446  1.2354
  804MPD2    H311900   0.239   4.502  16.913  2.5531  0.6671 -0.5191
  804MPD2     N11901   0.468   4.601  17.301 -0.0988  0.1648 -0.2194
  804MPD2    H511902   0.492   4.565  17.393 -1.1254  1.3308  0.5187
  804MPD2    N111903   0.304   4.162  17.218  0.0838  0.2370  0.4982
  804MPD2    H711904   0.311   4.154  17.319  0.3155 -1.7521  0.3264
  805MPD2     C11905   4.343   2.679  15.464 -0.1973  0.4498 -0.2783
  805MPD2    C111906   4.401   2.610  15.357  0.1599  0.2605  0.5400
  805MPD2    C211907   4.536   2.569  15.357 -0.3061  0.4884  0.4175
  805MPD2    C311908   4.602   2.574  15.476 -0.4447 -0.0407 -0.3159
  805MPD2    C411909   4.548   2.642  15.582  0.0567  0.4620  0.3733
  805MPD2    C511910   4.419   2.692  15.578  0.7711 -0.6154  0.3685
  805MPD2     H11911   4.575   2.505  15.279 -3.7444 -1.8794  0.6502
  805MPD2    H111912   4.603   2.654  15.675  0.8858 -0.6870  0.0290
  805MPD2    H211913   4.239   2.710  15.469 -0.8806 -1.8057 -0.8949
  805MPD2    H311914   4.369   2.739  15.661 -0.9947 -0.8742 -0.5642
  805MPD2     N11915   4.733   2.517  15.477 -0.6852  0.9082  0.1755
  805MPD2    H511916   0.039   2.479  15.394  0.4147  4.1729 -0.7298
  805MPD2    N111917   4.332   2.591  15.232  0.1715  0.4036 -0.3144
  805MPD2    H711918   4.384   2.537  15.163  0.5425 -1.7610  1.6658
  806MPD2     C11919   4.611   2.421   0.347 -0.0705  0.1950  0.0906
  806MPD2    C111920   4.712   2.495   0.400  0.2720 -0.2423 -0.0825
  806MPD2    C211921   0.062   2.564   0.318  0.6518 -0.0171 -0.1079
  806MPD2    C311922   0.054   2.560   0.181 -0.7557 -0.3328 -0.4352
  806MPD2    C411923   4.702   2.474   0.125  0.2049 -0.2160 -0.1076
  806MPD2    C511924   4.619   2.406   0.208  0.7396  0.3842  0.1595
  806MPD2     H11925   0.144   2.623   0.358 -0.0644 -0.3657  1.8890
  806MPD2    H111926   4.694   2.452   0.020  1.5411  3.0598 -0.8970
  806MPD2    H211927   4.549   2.356   0.406  0.9288 -0.9149 -0.0727
  806MPD2    H311928   4.549   2.340   0.158  1.4288  0.3362 -0.7244
  806MPD2     N11929   0.147   2.634   0.110  0.7289  0.7514 -0.4193
  806MPD2    H511930   0.203   2.692   0.172  0.8667 -0.5350  0.6650
  806MPD2    N111931   4.717   2.501   0.543 -0.5815 -0.3666  0.3940
  806MPD2    H711932   4.639   2.460   0.593 -0.6761 -1.4593 -0.6422
  807MPD2     C11933   4.435   2.250   1.208 -0.7658 -0.1030  0.6965
  807MPD2    C111934   4.574   2.232   1.210 -0.1110  0.2124 -0.2599
  807MPD2    C211935   4.614   2.129   1.290 -0.2894 -0.5479  0.8978
  807MPD2    C311936   4.527   2.049   1.363 -0.0594  0.0700 -0.1695
  807MPD2    C411937   4.389   2.076   1.358  0.2207  0.4895 -0.2549
  807MPD2    C511938   4.348   2.170   1.273 -0.6113  0.3008 -0.2711
  807MPD2     H11939   4.718   2.108   1.312  0.4696 -0.0983 -2.3543
  807MPD2    H111940   4.308   2.026   1.410  0.2887  0.8036  0.1515
  807MPD2    H211941   4.392   2.321   1.138  1.9339  2.8400  2.0715
  807MPD2    H311942   4.242   2.193   1.271 -0.4612  1.0300  0.1327
  807MPD2     N11943   4.580   1.945   1.439 -0.2875 -0.5369 -0.1997
  807MPD2    H511944   4.681   1.939   1.440 -0.2717 -0.1214  0.8709
  807MPD2    N111945   4.664   2.319   1.137  0.6732 -0.2140  0.0755
  807MPD2    H711946   0.023   2.317   1.164  0.6901  2.3957  0.1407
  808MPD2     C11947   0.385   2.675   9.684 -0.0955  0.5124 -0.6811
  808MPD2    C111948   0.444   2.685   9.807  0.4469 -1.0509 -0.8812
  808MPD2    C211949   0.506   2.805   9.846 -0.1369  0.2635  0.6171
  808MPD2    C311950   0.502   2.917   9.762  0.1560  0.1748  0.4215
  808MPD2    C411951   0.442   2.902   9.641  0.1886 -0.9931 -0.3660
  808MPD2    C511952   0.389   2.778   9.606 -0.5651 -0.5642  0.7484
  808MPD2     H11953   0.549   2.814   9.946 -0.6065  1.2883  0.7269
  808MPD2    H111954   0.428   2.996   9.588  1.1533 -1.9188 -2.2266
  808MPD2    H211955   0.339   2.589   9.637  0.2044 -0.2255  0.3773
  808MPD2    H311956   0.339   2.768   9.510  2.1897  1.7276 -0.9416
  808MPD2     N11957   0.557   3.041   9.797  0.5247 -0.2448  0.0016
  808MPD2    H511958   0.566   3.108   9.721 -1.0932 -2.7947 -2.4320
  808MPD2    N111959   0.444   2.574   9.889 -0.4370 -0.4444 -0.5551
  808MPD2    H711960   0.491   2.573   9.979 -1.1598  0.2848 -0.1765
  809MPD2     C11961   1.271   3.691   9.532 -0.2743  0.6415  0.2092
  809MPD2    C111962   1.249   3.554   9.518 -0.0498  0.3312  0.2462
  809MPD2    C211963   1.146   3.494   9.589 -1.0156  0.1826 -0.1697
  809MPD2    C311964   1.062   3.582   9.663  0.0527 -0.0987  0.4362
  809MPD2    C411965   1.086   3.717   9.678 -0.0179 -0.0336 -0.2555
  809MPD2    C511966   1.192   3.770   9.613 -0.1256  0.2536 -0.2238
  809MPD2     H11967   1.122   3.388   9.589 -1.6199  0.3157  0.6310
  809MPD2    H111968   1.019   3.788   9.724  0.8103 -0.3824  1.4921
  809MPD2    H211969   1.352   3.740   9.479 -0.4865 -0.6197 -1.2678
  809MPD2    H311970   1.212   3.877   9.610  0.0448  0.1933 -1.3605
  809MPD2     N11971   0.950   3.529   9.734  0.2976  0.2467  0.1161
  809MPD2    H511972   0.908   3.580   9.811 -0.8072 -0.4916 -0.0052
  809MPD2    N111973   1.331   3.470   9.442 -0.2881  0.6369  0.0511
  809MPD2    H711974   1.310   3.371   9.439 -2.0519  0.9654  1.8077
  810MPD2     C11975   4.722   2.221  10.416  0.2948  0.8737  0.1787
  810MPD2    C111976   4.589   2.204  10.386  0.7665 -0.0222 -0.3253
  810MPD2    C211977   4.495   2.275  10.455 -0.3914 -0.2556 -0.2914
  810MPD2    C311978   4.533   2.382  10.538 -0.0490  0.2983  0.0231
  810MPD2    C411979   4.665   2.393  10.563 -0.0327  1.1830 -0.0385
  810MPD2    C511980   0.019   2.313  10.500 -0.1980  1.2493 -0.2125
  810MPD2     H11981   4.389   2.258  10.438 -0.4134  1.6377 -1.9441
  810MPD2    H111982   4.693   2.462  10.641 -0.4100  1.0540  0.2112
  810MPD2    H211983   0.061   2.160  10.370  0.5284  0.3094  1.3234
  810MPD2    H311984   0.121   2.333  10.532  0.2105  1.1145 -1.4299
  810MPD2     N11985   4.443   2.481  10.590 -0.1163  0.1813 -0.4309
  810MPD2    H511986   4.460   2.554  10.659  2.1889  0.0390 -0.8612
  810MPD2    N111987   4.548   2.101  10.298 -0.4499 -0.1233  0.5915
  810MPD2    H711988   4.615   2.049  10.241  0.5494 -0.1129  1.7504
  811MPD2     C11989   4.131   2.275   9.568  0.8940 -0.0736 -0.9825
  811MPD2    C111990   4.215   2.310   9.674  0.3910 -0.2362  0.0365
  811MPD2    C211991   4.222   2.439   9.713 -0.8706  0.0614 -0.1819
  811MPD2    C311992   4.142   2.529   9.646  0.4111  0.0769  0.1142
  811MPD2    C411993   4.051   2.491   9.551  0.4131  0.5334  0.3773
  811MPD2    C511994   4.044   2.364   9.511 -0.4718  0.2516 -0.0070
  811MPD2     H11995   4.282   2.473   9.796  1.0613 -0.6478 -1.3047
  811MPD2    H111996   3.984   2.565   9.510 -0.6452  0.0652  1.2499
  811MPD2    H211997   4.119   2.169   9.550  1.2724 -0.6754  2.3868
  811MPD2    H311998   3.969   2.336   9.437 -1.3059 -0.8183  1.2575
  811MPD2     N11999   4.148   2.661   9.699  0.2904  0.4272  0.0999
  811MPD2    H512000   4.209   2.676   9.779  0.6684 -0.6519  0.0203
  811MPD2    N112001   4.287   2.208   9.742  0.2369  0.6443 -0.5850
  811MPD2    H712002   4.256   2.117   9.709  2.9071 -0.3702 -0.2955
  812MPD2     C12003   3.327   1.835  12.128 -0.0230  0.5818 -1.0722
  812MPD2    C112004   3.268   1.951  12.182 -0.2850  0.3684 -0.3463
  812MPD2    C212005   3.335   2.010  12.282 -0.3881  0.4215  0.5609
  812MPD2    C312006   3.460   1.971  12.324 -0.0657 -0.5468  0.1351
  812MPD2    C412007   3.517   1.861  12.274 -0.1530  0.2943  0.0385
  812MPD2    C512008   3.449   1.798  12.170  0.4151  0.5326  0.6732
  812MPD2     H12009   3.299   2.105  12.320 -1.2604  0.1704  0.3523
  812MPD2    H112010   3.602   1.802  12.307 -0.9991 -0.2882  1.2051
  812MPD2    H212011   3.277   1.759  12.069  1.0174 -0.7417 -0.2390
  812MPD2    H312012   3.480   1.702  12.131  1.3100  0.8189  0.6795
  812MPD2     N12013   3.509   2.039  12.432  0.1314 -0.2084 -0.4760
  812MPD2    H512014   3.461   2.123  12.465 -2.6970 -3.0794  2.7722
  812MPD2    N112015   3.133   1.974  12.152  0.0608  0.1477 -0.1509
  812MPD2    H712016   3.084   1.917  12.083  1.5543  0.7312 -1.6918
  813MPD2     C12017   3.146   4.235  12.627  0.6608 -0.0915  0.4884
  813MPD2    C112018   3.178   4.364  12.660  0.6612 -0.0432  0.0463
  813MPD2    C212019   3.103   4.419  12.770 -0.0541 -0.0909  0.8081
  813MPD2    C312020   2.997   4.354  12.820  0.0393 -0.0198  0.2563
  813MPD2    C412021   2.962   4.231  12.771 -0.0056 -0.0829  0.2625
  813MPD2    C512022   3.035   4.171  12.679 -0.4344 -0.0149 -0.2214
  813MPD2     H12023   3.134   4.513  12.814  0.5036 -0.9272  2.1958
  813MPD2    H112024   2.874   4.185  12.815 -1.8806  2.2643 -1.0157
  813MPD2    H212025   3.201   4.181  12.551  0.7617 -0.8295  1.0902
  813MPD2    H312026   3.017   4.068  12.649 -0.9123 -0.5690  1.9716
  813MPD2     N12027   2.924   4.418  12.915  0.6684  0.2388  0.3579
  813MPD2    H512028   2.943   4.518  12.921  0.7636  0.2558 -0.1661
  813MPD2    N112029   3.291   4.429  12.609 -0.2474 -0.7687 -0.2126
  813MPD2    H712030   3.340   4.377  12.537  0.3682 -2.0244  1.1354
  814MPD2     C12031   3.297   0.938  12.218 -0.1926 -0.1202 -0.1739
  814MPD2    C112032   3.254   1.054  12.148  0.0335  0.2165 -0.1417
  814MPD2    C212033   3.281   1.183  12.199 -0.0477  0.1850  0.0382
  814MPD2    C312034   3.348   1.189  12.313 -0.4701  0.1542 -0.6021
  814MPD2    C412035   3.390   1.081  12.387 -0.2756  0.4993  0.4072
  814MPD2    C512036   3.365   0.960  12.333  0.5046 -0.0554 -0.2786
  814MPD2     H12037   3.237   1.269  12.148 -0.6282  0.0675  0.3414
  814MPD2    H112038   3.435   1.079  12.486  0.9590 -0.6408 -0.1821
  814MPD2    H212039   3.267   0.836  12.200  0.8413 -0.2708 -1.0481
  814MPD2    H312040   3.388   0.876  12.398  2.7855  0.3518 -0.5549
  814MPD2     N12041   3.380   1.315  12.372 -0.4957  0.0081 -0.1332
  814MPD2    H512042   3.421   1.314  12.465  0.2271  1.6189 -0.4381
  814MPD2    N112043   3.174   1.038  12.031 -0.0646  0.1996  0.0755
  814MPD2    H712044   3.134   1.122  11.988 -0.4996 -0.4511 -0.7810
  815MPD2     C12045   3.675   3.220  12.212  0.1423 -0.0633  0.0343
  815MPD2    C112046   3.601   3.299  12.124 -0.1489 -0.0883  0.4482
  815MPD2    C212047   3.487   3.361  12.174  0.3234 -0.3194  0.0304
  815MPD2    C312048   3.446   3.333  12.307 -0.5246 -0.0229 -0.4536
  815MPD2    C412049   3.524   3.268  12.398  0.3181  0.0725  0.0155
  815MPD2    C512050   3.637   3.217  12.346  0.2664  0.0984 -0.3075
  815MPD2     H12051   3.422   3.422  12.113 -0.6673 -0.8330  0.5762
  815MPD2    H112052   3.493   3.264  12.502  0.1749 -2.9510 -0.1445
  815MPD2    H212053   3.766   3.176  12.174  0.6703  1.2058 -0.1805
  815MPD2    H312054   3.686   3.144  12.410 -1.6064 -1.7695 -1.0043
  815MPD2     N12055   3.313   3.368  12.344  0.2095 -0.5820 -0.1271
  815MPD2    H512056   3.260   3.425  12.279 -2.6468 -3.7416 -0.5467
  815MPD2    N112057   3.640   3.296  11.995 -0.0748 -0.8008  0.1479
  815MPD2    H712058   3.699   3.220  11.964 -0.6476 -0.7514 -1.0584
  816MPD2     C12059   3.144   3.637  17.187  0.1112  0.1697  0.2274
  816MPD2    C112060   3.261   3.709  17.199  0.2768  0.4359 -0.4613
  816MPD2    C212061   3.375   3.642  17.178 -0.5239  0.6037 -0.2198
  816MPD2    C312062   3.380   3.513  17.132  0.4446  0.6845  0.0990
  816MPD2    C412063   3.264   3.441  17.106 -0.0475  0.6580 -0.4789
  816MPD2    C512064   3.149   3.507  17.138  0.0966  0.4257 -0.3323
  816MPD2     H12065   3.469   3.695  17.170 -0.5572  0.3676 -2.1766
  816MPD2    H112066   3.258   3.334  17.089  0.1875  0.6538 -0.5398
  816MPD2    H212067   3.048   3.674  17.222 -1.4976 -3.5746 -0.2400
  816MPD2    H312068   3.050   3.463  17.128  0.2053  0.1456 -0.1876
  816MPD2     N12069   3.501   3.452  17.103 -0.4876 -0.3563 -0.2715
  816MPD2    H512070   3.583   3.511  17.102  0.7222 -2.0947 -2.7316
  816MPD2    N112071   3.250   3.848  17.222  0.2462  0.5873 -0.2269
  816MPD2    H712072   3.156   3.888  17.215  0.1522  0.3285 -0.4570
  817MPD2     C12073   2.660   0.073   9.926 -0.7698 -0.3611  0.1631
  817MPD2    C112074   2.769   0.126   9.854 -0.0390  0.1284  0.4122
  817MPD2    C212075   2.743   0.237   9.777 -0.7753  0.4786 -0.5845
  817MPD2    C312076   2.615   0.296   9.762 -0.0059 -0.3950  0.8271
  817MPD2    C412077   2.508   0.235   9.834 -0.1727 -0.5512 -0.0201
  817MPD2    C512078   2.533   0.127   9.909 -0.1392  0.7212 -0.2272
  817MPD2     H12079   2.827   0.280   9.724 -1.3646 -1.0576 -2.7562
  817MPD2    H112080   2.407   0.272   9.820 -0.4602 -1.8661 -1.4459
  817MPD2    H212081   2.669   4.729   9.996  3.4051 -2.3285 -2.7214
  817MPD2    H312082   2.453   0.076   9.961 -0.5069  1.7964  0.2426
  817MPD2     N12083   2.606   0.419   9.692  0.4079 -0.0127 -0.2717
  817MPD2    H512084   2.695   0.453   9.655  0.2933  0.5322 -0.0462
  817MPD2    N112085   2.900   0.080   9.864  0.7971 -0.2364 -0.2881
  817MPD2    H712086   2.971   0.129   9.811 -0.0391  0.7779 -0.4851
  818MPD2     C12087   1.785   4.237   9.863  0.0916  0.4076  0.3159
  818MPD2    C112088   1.777   4.138   9.962 -0.4132  0.9851  0.3793
  818MPD2    C212089   1.829   4.016   9.937  0.4589 -0.5916  0.2105
  818MPD2    C312090   1.875   3.984   9.809  0.9174 -0.3393 -0.2512
  818MPD2    C412091   1.880   4.081   9.708  0.6740  0.5252 -0.5016
  818MPD2    C512092   1.838   4.209   9.735 -0.1134 -0.0899 -0.1820
  818MPD2     H12093   1.812   3.940  10.013  2.1428  0.5427  1.7189
  818MPD2    H112094   1.924   4.064   9.611 -0.7166 -3.0810 -0.5134
  818MPD2    H212095   1.752   4.339   9.875 -0.3026  0.1678  1.3217
  818MPD2    H312096   1.835   4.291   9.664  0.9488 -0.0198 -0.1520
  818MPD2     N12097   1.912   3.852   9.769 -0.1861  0.6114 -0.6262
  818MPD2    H512098   1.923   3.841   9.668 -1.0936 -3.2458 -0.3162
  818MPD2    N112099   1.739   4.170  10.093  0.1892 -0.2151  0.3876
  818MPD2    H712100   1.738   4.090  10.155 -2.0026 -0.5873 -0.1317
  819MPD2     C12101   0.328   2.083  15.529 -0.2762 -0.4288  0.2156
  819MPD2    C112102   0.270   1.969  15.579  0.3050 -0.4617  0.4954
  819MPD2    C212103   0.318   1.915  15.694  0.6413  0.5323  0.3656
  819MPD2    C312104   0.420   1.975  15.766 -0.2206 -0.3264  0.3287
  819MPD2    C412105   0.479   2.086  15.702  0.1230 -0.2156 -0.3872
  819MPD2    C512106   0.435   2.146  15.589  0.1912 -0.5823 -0.3844
  819MPD2     H12107   0.264   1.840  15.749  0.8487  0.6476  0.7249
  819MPD2    H112108   0.567   2.135  15.743 -1.6797  1.8556  1.0308
  819MPD2    H212109   0.284   2.129  15.441  1.6944 -0.6918 -0.9076
  819MPD2    H312110   0.483   2.237  15.556 -2.9033  1.4543  0.7553
  819MPD2     N12111   0.475   1.911  15.877 -0.1971 -0.0780 -1.3793
  819MPD2    H512112   0.424   1.825  15.896  0.3962 -0.3573 -1.0574
  819MPD2    N112113   0.163   1.905  15.509  0.0595  0.2234  0.7296
  819MPD2    H712114   0.125   1.957  15.430  0.7008 -1.5993 -0.7785
  820MPD2     C12115   4.184   1.967  14.816  0.4720 -0.5591 -0.3269
  820MPD2    C112116   4.260   2.053  14.897  0.3121  0.5228 -0.1216
  820MPD2    C212117   4.349   2.000  14.987 -0.0530  0.1139  0.3092
  820MPD2    C312118   4.354   1.864  15.012 -0.1268  0.8880  0.4384
  820MPD2    C412119   4.269   1.785  14.936 -0.0146 -0.3189 -0.1315
  820MPD2    C512120   4.191   1.837  14.841  0.9881 -0.0457 -0.1464
  820MPD2     H12121   4.421   2.069  15.031 -0.0842 -1.2729  2.5494
  820MPD2    H112122   4.238   1.684  14.960  0.4503 -0.4068  0.0953
  820MPD2    H212123   4.119   2.003  14.737 -1.6169 -0.6192  1.3641
  820MPD2    H312124   4.122   1.775  14.784 -2.3101  0.5190  3.2231
  820MPD2     N12125   4.417   1.803  15.121  0.4125  0.3393  0.1912
  820MPD2    H512126   4.399   1.703  15.126 -3.0654  1.0018  1.1172
  820MPD2    N112127   4.249   2.195  14.864  0.3911  0.2878  0.3871
  820MPD2    H712128   4.194   2.198  14.779 -1.5299 -0.7458  1.6102
  821MPD2     C12129   0.955   2.606  12.839  0.5669  0.0666  0.4403
  821MPD2    C112130   1.023   2.571  12.953 -0.3800 -0.0404 -0.6888
  821MPD2    C212131   1.141   2.631  12.987 -0.1129  0.2048 -0.1588
  821MPD2    C312132   1.204   2.712  12.892  0.5631  0.5053  0.5416
  821MPD2    C412133   1.145   2.736  12.772 -0.4734 -0.7906  0.2385
  821MPD2    C512134   1.019   2.684  12.747 -0.4684 -0.6445 -0.0557
  821MPD2     H12135   1.185   2.618  13.085 -0.0332  0.1752 -0.1981
  821MPD2    H112136   1.196   2.789  12.693 -0.1677 -1.3722  0.0456
  821MPD2    H212137   0.861   2.558  12.815  0.9868 -1.0473  1.0111
  821MPD2    H312138   0.965   2.699  12.655  0.7370  0.6794 -0.5548
  821MPD2     N12139   1.328   2.778  12.909  0.0355 -0.2073  0.8930
  821MPD2    H512140   1.358   2.833  12.829 -0.1690 -0.1510  0.8565
  821MPD2    N112141   0.960   2.498  13.053 -0.1856 -0.1771  0.1389
  821MPD2    H712142   1.009   2.477  13.140 -1.4580  2.7676  1.5833
  822MPD2     C12143   1.053   3.598  15.643  0.3356 -0.1546  0.9074
  822MPD2    C112144   0.969   3.549  15.742 -0.5279 -0.4768  0.3436
  822MPD2    C212145   0.926   3.630  15.846 -0.3316  0.0349  0.0611
  822MPD2    C312146   0.946   3.765  15.848  0.2468 -0.0316  0.5200
  822MPD2    C412147   1.017   3.822  15.742 -0.0181  0.0057  0.3222
  822MPD2    C512148   1.072   3.735  15.653  0.0264  0.1789  0.8343
  822MPD2     H12149   0.878   3.580  15.930 -1.9821 -1.9185 -2.0341
  822MPD2    H112150   1.036   3.929  15.737 -2.7894  0.3484 -2.7776
  822MPD2    H212151   1.102   3.541  15.565 -0.8252 -0.2644  0.2603
  822MPD2    H312152   1.131   3.769  15.569  1.4620  0.5972  2.0167
  822MPD2     N12153   0.916   3.842  15.964 -0.2967  0.4758 -0.7283
  822MPD2    H512154   0.862   3.792  16.034 -0.0209  0.3884 -0.5784
  822MPD2    N112155   0.946   3.410  15.762 -0.1744  0.0818  0.2393
  822MPD2    H712156   0.918   3.386  15.857 -1.3640 -0.9679 -0.3691
  823MPD2     C12157   0.552   3.951  16.723 -0.2665 -0.5357 -0.3187
  823MPD2    C112158   0.623   3.880  16.628 -0.5559  0.9059  0.4928
  823MPD2    C212159   0.655   3.749  16.649  0.2676  0.6476 -0.9000
  823MPD2    C312160   0.619   3.695  16.765 -0.1025 -0.7547 -0.5091
  823MPD2    C412161   0.546   3.762  16.863 -0.2314 -0.7847  0.3078
  823MPD2    C512162   0.524   3.895  16.844  0.6384 -0.1862 -0.0664
  823MPD2     H12163   0.721   3.709  16.572 -0.6058  0.2193 -1.4305
  823MPD2    H112164   0.534   3.722  16.963  0.4459 -0.9835  0.3096
  823MPD2    H212165   0.550   4.059  16.719  0.7592 -0.4836  0.6115
  823MPD2    H312166   0.491   3.962  16.922  0.5453  0.9002 -1.0464
  823MPD2     N12167   0.666   3.567  16.803  0.2440  0.5243 -0.2620
  823MPD2    H512168   0.633   3.528  16.890  1.0007  0.9314  0.2067
  823MPD2    N112169   0.674   3.956  16.518 -0.5335  0.0411  0.7682
  823MPD2    H712170   0.661   4.056  16.524 -1.6086 -0.0789  0.5619
  824MPD2     C12171   1.230   2.526  15.825 -0.2370  0.2038 -0.1237
  824MPD2    C112172   1.247   2.630  15.739 -0.0681  0.9118 -0.2103
  824MPD2    C212173   1.348   2.614  15.643  0.0346 -0.8323 -0.1483
  824MPD2    C312174   1.402   2.489  15.618  0.3205 -0.1438  0.0161
  824MPD2    C412175   1.370   2.380  15.699  0.4488  0.1642  0.3456
  824MPD2    C512176   1.286   2.405  15.803 -0.0141 -0.1623  0.4321
  824MPD2     H12177   1.375   2.700  15.583 -0.9888  1.9683  3.3658
  824MPD2    H112178   1.422   2.285  15.702  0.2598  0.0518  0.1124
  824MPD2    H212179   1.174   2.544  15.916  0.4144 -0.2842  0.3704
  824MPD2    H312180   1.259   2.329  15.874 -1.8685  1.0844  1.0649
  824MPD2     N12181   1.503   2.480  15.522  0.8164  0.4765 -0.4993
  824MPD2    H512182   1.527   2.565  15.471 -0.5829  0.6841 -0.8087
  824MPD2    N112183   1.178   2.753  15.767  0.3117 -0.4338 -0.3587
  824MPD2    H712184   1.121   2.751  15.852  2.3582  1.3942  1.0510
  825MPD2     C12185   2.052   2.742  14.927  0.1030 -0.2352  0.1886
  825MPD2    C112186   2.021   2.754  15.059 -0.1483  0.0090 -0.4624
  825MPD2    C212187   2.079   2.840  15.146  0.0851  0.7543 -0.3422
  825MPD2    C312188   2.177   2.923  15.102  0.0271 -0.0815  0.2575
  825MPD2    C412189   2.214   2.913  14.968  0.2165  0.1837  0.2128
  825MPD2    C512190   2.152   2.827  14.881 -0.4804  0.1130 -0.0327
  825MPD2     H12191   2.050   2.826  15.249  0.0349 -1.2599 -0.6279
  825MPD2    H112192   2.282   2.989  14.933  0.1220  0.2397  0.1504
  825MPD2    H212193   2.017   2.663  14.861 -0.5485  1.1513 -1.1465
  825MPD2    H312194   2.192   2.830  14.780 -1.2339  1.1188 -0.2975
  825MPD2     N12195   2.236   3.018  15.186  0.1693  0.5052 -0.1159
  825MPD2    H512196   2.311   3.074  15.146  0.9115 -0.8633 -0.6441
  825MPD2    N112197   1.928   2.654  15.096  0.0096 -0.1860 -0.2775
  825MPD2    H712198   1.891   2.606  15.015 -0.0480 -0.9525  0.2056
  826MPD2     C12199   2.143   1.405  13.961 -0.6082 -0.0272 -0.3389
  826MPD2    C112200   2.239   1.499  13.980  0.1346  0.4983  0.0874
  826MPD2    C212201   2.205   1.618  14.042 -0.6656 -0.1167 -0.5046
  826MPD2    C312202   2.071   1.645  14.073  0.0262  0.2745  1.1964
  826MPD2    C412203   1.975   1.545  14.055  0.3006  0.0771 -0.4006
  826MPD2    C512204   2.017   1.419  14.009  0.7451 -0.4979  0.5018
  826MPD2     H12205   2.283   1.693  14.048  0.3986 -1.2531 -0.1556
  826MPD2    H112206   1.868   1.561  14.068  0.6206  2.6994 -0.9136
  826MPD2    H212207   2.177   1.311  13.919 -1.7310  0.1557 -1.6569
  826MPD2    H312208   1.947   1.338  13.988 -0.4881  1.3271 -2.2821
  826MPD2     N12209   2.022   1.772  14.103 -0.1432  0.6578  0.4422
  826MPD2    H512210   1.922   1.783  14.091  0.5135  2.2437 -3.5944
  826MPD2    N112211   2.359   1.480  13.911 -0.7017  0.2751  0.0611
  826MPD2    H712212   2.371   1.389  13.867  1.8860  0.6681 -0.0607
  827MPD2     C12213   2.652   3.873  10.129  0.0886  0.8729  0.2551
  827MPD2    C112214   2.686   3.746  10.080 -0.4056 -0.4751 -0.3547
  827MPD2    C212215   2.681   3.724   9.945 -0.4645  0.1339  0.7163
  827MPD2    C312216   2.662   3.827   9.853 -0.1598 -0.3649 -0.0852
  827MPD2    C412217   2.642   3.959   9.905 -0.2369 -0.2096  0.3620
  827MPD2    C512218   2.626   3.973  10.044 -0.2358 -0.4145  0.5562
  827MPD2     H12219   2.691   3.623   9.908 -1.1089  0.6410 -0.8469
  827MPD2    H112220   2.633   4.051   9.847 -0.1863 -0.5453 -0.1738
  827MPD2    H212221   2.626   3.889  10.233 -1.1194  0.0324  0.0798
  827MPD2    H312222   2.585   4.065  10.084  0.6932  1.7479 -3.4554
  827MPD2     N12223   2.674   3.787   9.716 -0.5166  0.2413 -0.7030
  827MPD2    H512224   2.652   3.692   9.690 -0.1837 -0.7392  2.6373
  827MPD2    N112225   2.732   3.652  10.182 -1.0301 -0.4430  0.1789
  827MPD2    H712226   2.731   3.691  10.276 -0.0255 -0.5142  0.2190
  828MPD2     C12227   1.394   2.772  11.784 -0.1694 -0.3957  0.5198
  828MPD2    C112228   1.335   2.882  11.721 -0.4291  0.5371  0.0150
  828MPD2    C212229   1.279   2.862  11.595  0.3636  0.0146 -0.1522
  828MPD2    C312230   1.279   2.730  11.544 -0.1163  0.4425  0.0055
  828MPD2    C412231   1.348   2.628  11.601 -0.2289 -0.5745  0.2375
  828MPD2    C512232   1.402   2.651  11.721  0.0166  0.2903  0.6863
  828MPD2     H12233   1.237   2.947  11.542 -0.3871 -1.7168 -2.3234
  828MPD2    H112234   1.356   2.528  11.561 -0.6558 -0.3478 -0.4278
  828MPD2    H212235   1.434   2.776  11.885  0.4064  1.2982  0.2112
  828MPD2    H312236   1.453   2.568  11.769 -0.3353 -0.4225 -0.1820
  828MPD2     N12237   1.222   2.708  11.417  0.1805  0.5835  0.1916
  828MPD2    H512238   1.233   2.617  11.373  0.3135  0.7894 -0.2048
  828MPD2    N112239   1.322   3.014  11.772 -0.2449  0.5044 -0.2509
  828MPD2    H712240   1.279   3.090  11.721 -0.5617  1.3149  1.2065
  829MPD2     C12241   0.903   3.863  11.557  0.5354 -0.8119  0.5111
  829MPD2    C112242   0.885   3.730  11.530  0.3315 -0.2815  0.4088
  829MPD2    C212243   0.956   3.638  11.599 -0.0531 -0.6963 -0.3452
  829MPD2    C312244   1.047   3.673  11.695  0.0451 -0.4059 -0.4836
  829MPD2    C412245   1.066   3.807  11.719  0.5837 -0.5421 -0.0579
  829MPD2    C512246   0.990   3.900  11.654  0.0220 -0.1746  0.1650
  829MPD2     H12247   0.927   3.537  11.572 -1.0351 -0.3574 -0.5679
  829MPD2    H112248   1.129   3.842  11.801 -1.3314 -0.0820  1.2066
  829MPD2    H212249   0.860   3.941  11.496 -1.8822 -2.2174  0.3908
  829MPD2    H312250   1.007   4.007  11.655  0.6570 -0.2862  1.1140
  829MPD2     N12251   1.106   3.578  11.779  0.1437 -0.3359  0.7867
  829MPD2    H512252   1.159   3.619  11.855  0.3690  0.5125  0.1716
  829MPD2    N112253   0.789   3.705  11.432 -0.0738 -0.1022  0.1287
  829MPD2    H712254   0.744   3.787  11.394  0.1042 -0.7253 -1.4246
  830MPD2     C12255   0.802   1.275  16.286  0.2958  0.6681 -1.3483
  830MPD2    C112256   0.743   1.344  16.182 -0.2957  0.4835 -0.2452
  830MPD2    C212257   0.773   1.294  16.052  0.1850  0.7807 -0.4377
  830MPD2    C312258   0.856   1.187  16.026  0.3256  0.6426 -0.5437
  830MPD2    C412259   0.910   1.119  16.133 -0.5348 -0.2232 -0.3447
  830MPD2    C512260   0.887   1.170  16.260 -0.3436  0.0352 -0.0375
  830MPD2     H12261   0.732   1.344  15.965  0.6369  2.4853  0.3246
  830MPD2    H112262   0.978   1.035  16.124 -0.5936 -0.3438  0.3067
  830MPD2    H212263   0.778   1.288  16.390  0.4715 -0.2095 -1.2013
  830MPD2    H312264   0.936   1.131  16.349  1.0191 -1.1682 -1.3058
  830MPD2     N12265   0.901   1.171  15.893  0.4944 -0.2835 -0.4004
  830MPD2    H512266   0.993   1.131  15.879  0.6601 -0.9801  2.7753
  830MPD2    N112267   0.663   1.454  16.215  0.0894 -0.1325 -0.1514
  830MPD2    H712268   0.655   1.478  16.313 -0.7127 -0.6706 -0.0885
  831MPD2     C12269   1.130   3.739  16.287 -0.5599 -0.1874  0.6426
  831MPD2    C112270   1.109   3.659  16.172 -0.3562 -0.4183 -0.0271
  831MPD2    C212271   0.994   3.577  16.181  0.4039  0.8628 -0.0080
  831MPD2    C312272   0.904   3.579  16.290  0.1975 -0.5509 -0.0307
  831MPD2    C412273   0.943   3.651  16.396  0.1915 -0.3494  0.2478
  831MPD2    C512274   1.049   3.736  16.397 -0.1211 -0.2291  0.3164
  831MPD2     H12275   0.976   3.522  16.089 -2.7201 -0.5030  1.4288
  831MPD2    H112276   0.882   3.656  16.486  0.8350 -0.3402  0.6780
  831MPD2    H212277   1.217   3.802  16.299 -1.1809  0.8526 -0.3246
  831MPD2    H312278   1.069   3.800  16.482  0.8952 -0.4851  0.2706
  831MPD2     N12279   0.780   3.506  16.298 -0.5277 -0.6940  0.5714
  831MPD2    H512280   0.742   3.512  16.392  0.5307  1.7393  0.8378
  831MPD2    N112281   1.200   3.654  16.061 -0.2678  0.1797 -0.3048
  831MPD2    H712282   1.207   3.575  15.998 -1.3835 -2.1457  2.4794
  832MPD2     C12283   4.325   4.681  17.108 -0.7083 -0.4600 -0.1277
  832MPD2    C112284   4.293   0.069  17.066  0.0554 -0.3575  0.2622
  832MPD2    C212285   4.187   0.086  16.969 -0.2597 -0.3312  0.1037
  832MPD2    C312286   4.123   4.711  16.922  0.6917 -0.5908  0.4356
  832MPD2    C412287   4.145   4.593  16.992  0.3864  0.3609  0.2200
  832MPD2    C512288   4.253   4.570  17.068 -0.7671 -0.6470 -0.3106
  832MPD2     H12289   4.177   0.179  16.916  2.4026  0.2338  0.5736
  832MPD2    H112290   4.079   4.510  16.968  0.4447  0.7227 -1.2281
  832MPD2    H212291   4.425   4.667  17.148 -0.5729 -2.0173 -0.9932
  832MPD2    H312292   4.291   4.474  17.104 -0.2297 -0.0862  0.6412
  832MPD2     N12293   4.010   4.709  16.835 -0.1696  0.0397  0.5765
  832MPD2    H512294   3.968   4.619  16.814  1.2221  0.0141 -2.0901
  832MPD2    N112295   4.382   0.179  17.109  0.5352  0.2921  0.2282
  832MPD2    H712296   4.451   0.155  17.179  0.3708 -0.9278 -0.0377
  833MPD2     C12297   1.418   1.854  11.390 -0.3239 -0.4974 -0.4802
  833MPD2    C112298   1.418   1.774  11.501 -0.2227  0.0276  0.4808
  833MPD2    C212299   1.501   1.666  11.513  0.2554  0.0737 -0.1730
  833MPD2    C312300   1.579   1.638  11.403 -0.0096  0.1562 -0.0769
  833MPD2    C412301   1.581   1.721  11.295  0.2172 -0.2488  0.4306
  833MPD2    C512302   1.503   1.833  11.286 -0.0152 -0.8455 -0.2576
  833MPD2     H12303   1.493   1.600  11.598  3.3671  0.2618  0.2634
  833MPD2    H112304   1.642   1.700  11.209 -1.1461 -0.0045 -0.6003
  833MPD2    H212305   1.341   1.931  11.389 -0.9527 -1.1189 -0.4150
  833MPD2    H312306   1.506   1.905  11.206 -0.5018 -0.8419 -0.2763
  833MPD2     N12307   1.643   1.516  11.379 -0.0283 -0.3373 -0.5578
  833MPD2    H512308   1.668   1.506  11.281 -0.0345 -4.0374 -0.1752
  833MPD2    N112309   1.312   1.788  11.594  0.3297 -0.4608  0.5759
  833MPD2    H712310   1.233   1.836  11.553  0.0022 -2.0696 -0.6395
  834MPD2     C12311   1.880   0.509  11.720  0.1412  1.2867 -0.4983
  834MPD2    C112312   1.824   0.497  11.596  0.0084 -0.1272  0.0892
  834MPD2    C212313   1.789   0.615  11.527  0.2339  0.9039  0.3782
  834MPD2    C312314   1.806   0.736  11.587  0.1906  0.1481 -0.4924
  834MPD2    C412315   1.861   0.748  11.711 -0.2967  1.4304 -0.8853
  834MPD2    C512316   1.880   0.629  11.781  0.0806 -0.5353  0.1567
  834MPD2     H12317   1.754   0.613  11.424 -0.6389 -2.9872  0.7279
  834MPD2    H112318   1.871   0.845  11.757  1.7538  0.3822  0.9034
  834MPD2    H212319   1.915   0.418  11.767 -2.6980  1.3380  1.7324
  834MPD2    H312320   1.910   0.634  11.885 -1.1405  1.3174  0.4206
  834MPD2     N12321   1.772   0.844  11.506  0.3865  0.7671 -0.0221
  834MPD2    H512322   1.737   0.823  11.413  0.4293 -1.2128  0.4207
  834MPD2    N112323   1.802   0.367  11.555 -0.1951 -0.5648 -0.1595
  834MPD2    H712324   1.846   0.298  11.616  1.2499  0.9049  0.4702
  835MPD2     C12325   1.903   3.191  10.739  0.1849  0.2224 -0.3238
  835MPD2    C112326   1.835   3.254  10.838 -0.4916  0.5044  0.3260
  835MPD2    C212327   1.886   3.255  10.970  0.1796  0.4973 -0.2292
  835MPD2    C312328   2.000   3.185  11.002  0.1418  0.5193  0.3088
  835MPD2    C412329   2.062   3.108  10.896 -0.1132  0.1201  0.0348
  835MPD2    C512330   2.013   3.120  10.766  0.1159 -0.4533 -0.0815
  835MPD2     H12331   1.826   3.302  11.047 -0.5868 -1.7774  0.5537
  835MPD2    H112332   2.150   3.046  10.911 -0.2590 -0.5236 -1.7189
  835MPD2    H212333   1.869   3.199  10.637 -1.5266  2.2003  0.3858
  835MPD2    H312334   2.060   3.069  10.683  1.0156 -0.4278  0.4089
  835MPD2     N12335   2.036   3.141  11.131 -0.0170  0.7877  0.1004
  835MPD2    H512336   2.109   3.071  11.130 -0.7158  0.0396  1.6612
  835MPD2    N112337   1.711   3.325  10.815 -0.3440  0.1733  0.0612
  835MPD2    H712338   1.683   3.393  10.885 -0.2871 -0.6585  0.8988
  836MPD2     C12339   1.532   3.308  11.610  0.0366 -0.0850 -0.0431
  836MPD2    C112340   1.644   3.249  11.666 -0.3039 -0.9840  0.2620
  836MPD2    C212341   1.701   3.312  11.776 -0.2045 -0.0379 -0.1673
  836MPD2    C312342   1.638   3.423  11.837 -0.3819  0.6930  0.4180
  836MPD2    C412343   1.522   3.471  11.783  0.3369 -0.1387 -0.6193
  836MPD2    C512344   1.472   3.412  11.670  0.4970  0.0552 -0.4877
  836MPD2     H12345   1.794   3.270  11.814 -0.3965 -0.8720 -0.6202
  836MPD2    H112346   1.468   3.553  11.830 -1.0824 -0.6699 -1.3272
  836MPD2    H212347   1.488   3.275  11.516  1.7289  0.1461 -0.9184
  836MPD2    H312348   1.380   3.452  11.628 -0.7199 -1.1214  1.0380
  836MPD2     N12349   1.706   3.493  11.940  0.3460  0.8047  0.0857
  836MPD2    H512350   1.665   3.579  11.973 -1.0207  0.8053 -1.6266
  836MPD2    N112351   1.711   3.137  11.608 -1.0690  0.4079 -0.1759
  836MPD2    H712352   1.684   3.115  11.513  3.0565  0.7299 -1.3865
  837MPD2     C12353   4.577   3.212  10.041  0.3612  0.0680  0.2227
  837MPD2    C112354   4.445   3.226  10.065  0.2689 -0.1684  0.3500
  837MPD2    C212355   4.415   3.338  10.135 -0.3844 -0.5095 -0.1874
  837MPD2    C312356   4.497   3.442  10.174 -0.7796 -0.0428 -0.5269
  837MPD2    C412357   4.633   3.423  10.159  0.1978 -0.3013 -0.1667
  837MPD2    C512358   4.669   3.312  10.081 -0.1555  0.7538  0.2044
  837MPD2     H12359   4.309   3.342  10.156 -0.3290 -1.6472  0.2756
  837MPD2    H112360   4.703   3.505  10.168  0.6174 -0.6652 -0.1226
  837MPD2    H212361   4.625   3.127   9.994  0.6482 -0.3483  1.2943
  837MPD2    H312362   0.034   3.287  10.058 -0.8579 -2.7663  0.8517
  837MPD2     N12363   4.432   3.556  10.218 -0.1672  0.5952  0.5480
  837MPD2    H512364   4.332   3.540  10.227 -0.1955  0.0926 -0.6030
  837MPD2    N112365   4.344   3.139  10.033  0.0272  0.3127  0.3953
  837MPD2    H712366   4.253   3.154  10.076  0.5161  0.0098  1.5223
  838MPD2     C12367   2.913   1.807  11.334  0.3345 -0.6578  0.3027
  838MPD2    C112368   2.807   1.725  11.306  1.0129  0.0284  0.0220
  838MPD2    C212369   2.749   1.655  11.407  0.4413 -0.2372  0.0420
  838MPD2    C312370   2.779   1.685  11.537 -0.2785  0.7369 -0.2919
  838MPD2    C412371   2.877   1.779  11.571 -0.3074  0.6383 -0.5626
  838MPD2    C512372   2.941   1.836  11.464  0.4764 -0.3665 -0.4437
  838MPD2     H12373   2.690   1.569  11.378  1.3588 -0.4859 -1.0991
  838MPD2    H112374   2.909   1.798  11.673 -1.3630 -0.6070 -0.0039
  838MPD2    H212375   2.983   1.846  11.261 -2.7122  2.1509 -1.1497
  838MPD2    H312376   3.023   1.906  11.479  0.5430 -0.9511  1.9503
  838MPD2     N12377   2.717   1.594  11.626 -0.3917 -0.4425 -0.3678
  838MPD2    H512378   2.654   1.525  11.586  0.2825 -0.0858 -2.0458
  838MPD2    N112379   2.786   1.675  11.182  0.1584  0.1926 -0.3926
  838MPD2    H712380   2.725   1.595  11.173 -0.4093  0.5041  0.6930
  839MPD2     C12381   2.162   1.077  10.790 -0.2388  0.3148 -0.0175
  839MPD2    C112382   2.263   1.051  10.882  0.2624 -0.4795 -0.1692
  839MPD2    C212383   2.383   1.125  10.889 -0.2746 -0.1515 -0.0361
  839MPD2    C312384   2.399   1.237  10.802  0.5173  0.0005 -0.4568
  839MPD2    C412385   2.291   1.270  10.717  0.0529 -0.4654 -0.1316
  839MPD2    C512386   2.178   1.193  10.717 -0.0149  0.8784 -0.0907
  839MPD2     H12387   2.465   1.081  10.944  0.2377  0.0404 -0.6477
  839MPD2    H112388   2.286   1.360  10.657  2.0948 -1.5391 -1.9014
  839MPD2    H212389   2.073   1.014  10.788  0.8138 -1.2214  1.0652
  839MPD2    H312390   2.107   1.230  10.644  0.0348 -0.1493 -0.6520
  839MPD2     N12391   2.517   1.313  10.793  0.0059 -0.7703 -0.2080
  839MPD2    H512392   2.521   1.385  10.722 -0.0763 -0.8369 -0.2786
  839MPD2    N112393   2.258   0.932  10.964 -0.2745 -0.0522 -0.2298
  839MPD2    H712394   2.342   0.917  11.019 -1.0780 -0.7190  0.8041
  840MPD2     C12395   3.119   3.896  10.587 -0.7764  0.3757  0.4172
  840MPD2    C112396   3.075   3.781  10.648 -0.0521  0.5415 -0.0823
  840MPD2    C212397   3.108   3.770  10.785 -0.2587  0.1378  0.4792
  840MPD2    C312398   3.180   3.873  10.850 -0.2108 -0.3192 -0.2246
  840MPD2    C412399   3.213   3.986  10.780 -0.0614 -1.0170 -0.1683
  840MPD2    C512400   3.184   4.001  10.650  0.3443  0.4302 -0.3752
  840MPD2     H12401   3.091   3.675  10.835 -1.1223  1.1815  2.1895
  840MPD2    H112402   3.278   4.055  10.833  1.4381 -1.6465 -1.2049
  840MPD2    H212403   3.102   3.915  10.482  0.7800  2.0358  0.4683
  840MPD2    H312404   3.208   4.093  10.597 -1.5549  0.9787 -0.2896
  840MPD2     N12405   3.251   3.859  10.975 -0.2676 -0.0999 -0.7483
  840MPD2    H512406   3.303   3.943  10.999 -0.3940 -0.7342  1.6728
  840MPD2    N112407   3.001   3.689  10.569  0.2533 -0.2851 -0.0135
  840MPD2    H712408   2.979   3.718  10.474 -0.5479 -1.8425 -0.3130
  841MPD2     C12409   2.892   4.267  14.263 -0.2535  0.0185 -0.4262
  841MPD2    C112410   3.005   4.183  14.275  0.3460 -0.4186  0.4023
  841MPD2    C212411   3.045   4.161  14.398 -0.1450  0.0638  0.1242
  841MPD2    C312412   2.986   4.233  14.509  0.4777  0.3790 -0.3118
  841MPD2    C412413   2.889   4.324  14.491  0.4055 -0.1012  0.6101
  841MPD2    C512414   2.833   4.333  14.369 -0.9267 -0.6243  0.1680
  841MPD2     H12415   3.124   4.088  14.415 -2.0090 -1.5334  2.0558
  841MPD2    H112416   2.862   4.400  14.563  0.0909  0.5857 -0.2208
  841MPD2    H212417   2.855   4.288  14.164  2.8697  2.6602 -1.0633
  841MPD2    H312418   2.748   4.398  14.353 -1.3133 -1.3912 -0.8842
  841MPD2     N12419   3.037   4.218  14.646 -0.3629 -0.0121 -0.1295
  841MPD2    H512420   3.125   4.168  14.652 -1.0801 -0.9669  2.5987
  841MPD2    N112421   3.078   4.129  14.163 -0.3198 -0.1374  0.1338
  841MPD2    H712422   3.152   4.063  14.183 -0.0645  0.9817  2.8196
  842MPD2     C12423   2.800   4.704  17.176  0.1985  0.0788  0.1152
  842MPD2    C112424   2.700   0.047  17.132 -0.6001 -1.0015  0.0874
  842MPD2    C212425   2.679   0.169  17.193 -0.2728 -0.5909  0.0655
  842MPD2    C312426   2.765   0.216  17.287 -0.3845  0.7582  0.3449
  842MPD2    C412427   2.868   0.136  17.326 -0.8760  0.3538 -0.3491
  842MPD2    C512428   2.886   0.012  17.269 -0.2113  0.7095  0.0535
  842MPD2     H12429   2.616   0.243  17.146 -1.6149 -1.6760  0.1808
  842MPD2    H112430   2.942   0.179  17.393 -2.8855 -0.5131  2.4146
  842MPD2    H212431   2.827   4.607  17.135 -1.2872 -0.4708  0.4065
  842MPD2    H312432   2.975   4.696  17.299 -2.1250 -3.2880 -1.5508
  842MPD2     N12433   2.744   0.343  17.329  0.1610  0.0753 -0.1245
  842MPD2    H512434   2.668   0.396  17.289  0.0607 -0.4041 -0.5572
  842MPD2    N112435   2.634   0.023  17.012  0.0843 -0.3496 -0.2822
  842MPD2    H712436   2.585   0.103  16.973 -0.0094 -0.2623  0.0142
  843MPD2     C12437   0.623   1.599   0.466  1.0532 -0.5640  0.0210
  843MPD2    C112438   0.719   1.496   0.481  0.6821  0.0380 -0.0146
  843MPD2    C212439   0.850   1.543   0.500  0.6668 -0.3140  0.7265
  843MPD2    C312440   0.890   1.673   0.480 -0.6853  0.3307  0.3090
  843MPD2    C412441   0.795   1.770   0.457 -0.0751  0.4002 -0.2895
  843MPD2    C512442   0.667   1.731   0.456 -0.3069  0.8820 -0.1167
  843MPD2     H12443   0.923   1.467   0.525  1.4603 -0.2973 -1.5748
  843MPD2    H112444   0.821   1.874   0.446  2.4328 -0.0545  1.4452
  843MPD2    H212445   0.521   1.567   0.450  0.4149  0.0144  2.9321
  843MPD2    H312446   0.600   1.815   0.438  0.4597  1.3613 -0.7662
  843MPD2     N12447   1.023   1.712   0.492 -0.3119 -0.1812  0.3048
  843MPD2    H512448   1.044   1.811   0.484  0.0806 -0.2342  0.7032
  843MPD2    N112449   0.672   1.369   0.498 -0.4500  0.5131 -0.6207
  843MPD2    H712450   0.577   1.359   0.463 -0.6695 -0.3932  0.2455
  844MPD2     C12451   3.630   4.123  16.465  0.2356  0.3453  0.0450
  844MPD2    C112452   3.718   4.119  16.359 -0.2256  0.5524 -0.2519
  844MPD2    C212453   3.821   4.210  16.347  0.3428 -0.4211 -0.1720
  844MPD2    C312454   3.845   4.300  16.449  0.3723 -0.0682  0.0027
  844MPD2    C412455   3.756   4.300  16.555  0.4638  0.3726  0.2286
  844MPD2    C512456   3.648   4.219  16.559  0.0314  0.1339  0.4614
  844MPD2     H12457   3.900   4.201  16.274  0.2248 -0.0578 -0.3466
  844MPD2    H112458   3.767   4.377  16.630  1.0448  0.4308  0.0810
  844MPD2    H212459   3.545   4.058  16.483  0.9964 -0.7518 -0.3265
  844MPD2    H312460   3.579   4.229  16.642 -0.7908 -1.2495 -0.0538
  844MPD2     N12461   3.959   4.385  16.443  0.2893 -0.5419  0.7197
  844MPD2    H512462   4.024   4.386  16.365 -0.1049  2.1971  0.4069
  844MPD2    N112463   3.708   4.018  16.257 -0.2290  0.0270 -0.2530
  844MPD2    H712464   3.789   4.025  16.197 -0.4903  2.8683 -0.2992
  845MPD2     C12465   4.036   0.548  16.237 -0.8219 -0.1622  1.1476
  845MPD2    C112466   4.066   0.535  16.369  0.1852 -0.2896  0.5385
  845MPD2    C212467   4.109   0.413  16.419 -0.3943  0.0223 -0.1417
  845MPD2    C312468   4.117   0.302  16.337  0.1467 -0.7931  0.0845
  845MPD2    C412469   4.081   0.318  16.206 -0.2411  0.2112  0.1852
  845MPD2    C512470   4.042   0.441  16.156  0.0247  0.8763  0.2910
  845MPD2     H12471   4.131   0.404  16.525 -1.0796 -2.1578 -0.1800
  845MPD2    H112472   4.088   0.237  16.134  1.3024 -0.1310  0.7306
  845MPD2    H212473   3.992   0.636  16.192  0.2704 -0.8458 -1.2830
  845MPD2    H312474   4.015   0.447  16.051 -2.2478 -0.3267  0.8082
  845MPD2     N12475   4.171   0.180  16.389 -0.3687 -0.3568  0.7456
  845MPD2    H512476   4.213   0.181  16.482  0.9235  3.3312  0.1517
  845MPD2    N112477   4.061   0.659  16.443 -0.2508  0.6746 -0.1727
  845MPD2    H712478   4.039   0.747  16.398 -0.3234 -0.0367 -1.5265
  846MPD2     C12479   0.745   0.687  13.302  0.2864 -0.3610 -0.2218
  846MPD2    C112480   0.661   0.790  13.350  0.2063 -0.0599 -0.4204
  846MPD2    C212481   0.616   0.781  13.482  0.8725 -0.0509 -0.7684
  846MPD2    C312482   0.657   0.685  13.570  0.3967  0.4977  0.0031
  846MPD2    C412483   0.754   0.598  13.527  0.6999  0.8289  0.9711
  846MPD2    C512484   0.802   0.605  13.396  0.4596  0.3465 -0.2972
  846MPD2     H12485   0.549   0.853  13.528  1.5317 -0.2497  0.5276
  846MPD2    H112486   0.812   0.534  13.592 -0.3602  0.0425  1.1537
  846MPD2    H212487   0.793   0.686  13.205 -0.9642 -1.2364 -0.8331
  846MPD2    H312488   0.875   0.532  13.364 -0.2861  0.5474 -2.5009
  846MPD2     N12489   0.605   0.691  13.705  0.1773 -0.1440 -0.7051
  846MPD2    H512490   0.530   0.755  13.732 -0.6708 -0.9790 -1.0829
  846MPD2    N112491   0.622   0.908  13.282  0.6231 -0.1953  0.4867
  846MPD2    H712492   0.582   0.985  13.335 -1.7438 -1.7553  0.9725
  847MPD2     C12493   0.773   0.851  14.729 -0.2333  0.1823 -0.7330
  847MPD2    C112494   0.849   0.852  14.848 -0.3048  0.1333  0.3125
  847MPD2    C212495   0.830   0.757  14.946 -0.0336  0.5284  0.2828
  847MPD2    C312496   0.728   0.661  14.933  0.2371  0.4781 -0.1108
  847MPD2    C412497   0.663   0.647  14.808 -0.5632 -0.6224  0.1069
  847MPD2    C512498   0.692   0.744  14.713 -0.0934 -0.8662 -0.1321
  847MPD2     H12499   0.878   0.758  15.044  0.2502 -0.3647  0.1510
  847MPD2    H112500   0.595   0.566  14.784 -0.4577 -0.5541 -0.4165
  847MPD2    H212501   0.800   0.907  14.641 -3.3863  1.0089 -1.1560
  847MPD2    H312502   0.640   0.730  14.619 -0.6989  0.0376  0.0728
  847MPD2     N12503   0.712   0.578  15.046  0.4851  0.3535  0.2738
  847MPD2    H512504   0.783   0.596  15.117  1.4806 -0.6244 -0.4787
  847MPD2    N112505   0.946   0.951  14.879 -0.2793  0.4533  0.5097
  847MPD2    H712506   0.995   0.947  14.968  0.8525  3.2841  0.0275
  848MPD2     C12507   3.653   0.438  16.210  0.9793  1.1868 -0.5183
  848MPD2    C112508   3.564   0.385  16.298 -0.1664 -0.2688  0.9402
  848MPD2    C212509   3.442   0.451  16.304  0.3570 -0.3986  0.0681
  848MPD2    C312510   3.401   0.544  16.210 -0.0530  0.2430  0.1580
  848MPD2    C412511   3.488   0.590  16.121  0.1252  0.4426 -0.3603
  848MPD2    C512512   3.617   0.538  16.122  0.8098 -0.0736  0.9919
  848MPD2     H12513   3.371   0.416  16.378  0.0359 -0.9512 -0.4893
  848MPD2    H112514   3.467   0.670  16.051 -0.4025  0.3725 -0.2802
  848MPD2    H212515   3.755   0.400  16.209  0.8243  0.7689 -0.9353
  848MPD2    H312516   3.701   0.575  16.064 -1.1510  2.5760 -0.1671
  848MPD2     N12517   3.282   0.620  16.221  0.0582  0.6578 -0.5808
  848MPD2    H512518   3.275   0.699  16.158  0.3746  1.3037  0.2063
  848MPD2    N112519   3.594   0.278  16.386 -0.1805  0.2788  0.1960
  848MPD2    H712520   3.525   0.255  16.456 -1.4133  0.1568 -1.0464
  849MPD2     C12521   2.883   0.168  14.110 -1.0013  0.2865  0.6199
  849MPD2    C112522   2.983   0.101  14.052 -0.0323 -0.4026 -0.7606
  849MPD2    C212523   3.053   0.010  14.134  0.4756 -0.2321  0.1129
  849MPD2    C312524   3.018   4.729  14.269  0.1184  0.5967  0.2531
  849MPD2    C412525   2.917   0.064  14.328 -0.2553  0.6036  0.1563
  849MPD2    C512526   2.845   0.141  14.243  0.2783  0.3273 -1.2049
  849MPD2     H12527   3.141   4.696  14.097  0.2854  0.4827 -1.3396
  849MPD2    H112528   2.882   0.054  14.430  1.8136  0.6561  0.8783
  849MPD2    H212529   2.814   0.224  14.048 -0.8155 -1.1174 -0.8565
  849MPD2    H312530   2.759   0.195  14.281 -0.3170  0.1620 -2.3283
  849MPD2     N12531   3.107   4.646  14.348 -0.1184 -0.7074  0.8183
  849MPD2    H512532   3.182   4.599  14.299 -0.6327  1.4803 -2.0362
  849MPD2    N112533   3.013   0.125  13.915 -0.0356 -0.2545 -0.1862
  849MPD2    H712534   2.974   0.202  13.862 -0.1927 -0.2916 -0.1238
  850MPD2     C12535   1.328   2.434  14.898  0.2063  0.7385  0.6867
  850MPD2    C112536   1.357   2.497  15.018  0.5864 -0.1682 -0.2828
  850MPD2    C212537   1.449   2.599  15.025  0.6666  0.1245 -0.0373
  850MPD2    C312538   1.512   2.643  14.908  0.5186 -0.4729 -0.2602
  850MPD2    C412539   1.491   2.575  14.793  0.2983  0.3231  0.6042
  850MPD2    C512540   1.396   2.478  14.790 -0.2220  0.2128 -0.8589
  850MPD2     H12541   1.468   2.641  15.123  1.7343 -1.6761  0.5338
  850MPD2    H112542   1.540   2.596  14.699  0.7848  0.4488  0.8902
  850MPD2    H212543   1.243   2.367  14.888  0.4941  0.1410  2.2023
  850MPD2    H312544   1.374   2.453  14.686  1.0379 -0.5990 -0.9307
  850MPD2     N12545   1.606   2.753  14.898 -0.6879  0.0101 -0.2652
  850MPD2    H512546   1.652   2.756  14.807 -0.7797 -1.3243 -0.3631
  850MPD2    N112547   1.291   2.445  15.133  0.0420 -0.4693  0.3683
  850MPD2    H712548   1.228   2.366  15.122  0.1342 -0.3580 -0.9356
  851MPD2     C12549   1.437   1.932  15.562 -0.1339  0.0905 -0.9038
  851MPD2    C112550   1.307   1.960  15.551  0.6440 -0.5919  0.1399
  851MPD2    C212551   1.214   1.855  15.560  0.1633  0.3583 -0.0057
  851MPD2    C312552   1.258   1.724  15.565 -0.1665 -0.3783 -0.6812
  851MPD2    C412553   1.389   1.705  15.600  0.4457 -0.4260 -0.2362
  851MPD2    C512554   1.477   1.810  15.598  0.5096  0.3447 -0.6947
  851MPD2     H12555   1.108   1.872  15.545 -0.0275 -0.1108  0.8155
  851MPD2    H112556   1.441   1.613  15.625  0.4081 -0.9927 -2.2674
  851MPD2    H212557   1.514   2.007  15.551  1.3806 -1.5426 -1.3914
  851MPD2    H312558   1.581   1.782  15.612  0.2424 -0.3156  0.0280
  851MPD2     N12559   1.163   1.617  15.555 -0.4689  0.0020 -0.0177
  851MPD2    H512560   1.074   1.643  15.514 -0.9384 -0.2525  0.8578
  851MPD2    N112561   1.271   2.092  15.507  0.0390  0.1174 -0.3331
  851MPD2    H712562   1.349   2.155  15.494 -0.7097  0.5500 -2.6944
  852MPD2     C12563   1.407   4.269  10.037 -0.3162  0.1163  0.2879
  852MPD2    C112564   1.317   4.299  10.137 -0.5816  0.0343  0.1496
  852MPD2    C212565   1.233   4.418  10.138  0.0059 -0.1861  0.0144
  852MPD2    C312566   1.250   4.512  10.040  0.0076  0.3165 -0.0048
  852MPD2    C412567   1.353   4.489   9.945  0.7291  0.3128  0.2046
  852MPD2    C512568   1.425   4.373   9.944  0.9310 -0.7392 -0.3806
  852MPD2     H12569   1.163   4.432  10.219  1.0024 -0.8945  1.0175
  852MPD2    H112570   1.386   4.558   9.868  1.2700 -0.2493 -0.0611
  852MPD2    H212571   1.475   4.186  10.048 -1.7000 -1.1203 -0.5071
  852MPD2    H312572   1.502   4.359   9.869  0.3144 -2.1674 -0.7356
  852MPD2     N12573   1.162   4.623  10.056  0.1622  0.3356  0.0493
  852MPD2    H512574   1.096   4.625  10.133  0.1933 -0.5128  0.0911
  852MPD2    N112575   1.290   4.211  10.250  0.0470  0.1982 -0.2220
  852MPD2    H712576   1.234   4.251  10.324  0.4510  0.5107 -0.0825
  853MPD2     C12577   2.809   0.367  12.278  0.2310 -0.1717 -0.1615
  853MPD2    C112578   2.684   0.413  12.227  0.4191  0.6481  0.5167
  853MPD2    C212579   2.640   0.385  12.101 -0.7491 -0.0346 -0.0244
  853MPD2    C312580   2.713   0.302  12.022 -0.2773 -0.0761  0.2263
  853MPD2    C412581   2.832   0.245  12.080  0.7833  0.1879  0.3993
  853MPD2    C512582   2.884   0.286  12.198 -0.1888  0.5942  0.3560
  853MPD2     H12583   2.547   0.425  12.063 -1.2917 -0.1369  1.1921
  853MPD2    H112584   2.903   0.192  12.017  0.0650 -0.1469 -0.1272
  853MPD2    H212585   2.846   0.403  12.374 -0.6648  0.9368 -0.2422
  853MPD2    H312586   2.982   0.258  12.234  1.9238  1.0767 -5.0092
  853MPD2     N12587   2.668   0.258  11.899  0.1482  0.3999 -0.3489
  853MPD2    H512588   2.726   0.194  11.846 -1.9352  0.2478 -2.4460
  853MPD2    N112589   2.625   0.512  12.314  1.0181  0.2690 -0.4393
  853MPD2    H712590   2.673   0.548  12.396  0.1851 -2.2167  1.1346
  854MPD2     C12591   3.771   0.332  12.754  0.1856 -0.2571  0.1072
  854MPD2    C112592   3.864   0.288  12.661 -0.0028  0.5546  0.6739
  854MPD2    C212593   3.965   0.197  12.699  0.0538  0.3881 -0.6625
  854MPD2    C312594   3.990   0.178  12.832  0.0117  0.2771 -0.3280
  854MPD2    C412595   3.906   0.223  12.926  0.9122 -0.0192 -0.3574
  854MPD2    C512596   3.794   0.301  12.887 -0.0662 -0.2360 -0.2739
  854MPD2     H12597   4.026   0.143  12.628  0.3611  1.0278 -0.8884
  854MPD2    H112598   3.935   0.215  13.030 -1.2260  0.0200  0.2441
  854MPD2    H212599   3.695   0.407  12.734 -1.0955 -1.6314 -0.1195
  854MPD2    H312600   3.730   0.336  12.967  0.0232 -0.9032  0.0888
  854MPD2     N12601   4.106   0.101  12.881  0.1620  0.1185  0.2166
  854MPD2    H512602   4.108   0.077  12.979  0.7127 -0.5620  0.0396
  854MPD2    N112603   3.847   0.322  12.523 -0.6673  0.0706  0.1381
  854MPD2    H712604   3.772   0.388  12.504  1.5538  2.9875  1.7351
  855MPD2     C12605   4.180   4.303  13.589  0.1587  0.0946 -0.2081
  855MPD2    C112606   4.291   4.280  13.515  0.2099 -0.2807  0.1874
  855MPD2    C212607   4.317   4.348  13.404 -0.2311  0.4754  0.0180
  855MPD2    C312608   4.240   4.454  13.362  0.0802  0.5495 -0.0295
  855MPD2    C412609   4.130   4.480  13.437  0.1657  0.2948  0.1308
  855MPD2    C512610   4.103   4.408  13.553  0.3768  0.0266 -0.6058
  855MPD2     H12611   4.405   4.315  13.350 -0.4096  1.3781 -0.8127
  855MPD2    H112612   4.065   4.566  13.425 -1.6850 -0.8831  1.6178
  855MPD2    H212613   4.148   4.241  13.672 -2.3548  0.8699 -0.5987
  855MPD2    H312614   4.026   4.435  13.625  0.6489  1.1714 -0.7475
  855MPD2     N12615   4.273   4.539  13.253 -0.1854  0.0583 -0.2865
  855MPD2    H512616   4.216   4.618  13.225 -1.3622 -0.5386  0.4492
  855MPD2    N112617   4.380   4.174  13.551  0.1537 -0.1340 -0.6560
  855MPD2    H712618   4.453   4.158  13.483  0.4758  2.5877 -0.9482
  856MPD2     C12619   2.237   0.970  13.825 -0.3077  0.1300  0.7049
  856MPD2    C112620   2.242   1.040  13.703 -0.2214 -0.1896  0.4298
  856MPD2    C212621   2.131   1.105  13.660  0.1988 -0.2969 -0.6114
  856MPD2    C312622   2.015   1.127  13.737 -0.7697 -0.2652 -0.1510
  856MPD2    C412623   2.008   1.056  13.854 -0.0102  0.0325  0.2420
  856MPD2    C512624   2.111   0.970  13.893 -0.8648  0.8952 -0.2861
  856MPD2     H12625   2.146   1.155  13.565  0.5173  0.4309 -0.1793
  856MPD2    H112626   1.932   1.078  13.927 -1.9521 -1.2557 -1.3720
  856MPD2    H212627   2.325   0.923  13.866 -1.1819 -1.3671  0.8781
  856MPD2    H312628   2.111   0.928  13.993  0.7847  2.7661  0.5113
  856MPD2     N12629   1.911   1.220  13.707  0.3717 -0.0675  0.1224
  856MPD2    H512630   1.819   1.207  13.749  0.6489 -2.4599  0.0216
  856MPD2    N112631   2.364   1.028  13.624 -0.5561  0.0544  0.3397
  856MPD2    H712632   2.345   1.062  13.530  0.1431  0.3079  0.2957
  857MPD2     C12633   3.779   3.064  12.622 -0.1261 -0.8706  0.2890
  857MPD2    C112634   3.900   3.037  12.574 -0.5808  0.1635  0.6320
  857MPD2    C212635   3.990   3.139  12.558  0.3336 -0.5555  0.2571
  857MPD2    C312636   3.948   3.268  12.576 -0.0112  0.1572 -0.0581
  857MPD2    C412637   3.827   3.296  12.636 -0.1775 -0.4165 -0.5397
  857MPD2    C512638   3.744   3.189  12.666 -0.5960 -0.5492 -0.7638
  857MPD2     H12639   4.084   3.125  12.506 -0.2516 -1.0932 -0.6329
  857MPD2    H112640   3.789   3.396  12.654  0.6935  0.1658 -1.9727
  857MPD2    H212641   3.716   2.978  12.639 -0.7703 -0.0228  2.1738
  857MPD2    H312642   3.653   3.211  12.720 -0.9468  0.9958 -1.9991
  857MPD2     N12643   4.041   3.365  12.545  1.0870 -0.3593 -0.2705
  857MPD2    H512644   4.134   3.330  12.526  1.9350  1.6965  0.0130
  857MPD2    N112645   3.928   2.907  12.524  0.2810 -0.0827  0.4867
  857MPD2    H712646   3.852   2.841  12.508  0.2080 -0.6286  3.0852
  858MPD2     C12647   3.748   2.387  16.791  0.0560 -0.3935  0.2463
  858MPD2    C112648   3.861   2.325  16.822 -0.2521 -0.9119  0.4079
  858MPD2    C212649   3.914   2.356  16.946 -0.0120  0.5047  0.0628
  858MPD2    C312650   3.859   2.456  17.030  0.4151 -0.5918  0.2903
  858MPD2    C412651   3.744   2.523  16.990  0.2009 -0.0972  0.1302
  858MPD2    C512652   3.693   2.484  16.870  0.5524 -0.3005  0.2105
  858MPD2     H12653   4.009   2.312  16.972 -1.1014 -1.3747  0.8773
  858MPD2    H112654   3.695   2.604  17.043 -0.3525 -1.3373  1.4982
  858MPD2    H212655   3.707   2.367  16.693 -2.1714 -0.5385  1.2003
  858MPD2    H312656   3.610   2.544  16.834  0.8447 -0.0134  0.0212
  858MPD2     N12657   3.918   2.495  17.150 -0.0296 -0.6883  0.5912
  858MPD2    H512658   3.874   2.571  17.201  1.0529 -0.5762  1.3533
  858MPD2    N112659   3.911   2.226  16.726  0.7629  0.1389 -0.3205
  858MPD2    H712660   3.855   2.206  16.644 -0.3029 -1.1480  0.7032
  859MPD2     C12661   3.070   0.460  15.887 -0.4681 -0.3369 -0.0679
  859MPD2    C112662   3.040   0.393  15.769  0.3496  0.1066 -0.5929
  859MPD2    C212663   2.935   0.303  15.779 -0.0150  0.3055 -0.8166
  859MPD2    C312664   2.886   0.263  15.904 -0.5584  0.2890 -0.1091
  859MPD2    C412665   2.929   0.326  16.021  0.2751  0.3520  0.8544
  859MPD2    C512666   3.013   0.431  16.006  0.4617 -0.0820 -0.2857
  859MPD2     H12667   2.892   0.254  15.692 -0.6672 -1.3982  0.4680
  859MPD2    H112668   2.896   0.303  16.121 -0.8614  1.1020  0.6530
  859MPD2    H212669   3.138   0.544  15.872 -1.3284  0.5973  1.2566
  859MPD2    H312670   3.044   0.487  16.094  0.3482  3.4885 -2.4941
  859MPD2     N12671   2.792   0.158  15.913 -0.6981  0.0908 -0.0851
  859MPD2    H512672   2.764   0.137  16.008 -1.1101  0.3647 -0.1445
  859MPD2    N112673   3.092   0.436  15.645 -0.5238 -0.2850  0.5008
  859MPD2    H712674   3.180   0.486  15.637 -0.4226 -0.1871  2.1867
  860MPD2     C12675   0.783   4.244  11.816 -0.5004 -0.6120 -0.1744
  860MPD2    C112676   0.722   4.213  11.930  0.1186  0.0059  0.1329
  860MPD2    C212677   0.580   4.240  11.942  0.0420  0.3895  0.3378
  860MPD2    C312678   0.512   4.294  11.834 -1.1203 -0.4070 -0.5081
  860MPD2    C412679   0.581   4.313  11.712 -0.0894  0.0745 -0.1753
  860MPD2    C512680   0.714   4.286  11.709 -0.2608  0.1506 -0.7997
  860MPD2     H12681   0.528   4.225  12.036 -1.1733  0.2779 -0.3641
  860MPD2    H112682   0.531   4.351  11.624  2.4065 -0.1186 -1.6692
  860MPD2    H212683   0.889   4.231  11.798 -0.8923 -0.3574 -2.7000
  860MPD2    H312684   0.763   4.277  11.613 -1.2416  2.0145 -1.4572
  860MPD2     N12685   0.374   4.322  11.859 -0.1656 -0.3357  0.0705
  860MPD2    H512686   0.342   4.309  11.954 -1.4722  2.3954  0.0189
  860MPD2    N112687   0.782   4.159  12.051 -0.0591  0.1168  0.0514
  860MPD2    H712688   0.722   4.146  12.131  0.3257  1.0163  0.4788
  861MPD2     C12689   3.976   2.444  10.743 -0.4894 -0.4459 -0.8391
  861MPD2    C112690   3.923   2.533  10.843 -0.0348  0.0542 -0.4481
  861MPD2    C212691   3.833   2.628  10.805  0.1427  0.4448 -0.3181
  861MPD2    C312692   3.792   2.647  10.674  0.1218  0.5591 -0.3923
  861MPD2    C412693   3.834   2.550  10.585  0.1653  0.6545 -0.5284
  861MPD2    C512694   3.924   2.450  10.616 -0.7412  0.6188  0.4399
  861MPD2     H12695   3.794   2.699  10.877 -1.3581 -0.2588 -0.4358
  861MPD2    H112696   3.809   2.559  10.480  1.0148  2.1388 -0.5992
  861MPD2    H212697   4.054   2.373  10.768  0.9556  1.4807  0.0872
  861MPD2    H312698   3.953   2.380  10.538 -1.9830  1.5877 -0.9158
  861MPD2     N12699   3.704   2.745  10.631  0.0058 -0.4565  0.2309
  861MPD2    H512700   3.660   2.737  10.540  1.3577 -2.3441 -0.2689
  861MPD2    N112701   3.966   2.524  10.976 -0.1280 -0.1316  0.1616
  861MPD2    H712702   3.913   2.574  11.046  1.4914  0.0223  1.2703
  862MPD2     C12703   3.294   3.031  10.116  0.3950 -1.0342  0.4376
  862MPD2    C112704   3.394   2.961  10.179  0.4753 -0.2046 -0.3471
  862MPD2    C212705   3.423   2.837  10.130  0.3154 -0.3731 -1.0183
  862MPD2    C312706   3.337   2.777  10.036  0.2268 -0.1800  0.0251
  862MPD2    C412707   3.232   2.844   9.983  0.6098  0.2184 -0.5399
  862MPD2    C512708   3.211   2.970  10.026  0.0224  0.3336 -0.0170
  862MPD2     H12709   3.499   2.779  10.180  0.1230 -1.1704 -1.6489
  862MPD2    H112710   3.169   2.809   9.902 -0.1344  0.2913  0.0065
  862MPD2    H212711   3.268   3.133  10.143 -1.3021 -1.8180  1.7807
  862MPD2    H312712   3.124   3.025   9.993 -1.4762 -1.1419  1.4291
  862MPD2     N12713   3.348   2.644   9.994  0.4412 -0.0457 -0.0596
  862MPD2    H512714   3.266   2.608   9.948 -0.2017  0.1036  0.9763
  862MPD2    N112715   3.467   3.011  10.283 -0.4197  0.6249  1.2144
  862MPD2    H712716   3.541   2.946  10.308 -1.3558 -1.2336 -0.8939
  863MPD2     C12717   1.981   1.380  16.627  0.5203  0.5896  0.4912
  863MPD2    C112718   2.100   1.419  16.564  1.0569  0.1883 -0.2133
  863MPD2    C212719   2.219   1.404  16.622  0.1123  0.2944  0.4758
  863MPD2    C312720   2.216   1.362  16.758  0.0259  0.7746  0.0837
  863MPD2    C412721   2.101   1.327  16.826  0.0416 -0.4980  0.0063
  863MPD2    C512722   1.983   1.340  16.758 -0.6878  0.0463 -0.1119
  863MPD2     H12723   2.314   1.428  16.577 -0.4877 -0.2282 -1.0824
  863MPD2    H112724   2.106   1.292  16.928  1.3214 -0.5744 -0.0897
  863MPD2    H212725   1.888   1.379  16.573 -0.7456  0.1663  2.6743
  863MPD2    H312726   1.900   1.307  16.820  0.0005  1.3741  1.5227
  863MPD2     N12727   2.340   1.359  16.834 -0.6521  0.1491 -0.6206
  863MPD2    H512728   2.334   1.331  16.931 -0.5356 -0.6414 -0.8455
  863MPD2    N112729   2.098   1.482  16.438  0.1303 -0.3154  0.1933
  863MPD2    H712730   2.005   1.500  16.402  0.7593  0.0193 -1.2692
  864MPD2     C12731   2.736   2.655  17.068  0.3386 -0.0503 -0.5605
  864MPD2    C112732   2.827   2.585  16.991 -0.0142  0.3539 -0.3698
  864MPD2    C212733   2.947   2.645  16.960  0.4083 -0.1149 -0.1899
  864MPD2    C312734   2.975   2.771  17.005 -0.0887 -0.9115 -0.5337
  864MPD2    C412735   2.876   2.844  17.065  0.5177 -0.1796 -0.5580
  864MPD2    C512736   2.759   2.787  17.098 -0.6209 -0.3540 -0.6071
  864MPD2     H12737   3.023   2.594  16.903  0.4796 -1.0659  0.7519
  864MPD2    H112738   2.898   2.949  17.085  0.0316 -0.2128  0.1710
  864MPD2    H212739   2.647   2.606  17.106  0.9422 -0.1516  0.7315
  864MPD2    H312740   2.682   2.842  17.150  0.1673 -1.7628  2.0658
  864MPD2     N12741   3.089   2.844  16.958 -0.1818  0.1862 -0.0879
  864MPD2    H512742   3.091   2.945  16.959 -0.1402  0.1563  3.0801
  864MPD2    N112743   2.786   2.458  16.946 -0.5488 -0.6173 -0.0241
  864MPD2    H712744   2.696   2.420  16.974  0.2192 -3.1321 -0.9873
  865MPD2     C12745   3.444   2.963  16.150 -0.3499 -0.2289 -0.6164
  865MPD2    C112746   3.450   2.854  16.248  0.0359  0.0855  0.0957
  865MPD2    C212747   3.409   2.879  16.377  0.3106  0.0889  0.1274
  865MPD2    C312748   3.363   3.001  16.418 -0.1170  0.0047  0.1836
  865MPD2    C412749   3.361   3.106  16.327  0.2493  0.2742  0.1626
  865MPD2    C512750   3.401   3.088  16.194  0.4869 -0.0201  0.4957
  865MPD2     H12751   3.391   2.807  16.456  1.1874 -0.0162  0.2360
  865MPD2    H112752   3.343   3.207  16.361 -2.3503 -0.2781  0.3960
  865MPD2    H212753   3.485   2.951  16.051 -0.3402 -0.6395 -0.5628
  865MPD2    H312754   3.388   3.165  16.120 -0.8315  0.4211  1.1963
  865MPD2     N12755   3.323   3.016  16.548  0.3620  0.0661 -0.5727
  865MPD2    H512756   3.329   2.924  16.591  3.4669  1.3387  1.6618
  865MPD2    N112757   3.483   2.727  16.199 -0.0082  0.1149  0.0205
  865MPD2    H712758   3.520   2.728  16.105  1.6226  1.5126  0.6831
  866MPD2     C12759   4.630   3.377  11.281 -0.3887 -0.4656 -0.0068
  866MPD2    C112760   4.626   3.288  11.175  0.6842  0.0502  0.7681
  866MPD2    C212761   4.502   3.244  11.121  0.4436 -0.1489  0.2119
  866MPD2    C312762   4.389   3.288  11.175 -0.1318 -0.0877  0.4804
  866MPD2    C412763   4.392   3.377  11.274 -0.3057 -0.1363 -0.0269
  866MPD2    C512764   4.510   3.430  11.326  0.1128 -1.3758 -0.9192
  866MPD2     H12765   4.504   3.175  11.037  1.6076  0.7255 -0.4643
  866MPD2    H112766   4.305   3.412  11.328  0.6537  1.1681  0.6705
  866MPD2    H212767   4.725   3.421  11.312  0.0843 -1.7073  0.3124
  866MPD2    H312768   4.512   3.508  11.400  1.0247 -1.5974 -0.7140
  866MPD2     N12769   4.257   3.247  11.132 -0.1153  0.0125 -0.2241
  866MPD2    H512770   4.176   3.295  11.171 -0.9005 -1.4022 -0.1117
  866MPD2    N112771   0.009   3.272  11.113 -0.3448  0.0060  0.2854
  866MPD2    H712772   0.081   3.328  11.156  2.9848 -1.1530 -3.8159
  867MPD2     C12773   1.807   2.855  16.316  0.2285 -0.0390  0.3269
  867MPD2    C112774   1.872   2.799  16.422 -1.1570  0.1538  0.4007
  867MPD2    C212775   1.964   2.872  16.490 -0.0572 -1.0791  0.4044
  867MPD2    C312776   1.991   3.009  16.463 -0.0431 -0.4801  0.5096
  867MPD2    C412777   1.914   3.067  16.367 -0.4781  0.2447 -0.5631
  867MPD2    C512778   1.827   2.989  16.294  0.1592 -0.2068  0.8654
  867MPD2     H12779   2.020   2.825  16.570 -1.2652 -1.2822  1.1352
  867MPD2    H112780   1.932   3.169  16.337  2.4506 -0.4603 -1.2059
  867MPD2    H212781   1.736   2.803  16.253 -0.1568  1.0869 -0.1858
  867MPD2    H312782   1.780   3.043  16.213 -0.6976 -1.3880  0.5702
  867MPD2     N12783   2.092   3.091  16.525 -0.4820 -0.4740 -0.2707
  867MPD2    H512784   2.097   3.190  16.503 -0.2018 -0.6490 -0.9712
  867MPD2    N112785   1.850   2.654  16.444  0.3783  0.3143  0.4104
  867MPD2    H712786   1.793   2.604  16.377 -0.5056  1.8384  0.0237
  868MPD2     C12787   4.367   1.655  13.837 -0.2495 -0.3771  0.1685
  868MPD2    C112788   4.347   1.693  13.709  0.8005  0.1782 -0.5841
  868MPD2    C212789   4.259   1.802  13.690 -0.0210 -0.7801  0.4262
  868MPD2    C312790   4.212   1.877  13.798  0.2909 -0.9106  0.0835
  868MPD2    C412791   4.251   1.845  13.924  0.3945  0.5557 -0.1945
  868MPD2    C512792   4.329   1.732  13.939  0.4926  0.6896  0.0202
  868MPD2     H12793   4.220   1.831  13.593  1.8102  0.9367  0.1976
  868MPD2    H112794   4.234   1.901  14.015 -0.5812  1.9520 -1.2375
  868MPD2    H212795   4.433   1.573  13.865 -2.6993 -1.8043  1.7159
  868MPD2    H312796   4.344   1.692  14.039 -0.3351  0.1419 -0.0682
  868MPD2     N12797   4.120   1.980  13.766 -0.5833  0.4550  0.6090
  868MPD2    H512798   4.100   1.982  13.667 -2.3409  0.7733  0.9719
  868MPD2    N112799   4.388   1.616  13.605  0.4600  0.6230  0.6782
  868MPD2    H712800   4.405   1.517  13.615 -1.1819  0.1873 -0.7934
  869MPD2     C12801   0.335   4.499   0.354  0.3325  0.1329  0.0604
  869MPD2    C112802   0.231   4.589   0.382  0.0068  0.0130 -0.1184
  869MPD2    C212803   0.247   4.661   0.499  0.0585  0.0607  0.1986
  869MPD2    C312804   0.366   4.665   0.564  0.1217 -0.0034 -0.0175
  869MPD2    C412805   0.472   4.592   0.516 -0.4422 -0.0805 -0.0321
  869MPD2    C512806   0.455   4.501   0.419  0.2387  0.0634  0.5979
  869MPD2     H12807   0.173   0.000   0.514 -0.7075 -1.0274  2.0381
  869MPD2    H112808   0.573   4.602   0.555 -0.6386 -0.2494  0.5265
  869MPD2    H212809   0.325   4.417   0.284  1.6997  0.4474 -0.5036
  869MPD2    H312810   0.532   4.433   0.385 -1.9784 -0.9116 -2.5570
  869MPD2     N12811   0.386   0.015   0.680  0.1152  0.2397  0.5708
  869MPD2    H512812   0.476   0.023   0.725 -0.1724 -0.5543  1.2955
  869MPD2    N112813   0.114   4.596   0.307 -0.0847  0.1389 -0.1742
  869MPD2    H712814   0.038   4.659   0.333 -0.4819  0.3811 -1.8742
  870MPD2     C12815   0.623   4.065   1.356  0.5792 -0.3808  0.9563
  870MPD2    C112816   0.518   3.973   1.341 -0.1787  0.0652  0.0972
  870MPD2    C212817   0.395   4.023   1.292 -0.6564 -0.7302 -0.0572
  870MPD2    C312818   0.366   4.155   1.295  0.5772 -0.1309 -0.2141
  870MPD2    C412819   0.463   4.241   1.320 -0.6295 -0.2570  0.0816
  870MPD2    C512820   0.588   4.201   1.343 -1.1136  0.9075 -0.4850
  870MPD2     H12821   0.304   3.964   1.295 -1.3937  0.4871  1.5035
  870MPD2    H112822   0.455   4.349   1.317  1.8941 -0.0273  1.9887
  870MPD2    H212823   0.728   4.044   1.371  0.9841  0.8978 -0.1181
  870MPD2    H312824   0.666   4.274   1.356 -1.8485  1.7094 -0.5627
  870MPD2     N12825   0.226   4.188   1.281  0.6366 -0.1248  0.2408
  870MPD2    H512826   0.158   4.122   1.243  1.2998 -0.7153  0.0848
  870MPD2    N112827   0.547   3.836   1.354  0.1450  0.2798 -0.2461
  870MPD2    H712828   0.644   3.812   1.372  0.1687 -0.0225 -0.7759
  871MPD2     C12829   0.823   2.942  16.339 -0.2889  0.7640 -0.2696
  871MPD2    C112830   0.839   2.914  16.472 -0.2819  0.7652  0.6608
  871MPD2    C212831   0.856   2.779  16.509 -0.2980 -0.3602 -0.0636
  871MPD2    C312832   0.845   2.676  16.420 -0.4933 -0.4151 -0.8732
  871MPD2    C412833   0.816   2.705  16.286 -0.1993  0.0933 -0.4708
  871MPD2    C512834   0.813   2.838  16.248  0.7134 -0.5996 -0.2606
  871MPD2     H12835   0.873   2.755  16.614 -0.1635  0.0106 -0.0003
  871MPD2    H112836   0.802   2.627  16.212  1.2416  1.1025 -1.7850
  871MPD2    H212837   0.821   3.046  16.308 -0.2176  1.2620  1.4104
  871MPD2    H312838   0.805   2.862  16.143 -2.9217  0.7780  0.3277
  871MPD2     N12839   0.843   2.547  16.474  1.1096 -0.5967  0.3070
  871MPD2    H512840   0.850   2.542  16.575  0.9071 -1.9508  0.2556
  871MPD2    N112841   0.833   3.023  16.560  0.6124  0.2465  0.1999
  871MPD2    H712842   0.825   3.118  16.524 -0.6402  0.1768  0.3010
  872MPD2     C12843   1.727   0.362  14.235  0.5375  0.2421  0.1082
  872MPD2    C112844   1.708   0.402  14.102 -0.3697 -0.0096  0.5068
  872MPD2    C212845   1.603   0.342  14.034  0.1237  0.6879 -0.2266
  872MPD2    C312846   1.531   0.240  14.098 -0.4276 -0.6683 -0.4637
  872MPD2    C412847   1.573   0.192  14.218  0.9562 -0.2719 -0.3814
  872MPD2    C512848   1.665   0.253  14.288  0.2750  0.2923  0.0150
  872MPD2     H12849   1.587   0.374  13.932 -1.5840 -1.8809 -0.7529
  872MPD2    H112850   1.517   0.119  14.275  0.2686 -0.0211 -0.7457
  872MPD2    H212851   1.809   0.414  14.284  1.3021 -0.6118 -0.2762
  872MPD2    H312852   1.676   0.248  14.395 -1.1098 -0.3175  0.1299
  872MPD2     N12853   1.426   0.170  14.031 -0.3810 -0.0448  0.0375
  872MPD2    H512854   1.385   0.086  14.073  2.4556 -0.8548  1.1710
  872MPD2    N112855   1.783   0.501  14.040  0.3635 -0.1847  0.4204
  872MPD2    H712856   1.733   0.553  13.968  0.0756 -2.0411 -0.7006
  873MPD2     C12857   3.691   1.203   0.582 -0.9727  0.5573 -0.1402
  873MPD2    C112858   3.574   1.191   0.644  0.8936 -0.0346  0.7567
  873MPD2    C212859   3.473   1.120   0.582  0.5192 -0.7355 -0.8067
  873MPD2    C312860   3.493   1.060   0.460 -0.1580 -0.0402 -0.1434
  873MPD2    C412861   3.613   1.065   0.405 -0.8603 -0.2332  0.2776
  873MPD2    C512862   3.712   1.143   0.456 -0.4367 -0.0208  0.3496
  873MPD2     H12863   3.375   1.111   0.625  0.1755 -1.5830 -1.7684
  873MPD2    H112864   3.628   1.037   0.302 -0.0474  1.3357 -0.0388
  873MPD2    H212865   3.775   1.252   0.629 -1.4782  0.9254  0.3764
  873MPD2    H312866   3.803   1.152   0.398  0.7733  2.0576  2.5605
  873MPD2     N12867   3.387   1.003   0.383 -0.2579 -0.0194  0.3311
  873MPD2    H512868   3.402   0.978   0.285 -0.5053  1.8581 -0.1882
  873MPD2    N112869   3.550   1.263   0.765 -0.1074  0.0301 -0.0060
  873MPD2    H712870   3.628   1.292   0.823 -0.3717  0.1042  0.3130
  874MPD2     C12871   2.441   0.526  16.733  0.5202 -0.5169 -0.0004
  874MPD2    C112872   2.520   0.434  16.673  0.4324  0.3228  0.5000
  874MPD2    C212873   2.616   0.491  16.596 -0.5149 -0.1999 -0.1309
  874MPD2    C312874   2.627   0.627  16.575 -0.8439 -0.2545 -0.0893
  874MPD2    C412875   2.542   0.715  16.636  0.2798 -0.0764 -0.3247
  874MPD2    C512876   2.448   0.660  16.717  0.3873 -0.3682 -0.3323
  874MPD2     H12877   2.683   0.421  16.546 -2.0611 -1.5722 -0.2839
  874MPD2    H112878   2.556   0.823  16.634  0.7663 -0.0937  1.7442
  874MPD2    H212879   2.361   0.483  16.793 -0.6429  0.7870 -0.5950
  874MPD2    H312880   2.380   0.727  16.769  2.4674  3.2679 -2.2639
  874MPD2     N12881   2.737   0.670  16.497  0.5094  0.7694 -0.0392
  874MPD2    H512882   2.801   0.600  16.461 -0.3750  0.1137 -0.3099
  874MPD2    N112883   2.493   0.294  16.682 -1.0929 -0.1620  0.4776
  874MPD2    H712884   2.443   0.259  16.763  0.3501  0.2394  1.5348
  875MPD2     C12885   4.589   3.658  14.370 -0.2070 -0.2560  0.3608
  875MPD2    C112886   4.460   3.659  14.420 -0.3998 -0.4502  0.8777
  875MPD2    C212887   4.431   3.738  14.533 -0.4038 -0.8286 -0.2327
  875MPD2    C312888   4.534   3.810  14.590 -0.2417  0.2643  0.0403
  875MPD2    C412889   4.660   3.816  14.527  0.4302  0.1435 -0.7348
  875MPD2    C512890   4.687   3.740  14.419  0.5883 -0.1076  0.3437
  875MPD2     H12891   4.330   3.751  14.571 -0.6653 -0.2592 -1.1204
  875MPD2    H112892   0.009   3.851  14.581  0.5268  0.2911 -0.9852
  875MPD2    H212893   4.617   3.596  14.285  0.2424  1.5191 -0.7756
  875MPD2    H312894   0.049   3.739  14.378  1.2045  0.9786  1.8101
  875MPD2     N12895   4.523   3.871  14.717  0.2071  0.5122 -0.2393
  875MPD2    H512896   4.603   3.927  14.744  0.4954 -0.7388  1.4765
  875MPD2    N112897   4.350   3.585  14.361 -0.4928 -0.3317  0.0436
  875MPD2    H712898   4.255   3.608  14.388 -0.6097  0.8151 -1.3601
  876MPD2     C12899   3.229   0.208  16.183  0.0517  0.1680 -0.3934
  876MPD2    C112900   3.332   0.142  16.127 -0.5717  0.0243 -0.0269
  876MPD2    C212901   3.348   0.008  16.154  0.7133 -0.3982  0.2977
  876MPD2    C312902   3.267   4.683  16.250  0.5446 -0.3946 -0.2052
  876MPD2    C412903   3.164   0.016  16.311 -0.7205  0.4742 -0.1460
  876MPD2    C512904   3.147   0.149  16.275 -0.2363  0.0470 -0.2532
  876MPD2     H12905   3.420   4.681  16.106 -1.3613 -2.3848 -0.1359
  876MPD2    H112906   3.097   4.705  16.381 -2.0262 -0.0773 -1.7691
  876MPD2    H212907   3.213   0.311  16.153  1.2333 -0.2263 -2.4192
  876MPD2    H312908   3.070   0.217  16.310 -0.9499 -0.6353 -0.5027
  876MPD2     N12909   3.293   4.545  16.281  0.1755  0.0617 -0.5080
  876MPD2    H512910   3.377   4.503  16.242  0.6422 -0.7061  1.3173
  876MPD2    N112911   3.405   0.208  16.026  0.5198 -0.5965 -0.3804
  876MPD2    H712912   3.400   0.309  16.020 -0.7008 -0.8012 -2.8893
  877MPD2     C12913   3.359   0.689  15.429 -0.2019 -0.0561 -0.7451
  877MPD2    C112914   3.487   0.636  15.435  0.6052  0.2914  0.3855
  877MPD2    C212915   3.550   0.640  15.309  0.2884 -0.2871 -0.2598
  877MPD2    C312916   3.497   0.705  15.194 -0.2376  0.4190 -0.0333
  877MPD2    C412917   3.368   0.762  15.203 -0.4260 -0.5278 -0.2830
  877MPD2    C512918   3.299   0.745  15.317  0.3970 -0.2961 -0.5269
  877MPD2     H12919   3.655   0.611  15.306  0.3132 -0.1489 -0.7755
  877MPD2    H112920   3.318   0.811  15.121 -0.3415 -3.5868 -2.1806
  877MPD2    H212921   3.300   0.688  15.520  0.0785  1.0098 -0.5555
  877MPD2    H312922   3.195   0.775  15.321  0.2197 -0.7502 -2.1648
  877MPD2     N12923   3.571   0.713  15.071 -0.5753 -0.3763 -0.1150
  877MPD2    H512924   3.519   0.735  14.987 -1.6712 -0.0736  0.6335
  877MPD2    N112925   3.550   0.566  15.544  0.7627  0.4666 -0.1860
  877MPD2    H712926   3.644   0.531  15.532  0.5448  0.5057 -2.1045
  878MPD2     C12927   3.296   4.359  12.991  0.3815 -0.3878  0.2550
  878MPD2    C112928   3.388   4.467  13.009 -0.0877 -0.7161 -0.1504
  878MPD2    C212929   3.369   4.556  13.113 -0.0548 -0.3461 -0.6543
  878MPD2    C312930   3.268   4.531  13.206  0.4201 -0.1035  0.1817
  878MPD2    C412931   3.172   4.432  13.177 -0.4348  0.0350 -0.0725
  878MPD2    C512932   3.191   4.340  13.073 -0.0238  0.2262  0.4508
  878MPD2     H12933   3.452   4.621  13.139  0.5125 -1.0021 -0.8372
  878MPD2    H112934   3.105   4.397  13.254  0.8349  2.1118  1.9593
  878MPD2    H212935   3.305   4.291  12.907  2.4915 -0.4107  0.5213
  878MPD2    H312936   3.117   4.262  13.057 -1.0822  1.2025  0.5426
  878MPD2     N12937   3.271   4.602  13.330  0.7178  0.3179  0.5242
  878MPD2    H512938   3.356   4.658  13.333  0.9225  0.1080 -1.2538
  878MPD2    N112939   3.489   4.474  12.918  0.5560  0.1078 -0.1402
  878MPD2    H712940   3.484   4.409  12.840  1.1089  0.0757 -0.1479
  879MPD2     C12941   3.300   1.777  16.781 -1.0861 -0.0023 -0.3571
  879MPD2    C112942   3.265   1.666  16.854  0.6194 -0.3324  0.2215
  879MPD2    C212943   3.155   1.587  16.818 -0.4415  0.1865  0.3555
  879MPD2    C312944   3.085   1.618  16.697 -0.4625 -0.2588  0.3478
  879MPD2    C412945   3.122   1.726  16.626 -1.2325  0.0195 -0.1933
  879MPD2    C512946   3.224   1.810  16.669 -0.2546 -0.3173 -0.2978
  879MPD2     H12947   3.146   1.490  16.866  0.4398 -1.5303 -2.9795
  879MPD2    H112948   3.075   1.736  16.529  1.1568  0.3739 -1.3082
  879MPD2    H212949   3.385   1.838  16.807 -2.4460  1.1562  1.3231
  879MPD2    H312950   3.249   1.896  16.607 -1.3958 -1.0221 -1.7263
  879MPD2     N12951   2.964   1.552  16.644 -0.1297  0.4687 -0.0144
  879MPD2    H512952   2.915   1.602  16.571  0.6061 -1.0408 -1.5293
  879MPD2    N112953   3.350   1.630  16.961  0.1526 -0.3235 -0.9164
  879MPD2    H712954   3.429   1.692  16.975 -0.5332  0.8181 -2.0882
  880MPD2     C12955   4.592   3.089   0.253  0.5047  0.5818  0.1132
  880MPD2    C112956   4.632   3.153   0.368  0.3959 -0.0747  0.1854
  880MPD2    C212957   4.731   3.095   0.447 -1.0540  0.0290  0.0694
  880MPD2    C312958   0.065   2.980   0.405  0.3540 -0.5549  0.8942
  880MPD2    C412959   0.027   2.927   0.288  0.3850 -0.9080  0.4572
  880MPD2    C512960   4.661   2.980   0.214 -0.1536  0.6067  0.5500
  880MPD2     H12961   0.028   3.147   0.535  1.4221 -2.4078  0.5437
  880MPD2    H112962   0.073   2.840   0.243 -0.6330 -1.0131 -0.3726
  880MPD2    H212963   4.511   3.122   0.189 -0.2011  1.8553  1.6719
  880MPD2    H312964   4.632   2.939   0.118 -0.9003  0.4367  0.8536
  880MPD2     N12965   0.182   2.941   0.476 -0.6723 -0.3600 -0.2547
  880MPD2    H512966   0.192   2.980   0.570  0.5786 -0.5364 -0.3216
  880MPD2    N112967   4.564   3.274   0.385 -0.3494 -0.8873  0.4128
  880MPD2    H712968   4.490   3.299   0.320 -1.1955 -0.3383  1.5856
  881MPD2     C12969   0.154   4.093   0.041  0.8516 -0.4656  0.3837
  881MPD2    C112970   0.103   3.975  17.740 -0.4230  0.0849 -0.0107
  881MPD2    C212971   0.029   3.889   0.058  1.6658  0.1242  0.0463
  881MPD2    C312972   4.717   3.932   0.177 -0.2707  0.3841  0.1830
  881MPD2    C412973   0.033   4.042   0.237 -0.2646  0.8617 -0.0190
  881MPD2    C512974   0.131   4.119   0.171 -0.8261  0.0577 -0.3374
  881MPD2     H12975   4.731   3.797   0.014  2.9157 -0.6648  0.6565
  881MPD2    H112976   0.006   4.070   0.339  0.9708 -0.9106  0.7964
  881MPD2    H212977   0.226   4.150  17.734 -1.3337  0.1456 -1.7507
  881MPD2    H312978   0.175   4.203   0.224 -1.0309 -1.1437  1.7395
  881MPD2     N12979   4.633   3.854   0.261  0.4797  0.3072  1.0543
  881MPD2    H512980   4.600   3.899   0.346 -1.5222  1.1894 -0.1869
  881MPD2    N112981   0.152   3.935  17.608 -0.0769 -0.0309  0.4474
  881MPD2    H712982   0.200   4.009  17.558  0.4312 -0.7012 -0.0538
  882MPD2     C12983   3.422   0.309  14.592 -0.0305  0.2845 -0.7955
  882MPD2    C112984   3.423   0.445  14.583  0.7630 -0.5880 -0.6057
  882MPD2    C212985   3.314   0.508  14.529  0.1129  0.3851  0.2648
  882MPD2    C312986   3.212   0.435  14.474 -0.3252  0.3548  1.0440
  882MPD2    C412987   3.214   0.300  14.475 -0.1722 -0.2309 -0.0394
  882MPD2    C512988   3.314   0.239  14.541 -0.1582 -0.2404 -0.0363
  882MPD2     H12989   3.314   0.615  14.509  2.5530  0.2510 -0.4241
  882MPD2    H112990   3.146   0.236  14.420 -1.6223  0.2163  1.2253
  882MPD2    H212991   3.507   0.258  14.636 -0.4276  0.3131 -0.0093
  882MPD2    H312992   3.323   0.132  14.547  0.7558 -0.1526  0.1808
  882MPD2     N12993   3.105   0.488  14.397  0.3432 -0.6759  0.1164
  882MPD2    H512994   3.051   0.423  14.340  1.4610 -2.3747  0.9759
  882MPD2    N112995   3.542   0.508  14.622 -0.0719 -1.2865 -0.2154
  882MPD2    H712996   3.615   0.439  14.639  1.4370  0.5037  0.5400
  883MPD2     C12997   0.331   0.423  15.931 -0.5665 -0.3518  0.2286
  883MPD2    C112998   0.465   0.456  15.917 -0.1914 -0.4769 -0.8504
  883MPD2    C212999   0.519   0.547  16.013  0.3274 -1.0607  0.4500
  883MPD2    C313000   0.440   0.591  16.122  0.2922  0.3329 -0.3478
  883MPD2    C413001   0.308   0.560  16.121 -0.2024  0.5898  0.5779
  883MPD2    C513002   0.253   0.474  16.029  0.2415  0.1526  0.5304
  883MPD2     H13003   0.624   0.568  16.004 -0.0819  0.7557 -0.0823
  883MPD2    H113004   0.241   0.606  16.194  0.3537 -0.6075  1.8495
  883MPD2    H213005   0.294   0.358  15.852  0.3211 -0.0590 -0.4171
  883MPD2    H313006   0.148   0.446  16.030 -0.0931  1.3657 -0.1378
  883MPD2     N13007   0.505   0.665  16.224  0.0611 -0.0829  0.2430
  883MPD2    H513008   0.603   0.686  16.204  0.0150  0.4676  0.6318
  883MPD2    N113009   0.558   0.402  15.829  0.1319 -0.4456  0.3566
  883MPD2    H713010   0.649   0.445  15.847 -0.0143 -0.4570  1.1561
  884MPD2     C13011   2.327   1.094  15.129 -0.2572 -0.1613  0.7385
  884MPD2    C113012   2.314   1.191  15.033  0.1318 -0.2700 -0.9062
  884MPD2    C213013   2.189   1.258  15.026 -0.4162  0.1851 -0.4325
  884MPD2    C313014   2.092   1.233  15.117 -0.4260 -0.0595  0.0326
  884MPD2    C413015   2.119   1.146  15.221 -0.0453  0.1164  0.1876
  884MPD2    C513016   2.225   1.065  15.216 -0.3952 -0.2855 -0.4958
  884MPD2     H13017   2.166   1.334  14.953  0.5165 -1.6694 -2.6409
  884MPD2    H113018   2.047   1.124  15.299 -0.0071  0.1012  0.2188
  884MPD2    H213019   2.412   1.027  15.134 -1.1564 -1.4218 -0.8624
  884MPD2    H313020   2.246   0.988  15.289 -0.0086 -0.9840 -1.3446
  884MPD2     N13021   1.963   1.300  15.105 -0.2126  0.0009  0.4838
  884MPD2    H513022   1.932   1.347  15.021  0.7015 -0.5107 -0.1406
  884MPD2    N113023   2.423   1.221  14.939  0.1849  0.2943  0.2662
  884MPD2    H713024   2.397   1.292  14.871 -1.7483 -1.4874 -0.8921
  885MPD2     C13025   0.545   2.428   0.190  0.0865 -0.2825 -0.3087
  885MPD2    C113026   0.659   2.353   0.174  0.3422  0.0389  0.1811
  885MPD2    C213027   0.691   2.315   0.041  0.5393 -0.0267  0.3055
  885MPD2    C313028   0.610   2.343  17.684  0.1234  0.8858  0.0331
  885MPD2    C413029   0.495   2.415  17.706 -0.6240 -0.4530 -0.7120
  885MPD2    C513030   0.467   2.454   0.084 -0.1111 -0.4028 -0.3117
  885MPD2     H13031   0.785   2.262   0.027  1.5557  1.3983  1.6707
  885MPD2    H113032   0.430   2.439  17.623  0.5356  0.3553 -1.3834
  885MPD2    H213033   0.509   2.462   0.286 -0.7682 -2.1185  0.0248
  885MPD2    H313034   0.378   2.515   0.097  0.0201  0.0806 -1.7460
  885MPD2     N13035   0.649   2.294  17.555  0.3963  0.4266  0.1359
  885MPD2    H513036   0.735   2.242  17.563  0.5749  0.9986  1.8700
  885MPD2    N113037   0.740   2.333   0.291  0.1245 -0.2203  0.0109
  885MPD2    H713038   0.708   2.379   0.376  2.9529 -0.6710  1.3566
  886MPD2     C13039   2.131   4.715  15.188  0.1692 -0.1053  0.1410
  886MPD2    C113040   2.163   0.065  15.283 -0.2229 -0.4429 -0.3349
  886MPD2    C213041   2.186   0.198  15.242  0.2056 -1.0610  0.8776
  886MPD2    C313042   2.172   0.240  15.109  0.3203  0.5570  0.1689
  886MPD2    C413043   2.113   0.150  15.016  0.3018 -0.3195 -0.7227
  886MPD2    C513044   2.100   0.015  15.058  0.1605  0.5431 -0.7887
  886MPD2     H13045   2.219   0.267  15.319  0.8476  0.8452 -1.0798
  886MPD2    H113046   2.086   0.173  14.914 -0.9586 -0.1420 -0.3460
  886MPD2    H213047   2.106   4.613  15.213  1.4563 -0.5439 -0.3543
  886MPD2    H313048   2.078   4.672  14.990  1.1926 -1.1812  0.9414
  886MPD2     N13049   2.205   0.363  15.060  0.3871  0.0619 -0.3180
  886MPD2    H513050   2.187   0.374  14.961 -2.1797 -0.1695  0.1262
  886MPD2    N113051   2.182   0.032  15.419  0.0896 -0.0760 -0.8265
  886MPD2    H713052   2.197   0.111  15.481 -1.3827 -0.5846  0.2032
  887MPD2     C13053   2.340   0.279  16.107  0.4823  0.7377  0.1537
  887MPD2    C113054   2.385   0.266  15.974 -0.1782 -0.2378 -0.1973
  887MPD2    C213055   2.477   0.361  15.929  0.5831 -0.1227 -0.1356
  887MPD2    C313056   2.534   0.457  16.015  0.1639 -0.1967 -0.6371
  887MPD2    C413057   2.487   0.466  16.137  0.0505 -0.3324  0.2561
  887MPD2    C513058   2.396   0.378  16.187  0.5961  0.4962  0.3807
  887MPD2     H13059   2.508   0.350  15.825 -1.8748  0.9662 -0.9781
  887MPD2    H113060   2.532   0.545  16.195 -0.1851  0.6126 -0.8419
  887MPD2    H213061   2.261   0.220  16.152  0.7905  0.6283  0.5538
  887MPD2    H313062   2.364   0.377  16.291 -0.8840 -1.4743 -0.0838
  887MPD2     N13063   2.625   0.544  15.961 -0.5633 -0.0297 -0.3129
  887MPD2    H513064   2.631   0.534  15.860 -0.3760 -0.9776 -0.2082
  887MPD2    N113065   2.335   0.169  15.884  0.0845  0.1744 -0.9652
  887MPD2    H713066   2.388   0.165  15.798 -0.8936  0.9602 -1.6043
  888MPD2     C13067   0.043   0.062  14.918  0.3496  0.1693 -0.1737
  888MPD2    C113068   4.675   0.098  14.997 -0.0071 -0.7205 -0.3577
  888MPD2    C213069   4.666   0.229  15.036 -0.3492 -0.2730 -0.2676
  888MPD2    C313070   0.038   0.320  15.016  0.0449  0.1036 -0.2667
  888MPD2    C413071   0.155   0.264  14.955  0.6420 -0.1476 -0.3743
  888MPD2    C513072   0.154   0.143  14.902  0.5552 -0.4675  0.0419
  888MPD2     H13073   4.579   0.264  15.090 -0.8352 -0.7591 -0.7360
  888MPD2    H113074   0.250   0.315  14.947  1.1169 -0.6917  1.7651
  888MPD2    H213075   0.047   4.702  14.872  0.6089 -0.1993  0.6220
  888MPD2    H313076   0.241   0.117  14.843  0.8691  0.6053  0.0203
  888MPD2     N13077   0.032   0.454  15.056 -0.4531 -0.3410  0.4752
  888MPD2    H513078   4.678   0.491  15.078 -0.4293  0.7157 -1.1464
  888MPD2    N113079   4.571   0.012  15.039 -0.3113  0.1534  0.8234
  888MPD2    H713080   4.510   0.038  15.116 -0.5023 -1.2331  1.1564
  889MPD2     C13081   4.307   4.147  12.747  0.1599 -1.0580 -0.0640
  889MPD2    C113082   4.196   4.068  12.737  0.2443 -0.5811  0.6948
  889MPD2    C213083   4.098   4.073  12.838  0.7390 -1.4171  0.0312
  889MPD2    C313084   4.085   4.193  12.914 -0.0980 -0.2005 -0.3500
  889MPD2    C413085   4.186   4.291  12.895 -0.0573  0.4476  0.2529
  889MPD2    C513086   4.294   4.264  12.815  0.1175  0.0603  0.2363
  889MPD2     H13087   4.016   4.002  12.844  0.2632 -0.9156 -0.4638
  889MPD2    H113088   4.205   4.388  12.940  2.4908 -0.0725  0.2901
  889MPD2    H213089   4.381   4.148  12.668  2.5719  2.0077  2.2574
  889MPD2    H313090   4.373   4.337  12.801  0.3592 -0.6854 -2.3179
  889MPD2     N13091   3.971   4.214  13.005 -0.4942 -0.0507 -0.6564
  889MPD2    H513092   3.903   4.139  13.005  0.1984 -0.6920  1.3730
  889MPD2    N113093   4.192   3.954  12.662 -0.5968 -0.0661 -0.6698
  889MPD2    H713094   4.111   3.894  12.677 -1.5257  1.1620 -0.7642
  890MPD2     C13095   3.254   1.346  14.669 -0.6469  0.4438  0.3428
  890MPD2    C113096   3.332   1.449  14.715  0.2107 -0.2123  0.3104
  890MPD2    C213097   3.416   1.416  14.821 -0.0907  0.3787  0.0170
  890MPD2    C313098   3.419   1.286  14.874  0.3473 -0.2771 -0.6205
  890MPD2    C413099   3.334   1.188  14.827  0.3358 -0.3282 -0.1679
  890MPD2    C513100   3.263   1.216  14.715 -0.4764  0.3449  0.3100
  890MPD2     H13101   3.477   1.494  14.866 -1.1563  1.4372 -0.3752
  890MPD2    H113102   3.342   1.088  14.867  0.1206 -1.3947 -2.7913
  890MPD2    H213103   3.193   1.362  14.581  0.6255 -1.2457 -0.8600
  890MPD2    H313104   3.215   1.136  14.660  1.0341  0.2215 -0.8572
  890MPD2     N13105   3.505   1.255  14.982 -0.3652  0.2833  0.8429
  890MPD2    H513106   3.593   1.305  14.984  0.1434 -0.4806 -1.7499
  890MPD2    N113107   3.314   1.576  14.656 -1.0743  0.5584  0.1617
  890MPD2    H713108   3.255   1.573  14.574  2.5626  3.0315 -2.5685
  891MPD2     C13109   1.608   0.006  16.836  0.4313  0.7613  0.1833
  891MPD2    C113110   1.499   0.003  16.924 -0.3803  0.5586 -0.1845
  891MPD2    C213111   1.480   4.629  17.002 -0.3912 -0.2174 -0.2333
  891MPD2    C313112   1.565   4.519  16.998  0.1972 -0.1749  0.6240
  891MPD2    C413113   1.674   4.533  16.906 -0.0391  0.1993 -0.7764
  891MPD2    C513114   1.694   4.647  16.827 -0.1526  0.0088  0.3227
  891MPD2     H13115   1.404   4.626  17.079  0.5977  0.7558  0.7881
  891MPD2    H113116   1.746   4.454  16.886 -1.7836 -1.8252  0.9146
  891MPD2    H213117   1.622   0.095  16.775 -1.9344  0.0489 -1.3859
  891MPD2    H313118   1.776   4.649  16.755 -2.6790 -0.9632 -2.5860
  891MPD2     N13119   1.537   4.405  17.072 -0.2613 -0.2312 -0.3932
  891MPD2    H513120   1.460   4.411  17.138 -0.5528  1.3177 -0.8706
  891MPD2    N113121   1.411   0.109  16.921 -0.0648  0.5834 -0.3187
  891MPD2    H713122   1.423   0.180  16.849 -0.3525 -1.1241 -2.0269
  892MPD2     C13123   2.441   1.250  14.510 -0.3401 -1.1935 -0.7682
  892MPD2    C113124   2.393   1.134  14.572 -0.3746 -0.4710  0.3130
  892MPD2    C213125   2.472   1.024  14.545 -0.5934  0.4604 -1.1387
  892MPD2    C313126   2.586   1.030  14.462 -0.4915  0.1786 -0.0948
  892MPD2    C413127   2.632   1.146  14.400 -0.3374  0.4486 -0.6640
  892MPD2    C513128   2.553   1.256  14.430  0.1958  0.0210  0.0630
  892MPD2     H13129   2.442   0.933  14.597 -2.6073  0.6993 -1.8942
  892MPD2    H113130   2.718   1.138  14.335 -0.0038  0.6389 -0.2456
  892MPD2    H213131   2.383   1.341  14.518 -0.1123 -1.0464 -0.8075
  892MPD2    H313132   2.577   1.344  14.373  2.6966 -1.0691 -0.5426
  892MPD2     N13133   2.654   0.908  14.425  0.1254 -0.1826  0.7613
  892MPD2    H513134   2.739   0.909  14.370 -0.9035  0.1510 -0.8139
  892MPD2    N113135   2.271   1.130  14.637 -0.2987  0.2210  0.2386
  892MPD2    H713136   2.214   1.213  14.629  0.6032  0.9172  1.0515
  893MPD2     C13137   3.838   0.540   0.931 -0.3964  0.7218  1.1697
  893MPD2    C113138   3.916   0.493   1.038 -0.3253 -0.1779  0.2508
  893MPD2    C213139   3.869   0.497   1.165  0.2476 -0.0252  0.1478
  893MPD2    C313140   3.748   0.546   1.197 -0.2547 -0.4103 -0.1358
  893MPD2    C413141   3.665   0.592   1.093 -0.5089  0.0734  0.7178
  893MPD2    C513142   3.707   0.582   0.959 -0.0171 -0.0574  0.1767
  893MPD2     H13143   3.925   0.449   1.244 -1.8687 -0.3107  1.4670
  893MPD2    H113144   3.568   0.639   1.106 -1.0858 -1.0293  0.3623
  893MPD2    H213145   3.884   0.543   0.833  0.1362  0.8659  1.4204
  893MPD2    H313146   3.645   0.605   0.874 -1.9015  0.1599  1.6113
  893MPD2     N13147   3.711   0.559   1.335  0.0402 -0.6680  0.2456
  893MPD2    H513148   3.611   0.577   1.336  0.3382  0.8842  1.1423
  893MPD2    N113149   4.046   0.445   1.010  0.3081  0.1074  0.6429
  893MPD2    H713150   4.074   0.449   0.913 -0.3382 -1.2644  0.4071
  894MPD2     C13151   2.320   1.999   1.151  0.4459  0.2550  0.2269
  894MPD2    C113152   2.255   2.096   1.225  0.1172 -0.1111  0.0952
  894MPD2    C213153   2.273   2.227   1.184 -0.1127  0.7331  0.3085
  894MPD2    C313154   2.329   2.256   1.063 -0.3825 -0.2092 -0.0347
  894MPD2    C413155   2.383   2.157   0.986  0.3767 -0.2702  0.7432
  894MPD2    C513156   2.375   2.030   1.026 -0.2338 -1.2169 -1.0743
  894MPD2     H13157   2.224   2.302   1.245  0.2406  1.3091 -0.1216
  894MPD2    H113158   2.431   2.179   0.892 -0.6832 -0.9778  0.0454
  894MPD2    H213159   2.304   1.895   1.179 -0.0116  0.0209 -0.9058
  894MPD2    H313160   2.420   1.963   0.954  1.8199  1.3049 -2.1136
  894MPD2     N13161   2.343   2.391   1.027 -0.3087  0.5087  0.2023
  894MPD2    H513162   2.348   2.458   1.103 -0.6310  2.3469 -1.4137
  894MPD2    N113163   2.168   2.071   1.332 -0.2662 -0.3641 -0.4694
  894MPD2    H713164   2.124   2.153   1.373  3.4744 -0.0811  3.0288
  895MPD2     C13165   1.782   4.500  13.464  0.2584 -0.2396  0.0885
  895MPD2    C113166   1.742   4.423  13.360 -0.1726 -0.2282  0.3766
  895MPD2    C213167   1.811   4.309  13.324 -0.0343 -0.1178  0.1017
  895MPD2    C313168   1.930   4.283  13.377 -0.3005  0.4115  0.1466
  895MPD2    C413169   1.976   4.358  13.483 -0.2028  0.5186  0.9764
  895MPD2    C513170   1.897   4.461  13.526 -0.6792 -0.5586 -0.3716
  895MPD2     H13171   1.784   4.260  13.232 -2.5940  1.4103  0.0296
  895MPD2    H113172   2.074   4.340  13.527  0.3341  3.5940  1.0049
  895MPD2    H213173   1.734   4.589  13.501 -0.4988 -0.0323 -1.3772
  895MPD2    H313174   1.937   4.518  13.609  1.1925  0.5481 -2.0525
  895MPD2     N13175   2.005   4.178  13.322  0.0092 -0.1338  0.7237
  895MPD2    H513176   1.957   4.141  13.240  1.6681 -1.7632  0.4779
  895MPD2    N113177   1.633   4.455  13.278  0.4241 -0.0447 -0.0098
  895MPD2    H713178   1.603   4.379  13.218  1.9336 -0.1058 -0.7053
  896MPD2     C13179   4.076   2.901   1.625 -0.4460 -0.1801 -0.5557
  896MPD2    C113180   4.049   2.859   1.494 -0.6910  0.6671 -0.3728
  896MPD2    C213181   3.918   2.826   1.456  0.4236  0.1360  0.9595
  896MPD2    C313182   3.816   2.864   1.543 -0.3134 -0.4268 -0.3506
  896MPD2    C413183   3.843   2.920   1.662  0.5309  0.6327 -0.6131
  896MPD2    C513184   3.969   2.940   1.701  0.1021  0.0052  0.2074
  896MPD2     H13185   3.898   2.788   1.357 -0.4752 -0.4805  1.3819
  896MPD2    H113186   3.764   2.936   1.735  0.7080 -1.6979  0.1126
  896MPD2    H213187   4.178   2.908   1.660 -0.3976  1.4614 -1.0411
  896MPD2    H313188   4.000   2.971   1.800  0.4513 -2.3440  0.8265
  896MPD2     N13189   3.683   2.842   1.491  0.0604 -0.4428  0.1096
  896MPD2    H513190   3.682   2.788   1.405 -3.6296  1.3674 -0.9762
  896MPD2    N113191   4.160   2.850   1.407 -0.9518  0.1211  0.3426
  896MPD2    H713192   4.247   2.878   1.449 -0.3327  1.6156 -1.9371
  897MPD2     C13193   4.589   3.163  10.432  0.1751  0.5427  0.0584
  897MPD2    C113194   4.691   3.227  10.506  0.1190  0.3573  0.0874
  897MPD2    C213195   4.650   3.302  10.614  0.2056  0.3946 -1.0783
  897MPD2    C313196   4.518   3.304  10.655 -0.2909 -0.8717  0.2557
  897MPD2    C413197   4.419   3.237  10.590 -0.1385  0.4629 -0.1127
  897MPD2    C513198   4.454   3.166  10.476  0.1338 -0.9929 -0.0276
  897MPD2     H13199   4.712   3.379  10.660 -0.3817 -1.1933  2.3901
  897MPD2    H113200   4.318   3.225  10.628 -0.5044 -0.3021 -1.3353
  897MPD2    H213201   4.601   3.118  10.334  0.0731  0.9145 -0.1276
  897MPD2    H313202   4.379   3.112  10.421 -2.3830  0.1275  2.2959
  897MPD2     N13203   4.498   3.381  10.768  0.0648  0.5226  0.7158
  897MPD2    H513204   4.584   3.424  10.800 -0.0799  2.0135 -0.9329
  897MPD2    N113205   0.085   3.224  10.454 -0.0630 -0.1334  0.3650
  897MPD2    H713206   0.104   3.163  10.375  0.5899  2.4399 -1.4660
  898MPD2     C13207   1.494   0.555   0.336 -0.4060 -0.1605 -0.1137
  898MPD2    C113208   1.627   0.562   0.364 -0.3328 -0.5571  0.0450
  898MPD2    C213209   1.698   0.677   0.335 -0.2412 -0.1137 -0.4951
  898MPD2    C313210   1.632   0.787   0.277  0.0141  0.3163  0.4943
  898MPD2    C413211   1.502   0.775   0.246 -0.1945 -0.7102  0.3438
  898MPD2    C513212   1.427   0.666   0.282  0.2518  0.4870  0.1748
  898MPD2     H13213   1.797   0.682   0.379  0.1234 -1.9009 -1.1139
  898MPD2    H113214   1.448   0.854   0.194  2.2846  1.3169  0.8238
  898MPD2    H213215   1.434   0.467   0.352 -3.1962  1.7920  0.2610
  898MPD2    H313216   1.326   0.656   0.244 -0.0514 -1.1885  1.4129
  898MPD2     N13217   1.700   0.902   0.248 -0.0171 -0.7417 -0.0759
  898MPD2    H513218   1.786   0.913   0.299  1.5130 -1.8492 -2.4085
  898MPD2    N113219   1.702   0.459   0.421  0.3383  0.1113  0.4975
  898MPD2    H713220   1.799   0.483   0.435  0.6959  0.5756 -2.6814
  899MPD2     C13221   2.910   1.082  17.364  0.0295  0.2690  0.3233
  899MPD2    C113222   2.778   1.119  17.348 -0.3320 -0.0088  0.0271
  899MPD2    C213223   2.682   1.093  17.441  0.8649  0.2475 -0.4541
  899MPD2    C313224   2.723   1.037  17.561  0.3524 -0.0400  0.0326
  899MPD2    C413225   2.853   1.000  17.577  0.5363 -0.4003 -0.5843
  899MPD2    C513226   2.950   1.016  17.483  0.3703  0.5659  0.1469
  899MPD2     H13227   2.577   1.108  17.417  0.4192 -3.2312 -0.7438
  899MPD2    H113228   2.885   0.964  17.675 -2.5822 -3.8091 -0.8424
  899MPD2    H213229   2.984   1.103  17.287  1.7706 -1.4053  1.5431
  899MPD2    H313230   3.051   0.980  17.498  0.5402  0.5273 -1.1099
  899MPD2     N13231   2.638   1.025  17.671  0.4179  0.7046 -0.2514
  899MPD2    H513232   2.682   1.002   0.008  0.0984 -0.9033 -0.5248
  899MPD2    N113233   2.754   1.191  17.228 -0.3972  0.6889  0.1469
  899MPD2    H713234   2.834   1.214  17.171 -0.0785  0.1611  0.3764
  900MPD2     C13235   2.097   2.167  12.569 -0.5412  0.4615 -0.3262
  900MPD2    C113236   2.064   2.047  12.499  0.8201 -0.2137  0.8254
  900MPD2    C213237   1.984   2.052  12.386  0.2854 -0.4958 -0.1757
  900MPD2    C313238   1.945   2.171  12.339 -0.3429 -1.4928 -0.2339
  900MPD2    C413239   1.972   2.295  12.416 -0.0999 -0.0962  0.0540
  900MPD2    C513240   2.050   2.285  12.521 -0.1696 -0.0985 -0.5490
  900MPD2     H13241   1.960   1.961  12.333 -1.3605  1.5289 -2.8876
  900MPD2    H113242   1.934   2.395  12.399  0.7120  0.2490  0.2909
  900MPD2    H213243   2.163   2.173  12.655  0.6105  1.1907 -1.2570
  900MPD2    H313244   2.068   2.378  12.574  0.8784  0.8813 -2.5854
  900MPD2     N13245   1.841   2.177  12.242  0.2541 -0.2795  0.4666
  900MPD2    H513246   1.803   2.088  12.212  1.3424 -0.5967  0.0573
  900MPD2    N113247   2.123   1.927  12.547 -0.1509  0.2638 -0.2608
  900MPD2    H713248   2.179   1.934  12.631  1.1223 -0.5641 -1.0499
  901MPD2     C13249   2.569   0.931  12.404 -0.1417 -0.4303 -0.2588
  901MPD2    C113250   2.610   0.985  12.522  0.5437  0.4250 -0.1818
  901MPD2    C213251   2.539   1.098  12.572 -0.5600 -0.5133  0.0713
  901MPD2    C313252   2.448   1.169  12.488  0.1125 -0.8973  1.3416
  901MPD2    C413253   2.416   1.116  12.365 -0.9559 -0.7901 -0.2617
  901MPD2    C513254   2.475   0.999  12.327 -0.5419 -0.2624 -0.1849
  901MPD2     H13255   2.557   1.128  12.675 -0.6889  1.1146 -0.3805
  901MPD2    H113256   2.348   1.158  12.291  0.2640 -0.2448 -1.0871
  901MPD2    H213257   2.619   0.845  12.361 -0.2202  0.0120 -1.2359
  901MPD2    H313258   2.447   0.940  12.240 -0.2869  0.1481 -0.5435
  901MPD2     N13259   2.390   1.286  12.541 -0.1756  0.1044 -0.1421
  901MPD2    H513260   2.418   1.308  12.636 -0.7409 -0.5596  0.1837
  901MPD2    N113261   2.711   0.923  12.596  0.8796 -0.4092 -0.0602
  901MPD2    H713262   2.762   0.847  12.551  1.0791 -0.2202 -0.1528
  902MPD2     C13263   1.164   0.675  13.209 -1.2148 -0.1031 -0.3415
  902MPD2    C113264   1.152   0.646  13.077  0.0335  0.6159  0.4394
  902MPD2    C213265   1.217   0.536  13.029  0.3781  0.7369  0.2894
  902MPD2    C313266   1.311   0.467  13.107 -0.2669  0.6689  0.1772
  902MPD2    C413267   1.337   0.505  13.236 -0.2519 -0.4063 -0.8141
  902MPD2    C513268   1.254   0.604  13.284 -0.1518 -0.0080  0.3692
  902MPD2     H13269   1.198   0.502  12.928 -2.2984  1.4916  0.5505
  902MPD2    H113270   1.405   0.447  13.297  0.8153  0.3650 -1.2742
  902MPD2    H213271   1.105   0.749  13.262  3.0608  2.1285  1.3098
  902MPD2    H313272   1.251   0.622  13.391  0.6870  1.6576  0.1071
  902MPD2     N13273   1.391   0.358  13.059  0.2564  0.4775 -0.1355
  902MPD2    H513274   1.452   0.308  13.122 -0.0082 -0.5619 -0.7166
  902MPD2    N113275   1.071   0.723  12.990  0.0603 -0.5019 -0.2055
  902MPD2    H713276   1.073   0.687  12.895 -2.7334 -2.6844  0.5566
  903MPD2     C13277   1.676   4.369  12.539  0.6457 -0.6251  0.5296
  903MPD2    C113278   1.564   4.423  12.594 -0.1885  0.3065  0.7237
  903MPD2    C213279   1.444   4.360  12.583  0.2889  0.7166  0.5945
  903MPD2    C313280   1.436   4.251  12.498  0.5711  0.2126 -0.2470
  903MPD2    C413281   1.550   4.192  12.446  0.1304 -0.4066  0.4054
  903MPD2    C513282   1.671   4.251  12.473  0.3720  0.2228  0.2213
  903MPD2     H13283   1.355   4.393  12.635  0.7117  1.2798  0.9710
  903MPD2    H113284   1.547   4.098  12.391  1.7019  1.1706 -2.3838
  903MPD2    H213285   1.772   4.415  12.559  0.6771 -0.2904 -0.3912
  903MPD2    H313286   1.759   4.204  12.432  0.0567  1.2535 -1.6658
  903MPD2     N13287   1.307   4.203  12.465 -0.1792  0.0139  0.4941
  903MPD2    H513288   1.227   4.258  12.494 -0.2307  0.5780 -0.7143
  903MPD2    N113289   1.584   4.536  12.670 -0.0133  0.7611  0.1474
  903MPD2    H713290   1.674   4.580  12.656  0.3335  0.5708  1.8504
  904MPD2     C13291   1.428   3.810  13.822 -0.7894  0.2172 -0.3726
  904MPD2    C113292   1.487   3.922  13.768 -0.0377  0.1233  0.6861
  904MPD2    C213293   1.626   3.923  13.781  0.2058  0.2914 -0.5916
  904MPD2    C313294   1.701   3.825  13.836  0.1314  0.3216  0.7851
  904MPD2    C413295   1.643   3.710  13.878 -0.3025  0.6925  0.0895
  904MPD2    C513296   1.505   3.703  13.872  0.0523 -0.0235 -0.2187
  904MPD2     H13297   1.670   4.012  13.739 -1.4597  1.7715  0.8221
  904MPD2    H113298   1.697   3.624  13.915 -1.2653  1.7001  3.7662
  904MPD2    H213299   1.320   3.802  13.831 -0.8943  0.7286 -1.2205
  904MPD2    H313300   1.461   3.617  13.920  2.5165  0.1489  2.3589
  904MPD2     N13301   1.839   3.847  13.834  0.0319  0.6130  0.2563
  904MPD2    H513302   1.873   3.928  13.783 -0.2193  0.0044 -0.8909
  904MPD2    N113303   1.428   4.042  13.720 -0.6249  0.4374  0.3123
  904MPD2    H713304   1.497   4.111  13.695 -0.8591  0.9547  1.0921
  905MPD2     C13305   1.338   3.834  13.142 -0.0080  0.0724  0.1516
  905MPD2    C113306   1.403   3.950  13.182  0.1032  0.0857 -0.1170
  905MPD2    C213307   1.541   3.955  13.151  0.0410 -0.0214 -0.3788
  905MPD2    C313308   1.609   3.846  13.098 -0.6631 -0.2969  0.6020
  905MPD2    C413309   1.537   3.740  13.058 -0.0545  0.3593  0.4281
  905MPD2    C513310   1.403   3.734  13.081  0.7532 -0.0716  0.1615
  905MPD2     H13311   1.597   4.046  13.167 -0.3297  0.6566 -2.9940
  905MPD2    H113312   1.580   3.646  13.024 -0.8060 -0.1800  0.9551
  905MPD2    H213313   1.231   3.825  13.158 -0.0480  0.2829  0.0097
  905MPD2    H313314   1.354   3.642  13.051  2.7309 -1.3495  0.8183
  905MPD2     N13315   1.747   3.835  13.080 -0.2977  0.1773 -0.6935
  905MPD2    H513316   1.782   3.743  13.056 -1.8610 -0.4684 -0.4611
  905MPD2    N113317   1.315   4.049  13.241 -0.4030 -0.4001 -0.2201
  905MPD2    H713318   1.215   4.037  13.240 -0.5047  0.4692 -1.3221
  906MPD2     C13319   3.296   3.440  11.714  0.3127 -0.4115 -0.5401
  906MPD2    C113320   3.294   3.423  11.573 -0.2966 -0.1668  0.4583
  906MPD2    C213321   3.253   3.303  11.522 -0.2882  0.5423  0.0823
  906MPD2    C313322   3.203   3.199  11.608 -0.2282 -0.1241 -0.1978
  906MPD2    C413323   3.208   3.216  11.747 -0.2060  0.4365 -0.1581
  906MPD2    C513324   3.256   3.337  11.799 -0.7879 -0.1708 -0.0161
  906MPD2     H13325   3.240   3.302  11.414 -3.6973  0.1428  0.5143
  906MPD2    H113326   3.173   3.143  11.818  3.5114 -0.9034  0.2846
  906MPD2    H213327   3.326   3.533  11.760  0.2562 -1.1279  0.9694
  906MPD2    H313328   3.251   3.358  11.906 -0.3202 -0.3754  0.0472
  906MPD2     N13329   3.145   3.077  11.558 -0.6060 -0.1870 -0.5370
  906MPD2    H513330   3.122   3.011  11.631 -0.4706  1.7806  1.2785
  906MPD2    N113331   3.329   3.524  11.481  0.2176 -0.0002  0.5172
  906MPD2    H713332   3.328   3.510  11.380  2.3824 -1.7797  0.7529
  907MPD2     C13333   2.663   3.382  15.772 -0.6569 -0.2424  0.1076
  907MPD2    C113334   2.604   3.256  15.748 -0.1781  0.4518 -0.4576
  907MPD2    C213335   2.673   3.145  15.791 -0.5375 -0.5438  0.0084
  907MPD2    C313336   2.797   3.165  15.853 -0.1582  0.1616  0.1158
  907MPD2    C413337   2.850   3.289  15.888  0.0581 -0.1823 -0.0442
  907MPD2    C513338   2.780   3.398  15.845 -0.2851  0.2322 -0.3163
  907MPD2     H13339   2.638   3.049  15.756  0.6064 -1.4089  1.2619
  907MPD2    H113340   2.941   3.306  15.944 -0.0594 -0.1983  0.1513
  907MPD2    H213341   2.616   3.475  15.742  0.4395  0.9617  2.1844
  907MPD2    H313342   2.811   3.500  15.869  1.6057 -1.0560  2.6699
  907MPD2     N13343   2.882   3.061  15.887 -0.6049 -0.4313 -0.5476
  907MPD2    H513344   2.963   3.090  15.941 -1.3120  0.7755 -0.1536
  907MPD2    N113345   2.491   3.241  15.663 -0.5266 -0.6561  0.3669
  907MPD2    H713346   2.460   3.149  15.633  0.9023 -0.7323 -0.8493
  908MPD2     C13347   0.094   3.021   9.686  0.4615 -0.3961  0.0138
  908MPD2    C113348   0.105   2.933   9.791 -0.2650  0.3288 -0.5136
  908MPD2    C213349   0.172   2.986   9.910  0.1222  0.2972  0.0652
  908MPD2    C313350   0.222   3.113   9.910  0.1411 -0.2156  0.1660
  908MPD2    C413351   0.202   3.192   9.798  0.1314  0.3573 -0.1367
  908MPD2    C513352   0.136   3.153   9.688 -0.9775 -0.2522  0.3393
  908MPD2     H13353   0.200   2.922   9.993 -0.8166 -1.8983 -1.3077
  908MPD2    H113354   0.238   3.294   9.807  0.1892  0.6350 -3.7651
  908MPD2    H213355   0.036   2.984   9.602 -1.1360 -0.1229  1.0019
  908MPD2    H313356   0.118   3.216   9.601  1.0680  0.3865  0.3664
  908MPD2     N13357   0.289   3.153  10.027  0.5295 -0.1230 -0.6002
  908MPD2    H513358   0.285   3.085  10.102  2.7753  0.3046 -0.1034
  908MPD2    N113359   0.070   2.801   9.778 -0.4215  0.1307  0.5308
  908MPD2    H713360   0.051   2.777   9.681 -1.5939  1.9445  0.3137
  909MPD2     C13361   0.339   1.338  11.359  0.4338 -0.1450  0.1050
  909MPD2    C113362   0.375   1.472  11.333  0.4252  0.7975  0.1530
  909MPD2    C213363   0.338   1.564  11.426 -0.0489 -0.1293 -0.3258
  909MPD2    C313364   0.269   1.523  11.539 -0.6551 -0.6658  0.0122
  909MPD2    C413365   0.233   1.392  11.560  0.1833 -0.3059 -0.6395
  909MPD2    C513366   0.267   1.303  11.471  0.0984 -0.1709  0.1228
  909MPD2     H13367   0.377   1.666  11.423 -0.9606  0.2601  1.1476
  909MPD2    H113368   0.178   1.352  11.645  2.0848 -1.1148  0.2102
  909MPD2    H213369   0.369   1.257  11.294  1.9469 -0.6601  1.4515
  909MPD2    H313370   0.229   1.203  11.494 -0.2854  0.2788  1.4461
  909MPD2     N13371   0.231   1.627  11.629  0.8482  0.0734 -0.2617
  909MPD2    H513372   0.244   1.722  11.596 -0.5908  0.1936 -0.4813
  909MPD2    N113373   0.445   1.525  11.219 -0.5069  0.3105 -0.0379
  909MPD2    H713374   0.459   1.625  11.209  0.4191  0.3904  1.9440
  910MPD2     C13375   2.327   3.951  15.768  0.3863 -0.0019  0.1343
  910MPD2    C113376   2.307   3.818  15.722 -0.3984  0.0877  0.1330
  910MPD2    C213377   2.251   3.801  15.593  0.4528 -0.1309  0.3254
  910MPD2    C313378   2.211   3.907  15.517 -0.3842  0.3136  0.3126
  910MPD2    C413379   2.235   4.036  15.562  0.2095  0.2312  0.5381
  910MPD2    C513380   2.287   4.054  15.689  0.8735  0.8201  0.3316
  910MPD2     H13381   2.236   3.702  15.552  0.3777  0.9208 -2.1467
  910MPD2    H113382   2.208   4.122  15.503 -4.6758 -0.5341  1.6828
  910MPD2    H213383   2.368   3.986  15.862 -0.3495 -1.5934  1.0441
  910MPD2    H313384   2.308   4.153  15.727  0.3623  0.3891  1.7429
  910MPD2     N13385   2.160   3.898  15.390 -0.3281 -0.7752 -0.6374
  910MPD2    H513386   2.134   3.986  15.346 -1.8501 -1.0988 -0.3985
  910MPD2    N113387   2.345   3.701  15.805  0.6829  0.0690 -0.5818
  910MPD2    H713388   2.319   3.607  15.777 -0.2132 -0.8093  3.2189
  911MPD2     C13389   4.613   4.379  16.510 -0.4721 -0.4760  0.2348
  911MPD2    C113390   4.649   4.500  16.468  0.4472 -0.0018 -0.6829
  911MPD2    C213391   4.587   4.558  16.362  0.0734  0.4081 -0.3142
  911MPD2    C313392   4.480   4.496  16.297  0.2146  0.2162 -0.8286
  911MPD2    C413393   4.438   4.378  16.353 -0.6883  0.0622  0.5190
  911MPD2    C513394   4.496   4.318  16.459 -0.6288  0.6757 -0.2723
  911MPD2     H13395   4.620   4.656  16.329  2.6066 -1.3941 -3.1037
  911MPD2    H113396   4.352   4.323  16.315  0.2547 -0.8983 -0.2191
  911MPD2    H213397   4.665   4.329  16.590 -0.2885 -0.8136 -0.0944
  911MPD2    H313398   4.456   4.223  16.491  1.5892 -1.0207 -2.5833
  911MPD2     N13399   4.416   4.538  16.185  0.2865 -0.8001 -0.7142
  911MPD2    H513400   4.329   4.490  16.162 -0.9068  2.3041 -2.6507
  911MPD2    N113401   0.013   4.563  16.535  0.2106 -0.5956  0.5193
  911MPD2    H713402   0.067   4.509  16.602 -0.6663 -1.4169  0.5541
  912MPD2     C13403   4.036   4.222  15.537  0.0464  0.2434  0.3832
  912MPD2    C113404   4.038   4.260  15.670 -0.6410 -0.0088  0.1556
  912MPD2    C213405   3.961   4.181  15.762 -0.6285 -0.4264 -0.7731
  912MPD2    C313406   3.890   4.070  15.712  0.0887 -0.4514 -0.0405
  912MPD2    C413407   3.879   4.048  15.577 -1.0118 -0.6463 -0.3038
  912MPD2    C513408   3.961   4.117  15.496 -0.5931  0.0453  0.5888
  912MPD2     H13409   3.971   4.198  15.868  1.4103  1.2728 -1.2404
  912MPD2    H113410   3.819   3.965  15.541 -1.5518  0.4749 -2.0268
  912MPD2    H213411   4.100   4.258  15.456  1.9782 -1.1309  1.2944
  912MPD2    H313412   3.968   4.082  15.394  0.7197 -0.7321  0.9406
  912MPD2     N13413   3.839   3.984  15.811  0.0700  0.0531 -0.0968
  912MPD2    H513414   3.854   4.006  15.909 -0.6710 -1.2692  0.3143
  912MPD2    N113415   4.137   4.357  15.707  0.1586  1.2120 -0.0336
  912MPD2    H713416   4.191   4.392  15.629 -0.9924  1.0791 -0.8864
  913MPD2     C13417   0.041   0.053  10.449 -0.3361 -0.3025 -1.0023
  913MPD2    C113418   0.043   0.179  10.496  0.2540 -0.4255 -0.2039
  913MPD2    C213419   0.098   0.270  10.410 -0.1905 -0.0781 -0.3285
  913MPD2    C313420   0.154   0.236  10.285  0.8125 -1.1314 -0.8169
  913MPD2    C413421   0.159   0.100  10.257 -0.3900  0.0863  0.3406
  913MPD2    C513422   0.107   0.006  10.338  0.4446 -0.6258  0.0702
  913MPD2     H13423   0.092   0.373  10.443 -2.5367 -0.5812  0.8332
  913MPD2    H113424   0.204   0.065  10.165  0.7810  0.4918  0.7571
  913MPD2    H213425   4.725   4.715  10.504 -0.2421  1.8778  2.1282
  913MPD2    H313426   0.100   4.641  10.305 -1.2831 -0.7411  0.8156
  913MPD2     N13427   0.206   0.332  10.195 -0.0554  0.3532  0.0195
  913MPD2    H513428   0.263   0.299  10.117 -1.7822  0.6367 -1.3536
  913MPD2    N113429   4.733   0.216  10.627  0.4995 -0.2723  0.9962
  913MPD2    H713430   4.667   0.156  10.677  2.4418 -1.9593  1.5323
  914MPD2     C13431   2.691   0.835  12.057  0.5504  0.8211 -0.2215
  914MPD2    C113432   2.728   0.964  12.094  0.3153  0.4090  0.1999
  914MPD2    C213433   2.831   0.971  12.186  0.2150 -0.2377  0.3036
  914MPD2    C313434   2.888   0.869  12.249  0.0016 -0.5296 -0.1923
  914MPD2    C413435   2.853   0.740  12.209 -0.2296  0.3457 -0.0762
  914MPD2    C513436   2.759   0.729  12.109 -0.0337 -0.1434 -0.5635
  914MPD2     H13437   2.872   1.068  12.212  3.0531 -1.8697  1.8874
  914MPD2    H113438   2.907   0.651  12.241 -0.0752  0.5469  0.2228
  914MPD2    H213439   2.606   0.818  11.992 -0.3645 -0.3560  1.3026
  914MPD2    H313440   2.747   0.635  12.057 -1.0841 -0.1076 -0.3874
  914MPD2     N13441   2.973   0.909  12.351  0.3656 -0.2383  0.5614
  914MPD2    H513442   2.992   1.008  12.367 -2.3270  0.5695 -1.2467
  914MPD2    N113443   2.662   1.083  12.037 -0.1372  0.1664  0.1922
  914MPD2    H713444   2.589   1.068  11.969 -0.4729 -0.5026  0.7019
  915MPD2     C13445   0.366   1.075  16.357 -0.0481  0.7065 -0.5463
  915MPD2    C113446   0.362   1.153  16.242 -0.4936 -0.2153 -0.3870
  915MPD2    C213447   0.350   1.291  16.253  0.0035  0.2075 -0.2749
  915MPD2    C313448   0.331   1.349  16.375 -0.1165  0.3766 -0.9225
  915MPD2    C413449   0.349   1.272  16.489  0.2155  0.2705  0.4463
  915MPD2    C513450   0.373   1.137  16.476 -0.3191 -0.0226 -0.0741
  915MPD2     H13451   0.343   1.343  16.159  0.8670 -0.9514 -0.9900
  915MPD2    H113452   0.339   1.305  16.592  1.1008  2.2008 -0.0820
  915MPD2    H213453   0.361   0.967  16.361 -0.5090  0.6785 -1.7410
  915MPD2    H313454   0.385   1.075  16.564 -0.2560  1.2891  0.8429
  915MPD2     N13455   0.314   1.488  16.368  0.1354  0.1972 -0.0758
  915MPD2    H513456   0.315   1.531  16.276 -0.6172 -2.2303 -1.2238
  915MPD2    N113457   0.362   1.101  16.104  0.1505  0.0642 -0.0852
  915MPD2    H713458   0.391   1.166  16.032  0.2880 -1.1281 -1.1012
  916MPD2     C13459   3.441   4.115  15.826 -0.0046 -0.1147  0.4932
  916MPD2    C113460   3.384   4.048  15.927 -0.1847 -0.0293  0.0297
  916MPD2    C213461   3.364   3.911  15.903 -0.3365  0.3457  0.0642
  916MPD2    C313462   3.393   3.851  15.785 -0.3766 -0.2285 -0.3984
  916MPD2    C413463   3.456   3.928  15.687 -0.2949  0.1659 -0.2021
  916MPD2    C513464   3.480   4.061  15.710 -0.4207  0.0821 -0.7258
  916MPD2     H13465   3.330   3.840  15.978 -1.0531  1.0757  0.4336
  916MPD2    H113466   3.488   3.895  15.589 -1.9647 -0.4610 -0.5293
  916MPD2    H213467   3.461   4.222  15.830 -0.6171 -0.0681  2.5273
  916MPD2    H313468   3.532   4.125  15.639  0.8497 -1.2293 -0.9696
  916MPD2     N13469   3.370   3.715  15.777 -0.5168 -0.2719 -0.0510
  916MPD2    H513470   3.311   3.665  15.843  0.1146 -1.0351 -0.0758
  916MPD2    N113471   3.367   4.114  16.054  0.8724  0.1622 -0.5526
  916MPD2    H713472   3.412   4.204  16.071 -0.8261  1.2815 -1.9312
  917MPD2     C13473   3.503   2.357  11.224 -0.0104 -0.0742 -0.1934
  917MPD2    C113474   3.572   2.242  11.263 -0.8344  0.0016  0.1962
  917MPD2    C213475   3.672   2.193  11.175 -0.0786 -0.0267  0.7465
  917MPD2    C313476   3.704   2.262  11.052 -0.0436 -0.1652  0.3733
  917MPD2    C413477   3.637   2.384  11.023  0.2866 -0.1175  0.4175
  917MPD2    C513478   3.540   2.423  11.109  0.1224 -0.4524 -0.3864
  917MPD2     H13479   3.722   2.098  11.190  0.2243 -0.0343 -0.2878
  917MPD2    H113480   3.650   2.450  10.938  0.1940 -0.1001  0.4165
  917MPD2    H213481   3.431   2.399  11.293 -0.1110 -0.1938 -0.2250
  917MPD2    H313482   3.490   2.517  11.092 -0.7060 -1.0494 -1.2677
  917MPD2     N13483   3.791   2.214  10.951 -0.1116 -0.8497  0.2934
  917MPD2    H513484   3.780   2.253  10.858 -0.0208 -1.2888  0.0954
  917MPD2    N113485   3.531   2.171  11.383 -0.0972  0.5198 -0.0660
  917MPD2    H713486   3.483   2.212  11.463 -1.8404  0.2080 -0.9584
  918MPD2     C13487   3.881   2.068  12.242  0.6740  0.2086  0.0507
  918MPD2    C113488   3.923   1.977  12.147  0.1834 -0.0664  0.6473
  918MPD2    C213489   3.827   1.947  12.049  0.0217  0.2116 -0.3393
  918MPD2    C313490   3.712   2.017  12.041  0.0857 -0.3490  0.9637
  918MPD2    C413491   3.675   2.105  12.132 -0.1012 -0.0089 -0.8295
  918MPD2    C513492   3.757   2.134  12.239  0.3204 -0.5250 -0.0933
  918MPD2     H13493   3.846   1.862  11.985  0.4901 -1.2307  1.7062
  918MPD2    H113494   3.573   2.143  12.128 -0.6679 -1.5642 -1.3607
  918MPD2    H213495   3.948   2.103  12.319  0.2744 -2.9073  1.8279
  918MPD2    H313496   3.719   2.204  12.313 -2.2741 -0.6178 -1.3255
  918MPD2     N13497   3.628   1.979  11.936 -0.3055 -0.1982 -0.1327
  918MPD2    H513498   3.657   1.893  11.890  0.8616  0.5957 -0.9099
  918MPD2    N113499   4.050   1.909  12.153 -0.5400  0.0259 -0.0511
  918MPD2    H713500   4.058   1.834  12.086  1.8536  0.6250 -0.4420
  919MPD2     C13501   4.520   0.568  11.145  0.2601 -0.0024 -0.0373
  919MPD2    C113502   4.408   0.489  11.137 -0.6122 -0.3764 -0.1500
  919MPD2    C213503   4.319   0.514  11.038  0.2617  0.0709  0.0201
  919MPD2    C313504   4.340   0.609  10.942  0.4959 -0.3690 -0.8766
  919MPD2    C413505   4.451   0.689  10.952 -0.3177  0.5965  0.6814
  919MPD2    C513506   4.539   0.665  11.059 -0.4458 -0.6446 -1.0578
  919MPD2     H13507   4.228   0.455  11.042 -0.0101  0.4378 -0.7462
  919MPD2    H113508   4.472   0.774  10.887  0.7082  1.1355  1.7272
  919MPD2    H213509   4.599   0.535  11.212 -0.3402 -0.9282  0.2142
  919MPD2    H313510   4.631   0.722  11.056 -0.1102 -1.1400 -0.2773
  919MPD2     N13511   4.254   0.628  10.832  0.0209  0.2059  0.4272
  919MPD2    H513512   4.277   0.702  10.766 -0.5225  0.2241  0.2582
  919MPD2    N113513   4.391   0.390  11.232 -0.2579  0.0262 -0.1691
  919MPD2    H713514   4.300   0.345  11.232  0.5398 -1.6083 -0.7489
  920MPD2     C13515   3.703   1.128  10.124 -0.2985  0.4307 -0.2659
  920MPD2    C113516   3.688   0.995  10.095  0.2338 -0.3429 -0.4673
  920MPD2    C213517   3.754   0.903  10.172  0.0079  0.0764 -0.9166
  920MPD2    C313518   3.838   0.936  10.274  0.4114 -0.4002  0.5233
  920MPD2    C413519   3.854   1.070  10.305  0.3334  0.2070  0.8632
  920MPD2    C513520   3.784   1.160  10.229  0.8195 -1.0382  0.4552
  920MPD2     H13521   3.745   0.798  10.145 -0.8765 -0.3714  1.1126
  920MPD2    H113522   3.918   1.107  10.385 -1.8456  1.1681  2.1649
  920MPD2    H213523   3.649   1.207  10.072 -2.0867 -0.7388 -0.1793
  920MPD2    H313524   3.791   1.265  10.255  0.8347 -0.6685 -1.0611
  920MPD2     N13525   3.911   0.832  10.335 -0.1585  0.3798 -0.3395
  920MPD2    H513526   3.892   0.736  10.311 -1.7926  0.2325  1.5505
  920MPD2    N113527   3.594   0.947   9.994  0.1949 -0.6953 -0.0910
  920MPD2    H713528   3.576   0.847   9.996 -0.8136 -0.5974 -3.9978
  921MPD2     C13529   0.605   0.588  17.037 -0.0961 -1.1057 -0.4370
  921MPD2    C113530   0.667   0.467  17.020  0.5351 -0.3969  0.4687
  921MPD2    C213531   0.591   0.369  16.955 -0.5445 -0.7463 -0.1712
  921MPD2    C313532   0.467   0.394  16.903  0.4970 -0.0639  0.8771
  921MPD2    C413533   0.404   0.513  16.924 -0.3234 -0.2502 -0.5089
  921MPD2    C513534   0.483   0.609  16.980 -0.2812 -0.5500 -0.4455
  921MPD2     H13535   0.651   0.290  16.909  1.7306  0.7843  0.1616
  921MPD2    H113536   0.304   0.543  16.897  0.1327  0.0697 -1.8259
  921MPD2    H213537   0.652   0.677  17.079 -1.0367 -1.0381  0.4560
  921MPD2    H313538   0.423   0.699  16.990  1.0305  0.3219 -0.4802
  921MPD2     N13539   0.415   0.286  16.827  0.0160 -0.7484 -0.0470
  921MPD2    H513540   0.456   0.194  16.840  1.3126 -0.2790 -0.8387
  921MPD2    N113541   0.805   0.447  17.049 -0.2734  0.4052  0.5095
  921MPD2    H713542   0.855   0.531  17.073  0.7746 -0.4214  1.2093
  922MPD2     C13543   1.490   3.214  16.856 -0.2768 -0.4446  0.8392
  922MPD2    C113544   1.474   3.235  16.993  0.8823 -0.6171 -0.3590
  922MPD2    C213545   1.470   3.127  17.073 -0.0247 -0.4237  0.0247
  922MPD2    C313546   1.496   2.999  17.027  0.4081 -0.9732  0.4227
  922MPD2    C413547   1.508   2.979  16.894  0.4287 -0.1204 -0.3579
  922MPD2    C513548   1.497   3.089  16.810 -0.1323  0.1106  0.1632
  922MPD2     H13549   1.459   3.139  17.180 -0.2865  1.5342 -0.2177
  922MPD2    H113550   1.520   2.885  16.843 -0.2221 -0.9301  0.9742
  922MPD2    H213551   1.490   3.300  16.791  1.3184 -2.3752 -1.6741
  922MPD2    H313552   1.503   3.080  16.702  1.6268 -1.2234  0.3676
  922MPD2     N13553   1.490   2.893  17.121 -0.1023  0.5388 -0.6275
  922MPD2    H513554   1.459   2.918  17.214  2.2141  2.1749 -0.2795
  922MPD2    N113555   1.460   3.359  17.054  0.2258  0.0518 -0.0425
  922MPD2    H713556   1.430   3.354  17.151  2.7897 -2.0112  0.6296
  923MPD2     C13557   2.778   4.285   9.145 -0.3099 -0.4935  0.1596
  923MPD2    C113558   2.698   4.304   9.251  0.5204  0.4433  0.1476
  923MPD2    C213559   2.749   4.291   9.375 -0.3614  0.1904 -0.4415
  923MPD2    C313560   2.877   4.245   9.397 -0.6140 -0.5209  0.3305
  923MPD2    C413561   2.953   4.224   9.290 -0.1936 -0.8036 -0.5237
  923MPD2    C513562   2.898   4.243   9.167 -0.0648 -0.1127  0.0717
  923MPD2     H13563   2.691   4.305   9.466  0.4394  0.8767 -0.0378
  923MPD2    H113564   3.051   4.180   9.306 -0.2565 -0.7217  0.1210
  923MPD2    H213565   2.741   4.305   9.045 -0.3134 -0.3555  0.1890
  923MPD2    H313566   2.956   4.225   9.077  1.8645 -0.3600  1.3743
  923MPD2     N13567   2.939   4.204   9.523 -0.2379 -0.0710  0.2993
  923MPD2    H513568   3.035   4.172   9.518 -0.1811  0.4181 -1.8785
  923MPD2    N113569   2.567   4.349   9.226  0.2347  0.1217 -0.5107
  923MPD2    H713570   2.541   4.374   9.131  0.2450  0.9186 -0.3037
  924MPD2     C13571   2.537   2.284  16.130 -0.0074  0.0760  0.7223
  924MPD2    C113572   2.623   2.332  16.224 -0.1691 -0.1939 -0.9926
  924MPD2    C213573   2.746   2.383  16.174  0.0116  0.2148  0.3820
  924MPD2    C313574   2.772   2.396  16.039  0.0033 -0.1507  0.7451
  924MPD2    C413575   2.681   2.341  15.949 -0.9119 -0.3808  0.5083
  924MPD2    C513576   2.568   2.286  15.993 -0.1384 -0.5833  1.0121
  924MPD2     H13577   2.812   2.437  16.241  0.2095  0.7217 -0.2202
  924MPD2    H113578   2.692   2.357  15.842 -1.3368 -2.9071  0.0905
  924MPD2    H213579   2.437   2.256  16.162 -0.5548  0.5403 -0.6114
  924MPD2    H313580   2.505   2.255  15.911 -0.5199 -1.7753  1.7564
  924MPD2     N13581   2.886   2.464  15.988  0.4722  0.4995 -0.6219
  924MPD2    H513582   2.889   2.482  15.888 -0.9528 -0.1451 -0.7886
  924MPD2    N113583   2.573   2.353  16.352  0.3248  0.4474  0.0258
  924MPD2    H713584   2.483   2.307  16.354 -0.2237  1.4552 -1.9067
  925MPD2     C13585   1.146   4.252  14.015 -0.0476 -0.2216 -0.6793
  925MPD2    C113586   1.138   4.375  14.085  0.0132  0.2466  0.2198
  925MPD2    C213587   1.128   4.375  14.219 -0.0794 -0.0504  0.2868
  925MPD2    C313588   1.124   4.256  14.297  0.1608  0.4942  0.4268
  925MPD2    C413589   1.128   4.134  14.227 -0.1559  0.3661  0.2833
  925MPD2    C513590   1.136   4.134  14.089 -0.1995  0.7260  0.3183
  925MPD2     H13591   1.129   4.471  14.270  1.7919  0.0891  0.0162
  925MPD2    H113592   1.122   4.038  14.277  1.3349 -0.1480 -0.5283
  925MPD2    H213593   1.156   4.254  13.907  1.1448 -1.6603 -0.5936
  925MPD2    H313594   1.132   4.045  14.027 -2.2014 -0.4590  2.1141
  925MPD2     N13595   1.113   4.256  14.436 -0.0970 -0.3955 -0.1945
  925MPD2    H513596   1.116   4.164  14.478 -4.5727 -0.9853 -1.1571
  925MPD2    N113597   1.168   4.492  14.017  0.4097 -0.4317  0.2735
  925MPD2    H713598   1.202   4.570  14.073  0.6452 -0.7232  0.5354
  926MPD2     C13599   0.384   2.965  13.147  0.0060 -0.3638 -0.1191
  926MPD2    C113600   0.319   3.072  13.100 -0.6548  0.5794 -0.4989
  926MPD2    C213601   0.399   3.173  13.035  0.0381 -0.0215 -0.0643
  926MPD2    C313602   0.532   3.162  13.013 -0.3822 -0.1184  0.2173
  926MPD2    C413603   0.590   3.049  13.065  0.3832  0.8346 -0.0623
  926MPD2    C513604   0.520   2.949  13.124  0.6160 -0.1138  0.1110
  926MPD2     H13605   0.345   3.258  12.995  1.8879  1.5429  0.7685
  926MPD2    H113606   0.697   3.033  13.057  0.3133 -0.5539  1.7093
  926MPD2    H213607   0.338   2.895  13.216  0.5058  1.2633  1.8665
  926MPD2    H313608   0.574   2.868  13.171  0.6466  0.4967  1.1330
  926MPD2     N13609   0.615   3.256  12.944 -0.5200 -0.7025  0.6344
  926MPD2    H513610   0.706   3.222  12.914  0.5358 -0.1258  3.1688
  926MPD2    N113611   0.178   3.086  13.113  0.0010  0.1683 -0.2534
  926MPD2    H713612   0.137   3.178  13.095  0.4651  0.2941 -0.6665
  927MPD2     C13613   4.737   1.240   0.105 -0.0197 -0.3987  0.5128
  927MPD2    C113614   4.693   1.366   0.067 -0.4345  0.3390  0.0514
  927MPD2    C213615   4.709   1.405  17.687 -0.2883  0.4965 -0.5823
  927MPD2    C313616   0.039   1.329  17.596  0.3365 -0.5818  0.3617
  927MPD2    C413617   0.076   1.198  17.637  0.3208  1.0155  0.2837
  927MPD2    C513618   0.063   1.158   0.015 -0.0635 -0.8166 -0.0844
  927MPD2     H13619   4.676   1.501  17.647  1.2037  1.0363 -0.5201
  927MPD2    H113620   0.139   1.134  17.576  1.1880  2.0416  0.0821
  927MPD2    H213621   4.718   1.195   0.202  0.0494 -1.3164  0.0937
  927MPD2    H313622   0.091   1.058   0.047 -2.0935 -1.5000 -0.4362
  927MPD2     N13623   0.069   1.377  17.467  0.2411  0.8562  0.5816
  927MPD2    H513624   0.107   1.311  17.400 -1.2175 -1.0261  1.6259
  927MPD2    N113625   4.632   1.446   0.163 -0.1782 -0.5690  0.1242
  927MPD2    H713626   4.619   1.405   0.255 -1.1662 -1.1268 -0.2666
  928MPD2     C13627   2.667   4.666   0.914 -0.7250 -0.4811 -0.7917
  928MPD2    C113628   2.694   0.062   0.950 -0.0971 -0.4589 -0.4521
  928MPD2    C213629   2.618   0.163   0.894  0.1841 -0.5113 -0.2136
  928MPD2    C313630   2.518   0.132   0.808 -0.4540  0.3747  0.2056
  928MPD2    C413631   2.488   4.737   0.775  0.6910 -0.0603  0.2448
  928MPD2    C513632   2.559   4.633   0.835  0.4676  0.1556  0.3291
  928MPD2     H13633   2.648   0.265   0.913 -0.6006 -0.0272 -1.5828
  928MPD2    H113634   2.409   4.705   0.707  0.8536  0.4392 -0.1812
  928MPD2    H213635   2.722   4.581   0.953 -3.0596 -1.0399  1.2531
  928MPD2    H313636   2.529   4.530   0.820  0.4289 -0.1871  2.8387
  928MPD2     N13637   2.441   0.231   0.743 -0.2601  0.2755  0.3800
  928MPD2    H513638   2.359   0.201   0.692 -1.1354  2.6461  0.3598
  928MPD2    N113639   2.789   0.101   1.046  0.5415 -0.1674 -0.9075
  928MPD2    H713640   2.806   0.201   1.049 -0.9944  0.0923 -0.4989
  929MPD2     C13641   2.256   4.001   9.416 -0.0289 -0.2059 -0.0123
  929MPD2    C113642   2.260   3.904   9.511  0.1008 -0.4061  0.1223
  929MPD2    C213643   2.191   3.786   9.480 -0.0572 -0.1640 -0.5062
  929MPD2    C313644   2.101   3.790   9.378 -0.1812 -0.3786  0.9925
  929MPD2    C413645   2.080   3.898   9.296 -0.3644 -0.9507  0.1088
  929MPD2    C513646   2.170   4.002   9.312 -0.4839  1.0435  0.2106
  929MPD2     H13647   2.195   3.696   9.539  1.7465 -0.6577 -1.3750
  929MPD2    H113648   2.008   3.904   9.216 -2.5642  3.0255  2.3549
  929MPD2    H213649   2.317   4.090   9.431  2.6793 -2.4920  2.5510
  929MPD2    H313650   2.169   4.084   9.241 -0.9685 -0.8517 -1.9561
  929MPD2     N13651   2.018   3.681   9.339  0.6022 -0.2500  0.0549
  929MPD2    H513652   1.987   3.693   9.243 -3.9335  4.0212  2.0560
  929MPD2    N113653   2.326   3.927   9.637  0.0537  0.4815 -0.2604
  929MPD2    H713654   2.372   4.015   9.656 -2.6473  2.4827 -2.9559
  930MPD2     C13655   4.737   1.402  14.613 -1.0147  0.6664  0.2252
  930MPD2    C113656   4.663   1.489  14.538  0.3051 -0.1736 -0.4049
  930MPD2    C213657   4.572   1.442  14.438  0.6337 -0.6257  0.0402
  930MPD2    C313658   4.561   1.304  14.414  0.0117  0.0037  0.5262
  930MPD2    C413659   4.642   1.221  14.492  0.4767  0.2829  0.0092
  930MPD2    C513660   4.727   1.270  14.588 -0.2705 -0.2455 -0.1765
  930MPD2     H13661   4.511   1.508  14.377 -0.8687 -1.0943  1.0369
  930MPD2    H113662   4.632   1.113  14.485  1.0830  0.2702 -0.7496
  930MPD2    H213663   0.070   1.437  14.686 -1.0999  0.9395  0.1799
  930MPD2    H313664   0.065   1.207  14.631  0.0602  0.8112  0.7854
  930MPD2     N13665   4.478   1.242  14.319 -0.4346  0.1173 -0.2347
  930MPD2    H513666   4.499   1.146  14.293  1.1685  0.0141  1.5065
  930MPD2    N113667   4.693   1.628  14.544  0.3286  1.0108 -0.5189
  930MPD2    H713668   4.657   1.683  14.466  0.3764 -1.2766 -2.1772
  931MPD2     C13669   0.234   1.446   0.714  0.2089  0.1919  0.2450
  931MPD2    C113670   0.097   1.479   0.713 -0.6430 -0.2000 -0.2704
  931MPD2    C213671   0.015   1.399   0.795  0.4500  0.3385  1.0184
  931MPD2    C313672   0.067   1.293   0.872 -0.4839 -0.2786 -0.0110
  931MPD2    C413673   0.206   1.284   0.882 -0.0182 -0.9310 -0.1007
  931MPD2    C513674   0.284   1.358   0.801  0.5606  1.1053 -1.0614
  931MPD2     H13675   4.646   1.410   0.787  0.5478  1.2270  0.8713
  931MPD2    H113676   0.251   1.206   0.943  0.2237  0.2583  1.2537
  931MPD2    H213677   0.300   1.507   0.653  0.7617 -0.1014  0.5572
  931MPD2    H313678   0.392   1.353   0.804  0.5329  0.4149 -1.3702
  931MPD2     N13679   4.725   1.197   0.945 -0.3801  0.6024  0.7933
  931MPD2    H513680   0.044   1.137   1.003 -1.5162 -1.6379 -0.3719
  931MPD2    N113681   0.047   1.582   0.629  0.4152  0.5380 -0.3928
  931MPD2    H713682   0.118   1.615   0.564  1.0311 -1.8553 -0.9657
  932MPD2     C13683   1.943   4.376  11.751 -0.2400  0.3877  0.4870
  932MPD2    C113684   1.963   4.511  11.759  0.2051  0.0317  0.1580
  932MPD2    C213685   2.052   4.551  11.845  0.1782 -0.4112 -0.0706
  932MPD2    C313686   2.134   4.463  11.920 -0.0042 -0.1875 -0.7968
  932MPD2    C413687   2.115   4.326  11.905  0.3501  0.4385 -0.4294
  932MPD2    C513688   2.019   4.284  11.818  0.3982 -0.1606  0.2558
  932MPD2     H13689   2.063   4.659  11.845 -3.0596 -0.0515 -2.1744
  932MPD2    H113690   2.180   4.257  11.958 -0.2527  2.1985  2.6000
  932MPD2    H213691   1.870   4.332  11.684  0.0294  0.2423  0.2876
  932MPD2    H313692   2.000   4.179  11.799  0.7330 -0.5396  2.0099
  932MPD2     N13693   2.216   4.526  12.022 -0.0571 -0.0840  0.3993
  932MPD2    H513694   2.198   4.619  12.059 -0.8563  0.1417 -0.5393
  932MPD2    N113695   1.889   4.607  11.676 -0.0693  0.6139 -0.5742
  932MPD2    H713696   1.917   4.702  11.696 -1.5784  1.0429 -0.5201
  933MPD2     C13697   3.236   0.728   1.308 -0.0639 -0.7546 -0.2739
  933MPD2    C113698   3.115   0.663   1.318 -0.5012 -0.0927 -0.4496
  933MPD2    C213699   3.000   0.737   1.353  0.4888 -0.2462 -0.2030
  933MPD2    C313700   3.009   0.868   1.386  0.6002 -0.0694  0.0993
  933MPD2    C413701   3.132   0.932   1.375  0.4124  0.4838  0.2863
  933MPD2    C513702   3.245   0.860   1.335  0.5546  0.2583 -0.4409
  933MPD2     H13703   2.902   0.690   1.359  0.7629 -0.8498 -0.4805
  933MPD2    H113704   3.145   1.038   1.394  1.0938  0.1644  1.6074
  933MPD2    H213705   3.323   0.683   1.261 -0.4024 -1.2510 -0.4281
  933MPD2    H313706   3.341   0.907   1.318 -0.4286  1.8742 -1.5916
  933MPD2     N13707   2.896   0.938   1.431 -0.1063 -0.3240 -0.3863
  933MPD2    H513708   2.810   0.884   1.435 -0.1720 -0.1916  0.0275
  933MPD2    N113709   3.113   0.531   1.283 -0.2679  0.5693 -0.2559
  933MPD2    H713710   3.198   0.482   1.255 -1.9525 -3.4338  1.6025
  934MPD2     C13711   3.823   2.558   1.733  0.0916 -0.6694  0.1932
  934MPD2    C113712   3.878   2.507   1.623 -0.5294 -0.0425  0.5649
  934MPD2    C213713   3.789   2.472   1.517 -0.3796  0.4526 -0.4460
  934MPD2    C313714   3.652   2.476   1.530  0.1578  0.1855  0.0071
  934MPD2    C413715   3.601   2.528   1.646 -0.3816 -0.5741 -0.5594
  934MPD2    C513716   3.690   2.578   1.736  0.3807 -0.2447 -0.1643
  934MPD2     H13717   3.838   2.457   1.421 -0.3928 -0.1787 -0.3542
  934MPD2    H113718   3.493   2.535   1.653 -0.2791 -0.0834  0.6128
  934MPD2    H213719   3.885   2.597   1.813 -0.1599  0.7507 -0.3196
  934MPD2    H313720   3.646   2.616   1.828  0.1075  0.6829 -0.6725
  934MPD2     N13721   3.565   2.420   1.437  0.4119  0.5361 -0.2751
  934MPD2    H513722   3.464   2.429   1.444  0.2807 -1.6910  0.5429
  934MPD2    N113723   4.018   2.511   1.606  0.5419 -0.5845  0.2187
  934MPD2    H713724   4.050   2.495   1.511 -0.4488 -0.4540 -0.1334
  935MPD2     C13725   3.677   1.638   0.844  0.2235 -0.0767 -0.0604
  935MPD2    C113726   3.575   1.696   0.779  0.0312 -0.0623 -0.0531
  935MPD2    C213727   3.512   1.809   0.837  0.9098  0.4830 -0.2215
  935MPD2    C313728   3.569   1.872   0.952 -0.5549 -0.0904  0.5009
  935MPD2    C413729   3.680   1.810   1.010  0.5181 -0.2002 -0.2121
  935MPD2    C513730   3.726   1.689   0.957  0.1004 -0.3168 -1.2762
  935MPD2     H13731   3.423   1.859   0.800 -0.8525 -2.1978  0.4565
  935MPD2    H113732   3.727   1.832   1.104  0.1874 -1.2440  0.2013
  935MPD2    H213733   3.724   1.552   0.798 -1.6804 -1.7431  1.1023
  935MPD2    H313734   3.822   1.651   0.988  0.1379  0.4565 -0.4735
  935MPD2     N13735   3.528   1.993   1.005  0.5800 -0.1097  0.0968
  935MPD2    H513736   3.593   2.020   1.078  0.0936 -0.5765  0.6941
  935MPD2    N113737   3.517   1.638   0.666  0.2332  0.1934  0.4354
  935MPD2    H713738   3.421   1.662   0.647  0.5904 -0.0512 -1.6812
  936MPD2     C13739   2.155   2.646  12.112  0.6890 -0.0435 -0.1769
  936MPD2    C113740   2.245   2.748  12.129  0.4356  0.5244  0.0188
  936MPD2    C213741   2.239   2.853  12.043 -0.4610 -0.0156 -0.2453
  936MPD2    C313742   2.126   2.875  11.965 -0.7358  0.3115  0.3949
  936MPD2    C413743   2.025   2.785  11.970  0.4740  0.4839 -0.2226
  936MPD2    C513744   2.033   2.674  12.045  0.1865  0.0049 -0.3405
  936MPD2     H13745   2.324   2.920  12.049  1.2651 -2.3726  1.4631
  936MPD2    H113746   1.938   2.800  11.907  0.3801 -1.0331 -0.4424
  936MPD2    H213747   2.160   2.552  12.165 -0.2553 -1.3820 -2.4339
  936MPD2    H313748   1.955   2.600  12.035 -0.5344  0.0563  4.6545
  936MPD2     N13749   2.112   2.988  11.885  0.1054 -0.0473 -0.4314
  936MPD2    H513750   2.021   3.030  11.867  0.0819 -0.2554 -0.7947
  936MPD2    N113751   2.353   2.743  12.222  0.2612  0.4869 -0.1747
  936MPD2    H713752   2.404   2.830  12.233  0.2018  0.4983  0.0093
  937MPD2     C13753   4.587   4.372  11.451 -0.5024 -0.7443 -0.5950
  937MPD2    C113754   4.661   4.483  11.420  0.7192  1.1000 -0.4050
  937MPD2    C213755   0.018   4.479  11.319  0.0523 -0.0556 -0.5451
  937MPD2    C313756   0.033   4.372  11.240 -1.0504 -0.0808 -0.2988
  937MPD2    C413757   4.695   4.262  11.265  0.0028 -0.5613  0.3740
  937MPD2    C513758   4.603   4.264  11.368 -0.1602 -0.2980  0.3838
  937MPD2     H13759   0.066   4.575  11.301 -0.0546  0.0361 -0.3390
  937MPD2    H113760   4.709   4.169  11.212  2.3358 -0.4453  0.8154
  937MPD2    H213761   4.510   4.381  11.527 -0.2074  4.1985 -0.9345
  937MPD2    H313762   4.557   4.168  11.388 -2.7804  0.6996 -0.8936
  937MPD2     N13763   0.149   4.370  11.151 -0.2143  0.5758  0.2814
  937MPD2    H513764   0.213   4.449  11.157 -0.0401  0.3656  1.2115
  937MPD2    N113765   4.625   4.616  11.458 -0.1777  0.1087 -0.0659
  937MPD2    H713766   4.665   4.692  11.404 -0.1626 -1.2034 -1.9176
  938MPD2     C13767   2.748   2.146   0.743  0.3247 -0.3498  0.0444
  938MPD2    C113768   2.729   2.265   0.805 -0.2052  0.6047  0.0772
  938MPD2    C213769   2.731   2.271   0.942 -0.3938 -0.4298 -0.1451
  938MPD2    C313770   2.730   2.150   1.012  0.8861 -0.2072 -0.9410
  938MPD2    C413771   2.739   2.031   0.947 -0.0550 -1.0966  0.2755
  938MPD2    C513772   2.755   2.035   0.813 -0.4308  0.0838 -0.3826
  938MPD2     H13773   2.739   2.358   1.006 -0.3489 -0.3910 -0.2030
  938MPD2    H113774   2.748   1.936   0.998  0.1785 -0.9900  0.4388
  938MPD2    H213775   2.765   2.146   0.636  1.2278 -1.7863  0.1814
  938MPD2    H313776   2.765   1.943   0.755 -1.7711 -1.6743  2.2012
  938MPD2     N13777   2.713   2.136   1.148  0.0336  0.0097  0.6782
  938MPD2    H513778   2.714   2.039   1.178  1.7134 -1.1065 -2.9479
  938MPD2    N113779   2.721   2.386   0.728  0.1019 -0.1597  0.2532
  938MPD2    H713780   2.736   2.470   0.783  1.0069 -0.5309  0.5583
  939MPD2     C13781   3.734   3.024   1.168 -0.5151  0.4796 -0.3497
  939MPD2    C113782   3.619   3.091   1.152 -0.2753 -0.1619 -0.4545
  939MPD2    C213783   3.540   3.073   1.037 -0.3021 -0.0602 -0.2266
  939MPD2    C313784   3.574   2.975   0.942  0.3893  0.0901  0.7458
  939MPD2    C413785   3.693   2.914   0.962 -0.8392  0.1632 -1.4386
  939MPD2    C513786   3.773   2.943   1.069  0.0170  0.2021 -0.3934
  939MPD2     H13787   3.441   3.115   1.030 -0.1870  0.5562  1.9349
  939MPD2    H113788   3.720   2.842   0.886  0.3517  0.9963 -1.8093
  939MPD2    H213789   3.796   3.039   1.256 -2.2452 -0.4694  1.0241
  939MPD2    H313790   3.863   2.886   1.084 -0.7645 -0.7412  0.6947
  939MPD2     N13791   3.490   2.952   0.831 -0.7005 -0.5622  0.7006
  939MPD2    H513792   3.408   3.013   0.828  1.3872  2.0283 -3.3707
  939MPD2    N113793   3.586   3.183   1.256  0.5067 -0.0980  0.5126
  939MPD2    H713794   3.644   3.174   1.339  1.4491  0.7688 -0.0542
  940MPD2     C13795   2.927   3.235  13.050 -0.0789  0.1885 -0.4071
  940MPD2    C113796   3.029   3.137  13.051  0.0501  0.7102 -0.3557
  940MPD2    C213797   3.053   3.064  12.938  0.5660 -0.3960  0.4758
  940MPD2    C313798   2.966   3.073  12.830 -0.3276 -0.3439  0.6815
  940MPD2    C413799   2.869   3.163  12.828  0.5090 -0.5063 -1.0093
  940MPD2    C513800   2.847   3.242  12.940  0.8763 -0.0434  0.4381
  940MPD2     H13801   3.127   2.985  12.948 -0.8905 -2.0311 -1.8565
  940MPD2    H113802   2.791   3.167  12.753 -1.2771 -0.9881  0.8150
  940MPD2    H213803   2.891   3.284  13.139 -0.6801 -2.8003  1.0085
  940MPD2    H313804   2.754   3.298  12.947  2.2311  2.2207  0.4274
  940MPD2     N13805   2.975   2.971  12.728  0.4634 -0.4911 -0.5123
  940MPD2    H513806   2.906   2.972  12.653 -0.5548  5.0656  0.5192
  940MPD2    N113807   3.114   3.116  13.161  0.0986 -1.2096  0.0133
  940MPD2    H713808   3.178   3.038  13.157  0.7023 -0.6838 -0.4634
  941MPD2     C13809   1.604   1.877   8.811 -0.3632 -0.1867 -0.5654
  941MPD2    C113810   1.566   1.908   8.944 -0.8002  0.4015 -0.3348
  941MPD2    C213811   1.461   1.841   9.000 -0.0357 -0.0657  0.1105
  941MPD2    C313812   1.386   1.751   8.921  0.3892 -0.3917  0.3846
  941MPD2    C413813   1.414   1.737   8.785 -0.0181  0.6303  0.7268
  941MPD2    C513814   1.528   1.791   8.735  0.9123 -0.1406  0.8895
  941MPD2     H13815   1.427   1.868   9.099  2.5730 -0.2614  1.0613
  941MPD2    H113816   1.349   1.676   8.724 -0.2403  1.6724 -0.0778
  941MPD2    H213817   1.682   1.936   8.764  1.0758 -0.6138  1.3108
  941MPD2    H313818   1.566   1.778   8.634  0.7686  0.8176  0.7122
  941MPD2     N13819   1.277   1.682   8.972 -0.0953 -0.0614 -0.1380
  941MPD2    H513820   1.232   1.623   8.903  0.4798 -0.7475  0.0871
  941MPD2    N113821   1.645   1.996   9.029  0.2078 -0.2756 -0.1220
  941MPD2    H713822   1.622   2.003   9.127 -1.3853  2.3016 -0.6977
  942MPD2     C13823   4.080   3.372   9.100  0.3147 -0.1788 -0.6016
  942MPD2    C113824   4.038   3.471   9.181  0.0713 -0.0394  0.3568
  942MPD2    C213825   3.909   3.512   9.186  0.9224  0.7211 -0.2427
  942MPD2    C313826   3.811   3.445   9.118  0.4317 -0.1596 -0.5534
  942MPD2    C413827   3.846   3.342   9.035 -0.7695  0.8250  0.0846
  942MPD2    C513828   3.981   3.310   9.023 -0.6201 -0.1202 -0.3233
  942MPD2     H13829   3.892   3.605   9.239  1.4747  0.4226  0.4543
  942MPD2    H113830   3.771   3.306   8.965 -0.0502 -0.1077 -0.1888
  942MPD2    H213831   4.181   3.335   9.084  0.6711  0.4660  0.1419
  942MPD2    H313832   4.000   3.233   8.949 -2.8224 -0.6934 -0.2806
  942MPD2     N13833   3.677   3.480   9.126 -0.7723  0.8952  0.1079
  942MPD2    H513834   3.619   3.444   9.051  0.7056  0.4137 -0.8117
  942MPD2    N113835   4.127   3.555   9.258 -0.0740  0.0355 -0.4424
  942MPD2    H713836   4.086   3.618   9.327  2.2357 -0.4491  1.3526
  943MPD2     C13837   0.715   2.141  10.472 -0.2910  0.4536 -0.4340
  943MPD2    C113838   0.611   2.055  10.448  0.2130  0.7687  0.7049
  943MPD2    C213839   0.503   2.072  10.534 -0.6085 -0.5046  1.3115
  943MPD2    C313840   0.489   2.160  10.638  0.3288  0.5413 -0.2345
  943MPD2    C413841   0.594   2.248  10.659  0.1794 -0.1676  0.4902
  943MPD2    C513842   0.700   2.229  10.574 -0.0706 -0.5840 -0.3247
  943MPD2     H13843   0.416   2.016  10.503 -0.1730 -0.1399 -0.6296
  943MPD2    H113844   0.594   2.327  10.733 -0.0420  0.7845 -0.5233
  943MPD2    H213845   0.804   2.134  10.410 -0.0619  0.3212 -0.0867
  943MPD2    H313846   0.789   2.290  10.582 -0.5675  0.0275  0.5213
  943MPD2     N13847   0.371   2.173  10.716 -0.1974 -0.4797 -0.1668
  943MPD2    H513848   0.375   2.254  10.778  1.9033 -0.1167 -0.7719
  943MPD2    N113849   0.624   1.952  10.351  0.3300 -0.5494 -0.0481
  943MPD2    H713850   0.715   1.939  10.307  0.9340  0.7475  0.8358
  944MPD2     C13851   0.313   1.284  10.778  0.5151 -0.5964 -0.2195
  944MPD2    C113852   0.262   1.222  10.887  0.4438  0.3232 -0.2333
  944MPD2    C213853   0.197   1.298  10.987 -0.3518  0.2736 -0.0331
  944MPD2    C313854   0.193   1.438  10.976 -0.9315 -0.0867 -0.2398
  944MPD2    C413855   0.228   1.493  10.857  0.0199 -0.1946 -0.5537
  944MPD2    C513856   0.292   1.419  10.756  0.3020 -0.4117  0.5505
  944MPD2     H13857   0.159   1.249  11.076  1.2838  1.5286  1.3503
  944MPD2    H113858   0.230   1.599  10.833  1.4755 -0.1748 -0.3735
  944MPD2    H213859   0.384   1.232  10.715  0.2695 -1.4876  0.2356
  944MPD2    H313860   0.320   1.472  10.666  0.2159 -2.0098 -0.3982
  944MPD2     N13861   0.139   1.514  11.085  1.0817 -0.1479  0.7448
  944MPD2    H513862   0.098   1.464  11.162  1.1092 -0.2721  0.6790
  944MPD2    N113863   0.297   1.088  10.897 -0.3257 -0.0169  0.0429
  944MPD2    H713864   0.348   1.044  10.821  0.7765  0.2838  0.6187
    1TMC1    C113865   3.562   2.744  14.499 -0.0577  0.3758  0.1703
    1TMC1    C213866   3.445   2.671  14.504  0.1859  0.0885  0.2054
    1TMC1    C313867   3.455   2.535  14.529  0.1148  0.2557 -1.1572
    1TMC1    C413868   3.681   2.688  14.511  0.0188  0.4075 -0.1208
    1TMC1    C513869   3.691   2.552  14.531 -0.5002  0.0259  0.1908
    1TMC1    C613870   3.580   2.476  14.546  0.1116 -0.0326 -0.0005
    1TMC1     C13871   3.568   2.886  14.471 -0.8676 -0.5796 -0.0385
    1TMC1     O13872   3.654   2.933  14.404  0.4112 -0.3838 -0.1929
    1TMC1     H13873   3.344   2.709  14.489 -0.1758 -1.1563 -0.5241
    1TMC1    H113874   3.770   2.750  14.506  0.2165 -0.1250 -2.8663
    1TMC1    H213875   3.596   2.369  14.551  1.2378  0.1633  0.7513
    1TMC1    C713876   3.819   2.498  14.532  0.0478  0.8386 -0.1610
    1TMC1    C813877   3.339   2.449  14.492 -0.3055  0.5099 -0.1185
    1TMC1    O113878   3.864   2.387  14.500 -0.3882 -0.0774  0.0167
    1TMC1    O213879   3.227   2.491  14.474  0.2486 -0.0711  0.5850
    1TMC1    O313880   3.891   2.588  14.607 -0.1805 -0.6537  0.6117
    1TMC1    H313881   3.848   2.668  14.645  1.2773  0.3547  0.1482
    1TMC1    O513882   3.401   2.380  14.399  0.0895 -0.0953 -0.9794
    1TMC1    H513883   3.481   2.432  14.379  1.5422 -1.7896  0.3512
    2MPD2     C13884   3.338   3.352  14.468 -0.7712 -0.0639  0.3916
    2MPD2    C113885   3.428   3.300  14.384  0.0665 -0.5753  0.0066
    2MPD2    C213886   3.463   3.166  14.394 -0.1825 -0.2443 -0.5646
    2MPD2    C313887   3.417   3.085  14.494  0.3148  0.1706  0.3910
    2MPD2    C413888   3.328   3.134  14.579  0.0643  0.7155 -0.2297
    2MPD2    C513889   3.284   3.268  14.565  0.2769  0.1294  0.0861
    2MPD2     H13890   3.530   3.120  14.323  1.0400  0.1269  0.3631
    2MPD2    H113891   3.276   3.078  14.656 -1.4849  1.1903 -0.9191
    2MPD2    H213892   3.306   3.456  14.460  0.3880  0.0847 -2.3241
    2MPD2    H313893   3.213   3.309  14.636 -0.1613  0.5889 -0.6172
    2MPD2     N13894   3.447   2.944  14.512  0.3200 -0.5311  0.4937
    2MPD2    H513895   3.404   2.890  14.586  1.2272 -2.0303 -0.0741
    2MPD2    N113896   3.496   3.381  14.287 -0.0689  0.0550 -0.3572
    2MPD2    H713897   3.555   3.329  14.224  0.5193  0.9547 -0.5581
    3TMC2    C113898   3.528   3.547  14.136 -0.5699  0.5024 -0.3982
    3TMC2    C213899   3.536   3.678  14.107 -0.8753  0.0801 -0.3805
    3TMC2    C313900   3.577   3.724  13.986  0.5292 -0.0526 -0.6098
    3TMC2    C413901   3.539   3.455  14.031 -0.0670 -0.3043 -0.1349
    3TMC2    C513902   3.559   3.504  13.901  0.4641 -0.4119 -0.7318
    3TMC2    C613903   3.585   3.639  13.881  0.1502 -0.1306  1.0079
    3TMC2     C13904   3.475   3.517  14.266 -1.0528  0.6152 -0.2628
    3TMC2     O13905   3.420   3.603  14.333 -0.5614  0.2398  0.2320
    3TMC2     H13906   3.523   3.752  14.185  0.9090  2.1831 -2.0336
    3TMC2    H113907   3.514   3.351  14.052 -1.0738 -0.1434 -0.5027
    3TMC2    H213908   3.601   3.679  13.781  0.6062  0.6774  1.4017
    3TMC2    C713909   3.547   3.406  13.798  0.1406  0.3743 -0.0524
    3TMC2    C813910   3.577   3.867  13.970  0.0631 -0.1620  0.1900
    3TMC2    O113911   3.574   3.291  13.819 -0.1877 -0.3564 -0.0594
    3TMC2    O213912   3.490   3.945  14.010  0.3612 -0.5482  0.2769
    3TMC2    O513913   3.681   3.901  13.890  0.3840 -0.3980  0.2176
    3TMC2    H513914   3.749   3.831  13.887 -0.3258 -1.1871  2.4927
    4TMC2    C113915   2.890   3.612  13.100 -0.3501  0.2714  0.0300
    4TMC2    C213916   2.930   3.617  12.970  0.3369 -0.2891 -0.0673
    4TMC2    C313917   3.066   3.612  12.939 -0.2037  0.4436  0.1413
    4TMC2    C413918   2.972   3.614  13.204 -0.0219 -0.1086  0.9858
    4TMC2    C513919   3.106   3.607  13.173 -0.5181  0.1678 -0.9186
    4TMC2    C613920   3.155   3.590  13.043 -0.4715  0.8312 -0.1106
    4TMC2     C13921   2.747   3.574  13.113 -0.0851 -0.8743  0.3440
    4TMC2     O13922   2.724   3.493  13.198 -0.3089  0.0729 -0.2145
    4TMC2     H13923   2.856   3.633  12.893 -1.3843  0.1646  1.6885
    4TMC2    H113924   2.938   3.601  13.306 -3.4061  1.0025 -0.0064
    4TMC2    H213925   3.259   3.572  13.019 -0.1195  0.3754  1.7896
    4TMC2    C713926   3.194   3.578  13.284  0.2860 -0.1020 -0.0361
    4TMC2    C813927   3.094   3.553  12.810 -0.4235 -0.3814  0.8013
    4TMC2    O113928   3.174   3.639  13.389 -0.3309 -0.1837  0.0887
    4TMC2    O213929   3.004   3.530  12.735 -0.1487 -0.1978 -0.0584
    4TMC2    O513930   3.224   3.591  12.779 -0.0124 -0.1838 -0.2965
    4TMC2    H513931   3.286   3.618  12.850  0.3300  0.0141 -0.6743
    5MPD2     C13932   2.340   3.446  12.822  0.1963  0.1957  1.1262
    5MPD2    C113933   2.398   3.571  12.783  0.1033 -0.4990  0.3782
    5MPD2    C213934   2.510   3.631  12.848  0.7255  0.1669  0.0290
    5MPD2    C313935   2.558   3.568  12.957  0.0025 -1.0242 -1.0064
    5MPD2    C413936   2.501   3.445  12.995  0.3556  0.0286 -0.4697
    5MPD2    C513937   2.390   3.392  12.935 -0.3041  0.5972  0.3030
    5MPD2     H13938   2.547   3.725  12.808  3.8216 -1.2500 -0.3799
    5MPD2    H113939   2.542   3.392  13.081  1.9623  2.5358  0.3026
    5MPD2    H213940   2.261   3.392  12.771  1.3294  1.5259 -1.9818
    5MPD2    H313941   2.354   3.293  12.963  0.2193  0.0348 -1.0169
    5MPD2     N13942   2.668   3.627  13.017 -0.8624  0.3335 -0.1069
    5MPD2    H513943   2.707   3.709  12.973 -0.9990  0.9449  0.8899
    5MPD2    N113944   2.325   3.625  12.677 -0.1722  0.0549  0.0962
    5MPD2    H713945   2.247   3.576  12.634 -0.2964 -0.7133  1.1839
    6MPD1     C13946   1.946   0.312  13.639  0.3129 -0.3553 -0.2810
    6MPD1    C113947   2.027   0.200  13.641  0.3116  0.1631 -0.1911
    6MPD1    C213948   2.057   0.119  13.534  0.3957 -0.1103 -0.1207
    6MPD1    C313949   1.981   0.142  13.420 -0.7011 -0.3363 -0.9056
    6MPD1    C413950   1.881   0.242  13.424  0.0730  0.3612  0.2298
    6MPD1    C513951   1.866   0.321  13.529  0.1842 -0.5016  0.8141
    6MPD1     H13952   2.121   0.032  13.541  1.6313  0.7733 -0.3109
    6MPD1    H113953   1.816   0.246  13.338  1.7402  1.1945 -1.0032
    6MPD1    H213954   1.923   0.372  13.726  1.3530  0.4664 -0.5666
    6MPD1    H313955   1.800   0.407  13.526 -0.4651 -1.0489 -1.0420
    6MPD1     N13956   1.998   0.070  13.295  0.3996  0.3654 -0.5416
    6MPD1    H513957   1.939   0.093  13.216 -3.0688  0.0285  1.9571
    6MPD1    N113958   2.091   0.168  13.767 -0.1129  0.4248 -0.6214
    6MPD1    H613959   2.030   0.196  13.843  1.0595 -2.9094  1.5378
    6MPD1    H713960   2.104   0.067  13.769 -1.7018  0.2563  1.2577
    7MPD2     C13961   1.728   4.203  12.852  0.5107 -0.5979  0.6359
    7MPD2    C113962   1.838   4.253  12.794  0.5076  0.8494 -0.3934
    7MPD2    C213963   1.900   4.199  12.690  0.3833 -0.6739 -0.3145
    7MPD2    C313964   1.871   4.071  12.646 -1.2521 -0.9718 -0.2698
    7MPD2    C413965   1.757   4.008  12.707 -0.5648  0.0744  0.0057
    7MPD2    C513966   1.686   4.084  12.798 -0.4053 -0.1677 -1.4576
    7MPD2     H13967   1.992   4.235  12.644  0.0513  1.5914  0.8325
    7MPD2    H113968   1.722   3.906  12.694 -1.2873  0.3905 -0.5260
    7MPD2    H213969   1.673   4.237  12.939  1.1338  1.2116  0.3128
    7MPD2    H313970   1.607   4.034  12.853 -1.2429 -0.1846 -2.6672
    7MPD2     N13971   1.949   4.019  12.544 -0.5355 -0.0191 -0.2753
    7MPD2    H513972   2.006   4.085  12.492 -0.2051 -0.6169 -0.6633
    7MPD2    N113973   1.906   4.371  12.846 -0.1793  0.5108 -0.4146
    7MPD2    H713974   1.992   4.394  12.798  0.6515  1.8128  1.6969
    8TMC3    C113975   2.073   3.853  12.439  0.1196 -0.3391  1.1701
    8TMC3    C213976   2.154   3.761  12.498 -0.3083 -0.4928 -0.0334
    8TMC3    C313977   2.286   3.789  12.495 -0.1805 -0.4829 -0.0218
    8TMC3    C413978   2.114   3.963  12.377 -0.4929  0.7853  0.0209
    8TMC3    C513979   2.251   3.990  12.369 -0.4114 -0.3141  0.4906
    8TMC3    C613980   2.340   3.896  12.424 -0.4082 -0.0052 -0.8399
    8TMC3     C13981   1.957   3.886  12.521  0.2215  0.0681  0.2589
    8TMC3     O13982   1.919   3.791  12.588 -0.2968 -0.3315 -0.6402
    8TMC3     H13983   2.119   3.687  12.570 -0.7500  1.4321  1.7468
    8TMC3    H113984   2.048   4.026  12.319  0.3198  2.9797  1.4486
    8TMC3    H213985   2.443   3.928  12.436 -1.2090  1.3750  2.2812
    8TMC3    C713986   2.273   4.126  12.410 -0.3148 -0.2085  0.2983
    8TMC3    C813987   2.374   3.736  12.600  0.7074 -0.0313 -0.0187
    8TMC3    O113988   2.175   4.191  12.435  0.3499 -0.1362 -0.2214
    8TMC3    O213989   2.478   3.795  12.613  0.2224  0.2550 -0.4958
    9TMC3    C113990   2.105   4.649  13.152  0.2781 -0.1259  0.4236
    9TMC3    C213991   2.225   4.630  13.091  0.1602  0.3855 -0.5349
    9TMC3    C313992   2.224   4.579  12.968 -0.1556  0.2349 -1.0827
    9TMC3    C413993   1.986   4.608  13.103 -0.4179 -0.2970  0.0484
    9TMC3    C513994   1.992   4.536  12.984  0.7219  0.4373  0.0090
    9TMC3    C613995   2.109   4.527  12.913 -0.2023  0.1805 -0.1128
    9TMC3     C13996   2.106   4.718  13.277 -0.3518 -0.9966  0.3259
    9TMC3     O13997   2.206   4.705  13.341 -0.1410 -0.6890 -0.3728
    9TMC3     H13998   2.318   4.669  13.131  0.3315 -0.9509  0.3713
    9TMC3    H113999   1.896   4.613  13.163  0.0197  0.6964  0.6232
    9TMC3    H214000   2.105   4.489  12.811 -0.4168 -1.5665  0.5432
    9TMC3    C714001   1.877   4.446  12.954  0.5477 -0.2958  0.4783
    9TMC3    C814002   2.355   4.554  12.895 -0.5707  0.3311  0.1046
    9TMC3    O114003   1.779   4.444  13.024 -0.0490 -0.0293 -0.3307
    9TMC3    O214004   2.462   4.602  12.933 -0.0137 -0.0008  0.6653
   10MPD2     C14005   2.581   4.285  12.514 -0.9783  0.1950 -0.3031
   10MPD2    C114006   2.451   4.252  12.523 -0.0321 -0.2167  0.0923
   10MPD2    C214007   2.366   4.318  12.611 -0.8825 -0.2186  0.1450
   10MPD2    C314008   2.420   4.397  12.714  0.1052  0.0543  0.2395
   10MPD2    C414009   2.556   4.430  12.704 -0.2731 -0.4850 -0.2509
   10MPD2    C514010   2.634   4.378  12.604 -0.0806 -0.0756 -0.0952
   10MPD2     H14011   2.264   4.283  12.621 -0.2352 -1.7520  1.3922
   10MPD2    H114012   2.607   4.496  12.774  0.0021  0.3447 -1.2383
   10MPD2    H214013   2.652   4.241  12.446 -0.6330 -1.4744  1.1309
   10MPD2    H314014   2.740   4.397  12.594  0.1176 -1.5652 -0.7995
   10MPD2     N14015   2.333   4.446  12.809 -0.9308  0.2190 -0.1047
   10MPD2    H514016   2.237   4.417  12.794 -1.1924  2.4481 -2.7290
   10MPD2    N114017   2.408   4.153  12.439 -0.2175  0.5276 -0.2151
   10MPD2    H714018   2.473   4.115  12.371 -0.4236  2.1179 -1.3026
   11MPD2     C14019   3.507   3.271  13.535 -0.2157 -0.9146 -0.2741
   11MPD2    C114020   3.468   3.404  13.564  0.6631  0.1411  0.2194
   11MPD2    C214021   3.399   3.476  13.475  1.1033  0.2073 -0.3664
   11MPD2    C314022   3.371   3.420  13.349  0.4384  0.1337 -0.5865
   11MPD2    C414023   3.424   3.297  13.318 -1.0304  1.4201  0.6138
   11MPD2    C514024   3.483   3.220  13.414  0.1614 -0.3706 -0.3458
   11MPD2     H14025   3.365   3.574  13.507 -0.2396 -0.7509  1.1673
   11MPD2    H114026   3.416   3.260  13.216  1.8311  0.6104  0.7053
   11MPD2    H214027   3.568   3.210  13.600  4.3320  2.2382 -1.5968
   11MPD2    H314028   3.532   3.129  13.383 -0.0989  0.0905 -2.0803
   11MPD2     N14029   3.288   3.482  13.251  0.2048  0.1345 -0.3131
   11MPD2    H514030   3.287   3.445  13.156  2.0364  0.4986 -0.4829
   11MPD2    N114031   3.488   3.469  13.687  0.4784 -0.8590  0.7950
   11MPD2    H714032   3.439   3.556  13.705 -1.0233 -1.8165  1.2370
    1MPD1     C14033   1.286   1.329  16.098  0.0346  0.1419  0.4991
    1MPD1    C114034   1.372   1.224  16.120  0.2400 -0.4862 -0.0208
    1MPD1    C214035   1.370   1.161  16.247  0.4088 -0.5362  0.0706
    1MPD1    C314036   1.288   1.206  16.345  0.0392  0.5242 -0.0777
    1MPD1    C414037   1.197   1.317  16.327 -0.1883  0.3720  0.0835
    1MPD1    C514038   1.205   1.376  16.201 -0.0353  0.2675  0.2450
    1MPD1     H14039   1.437   1.078  16.266  0.6272 -1.0810 -3.0921
    1MPD1    H114040   1.125   1.345  16.403 -1.1734 -0.5041 -0.5367
    1MPD1    H214041   1.272   1.391  16.010 -1.4879 -2.9649 -1.4768
    1MPD1    H314042   1.135   1.458  16.188 -1.1608 -0.4851  1.5402
    1MPD1     N14043   1.277   1.151  16.473  0.0459 -0.0789  0.3986
    1MPD1    H514044   1.211   1.191  16.538 -1.2589 -1.4982 -0.0388
    1MPD1    N114045   1.478   1.193  16.031 -0.0050 -0.1217  0.0906
    1MPD1    H614046   1.507   1.095  16.036  1.2372  0.1735 -1.2482
    1MPD1    H714047   1.460   1.215  15.933  2.8637 -0.6953 -0.5738
    2MPD1     C14048   1.007   1.674  17.052 -0.5050  0.1507  0.1709
    2MPD1    C114049   1.023   1.670  16.916  0.3450 -0.3009  0.0556
    2MPD1    C214050   1.075   1.553  16.862  0.3667 -0.4897 -0.3761
    2MPD1    C314051   1.126   1.449  16.944 -0.0648 -0.2298  0.2490
    2MPD1    C414052   1.093   1.455  17.078  0.0326  0.6281  0.2441
    2MPD1    C514053   1.029   1.566  17.137  0.3428  0.4054  0.2967
    2MPD1     H14054   1.077   1.550  16.754  1.2488 -0.3492 -0.3596
    2MPD1    H114055   1.104   1.370  17.144 -0.9897 -0.8327 -1.4794
    2MPD1    H214056   0.953   1.754  17.103 -0.9854  1.2437 -2.0709
    2MPD1    H314057   1.002   1.579  17.242 -1.2881  1.6319 -0.2841
    2MPD1     N14058   1.193   1.335  16.887  0.3037 -0.2900  0.1424
    2MPD1    H514059   1.170   1.316  16.790 -0.3981  0.6360  0.1394
    2MPD1    N114060   0.971   1.769  16.831 -0.3139  0.6335 -0.3426
    2MPD1    H614061   0.985   1.854  16.884 -1.3443  0.3838  0.3377
    2MPD1    H714062   1.019   1.772  16.741  1.0544  0.5352  0.3917
    3TMC3    C114063   1.323   1.142  16.879  0.2735  0.2703  0.0567
    3TMC3    C214064   1.370   1.035  16.947  0.0919  0.1363 -0.3158
    3TMC3    C314065   1.393   0.921  16.872 -0.1614 -0.6562  0.2408
    3TMC3    C414066   1.299   1.146  16.748  0.0721 -0.6624  0.4671
    3TMC3    C514067   1.321   1.034  16.673 -0.2448  0.0365  0.4431
    3TMC3    C614068   1.374   0.921  16.733 -1.2782 -1.1177  0.7817
    3TMC3     C14069   1.282   1.253  16.962 -0.1495 -0.1581 -0.5458
    3TMC3     O14070   1.333   1.275  17.071  0.1383 -0.1285 -0.2839
    3TMC3     H14071   1.381   1.038  17.055  0.2035  1.2611 -0.3617
    3TMC3    H114072   1.298   1.243  16.701 -2.1538 -0.1638  1.5415
    3TMC3    H214073   1.380   0.832  16.671 -0.4954 -1.2535  1.0511
    3TMC3    C714074   1.355   1.048  16.530  0.4351  0.8547 -0.2682
    3TMC3    C814075   1.455   0.800  16.937  0.1282 -0.3622 -0.1666
    3TMC3    O114076   1.439   0.972  16.481  0.2365 -0.4767 -0.1868
    3TMC3    O214077   1.472   0.809  17.057  0.4960  0.5226 -0.3104
    4MPD1     C14078   1.712   0.361  16.958 -0.1702  0.5491 -0.2638
    4MPD1    C114079   1.716   0.403  16.824 -0.6492 -0.6103 -0.5280
    4MPD1    C214080   1.652   0.521  16.789  0.0061 -0.5579  0.1877
    4MPD1    C314081   1.580   0.592  16.886  0.3656  0.0024  0.5214
    4MPD1    C414082   1.577   0.549  17.014 -0.6735  0.0316  0.0985
    4MPD1    C514083   1.647   0.438  17.051  0.0896 -0.2374  0.2764
    4MPD1     H14084   1.637   0.544  16.684 -1.4512 -1.5228  0.1829
    4MPD1    H114085   1.515   0.588  17.094  0.5285  0.9650  0.5698
    4MPD1    H214086   1.754   0.266  16.987 -1.2462  0.7605  2.0127
    4MPD1    H314087   1.629   0.399  17.150 -1.0496  0.7875  0.4752
    4MPD1     N14088   1.507   0.707  16.849  0.6177  1.1362 -0.2071
    4MPD1    H514089   1.503   0.716  16.748 -0.7236  0.5586 -0.1954
    4MPD1    N114090   1.762   0.315  16.725 -0.2251  0.8877 -0.3772
    4MPD1    H614091   1.823   0.240  16.756 -0.1460  0.7761 -0.8022
    4MPD1    H714092   1.815   0.366  16.654 -0.2972 -0.5819 -1.5083
    1TCq1    O114093   2.181   4.641  11.364 -0.1286  0.7063  0.2052
    1TCq1    C114094   2.198   4.692  11.489 -0.5647  0.0884 -0.1787
    1TCq1    O214095   2.129   0.039  11.537 -0.4018 -0.3723 -0.3624
    1TCq1    C214096   2.305   4.628  11.559 -0.8861  0.5530 -0.4511
    1TCq1    C314097   2.342   4.687  11.681 -0.7312  0.0435  0.4495
    1TCq1    C414098   2.432   4.615  11.757  0.0862  0.8473 -0.4075
    1TCq1    C514099   2.448   4.480  11.747  0.0653  0.7250  1.0673
    1TCq1    C614100   2.402   4.420  11.632  0.1509  0.4144 -0.1274
    1TCq1    C714101   2.342   4.498  11.533  0.0949 -0.6122  0.4316
    1TCq1    C814102   2.398   4.274  11.624  0.1194  0.0496 -0.8985
    1TCq1    O414103   2.385   4.224  11.515  0.0670 -0.1203  0.3164
    1TCq1    C914104   2.467   4.685  11.878 -0.0033  1.0320 -0.5124
    1TCq1    O514105   2.576   4.662  11.943  0.7257  0.0515 -0.7794
    1TCq1    O614106   2.389   0.037  11.925 -0.0376 -0.2318 -0.1061
    1TCq1    H114107   2.261   4.596  11.329 -1.0137 -1.1352  0.5590
    1TCq1    H214108   2.299   0.044  11.708 -2.2921 -0.4608 -0.2461
    1TCq1    H314109   2.491   4.430  11.833 -1.4555 -0.2761  1.2365
    1TCq1    H414110   2.315   4.449  11.440  2.0510 -0.5894 -0.1446
    2MPD1     C14111   2.372   3.813  11.848  0.1585  0.0357  0.2091
    2MPD1    C114112   2.417   3.912  11.943 -0.6084 -0.1729  0.2661
    2MPD1    C214113   2.408   4.049  11.904  0.4644  0.2487  0.3997
    2MPD1    C314114   2.396   4.081  11.774 -0.8109  0.3425  0.1700
    2MPD1    C414115   2.367   3.983  11.683 -0.1319 -0.1587  0.1999
    2MPD1    C514116   2.342   3.852  11.723  0.7079 -0.2939  0.2523
    2MPD1     H14117   2.419   4.127  11.978 -2.9599  1.0012  0.1477
    2MPD1    H114118   2.354   4.008  11.579  0.6927  0.6804  0.2942
    2MPD1    H214119   2.367   3.710  11.882  0.7656  0.2396  0.9184
    2MPD1    H314120   2.308   3.784  11.646  0.2057 -1.0885  1.1635
    2MPD1     N14121   2.409   4.217  11.745 -0.0020 -0.4871  0.2106
    2MPD1    H514122   2.430   4.276  11.825  0.2017 -0.6623  0.2842
    2MPD1    N114123   2.433   3.879  12.079 -0.1549  0.3088  0.0437
    2MPD1    H614124   2.506   3.938  12.117  0.2142 -0.7446  0.9644
    2MPD1    H714125   2.469   3.784  12.083 -0.2279  0.3039  0.5046
    1TMC1    C114126   1.215   3.222  17.729  0.3438 -0.1947  0.0494
    1TMC1    C214127   1.089   3.268   0.009 -0.6105  0.3121 -0.6918
    1TMC1    C314128   1.018   3.337  17.659 -0.5138 -0.7018 -0.9146
    1TMC1    C414129   1.265   3.238  17.598  0.0135  0.2063 -0.3895
    1TMC1    C514130   1.196   3.310  17.510 -1.1800 -1.2769 -0.0214
    1TMC1    C614131   1.075   3.365  17.534 -0.3944  0.1479 -0.3122
    1TMC1     C14132   1.291   3.157   0.088 -0.3220  0.1382  0.5133
    1TMC1     O14133   1.234   3.172   0.197 -0.9379 -0.3559  0.2362
    1TMC1     H14134   1.052   3.249   0.109 -0.5410  1.4038 -0.4596
    1TMC1    H114135   1.368   3.214  17.578  0.2365  0.8657 -0.0177
    1TMC1    H214136   1.017   3.420  17.461  0.0287  0.5144 -0.3736
    1TMC1    C714137   1.236   3.335  17.370 -0.6525 -0.1694 -0.8994
    1TMC1    C814138   0.871   3.355  17.679 -0.2191 -0.0529  0.3899
    1TMC1    O114139   1.205   3.441  17.314  0.6979  0.0352  0.6437
    1TMC1    O214140   0.797   3.438  17.624  0.4315 -0.5329  0.1924
    1TMC1    O314141   1.339   3.253  17.341 -0.3857  0.2801  1.1723
    1TMC1    H314142   1.330   3.168  17.389 -0.1484  0.9242  2.3446
    1TMC1    O514143   0.820   3.247  17.741  0.4180  0.5487 -0.2872
    1TMC1    H514144   0.887   3.186   0.029 -0.6687 -1.0641 -0.9410
    2MPD1     C14145   1.601   2.795   0.276 -0.4790 -0.6523 -0.8070
    2MPD1    C114146   1.660   2.842   0.158 -0.3794  0.2389  0.3873
    2MPD1    C214147   1.599   2.949   0.092 -0.5123  0.2134 -0.3107
    2MPD1    C314148   1.482   3.005   0.138 -0.7885  0.0729  0.2529
    2MPD1    C414149   1.430   2.952   0.258  0.5376 -0.0514  0.7083
    2MPD1    C514150   1.488   2.847   0.333  0.2065  0.0073  0.2415
    2MPD1     H14151   1.641   2.975  17.746  0.8676  2.8442  0.9886
    2MPD1    H114152   1.340   2.988   0.306 -0.1423 -1.1804  0.2879
    2MPD1    H214153   1.656   2.715   0.324  0.1121  0.2759  0.0743
    2MPD1    H314154   1.436   2.806   0.419  1.3768 -2.3647 -0.2008
    2MPD1     N14155   1.412   3.100   0.058 -0.1701  0.2677 -0.0618
    2MPD1    H514156   1.448   3.116  17.715  0.1097 -0.6263 -0.1071
    2MPD1    N114157   1.787   2.807   0.113 -0.0484 -0.1660  0.1753
    2MPD1    H614158   1.814   2.711   0.133 -2.5888 -0.8019  0.5867
    2MPD1    H714159   1.812   2.830   0.017 -0.6258 -0.7324 -0.1082
    1MPD1     C14160   4.610   3.692  11.901 -0.3372  0.2199  0.0419
    1MPD1    C114161   4.506   3.734  11.983 -0.7479 -0.6478 -0.3892
    1MPD1    C214162   4.429   3.842  11.941  0.5289 -0.6732  0.8706
    1MPD1    C314163   4.448   3.897  11.816  0.0121  0.9217  0.2115
    1MPD1    C414164   4.548   3.845  11.733  0.2827  0.2489  0.3395
    1MPD1    C514165   4.623   3.741  11.781 -0.5368 -0.2484 -0.8137
    1MPD1     H14166   4.354   3.882  12.008  1.0938  1.2876  0.3421
    1MPD1    H114167   4.570   3.890  11.637 -0.1175  0.0335  0.1442
    1MPD1    H214168   4.689   3.624  11.931 -2.9099 -2.8646 -0.2303
    1MPD1    H314169   4.698   3.692  11.720 -0.5228 -0.9242 -0.2407
    1MPD1     N14170   4.362   3.994  11.775 -0.1598 -0.1113 -0.6965
    1MPD1    H514171   4.279   4.008  11.832  1.4530 -0.4780  1.7442
    1MPD1    N114172   4.487   3.672  12.104 -0.4182  0.0169  0.4553
    1MPD1    H614173   4.552   3.595  12.120 -0.3562 -0.0936 -0.3249
    1MPD1    H714174   4.390   3.652  12.126 -0.8263 -0.4307 -1.7983
    2MPD1     C14175   3.086   2.958  12.107  0.0361 -0.7344 -0.0460
    2MPD1    C114176   3.003   2.894  12.025  0.6725 -0.3462  0.1012
    2MPD1    C214177   2.932   2.978  11.937 -0.5256  0.1127  0.0946
    2MPD1    C314178   2.939   3.119  11.941 -0.1408  0.3103  0.7089
    2MPD1    C414179   3.007   3.176  12.042  0.7298 -0.3938  0.3151
    2MPD1    C514180   3.080   3.094  12.128  0.0462 -0.2536 -0.0814
    2MPD1     H14181   2.874   2.930  11.860 -0.2023 -1.6609  0.9688
    2MPD1    H114182   3.023   3.283  12.051 -2.3663  0.0125  0.8407
    2MPD1    H214183   3.154   2.891  12.160  2.0714 -0.3540 -2.1919
    2MPD1    H314184   3.144   3.137  12.204 -0.8336 -0.2213  0.6460
    2MPD1     N14185   2.890   3.201  11.840  0.3636 -0.3202  1.2626
    2MPD1    H514186   2.892   3.302  11.850 -1.9705 -0.0271 -1.0359
    2MPD1    N114187   3.014   2.758  11.993 -0.4846  0.0093  0.1571
    2MPD1    H614188   2.933   2.720  11.946 -0.5503  0.6390 -0.2378
    2MPD1    H714189   3.051   2.696  12.065 -1.0417  0.6016  0.9587
    3MPD1     C14190   2.411   3.041  10.945 -0.7134 -0.1244  0.0022
    3MPD1    C114191   2.392   2.978  11.069 -0.8171 -0.0774  0.1488
    3MPD1    C214192   2.463   3.036  11.170  0.4616 -0.5021  0.2566
    3MPD1    C314193   2.556   3.140  11.152 -0.4016 -0.2294  0.7533
    3MPD1    C414194   2.580   3.187  11.028 -0.0677 -0.7964  0.2148
    3MPD1    C514195   2.499   3.139  10.929  0.9104 -0.1762 -0.0491
    3MPD1     H14196   2.454   2.995  11.270  0.0106 -1.3587 -0.1380
    3MPD1    H114197   2.650   3.266  11.005  1.0888 -1.9604 -0.2152
    3MPD1    H214198   2.355   3.015  10.856  1.1635 -1.9051 -0.6782
    3MPD1    H314199   2.531   3.152  10.826  1.3190  0.4531  0.1530
    3MPD1     N14200   2.613   3.201  11.271  0.3355  0.0361  0.2136
    3MPD1    H514201   2.578   3.158  11.356 -0.1206 -0.8552 -0.4252
    3MPD1    N114202   2.294   2.881  11.088  0.0402 -0.5510 -0.0022
    3MPD1    H614203   2.283   2.824  11.005  1.8886 -1.6284  0.4841
    3MPD1    H714204   2.309   2.828  11.174 -0.2526 -1.3601 -0.4507
    4MPD2     C14205   3.770   4.375  11.919  0.5728  0.4780  0.8768
    4MPD2    C114206   3.810   4.377  11.787 -0.1360 -0.0151  0.2361
    4MPD2    C214207   3.723   4.383  11.695  0.0497  0.2386 -0.1575
    4MPD2    C314208   3.589   4.386  11.715  0.1918 -0.3909  0.7039
    4MPD2    C414209   3.540   4.386  11.848 -0.1213  0.1020 -0.7296
    4MPD2    C514210   3.636   4.374  11.950  1.1597 -0.2293  0.1505
    4MPD2     H14211   3.763   4.393  11.595  0.6650 -4.3090 -0.3670
    4MPD2    H114212   3.436   4.386  11.878  0.1780 -0.0914  0.3247
    4MPD2    H214213   3.842   4.371  12.000 -0.9974  1.4717  2.3214
    4MPD2    H314214   3.603   4.362  12.052 -0.8112 -1.2018 -0.6008
    4MPD2     N14215   3.486   4.396  11.619 -0.5072  0.1968 -0.5202
    4MPD2    H514216   3.390   4.395  11.653 -0.1688 -1.8603  0.3758
    4MPD2    N114217   3.945   4.378  11.744  0.6412  0.3618 -0.0010
    4MPD2    H714218   3.962   4.386  11.644 -2.4124 -2.6727 -0.7498
    5TMC3    C114219   4.190   4.363  11.758  0.1931  0.2417  0.5755
    5TMC3    C214220   4.256   4.246  11.772  0.1049 -0.4268  0.0808
    5TMC3    C314221   4.283   4.178  11.656  0.9875  0.5430  0.1487
    5TMC3    C414222   4.165   4.412  11.628 -0.3058 -0.3697 -0.4321
    5TMC3    C514223   4.188   4.344  11.515 -0.0954 -0.1782 -0.3479
    5TMC3    C614224   4.250   4.219  11.531  0.2949 -0.0631  0.2887
    5TMC3     C14225   4.063   4.375  11.825 -0.0765 -0.0173  0.4172
    5TMC3     O14226   4.082   4.373  11.950  0.3674  0.1558  0.0252
    5TMC3     H14227   4.288   4.209  11.869 -0.7633 -0.1275  0.4784
    5TMC3    H114228   4.118   4.510  11.622 -0.8641 -0.5733  0.5540
    5TMC3    H214229   4.287   4.164  11.445 -0.7879 -0.0607 -0.1764
    5TMC3    C714230   4.076   4.337  11.421 -0.2708 -0.7260 -0.2483
    5TMC3    C814231   4.380   4.072  11.668 -0.2955  0.5078 -0.4757
    5TMC3    O114232   3.979   4.397  11.464  0.0251 -0.1994  0.7819
    5TMC3    O214233   4.475   4.076  11.590  0.8106  0.1941  0.1332
    6TMC3    C114234   2.829   3.259  11.618 -0.2254  0.4330 -0.0463
    6TMC3    C214235   2.749   3.229  11.512 -0.5616 -0.0437 -0.9445
    6TMC3    C314236   2.743   3.329  11.413 -0.8782  0.2791  0.1172
    6TMC3    C414237   2.897   3.373  11.631 -0.7050  0.0981  0.1801
    6TMC3    C514238   2.890   3.470  11.532  0.6205  0.6338 -0.1504
    6TMC3    C614239   2.824   3.440  11.423  0.2193  0.1556 -0.4378
    6TMC3     C14240   2.832   3.161  11.724  0.3543  0.6595 -0.2418
    6TMC3     O14241   2.799   3.050  11.684  0.1428 -0.0278  0.0781
    6TMC3     H14242   2.694   3.136  11.516 -0.9820  0.1918 -1.3380
    6TMC3    H114243   2.962   3.389  11.716  0.5841  2.8913 -1.3228
    6TMC3    H214244   2.805   3.514  11.346 -0.5808  0.0047 -0.3870
    6TMC3    C714245   2.965   3.593  11.529  0.4231 -0.2075  0.2745
    6TMC3    C814246   2.703   3.301  11.279 -0.2038  0.5063  0.2865
    6TMC3    O114247   3.021   3.622  11.424  0.4425 -0.4636 -0.2277
    6TMC3    O214248   2.756   3.370  11.193 -0.0125 -0.0948 -0.2275
    7MPD2     C14249   3.792   4.162  11.030  0.3407 -0.0278  0.5563
    7MPD2    C114250   3.755   4.226  11.148 -0.7164  0.5216 -1.0113
    7MPD2    C214251   3.859   4.252  11.242  0.3915  0.2700  0.0691
    7MPD2    C314252   3.996   4.231  11.211 -0.5560 -0.2530 -0.3002
    7MPD2    C414253   4.029   4.181  11.090  0.4706  0.1131  0.2670
    7MPD2    C514254   3.928   4.144  10.997 -0.5309  0.1851  0.2877
    7MPD2     H14255   3.829   4.295  11.337 -0.9549  1.6693 -0.9814
    7MPD2    H114256   4.132   4.161  11.063  0.4598  0.3393  0.0523
    7MPD2    H214257   3.724   4.128  10.953 -0.9818  0.8709  1.3200
    7MPD2    H314258   3.954   4.102  10.901 -0.0818 -1.8689  1.3239
    7MPD2     N14259   4.096   4.269  11.304 -0.1473 -0.3990  0.3411
    7MPD2    H514260   4.187   4.237  11.274 -1.1633 -2.2632 -0.7599
    7MPD2    N114261   3.625   4.258  11.182  0.1363  0.4642  0.8370
    7MPD2    H714262   3.615   4.307  11.270 -1.3920  0.0122  0.9082
    8TMC3    C114263   3.397   4.282  11.192  0.3405 -0.3999 -0.1797
    8TMC3    C214264   3.311   4.185  11.232  0.3449  0.2091 -0.2928
    8TMC3    C314265   3.265   4.193  11.358  0.2220 -0.4306  0.2163
    8TMC3    C414266   3.428   4.392  11.266  0.2906 -0.1525 -0.0647
    8TMC3    C514267   3.389   4.387  11.401 -0.2055 -0.3773 -0.3265
    8TMC3    C614268   3.300   4.296  11.444  0.0966  0.9235  0.2548
    8TMC3     C14269   3.514   4.227  11.118 -0.4436  0.1296  0.4864
    8TMC3     O14270   3.491   4.138  11.039 -0.2966 -0.2869 -0.2501
    8TMC3     H14271   3.291   4.104  11.163  3.6295 -1.3453  0.5935
    8TMC3    H114272   3.489   4.475  11.234 -1.6905  1.2338 -0.2660
    8TMC3    H214273   3.247   4.308  11.538  1.2803 -0.5428  1.1005
    8TMC3    C714274   3.506   4.399  11.483  0.4460  0.7216 -0.0755
    8TMC3    C814275   3.203   4.077  11.414 -0.5793  0.1435  0.7244
    8TMC3    O114276   3.611   4.395  11.421 -0.1447 -0.3282 -0.3690
    8TMC3    O214277   3.160   3.989  11.344 -0.6347 -0.2656 -0.3507
    9MPD2     C14278   3.206   3.986  11.763 -0.0405 -0.0977  0.4380
    9MPD2    C114279   3.164   3.970  11.638  0.4589 -0.2697 -0.2829
    9MPD2    C214280   3.093   3.860  11.596 -0.3785  0.2514 -0.1502
    9MPD2    C314281   3.062   3.763  11.686 -0.8126 -0.0355  0.1855
    9MPD2    C414282   3.100   3.783  11.818 -0.4209  0.2495  0.2414
    9MPD2    C514283   3.175   3.888  11.854  0.2459 -0.2737 -0.5467
    9MPD2     H14284   3.068   3.854  11.491  0.9310 -1.0154 -0.3841
    9MPD2    H114285   3.085   3.704  11.891  1.2330 -0.7761 -0.5474
    9MPD2    H214286   3.260   4.074  11.795  1.5383 -1.4423  1.5106
    9MPD2    H314287   3.224   3.875  11.949 -0.1980  0.0168 -0.2772
    9MPD2     N14288   2.986   3.645  11.656 -0.0556 -0.4723  0.2336
    9MPD2    H514289   2.950   3.595  11.737 -0.3152  1.0810  1.0861
    9MPD2    N114290   3.217   4.072  11.551 -0.1609  0.6663 -0.3638
    9MPD2    H714291   3.257   4.154  11.595 -0.1784  0.4464  0.0591
    1MPD1     C14292   4.153   3.795  16.322 -0.2371 -0.0944 -0.3652
    1MPD1    C114293   4.182   3.879  16.431  0.3535 -0.7333 -1.1775
    1MPD1    C214294   4.073   3.903  16.517 -1.1267 -0.5322 -0.0656
    1MPD1    C314295   3.961   3.823  16.511  0.3574 -0.1050 -0.4152
    1MPD1    C414296   3.943   3.727  16.418  0.2398 -0.0017 -0.0061
    1MPD1    C514297   4.037   3.724  16.323  0.4612  0.0268 -0.0420
    1MPD1     H14298   4.080   3.982  16.591  1.4041  1.0930 -2.0352
    1MPD1    H114299   3.869   3.648  16.421 -0.8481  1.0404  0.4031
    1MPD1    H214300   4.223   3.774  16.242 -0.2064  3.3877 -1.2537
    1MPD1    H314301   4.025   3.647  16.247  1.8288  1.3793 -1.6303
    1MPD1     N14302   3.860   3.833  16.613 -0.4744 -0.0037  0.2246
    1MPD1    H514303   3.774   3.781  16.594  0.7609 -2.5589  1.7059
    1MPD1    N114304   4.290   3.969  16.421 -0.2991  0.5774  0.1862
    1MPD1    H614305   4.298   4.014  16.512 -2.6399 -0.4797  0.9003
    1MPD1    H714306   4.381   3.926  16.404 -0.8904 -1.0403  0.9968
    2TMC2    C114307   3.545   3.790  16.827  0.0786  0.2203 -0.1481
    2TMC2    C214308   3.493   3.904  16.883  0.3912 -0.3680 -0.0271
    2TMC2    C314309   3.583   4.006  16.899 -1.0180  0.0052  0.4176
    2TMC2    C414310   3.671   3.774  16.786  0.2616  0.0938 -0.7168
    2TMC2    C514311   3.753   3.888  16.803 -0.5551  0.7729 -1.1387
    2TMC2    C614312   3.720   3.995  16.873  0.1290  0.1476  0.0203
    2TMC2     C14313   3.451   3.681  16.799 -0.0005  0.5476  0.1902
    2TMC2     O14314   3.507   3.572  16.784 -0.3173 -0.1383  0.4569
    2TMC2     H14315   3.388   3.928  16.899  0.1485 -1.3822 -0.0882
    2TMC2    H114316   3.697   3.678  16.742 -1.7843 -0.3945 -0.8553
    2TMC2    H214317   3.781   4.084  16.865 -0.2359  0.5243  1.3398
    2TMC2    C714318   3.873   3.900  16.727 -0.3744  0.2077 -0.4206
    2TMC2    C814319   3.535   4.130  16.951 -0.0016  0.4838  0.2459
    2TMC2    O114320   3.964   3.963  16.779 -0.1036  0.0270  0.2190
    2TMC2    O214321   3.421   4.170  16.938 -0.3070  0.4816  0.4622
    2TMC2    O514322   3.635   4.190  17.012  0.0598 -0.0960  0.1752
    2TMC2    H514323   3.715   4.144  17.043  1.2089  0.9036 -1.3200
    3MPD1     C14324   2.997   3.467  16.736  0.6005 -0.1204 -0.8818
    3MPD1    C114325   2.982   3.598  16.699  0.0769 -0.2347  0.0297
    3MPD1    C214326   3.091   3.676  16.712  0.4446  0.7110 -0.0562
    3MPD1    C314327   3.212   3.625  16.757 -0.3738  0.1076  0.3945
    3MPD1    C414328   3.231   3.492  16.791  0.1862 -0.0917  0.2549
    3MPD1    C514329   3.121   3.417  16.768  0.3886  0.4332  0.2564
    3MPD1     H14330   3.075   3.782  16.691 -1.6366  0.2710 -0.7062
    3MPD1    H114331   3.323   3.439  16.813 -0.3562 -0.0636  2.6637
    3MPD1    H214332   2.916   3.395  16.728  1.0777 -0.4746 -2.4890
    3MPD1    H314333   3.139   3.312  16.791 -0.2504 -0.1362 -1.8176
    3MPD1     N14334   3.319   3.718  16.774  0.0651 -0.0727  0.6858
    3MPD1    H514335   3.314   3.819  16.761  0.1899 -0.2663 -0.8721
    3MPD1    N114336   2.861   3.652  16.652  0.9470  0.3286  0.2443
    3MPD1    H614337   2.878   3.703  16.566 -1.0454 -0.2797 -0.5231
    3MPD1    H714338   2.791   3.587  16.616  2.0333 -0.6003 -0.1994
    1TMC1    C114339   2.232   1.737  13.675  0.4946  0.3180 -0.4180
    1TMC1    C214340   2.297   1.826  13.753  0.3806  0.4595  0.0292
    1TMC1    C314341   2.228   1.937  13.794 -0.4193  0.3453 -0.5775
    1TMC1    C414342   2.100   1.743  13.648  0.2598  0.3421 -0.1929
    1TMC1    C514343   2.037   1.862  13.675 -0.3981  0.0855 -0.1722
    1TMC1    C614344   2.099   1.954  13.748 -0.3429 -0.0152  0.0318
    1TMC1     C14345   2.301   1.656  13.583 -0.1978  0.4414 -0.0882
    1TMC1     O14346   2.251   1.560  13.525  0.0671 -0.3691 -0.7767
    1TMC1     H14347   2.396   1.798  13.786  0.4337 -1.1984 -1.5747
    1TMC1    H114348   2.051   1.666  13.590  0.2687  1.0141 -1.0883
    1TMC1    H214349   2.055   2.052  13.763 -2.8600 -1.2260  0.6710
    1TMC1    C714350   1.896   1.880  13.645 -0.4775 -0.4678  1.6468
    1TMC1    C814351   2.283   2.034  13.890 -0.7595 -1.0579 -0.4566
    1TMC1    O114352   1.839   1.984  13.680 -0.4581 -0.1819  0.1973
    1TMC1    O214353   2.205   2.113  13.945  0.5620 -0.1147  0.1378
    1TMC1    O314354   1.876   1.819  13.527  0.2834  0.1184 -0.4249
    1TMC1    H314355   1.950   1.788  13.470 -0.2927 -0.6277 -0.7663
    1TMC1    O514356   2.413   2.020  13.916  0.0424 -0.4456  0.4963
    1TMC1    H514357   2.464   1.975  13.845 -2.1184  0.1242 -1.4186
    2MPD2     C14358   2.465   1.613  13.336  0.0324 -0.0338  0.7323
    2MPD2    C114359   2.491   1.703  13.439  0.7411 -1.0979  0.1475
    2MPD2    C214360   2.599   1.786  13.422  0.2917 -0.2430 -0.0076
    2MPD2    C314361   2.674   1.779  13.306 -0.3713  0.4499  0.6841
    2MPD2    C414362   2.653   1.687  13.206  1.4407  0.3410 -0.9515
    2MPD2    C514363   2.545   1.600  13.221  0.1219 -0.3550  0.1394
    2MPD2     H14364   2.633   1.858  13.495  0.9470  0.1425 -0.6918
    2MPD2    H114365   2.706   1.688  13.112  1.1492 -1.6575 -1.1231
    2MPD2    H214366   2.390   1.537  13.356 -0.5695 -0.0893 -1.8032
    2MPD2    H314367   2.524   1.528  13.142  1.3121  0.4176 -0.8800
    2MPD2     N14368   2.789   1.869  13.299  0.3187 -0.2204 -0.0479
    2MPD2    H514369   2.781   1.949  13.361 -2.1400 -1.6824  1.5348
    2MPD2    N114370   2.417   1.723  13.557 -0.3033 -0.7242  0.2907
    2MPD2    H714371   2.454   1.794  13.619 -3.0751 -0.8902  2.0968
    3TCq1    O114372   3.125   2.321  13.505 -0.5017  0.3213  0.5051
    3TCq1    C114373   3.065   2.200  13.497  0.5587 -0.1172  0.2735
    3TCq1    O214374   2.984   2.159  13.578 -0.3419  0.5727  0.3793
    3TCq1    C214375   3.064   2.145  13.364  0.0276  0.1997 -0.3314
    3TCq1    C314376   3.182   2.148  13.291 -0.1108  0.3234 -0.0740
    3TCq1    C414377   3.195   2.067  13.182  0.4223  0.2433  0.1552
    3TCq1    C514378   3.093   1.980  13.149  0.0009 -0.7333  0.2593
    3TCq1    C614379   2.987   1.969  13.236 -0.4273 -0.2320  0.6771
    3TCq1    C714380   2.967   2.057  13.342 -0.1179  0.2564 -0.2557
    3TCq1    C814381   2.896   1.850  13.220  0.6421  0.2984  0.3253
    3TCq1    O414382   2.931   1.749  13.162  0.7101 -0.4435 -0.8221
    3TCq1    C914383   3.322   2.065  13.108  0.3283 -0.8928 -0.3575
    3TCq1    O514384   3.431   2.089  13.167 -0.5543 -0.6646 -0.0726
    3TCq1    O614385   3.322   2.028  12.987  0.0701  0.4033 -0.3698
    3TCq1    H114386   3.147   2.372  13.424  0.7441  0.4878  0.9512
    3TCq1    H214387   3.269   2.206  13.321  2.0614 -2.5906 -0.7159
    3TCq1    H314388   3.125   1.910  13.072  0.9458  0.1980 -0.2006
    3TCq1    H414389   2.872   2.072  13.392  0.6985  2.7360  0.5434
    1MPD2     C14390   1.027   3.583  15.139 -0.0201  0.2283  0.2043
    1MPD2    C114391   0.933   3.549  15.039 -0.0065  0.1172  0.1498
    1MPD2    C214392   0.826   3.629  15.038 -0.0925  0.2868  0.8991
    1MPD2    C314393   0.809   3.733  15.120  0.1774 -0.4103 -0.6875
    1MPD2    C414394   0.891   3.757  15.219  0.5162 -0.6755  0.0544
    1MPD2    C514395   1.013   3.689  15.222  0.3997  0.0839 -0.4578
    1MPD2     H14396   0.754   3.607  14.960  0.8242  2.8396 -0.6820
    1MPD2    H114397   0.877   3.840  15.288  0.4523 -0.1224 -0.6276
    1MPD2    H214398   1.120   3.527  15.138  0.1565  0.5279 -0.2193
    1MPD2    H314399   1.087   3.714  15.296  1.7246 -0.7019 -1.5191
    1MPD2     N14400   0.696   3.815  15.119 -0.4175  0.5928 -0.3182
    1MPD2    H514401   0.699   3.889  15.188 -1.1737  2.1185 -1.9158
    1MPD2    N114402   0.962   3.444  14.951 -0.1876 -0.4197  0.4378
    1MPD2    H714403   1.046   3.393  14.975  0.9754  1.2930  0.0144
    2TMC3    C114404   0.995   3.386  14.727 -0.2871  0.1575 -0.7737
    2TMC3    C214405   0.932   3.375  14.610 -0.5643 -0.0356  0.7967
    2TMC3    C314406   0.998   3.438  14.506 -1.1043 -0.6344 -0.3005
    2TMC3    C414407   1.119   3.429  14.747 -0.1418 -0.1364  0.8712
    2TMC3    C514408   1.192   3.467  14.638 -0.4682 -0.5294  0.9888
    2TMC3    C614409   1.130   3.472  14.516 -0.0324 -0.6416 -0.4590
    2TMC3     C14410   0.902   3.429  14.835  0.1641  0.2373  0.5873
    2TMC3     O14411   0.802   3.481  14.783  0.3788 -1.3378 -0.0249
    2TMC3     H14412   0.828   3.344  14.606  0.2310 -2.5417 -0.4136
    2TMC3    H114413   1.174   3.438  14.840 -0.7284  1.0115  1.1085
    2TMC3    H214414   1.175   3.526  14.434 -1.1347  0.1386 -0.5483
    2TMC3    C714415   1.313   3.545  14.671  0.6651 -0.0213  0.4527
    2TMC3    C814416   0.919   3.535  14.435  0.2424 -0.1152 -0.3972
    2TMC3    O114417   1.388   3.500  14.759  0.3089 -0.5808  0.1487
    2TMC3    O214418   0.957   3.579  14.327 -0.4276  0.1488 -0.3589
    3TCq1    O114419   1.483   4.115  13.998 -0.1839  0.3544 -0.6158
    3TCq1    C114420   1.518   4.247  14.008 -0.2293  0.2497  0.0240
    3TCq1    O214421   1.538   4.310  13.902 -0.1092 -0.0992  0.4798
    3TCq1    C214422   1.486   4.296  14.139  0.2494  0.3068  0.2826
    3TCq1    C314423   1.442   4.424  14.142  0.0866 -0.4899 -0.1621
    3TCq1    C414424   1.444   4.495  14.263  0.7970  0.2354  0.5154
    3TCq1    C514425   1.475   4.427  14.382  0.2453  0.6791 -0.7712
    3TCq1    C614426   1.514   4.295  14.374  0.2657 -0.0365  0.1967
    3TCq1    C714427   1.525   4.229  14.250 -0.5237 -0.5021 -0.3954
    3TCq1    C814428   1.536   4.215  14.493 -0.1924 -0.4105 -0.0292
    3TCq1    O414429   1.562   4.268  14.598  0.6335  0.0817 -0.8313
    3TCq1    C914430   1.370   4.621  14.275 -0.0728  0.0858 -0.2359
    3TCq1    O514431   1.332   4.672  14.168 -0.1856  0.5184 -0.0170
    3TCq1    O614432   1.354   4.673  14.389  0.9029  0.5779  0.6181
    3TCq1    H114433   1.449   4.064  14.075  1.6319  4.4449  2.9129
    3TCq1    H214434   1.422   4.471  14.047 -0.6186 -2.4185 -0.9443
    3TCq1    H314435   1.475   4.472  14.480  0.9683 -1.0836  0.0338
    3TCq1    H414436   1.574   4.132  14.244 -0.7417 -0.5311 -1.6353
    4MPD2     C14437   1.577   3.978  14.675 -0.3255  0.0108  0.2240
    4MPD2    C114438   1.506   3.971  14.552 -0.2604 -0.1012  0.7441
    4MPD2    C214439   1.433   3.861  14.515  0.3971  0.2736  0.3730
    4MPD2    C314440   1.427   3.754  14.606  0.4809 -0.0199  0.8072
    4MPD2    C414441   1.516   3.748  14.709  0.6798 -0.4964  0.0660
    4MPD2    C514442   1.588   3.859  14.741  0.3496 -0.2757 -0.8927
    4MPD2     H14443   1.362   3.861  14.433  0.8034  0.4466  0.0197
    4MPD2    H114444   1.534   3.660  14.771  2.1450 -0.0690  0.2569
    4MPD2    H214445   1.632   4.063  14.714 -1.3533  0.3022  1.0393
    4MPD2    H314446   1.645   3.857  14.833  1.5746  0.2738 -1.6274
    4MPD2     N14447   1.325   3.655  14.588  0.1594  0.3043  0.6577
    4MPD2    H514448   1.261   3.674  14.511 -0.8106 -0.9534  1.1621
    4MPD2    N114449   1.496   4.085  14.467  0.9346 -0.0396  0.2071
    4MPD2    H714450   1.462   4.068  14.373 -0.4623 -1.9042  1.0632
    5TMC2    C114451   0.374   3.996  14.850  0.8112  0.5960 -0.8140
    5TMC2    C214452   0.399   4.128  14.883 -0.2901 -0.0846 -0.5304
    5TMC2    C314453   0.485   4.149  14.986 -0.3938  0.3773 -0.0187
    5TMC2    C414454   0.406   3.894  14.930 -0.5449 -0.5403 -1.2792
    5TMC2    C514455   0.499   3.920  15.028  0.5325 -0.0498  1.2511
    5TMC2    C614456   0.544   4.047  15.057  0.0117 -0.3273  0.1110
    5TMC2     C14457   0.401   3.971  14.713  0.6326 -0.0276  0.1379
    5TMC2     O14458   0.368   4.055  14.630  0.1793 -0.1507 -0.1196
    5TMC2     H14459   0.377   4.206  14.811  2.6916  1.1955 -0.0489
    5TMC2    H114460   0.371   3.795  14.902  1.4282 -1.4171 -0.6098
    5TMC2    H214461   0.629   4.069  15.119 -0.4920  3.0383 -0.4089
    5TMC2    C714462   0.589   3.802  15.035  0.1908  1.0096 -0.0776
    5TMC2    C814463   0.545   4.278  14.993  0.1457  0.5628 -0.2083
    5TMC2    O114464   0.568   3.728  14.939  0.3691  0.3388 -0.5984
    5TMC2    O214465   0.597   4.323  14.894  0.0193  0.5494  0.4693
    5TMC2    O514466   0.590   4.291  15.119  0.8266  0.3674 -0.3077
    5TMC2    H514467   0.527   4.245  15.178 -0.7601  0.4405 -1.9393
    6MPD2     C14468   0.719   3.757  14.376 -0.4008 -0.3693 -0.0716
    6MPD2    C114469   0.734   3.691  14.497 -0.6359 -0.3579  0.1586
    6MPD2    C214470   0.653   3.734  14.603  0.6021 -0.2631  0.4392
    6MPD2    C314471   0.555   3.831  14.585 -0.2936  0.2917 -0.1239
    6MPD2    C414472   0.539   3.890  14.465  0.1186  0.1586 -0.3672
    6MPD2    C514473   0.629   3.862  14.366  1.0376 -0.0637 -0.1459
    6MPD2     H14474   0.670   3.691  14.701 -1.1710 -0.5359  0.6227
    6MPD2    H114475   0.460   3.956  14.432  2.3248  2.2921 -1.3700
    6MPD2    H214476   0.780   3.740  14.288 -1.7191 -1.0105 -0.8652
    6MPD2    H314477   0.624   3.914  14.272 -2.5947 -2.1883 -1.1028
    6MPD2     N14478   0.486   3.867  14.703  0.8631 -0.2045 -0.2505
    6MPD2    H514479   0.508   3.818  14.789 -1.0896  0.2005  0.4882
    6MPD2    N114480   0.813   3.580  14.516 -0.2257 -0.2313 -0.1171
    6MPD2    H714481   0.815   3.528  14.603  1.5054 -0.4333 -0.2847
  945NH4     N114482   3.125   3.190  11.050  0.1895 -0.3636 -0.2256
  945NH4     H214483   3.108   3.162  11.148  1.5838 -0.0132  0.1076
  945NH4     H314484   3.221   3.170  11.017  0.0770 -3.0048  1.1310
  945NH4     H414485   3.091   3.287  11.033  0.6065 -0.1091  0.4196
  945NH4     H514486   3.059   3.126  11.001  1.3025 -0.7386 -1.2266
  946SOD     NA14487   3.376   4.396   4.397  0.2200 -0.3625 -0.2375
  947SOD     NA14488   2.579   3.478  13.867  0.0864  0.2779 -0.2635
  948SOD     NA14489   0.999   0.394  14.125  0.4157  0.3779 -0.1800
  949SOD     NA14490   2.132   1.201  15.958  0.5950 -0.2882 -0.1416
  950SOD     NA14491   3.730   1.037  10.858  0.3879  0.2104  0.0464
  951SOD     NA14492   3.880   2.206   2.313  0.0375 -0.1483 -0.0906
  952SOD     NA14493   4.679   2.215  13.001 -0.0772  0.3223  0.5964
  953SOL     OW14494   4.544   3.711   5.782 -0.1502 -0.2023  0.4447
  953SOL    HW114495   4.521   3.630   5.736 -1.4069  0.3136  0.1485
  953SOL    HW214496   4.638   3.724   5.778 -0.2360  1.0799  2.4574
  954SOL     OW14497   2.748   2.525   8.244 -0.7117  0.4156  0.1403
  954SOL    HW114498   2.688   2.595   8.273 -3.1923 -1.0938 -1.3731
  954SOL    HW214499   2.826   2.564   8.284 -2.0109  1.0368  2.0813
  955SOL     OW14500   2.305   4.111   7.080 -0.5338 -0.1041  0.0570
  955SOL    HW114501   2.350   4.085   7.161 -0.6936 -1.3498 -0.2471
  955SOL    HW214502   2.273   4.031   7.037  0.1634  0.0446 -0.7472
  956SOL     OW14503   2.003   3.991   2.693  0.7257  0.1215  0.5130
  956SOL    HW114504   2.061   4.052   2.647  1.3007 -0.1797  0.8436
  956SOL    HW214505   2.021   4.011   2.785 -2.8651  2.1932  0.7956
  957SOL     OW14506   4.531   2.336   4.938 -0.8208  0.5104  0.2089
  957SOL    HW114507   4.541   2.304   5.027  0.1446 -0.8703 -0.3966
  957SOL    HW214508   4.532   2.250   4.895 -0.2976  0.0403  1.1718
  958SOL     OW14509   3.422   2.035  15.367  0.2685 -0.0405  0.1908
  958SOL    HW114510   3.328   2.021  15.376 -0.0788  1.5272 -1.0058
  958SOL    HW214511   3.450   1.944  15.380  1.1401  0.1494 -0.3724
  959SOL     OW14512   3.233   1.826   2.163 -0.1582  0.3247 -0.0882
  959SOL    HW114513   3.248   1.759   2.097 -2.2272  1.2725 -1.5483
  959SOL    HW214514   3.314   1.812   2.211 -0.9004  0.8440  1.3442
  960SOL     OW14515   2.830   4.477  13.521  0.4043 -0.2460 -0.1611
  960SOL    HW114516   2.794   4.551  13.569  1.5492 -0.4137  0.9576
  960SOL    HW214517   2.900   4.527  13.479 -0.0676 -0.8045 -1.6172
  961SOL     OW14518   4.088   2.865   8.859 -0.4348  0.4410  0.2247
  961SOL    HW114519   4.116   2.908   8.940  0.7272  3.1438 -1.6452
  961SOL    HW214520   4.051   2.786   8.899  0.0308  1.0849  1.9483
  962SOL     OW14521   3.293   2.056   5.880  0.3147 -0.1897 -0.3037
  962SOL    HW114522   3.331   2.020   5.799  0.3219  1.5079 -1.0506
  962SOL    HW214523   3.282   2.141   5.839  2.1366 -0.2176 -0.8437
  963SOL     OW14524   1.164   4.332   9.315  0.3884 -0.5610 -0.5578
  963SOL    HW114525   1.221   4.329   9.238  1.1853 -0.9014  0.0622
  963SOL    HW214526   1.204   4.262   9.365  0.2520 -2.3578 -2.9319
  964SOL     OW14527   2.035   1.955   2.338 -0.4815 -0.2960  0.1981
  964SOL    HW114528   2.125   1.984   2.349 -0.3221 -0.3829 -0.9109
  964SOL    HW214529   1.997   1.999   2.262 -0.3060 -0.7405 -0.1479
  965SOL     OW14530   0.970   4.349  12.858 -0.4121 -0.3226 -0.3049
  965SOL    HW114531   1.020   4.348  12.939  0.4489  1.2151 -0.8264
  965SOL    HW214532   0.887   4.312  12.889 -0.5642  0.8710  0.7104
  966SOL     OW14533   3.739   0.138   4.206  0.0132 -0.8321  0.5408
  966SOL    HW114534   3.787   0.200   4.261  0.6745 -0.9116  0.0606
  966SOL    HW214535   3.706   0.199   4.140  1.7141 -0.5890 -0.1071
  967SOL     OW14536   3.727   4.736  10.041 -0.4244  0.1738 -0.5172
  967SOL    HW114537   3.823   4.736  10.044 -0.3577 -3.2682 -3.3600
  967SOL    HW214538   3.716   4.657   9.989 -1.5684 -0.3022  0.4479
  968SOL     OW14539   4.310   1.910   8.615 -0.2169  0.4184 -0.4312
  968SOL    HW114540   4.235   1.879   8.564 -0.7488 -0.7558  1.0267
  968SOL    HW214541   4.386   1.897   8.560 -0.1295 -2.1414  0.2766
  969SOL     OW14542   2.861   2.496  10.460 -0.6450 -0.0226  0.4344
  969SOL    HW114543   2.767   2.477  10.464 -0.5339 -1.0986 -1.5296
  969SOL    HW214544   2.892   2.405  10.459  0.6484  0.4333 -0.6411
  970SOL     OW14545   1.907   2.834   3.847 -0.4245 -0.0479  0.0609
  970SOL    HW114546   1.924   2.928   3.840  0.2941 -0.0029  2.4386
  970SOL    HW214547   1.953   2.820   3.930  1.0429  1.3901 -0.5111
  971SOL     OW14548   4.433   3.422  17.177 -0.0999  0.3540  0.4806
  971SOL    HW114549   4.426   3.328  17.196  0.2604  0.0956 -0.7133
  971SOL    HW214550   4.460   3.418  17.086 -5.0735 -1.5451 -0.9478
  972SOL     OW14551   0.458   4.480   3.568  0.1122 -0.1817 -0.1319
  972SOL    HW114552   0.428   4.390   3.571  0.4103 -0.2035  1.7916
  972SOL    HW214553   0.422   4.521   3.489 -0.8239 -1.6098 -0.4382
  973SOL     OW14554   0.417   1.693  13.852  0.3254 -0.0630  0.1718
  973SOL    HW114555   0.453   1.668  13.937 -1.1331 -0.7292  0.6023
  973SOL    HW214556   0.433   1.787  13.861  0.6622 -0.2319  1.2600
  974SOL     OW14557   3.478   2.758  12.689 -0.5373  0.1426  0.0638
  974SOL    HW114558   3.480   2.765  12.785 -0.3576 -1.7001  0.1892
  974SOL    HW214559   3.466   2.846  12.655  0.4121  0.7907  1.4031
  975SOL     OW14560   1.799   1.096   2.270  0.3722  0.9098 -0.3937
  975SOL    HW114561   1.792   1.084   2.176 -0.7111  0.2713 -0.2313
  975SOL    HW214562   1.761   1.184   2.273  0.9002  1.0839  1.5100
  976SOL     OW14563   3.762   2.937   3.780 -0.4323 -0.0584 -0.1453
  976SOL    HW114564   3.697   2.991   3.736 -3.0191 -1.2753  2.2622
  976SOL    HW214565   3.722   2.850   3.789  2.0498 -1.1029  0.8114
  977SOL     OW14566   1.458   3.219  11.171 -0.0786  0.1966 -0.3859
  977SOL    HW114567   1.374   3.257  11.196 -0.1775 -0.7748  0.7831
  977SOL    HW214568   1.420   3.167  11.100 -0.6850 -2.0447  1.5761
  978SOL     OW14569   1.293   1.018  13.529  0.6603 -0.3315  0.7059
  978SOL    HW114570   1.212   1.000  13.481  0.5573  0.9444  0.3914
  978SOL    HW214571   1.348   0.970  13.468 -1.4848  0.9018 -2.1892
  979SOL     OW14572   4.283   2.448   2.049 -0.3551 -0.2640 -0.1652
  979SOL    HW114573   4.253   2.495   1.972  0.8055  0.3679 -0.2391
  979SOL    HW214574   4.331   2.374   2.013 -1.1434  0.3104 -2.3985
  980SOL     OW14575   0.620   2.956   2.507 -0.3497 -0.2950 -1.3466
  980SOL    HW114576   0.591   2.980   2.595  0.9799 -0.2984 -0.9142
  980SOL    HW214577   0.563   3.002   2.445 -2.6179  0.7292  1.5082
  981SOL     OW14578   1.906   3.986   5.144  0.3138  0.0794 -0.4053
  981SOL    HW114579   1.959   3.938   5.081  0.0019 -0.1259 -0.5098
  981SOL    HW214580   1.887   4.067   5.096  0.0479 -0.1310 -0.6567
  982SOL     OW14581   1.324   0.225   0.301  0.7576 -0.6022  0.1848
  982SOL    HW114582   1.407   0.241   0.347  0.4921  1.9222 -0.2132
  982SOL    HW214583   1.343   0.273   0.221 -0.0476 -1.4154 -0.4857
  983SOL     OW14584   1.779   2.278   8.184  0.1896  0.3927  0.1426
  983SOL    HW114585   1.812   2.345   8.244  0.5106 -0.5535  1.0230
  983SOL    HW214586   1.812   2.318   8.103  0.3057 -1.0947 -0.5447
  984SOL     OW14587   4.161   1.585   4.885  0.9435  0.0884  0.0705
  984SOL    HW114588   4.150   1.600   4.979 -2.0035 -0.7384 -0.1289
  984SOL    HW214589   4.184   1.492   4.887 -1.7368 -0.5922 -0.2605
  985SOL     OW14590   1.504   3.812   8.159  0.2357 -0.4620  0.2063
  985SOL    HW114591   1.471   3.827   8.071 -0.3782 -1.0058  0.3406
  985SOL    HW214592   1.533   3.721   8.155 -0.9905 -0.8252 -0.5941
  986SOL     OW14593   0.563   1.764  13.605 -0.2657  0.0310 -0.7314
  986SOL    HW114594   0.611   1.815  13.670  1.1985 -2.7076  0.3411
  986SOL    HW214595   0.632   1.749  13.540  2.6306  0.9772  2.1354
  987SOL     OW14596   1.261   2.290   7.122 -0.4882 -0.2897 -0.5175
  987SOL    HW114597   1.171   2.302   7.152  0.5307  4.6464  0.6262
  987SOL    HW214598   1.251   2.225   7.053 -2.2980 -3.2814  2.5871
  988SOL     OW14599   4.416   0.714   8.066  0.1539  0.2250  0.5190
  988SOL    HW114600   4.350   0.782   8.048 -0.6304 -0.6001  0.2564
  988SOL    HW214601   4.459   0.711   7.981  0.7802 -0.2832  0.8625
  989SOL     OW14602   4.143   0.959   7.449  0.2448 -0.4526 -0.4289
  989SOL    HW114603   4.219   0.990   7.400  1.9683  0.2015  2.6540
  989SOL    HW214604   4.182   0.942   7.535  0.1597  1.4301 -0.0240
  990SOL     OW14605   4.170   0.796   2.710  0.0929  0.5049 -0.0798
  990SOL    HW114606   4.178   0.805   2.615 -1.5843  2.3195 -0.0389
  990SOL    HW214607   4.263   0.782   2.727 -0.3430  0.3532  2.1934
  991SOL     OW14608   1.511   2.800  15.386  0.0977 -0.7121 -0.0513
  991SOL    HW114609   1.560   2.783  15.306  1.9614  1.1083  0.7043
  991SOL    HW214610   1.430   2.763  15.352  0.3806 -1.8025  0.4563
  992SOL     OW14611   4.279   3.203  14.297  0.1933  0.3409 -0.1092
  992SOL    HW114612   4.251   3.245  14.379 -2.8247 -0.8507 -0.5191
  992SOL    HW214613   4.328   3.130  14.333  0.5363 -0.1388 -1.5744
  993SOL     OW14614   0.426   3.857   7.793 -0.6773  0.1740 -0.1012
  993SOL    HW114615   0.346   3.837   7.745 -0.8204  1.8860 -0.5838
  993SOL    HW214616   0.411   3.948   7.817  1.9393  0.0981  1.8107
  994SOL     OW14617   3.032   3.247   8.053 -0.1143 -0.1996 -0.0798
  994SOL    HW114618   3.127   3.233   8.055 -0.1132 -0.2460 -0.4019
  994SOL    HW214619   3.034   3.318   8.117 -0.6036  0.1567 -0.4637
  995SOL     OW14620   1.854   0.862  15.576 -0.5748 -0.1603 -0.1744
  995SOL    HW114621   1.830   0.769  15.574  2.5951 -0.9779 -0.1210
  995SOL    HW214622   1.793   0.891  15.508 -0.5729 -0.8280 -0.4655
  996SOL     OW14623   4.330   3.678   6.321  0.2887  0.1213  0.0362
  996SOL    HW114624   4.287   3.718   6.397 -0.6385 -1.3862  0.3030
  996SOL    HW214625   4.421   3.701   6.338  1.1024 -1.3296 -2.3094
  997SOL     OW14626   3.108   2.114   4.967  0.4768  0.5296  0.0027
  997SOL    HW114627   3.177   2.176   4.946  0.8757 -0.0619 -0.4111
  997SOL    HW214628   3.032   2.173   4.962 -0.8924 -1.2104  0.0156
  998SOL     OW14629   4.199   1.206   3.004 -0.1575  0.1189  0.0618
  998SOL    HW114630   4.289   1.182   2.979 -0.2250  1.3184 -1.3263
  998SOL    HW214631   4.190   1.288   2.956  2.0736  0.3442 -0.0118
  999SOL     OW14632   4.597   3.139   9.045  0.0374  0.0703  0.2160
  999SOL    HW114633   4.677   3.104   9.084 -0.2383  0.1446  0.8416
  999SOL    HW214634   4.534   3.151   9.116 -1.4584 -1.4146 -0.8404
 1000SOL     OW14635   0.727   2.566  14.571  0.5664 -0.1549 -0.6898
 1000SOL    HW114636   0.766   2.653  14.578  0.5514 -0.1038 -1.2494
 1000SOL    HW214637   0.651   2.583  14.626  2.1651 -1.1900  1.8242
 1001SOL     OW14638   1.546   2.401   6.802 -0.0798  0.1697 -0.5140
 1001SOL    HW114639   1.549   2.465   6.731 -1.9908  1.1892  0.3197
 1001SOL    HW214640   1.521   2.327   6.746  1.7292 -0.8758  0.0503
 1002SOL     OW14641   0.844   0.654   3.238 -0.2698 -0.1245  0.4166
 1002SOL    HW114642   0.893   0.728   3.273 -0.6669  0.8611 -1.0919
 1002SOL    HW214643   0.891   0.578   3.272  0.4456  0.4651  0.7368
 1003SOL     OW14644   3.375   2.659   7.738 -0.0460  0.1027  0.2265
 1003SOL    HW114645   3.413   2.676   7.651 -1.0839  2.6761  0.2626
 1003SOL    HW214646   3.359   2.565   7.736 -0.7560  0.2264 -0.3724
 1004SOL     OW14647   3.794   3.857  10.879  0.0039 -0.0344 -0.3914
 1004SOL    HW114648   3.889   3.846  10.883  0.0983  0.1274 -2.2081
 1004SOL    HW214649   3.770   3.857  10.972  2.4100 -1.1113  0.2368
 1005SOL     OW14650   1.044   1.459   4.193 -0.4549  0.1327 -0.1437
 1005SOL    HW114651   1.066   1.368   4.213 -2.1260 -0.7768 -2.4703
 1005SOL    HW214652   1.005   1.452   4.106 -2.0445 -1.3787  0.6942
 1006SOL     OW14653   3.904   0.428   3.414  0.3792  0.5783  0.3764
 1006SOL    HW114654   3.867   0.485   3.347 -0.9904  0.6879  1.2396
 1006SOL    HW214655   3.877   0.338   3.396  0.0673  0.7977 -0.2269
 1007SOL     OW14656   1.918   4.079   6.613  0.6951 -0.2401 -0.2096
 1007SOL    HW114657   1.896   3.998   6.659  1.2974  0.0228  0.5491
 1007SOL    HW214658   2.000   4.057   6.568  1.0969  0.6715  0.0747
 1008SOL     OW14659   4.126   1.873  15.712 -0.1113 -0.4122 -0.3874
 1008SOL    HW114660   4.215   1.892  15.740 -0.4938  1.6798 -0.5859
 1008SOL    HW214661   4.079   1.913  15.785  1.5231  1.0192 -0.1204
 1009SOL     OW14662   2.486   0.939  11.152 -0.5248  0.2293 -0.6277
 1009SOL    HW114663   2.577   0.938  11.181 -0.5780 -0.4127 -0.4933
 1009SOL    HW214664   2.462   1.029  11.174  2.4071  1.1467 -1.1630
 1010SOL     OW14665   0.408   4.207  15.302 -0.2568  0.0298 -0.4720
 1010SOL    HW114666   0.350   4.278  15.330  1.3501  0.8098  0.8501
 1010SOL    HW214667   0.423   4.161  15.384  0.6553 -1.3127 -1.3767
 1011SOL     OW14668   0.473   3.477   4.345  0.2736 -0.2600  0.3403
 1011SOL    HW114669   0.408   3.521   4.400  1.0258  2.3356 -0.8344
 1011SOL    HW214670   0.456   3.388   4.375 -1.9953  0.1675  0.3327
 1012SOL     OW14671   1.403   3.407   6.879  0.5817 -0.1233 -0.6653
 1012SOL    HW114672   1.386   3.418   6.785  0.3006 -0.6182 -0.6752
 1012SOL    HW214673   1.361   3.488   6.909 -0.8984 -1.5905  1.2347
 1013SOL     OW14674   0.936   2.413   4.820 -0.0287 -0.2957 -0.1861
 1013SOL    HW114675   0.998   2.345   4.791 -0.7537 -0.9900 -0.1310
 1013SOL    HW214676   0.863   2.350   4.822 -1.3892  1.2950 -0.1973
 1014SOL     OW14677   3.354   3.192   6.441  0.1823  0.0468  0.0829
 1014SOL    HW114678   3.355   3.285   6.419  1.1188  0.8419  3.5721
 1014SOL    HW214679   3.261   3.189   6.463 -0.6339  0.1150 -3.2878
 1015SOL     OW14680   2.062   2.304   2.135  0.3982  0.5109  0.6293
 1015SOL    HW114681   2.005   2.227   2.127  0.4818  0.6342 -1.1324
 1015SOL    HW214682   2.041   2.358   2.059  0.8147 -0.6341 -0.3028
 1016SOL     OW14683   3.783   2.713   2.082 -0.2118  0.4813  0.2607
 1016SOL    HW114684   3.874   2.686   2.077 -0.6942 -1.2842  0.9083
 1016SOL    HW214685   3.802   2.806   2.094 -1.5965  0.7445  0.4494
 1017SOL     OW14686   1.555   2.226   7.924  0.2832  0.1064 -0.4346
 1017SOL    HW114687   1.640   2.183   7.917 -0.5873 -2.0661  2.4566
 1017SOL    HW214688   1.513   2.201   7.842 -1.8374 -0.8477  0.9557
 1018SOL     OW14689   3.993   2.599   0.570  0.0728  0.0408  0.2914
 1018SOL    HW114690   3.903   2.597   0.537 -0.1360 -0.5940  0.9052
 1018SOL    HW214691   3.989   2.685   0.614 -2.8636  0.3239 -0.5191
 1019SOL     OW14692   1.562   2.351  16.065 -0.1444  0.0788 -0.3480
 1019SOL    HW114693   1.633   2.288  16.076 -1.3117 -0.9910  1.1522
 1019SOL    HW214694   1.485   2.294  16.073 -0.1503  0.1061 -0.2032
 1020SOL     OW14695   4.069   3.196   1.479 -0.2336 -0.2818 -0.1649
 1020SOL    HW114696   4.089   3.215   1.387 -0.7871 -1.4097 -0.5241
 1020SOL    HW214697   4.151   3.226   1.518 -0.6297  1.1099 -0.4032
 1021SOL     OW14698   2.621   4.385   5.950  0.1447 -0.2416  0.1929
 1021SOL    HW114699   2.696   4.414   5.899 -0.4152 -0.5013 -0.7751
 1021SOL    HW214700   2.606   4.455   6.014 -0.7355 -0.7099  0.5026
 1022SOL     OW14701   3.714   1.619   2.944 -0.3647 -0.4316 -0.4512
 1022SOL    HW114702   3.734   1.711   2.961  2.1948 -1.2233  0.8363
 1022SOL    HW214703   3.785   1.615   2.880  0.5410 -0.7460  0.5758
 1023SOL     OW14704   3.631   4.288   9.306  0.4138  0.0829  0.3654
 1023SOL    HW114705   3.682   4.258   9.381 -2.2559 -2.1810  1.2697
 1023SOL    HW214706   3.654   4.381   9.303  0.3926  0.0802  0.1336
 1024SOL     OW14707   1.848   0.377  15.129  0.1528  0.1617 -0.0782
 1024SOL    HW114708   1.756   0.367  15.107  0.0442  1.1092 -0.0744
 1024SOL    HW214709   1.864   0.307  15.192  0.8775  0.6863  0.3225
 1025SOL     OW14710   0.159   0.839   5.817 -0.6490  0.0831  0.2452
 1025SOL    HW114711   0.085   0.870   5.870 -0.3522 -2.6600  2.2939
 1025SOL    HW214712   0.236   0.884   5.851  0.1338 -0.5217 -0.7279
 1026SOL     OW14713   0.560   4.110   7.332 -0.4390  0.2322  0.1067
 1026SOL    HW114714   0.566   4.196   7.373 -0.1308  0.6509 -0.8200
 1026SOL    HW214715   0.524   4.058   7.403 -2.3152 -0.9364 -1.6891
 1027SOL     OW14716   0.208   2.193   8.486 -0.1261 -0.4103 -0.0023
 1027SOL    HW114717   0.251   2.275   8.461 -2.2621  0.3572 -1.1309
 1027SOL    HW214718   0.167   2.218   8.569  0.6006 -1.9745  0.8281
 1028SOL     OW14719   4.665   0.425   6.132 -0.3564 -0.3044  0.4237
 1028SOL    HW114720   4.699   0.512   6.154 -0.0572 -0.5368  0.8685
 1028SOL    HW214721   4.725   0.395   6.065 -0.6780  0.4703 -0.2115
 1029SOL     OW14722   3.147   1.408  15.012 -0.4382 -0.3033  0.0602
 1029SOL    HW114723   3.088   1.371  15.078  1.3057  0.4713  2.0298
 1029SOL    HW214724   3.209   1.335  15.011  0.0460  0.0315  3.4337
 1030SOL     OW14725   2.727   1.779  10.418 -0.2593  0.0447 -0.0812
 1030SOL    HW114726   2.801   1.835  10.443 -1.0409 -0.7698  4.1633
 1030SOL    HW214727   2.752   1.691  10.446  0.0723  0.5227  1.1308
 1031SOL     OW14728   1.550   2.361  14.188 -0.0058 -0.4810 -0.1973
 1031SOL    HW114729   1.579   2.314  14.110 -0.2481  1.4093 -1.4319
 1031SOL    HW214730   1.535   2.289  14.248  1.9563 -0.4680  0.3148
 1032SOL     OW14731   2.897   3.559   3.614 -0.3843  1.1657 -0.1684
 1032SOL    HW114732   2.939   3.485   3.571  1.3271  1.5375  0.8471
 1032SOL    HW214733   2.820   3.568   3.559 -1.2375  1.5348  1.0831
 1033SOL     OW14734   0.023   4.004   8.040 -0.2260  0.3256 -0.7786
 1033SOL    HW114735   4.692   4.007   8.106 -1.4065 -1.2819 -1.9203
 1033SOL    HW214736   4.727   4.075   7.986 -1.8419  1.5289  1.8239
 1034SOL     OW14737   3.918   0.573   4.565 -0.3340  0.3018 -0.7912
 1034SOL    HW114738   3.888   0.582   4.474 -1.3082 -0.3104 -0.5360
 1034SOL    HW214739   3.998   0.521   4.559 -1.0036 -0.5065 -2.9938
 1035SOL     OW14740   0.280   0.828   1.734  0.5147  0.5453  0.3906
 1035SOL    HW114741   0.331   0.755   1.697 -2.2117 -0.5045 -1.3070
 1035SOL    HW214742   0.318   0.821   1.822 -2.1565  2.8013  1.6945
 1036SOL     OW14743   2.542   2.507   4.346  0.4341 -0.2072 -0.0365
 1036SOL    HW114744   2.591   2.585   4.322 -0.7757  0.0189 -1.7972
 1036SOL    HW214745   2.600   2.462   4.407  0.3645 -0.8516 -0.4385
 1037SOL     OW14746   0.465   0.201  11.536 -0.1941  0.2670 -0.3427
 1037SOL    HW114747   0.456   0.135  11.604 -1.3634  0.6421 -0.1314
 1037SOL    HW214748   0.447   0.274  11.596  0.7314  0.2098 -0.0029
 1038SOL     OW14749   0.925   3.929   6.079 -0.1290 -0.0416  0.4397
 1038SOL    HW114750   0.853   3.875   6.110  0.5541 -0.4234  1.3675
 1038SOL    HW214751   0.987   3.935   6.152 -1.8561  0.6118  1.8719
 1039SOL     OW14752   3.973   0.412   6.815 -0.2489  0.7873  0.2398
 1039SOL    HW114753   4.007   0.428   6.726  1.8558 -0.6416  0.7798
 1039SOL    HW214754   3.994   0.319   6.819 -0.2045  0.6711 -2.2108
 1040SOL     OW14755   3.900   2.661   8.987 -0.3911  0.1347 -0.2205
 1040SOL    HW114756   3.882   2.739   9.040  2.4010 -0.0612  0.9603
 1040SOL    HW214757   3.942   2.602   9.049  1.0184  3.2906  1.8188
 1041SOL     OW14758   3.532   0.494  11.454  0.0545  0.1550  0.4454
 1041SOL    HW114759   3.474   0.514  11.381  3.3821  1.8739 -1.6960
 1041SOL    HW214760   3.550   0.402  11.437 -3.3196 -0.5105  0.3474
 1042SOL     OW14761   1.765   2.119   5.012 -0.0541 -0.3053 -1.0553
 1042SOL    HW114762   1.696   2.103   4.948 -0.8195  0.1603 -0.3536
 1042SOL    HW214763   1.724   2.089   5.093  2.3637  0.6557  0.5349
 1043SOL     OW14764   2.427   3.828  10.473 -0.2238  0.1088  0.0888
 1043SOL    HW114765   2.472   3.892  10.528 -1.4115  1.0804 -0.0566
 1043SOL    HW214766   2.338   3.861  10.467 -0.6736 -1.4066 -1.5862
 1044SOL     OW14767   3.726   0.529  16.631 -0.1785  0.3461 -0.2101
 1044SOL    HW114768   3.631   0.537  16.618 -0.3069  1.3087  1.3628
 1044SOL    HW214769   3.762   0.563  16.549 -1.5137  0.5356 -0.7098
 1045SOL     OW14770   1.946   0.120   0.169  0.3672  0.2247  0.3382
 1045SOL    HW114771   1.877   0.185   0.155  0.8666  0.6924  0.0640
 1045SOL    HW214772   1.915   0.051   0.111  0.9477  1.0495 -0.9447
 1046SOL     OW14773   2.282   0.379  13.619 -0.1807 -0.2560 -0.4057
 1046SOL    HW114774   2.232   0.332  13.686  2.2644 -0.6177  1.1592
 1046SOL    HW214775   2.309   0.303  13.568 -0.5361 -0.2877 -0.5528
 1047SOL     OW14776   3.358   1.334   7.290  0.0221 -0.7177 -0.1368
 1047SOL    HW114777   3.293   1.313   7.222 -0.3550  2.8468 -0.8786
 1047SOL    HW214778   3.414   1.257   7.287  0.8609 -0.0463 -1.5395
 1048SOL     OW14779   0.364   0.247   4.060  0.4893 -0.4043  0.1949
 1048SOL    HW114780   0.311   0.167   4.056 -1.6360  1.0165 -0.2182
 1048SOL    HW214781   0.437   0.219   4.116 -0.5103 -0.3332  1.5567
 1049SOL     OW14782   4.314   4.243   4.280 -0.1586 -0.4997 -0.1893
 1049SOL    HW114783   4.293   4.150   4.267  0.3233 -0.5428 -0.6650
 1049SOL    HW214784   4.272   4.263   4.363  2.9011 -1.5163  1.6026
 1050SOL     OW14785   3.636   3.232   0.721 -0.0188  0.0943  0.2763
 1050SOL    HW114786   3.701   3.298   0.696 -0.4643  0.5386  0.2736
 1050SOL    HW214787   3.693   3.160   0.747  2.3295  2.2883  1.2488
 1051SOL     OW14788   1.400   3.381   0.653 -0.1378  0.1180  0.0224
 1051SOL    HW114789   1.342   3.447   0.616 -0.9966  0.9110  2.7676
 1051SOL    HW214790   1.345   3.320   0.702 -2.2757  0.9514 -1.3535
 1052SOL     OW14791   0.678   1.866  16.559 -1.2383  0.5209 -0.1519
 1052SOL    HW114792   0.695   1.818  16.640  0.6134  1.9303  0.2885
 1052SOL    HW214793   0.755   1.839  16.509  0.2261  0.7372  2.0162
 1053SOL     OW14794   4.203   0.873   2.974 -0.2005  0.3460 -0.1600
 1053SOL    HW114795   4.198   0.778   2.982 -0.5057  0.0818 -3.3306
 1053SOL    HW214796   4.151   0.887   2.894 -0.5409 -0.6475 -0.1105
 1054SOL     OW14797   2.758   4.388   4.337  0.5037 -0.3363  0.6196
 1054SOL    HW114798   2.682   4.332   4.325  0.8856 -0.7899  0.3234
 1054SOL    HW214799   2.764   4.415   4.245  0.3758 -1.0735  0.3968
 1055SOL     OW14800   3.749   4.654   1.656 -0.0976  0.0974 -0.4423
 1055SOL    HW114801   3.662   4.637   1.621 -0.7288  1.1029  0.6540
 1055SOL    HW214802   3.744   0.009   1.678 -1.7855 -0.5232  1.7299
 1056SOL     OW14803   1.334   0.062   3.018  0.1799  0.1461  0.3209
 1056SOL    HW114804   1.320   0.077   3.112 -2.9333 -1.7478  0.1933
 1056SOL    HW214805   1.247   0.093   2.993  0.3667  0.5439  0.1820
 1057SOL     OW14806   0.348   0.610   7.931  0.5081  0.0146  0.4216
 1057SOL    HW114807   0.269   0.577   7.973  0.7285 -0.2773  0.6020
 1057SOL    HW214808   0.400   0.644   8.003 -1.8664  2.4863  0.9566
 1058SOL     OW14809   4.528   2.726   8.504  0.7103 -0.6185  0.0055
 1058SOL    HW114810   4.471   2.677   8.563  2.3735 -4.6695 -1.7416
 1058SOL    HW214811   4.520   2.664   8.432 -4.1709 -1.7828  1.5731
 1059SOL     OW14812   3.063   0.377  17.027 -0.8386 -0.2358  0.7587
 1059SOL    HW114813   3.040   0.340  17.112 -0.0936 -2.1480  0.1358
 1059SOL    HW214814   3.030   0.309  16.968 -0.5854  1.2353 -1.0716
 1060SOL     OW14815   4.651   3.779   3.598 -0.0205  0.2280  0.6865
 1060SOL    HW114816   4.695   3.723   3.662 -0.2757 -1.2590 -0.4392
 1060SOL    HW214817   4.581   3.819   3.648 -1.5622  0.3483 -1.5758
 1061SOL     OW14818   0.930   0.099   5.319 -0.0580 -0.1292  0.2940
 1061SOL    HW114819   0.957   0.026   5.375 -0.0861 -0.8170 -0.5905
 1061SOL    HW214820   1.012   0.125   5.276 -0.9057  1.1740 -0.5111
 1062SOL     OW14821   1.038   1.182   7.893 -0.0088  0.5552 -0.0977
 1062SOL    HW114822   1.006   1.266   7.860  1.2034  1.3516  0.7521
 1062SOL    HW214823   1.126   1.176   7.855 -0.7499 -2.9334 -1.2920
 1063SOL     OW14824   2.812   0.422  12.690  0.0445 -0.0395 -0.1715
 1063SOL    HW114825   2.722   0.405  12.720  0.7692 -1.5015  1.1635
 1063SOL    HW214826   2.863   0.366  12.748 -1.3915  1.0994  2.2089
 1064SOL     OW14827   2.787   0.741   8.090  0.1135 -0.1244  0.1436
 1064SOL    HW114828   2.756   0.746   8.000  2.4901  0.0021 -0.6828
 1064SOL    HW214829   2.875   0.703   8.081  0.6886  0.9986  0.9224
 1065SOL     OW14830   2.388   1.573  15.049 -0.1921 -0.3148 -0.8366
 1065SOL    HW114831   2.375   1.668  15.054  0.0956 -0.2434 -1.3915
 1065SOL    HW214832   2.470   1.575  15.099 -0.0448  2.1930 -1.1926
 1066SOL     OW14833   3.935   2.303  13.096 -0.0324 -0.4897  0.1683
 1066SOL    HW114834   3.859   2.258  13.133  0.2130  0.3547  1.6798
 1066SOL    HW214835   3.920   2.395  13.115  2.0771 -0.4007  1.3433
 1067SOL     OW14836   4.022   4.685  17.747 -0.1396  0.2018 -0.0182
 1067SOL    HW114837   4.118   4.686   0.003 -0.2388  0.8702  1.3380
 1067SOL    HW214838   4.014   4.591   0.016 -1.0458  0.3806  0.4436
 1068SOL     OW14839   0.823   3.095   4.163  0.2996  0.4792  0.2405
 1068SOL    HW114840   0.919   3.098   4.154  0.3878  0.7756  1.3112
 1068SOL    HW214841   0.795   3.176   4.206  2.8097  0.9703  0.9597
 1069SOL     OW14842   4.336   2.519  14.560 -0.4071 -0.0876 -0.1523
 1069SOL    HW114843   4.294   2.605  14.557  0.7365  0.5395  1.5991
 1069SOL    HW214844   4.263   2.470  14.525 -1.9464 -0.4971  3.5903
 1070SOL     OW14845   1.061   0.680   7.241  0.3230 -0.1563 -0.4819
 1070SOL    HW114846   1.076   0.594   7.202 -0.1691 -1.2762  1.7938
 1070SOL    HW214847   1.011   0.724   7.173  0.1119 -0.1623 -0.3319
 1071SOL     OW14848   3.401   0.332   8.107  0.3097 -0.0999 -0.0260
 1071SOL    HW114849   3.389   0.290   8.193  0.7124 -1.2610 -0.5343
 1071SOL    HW214850   3.332   0.395   8.127 -0.7324 -0.6775 -1.8622
 1072SOL     OW14851   0.394   1.762   7.986 -0.1229  0.2049  0.5556
 1072SOL    HW114852   0.303   1.752   7.957  0.6344 -0.1215 -1.7127
 1072SOL    HW214853   0.405   1.857   7.984  2.6009 -0.1288  0.0409
 1073SOL     OW14854   4.516   4.409   6.786 -0.5082  0.3791  0.2122
 1073SOL    HW114855   4.503   4.350   6.711 -1.9026  0.1440  0.6423
 1073SOL    HW214856   4.612   4.410   6.792 -0.6375  3.9400  2.0030
 1074SOL     OW14857   3.978   3.664   1.824 -0.1228  0.4936 -0.5698
 1074SOL    HW114858   3.922   3.609   1.879 -2.2743  2.5578 -0.6877
 1074SOL    HW214859   3.946   3.751   1.849 -0.5630 -0.2303  1.3663
 1075SOL     OW14860   1.143   0.255   4.437  0.3491 -0.6813  0.4174
 1075SOL    HW114861   1.072   0.314   4.466  1.6586  1.1593 -0.1177
 1075SOL    HW214862   1.173   0.307   4.362 -2.1803 -1.8072 -1.3780
 1076SOL     OW14863   1.550   0.316  15.085  0.5984  0.4197 -0.2615
 1076SOL    HW114864   1.527   0.251  15.152  0.0699 -0.2691 -1.1070
 1076SOL    HW214865   1.516   0.279  15.004  1.9064 -1.3431 -0.0115
 1077SOL     OW14866   0.662   0.602   7.159  0.4186  0.0104  0.4698
 1077SOL    HW114867   0.689   0.517   7.124 -1.6741 -0.1190 -0.8866
 1077SOL    HW214868   0.643   0.661   7.086 -2.0902  0.0808  1.1498
 1078SOL     OW14869   1.407   3.584   5.099 -0.9731  0.0002  0.4181
 1078SOL    HW114870   1.394   3.653   5.164 -0.7781  2.4777 -2.1689
 1078SOL    HW214871   1.360   3.513   5.143 -0.7284 -0.6993 -0.4560
 1079SOL     OW14872   4.587   0.367   3.685  0.1627 -0.1567 -0.6131
 1079SOL    HW114873   4.662   0.421   3.661  0.1032  1.1825  2.2650
 1079SOL    HW214874   4.579   0.308   3.610  0.4954 -1.3126  0.2563
 1080SOL     OW14875   3.915   3.502  11.872 -0.5456 -0.6005  0.4791
 1080SOL    HW114876   3.956   3.437  11.815  1.1492  0.5013  0.4415
 1080SOL    HW214877   3.843   3.540  11.822  1.0792 -0.0233 -1.4183
 1081SOL     OW14878   1.392   3.179  16.011 -0.5510 -0.1066 -0.9766
 1081SOL    HW114879   1.478   3.181  15.969 -0.1450 -0.4793 -0.1681
 1081SOL    HW214880   1.401   3.093  16.050 -0.3025  1.2455  1.9443
 1082SOL     OW14881   3.299   2.332  11.501 -0.0532  0.6338  0.2676
 1082SOL    HW114882   3.212   2.370  11.489 -0.9986 -1.5880  0.0722
 1082SOL    HW214883   3.273   2.263  11.562 -2.2076  0.9620 -0.2709
 1083SOL     OW14884   2.936   0.845   7.433  0.1999 -0.1552  0.1473
 1083SOL    HW114885   2.950   0.888   7.349  2.5105 -1.4971 -0.1760
 1083SOL    HW214886   2.847   0.814   7.417  0.0060  2.0986 -3.0027
 1084SOL     OW14887   4.226   4.470   2.367 -0.1112  0.0412 -0.0055
 1084SOL    HW114888   4.252   4.391   2.413 -0.4481  1.0833  1.9802
 1084SOL    HW214889   4.154   4.445   2.309 -0.6204 -2.7392  1.8479
 1085SOL     OW14890   3.031   3.258   5.427  0.2285  0.4511  0.1594
 1085SOL    HW114891   3.089   3.316   5.378  0.4439 -0.9361 -1.2444
 1085SOL    HW214892   3.079   3.262   5.509  0.8950 -3.3021 -0.0451
 1086SOL     OW14893   0.763   1.060   4.759  0.1348  0.9429  0.2729
 1086SOL    HW114894   0.794   0.978   4.721 -1.3468  0.6823 -0.3755
 1086SOL    HW214895   0.834   1.081   4.820 -0.4414  1.8740  0.6111
 1087SOL     OW14896   2.122   0.858  12.231 -0.5304  0.3209 -1.0225
 1087SOL    HW114897   2.026   0.861  12.229 -0.5702  0.5731  2.9835
 1087SOL    HW214898   2.142   0.872  12.323 -2.2108 -1.4564 -0.3887
 1088SOL     OW14899   0.172   1.580   8.609 -0.0534 -0.3318  0.0303
 1088SOL    HW114900   0.086   1.542   8.624 -0.6678  0.7051 -0.9148
 1088SOL    HW214901   0.155   1.633   8.531 -1.6191 -2.2959 -0.9866
 1089SOL     OW14902   2.370   0.775   2.446 -0.5266 -0.4626 -0.6028
 1089SOL    HW114903   2.454   0.732   2.428 -0.8110 -0.2316 -2.4441
 1089SOL    HW214904   2.309   0.709   2.411 -0.9929 -1.0899  1.3714
 1090SOL     OW14905   0.688   0.980   5.743 -0.0605 -0.1809 -1.0346
 1090SOL    HW114906   0.774   0.939   5.745  0.2401  0.5600  1.2524
 1090SOL    HW214907   0.692   1.022   5.657 -3.0907 -1.7103 -1.9319
 1091SOL     OW14908   2.661   3.503  14.405  0.6182  0.5669  0.2539
 1091SOL    HW114909   2.571   3.520  14.376  0.9520  0.5522 -0.8034
 1091SOL    HW214910   2.667   3.413  14.374  0.3402  0.0756  1.6278
 1092SOL     OW14911   0.283   3.630  12.095 -0.2417 -0.0019  0.4250
 1092SOL    HW114912   0.234   3.641  12.176 -1.0975  0.6291 -0.1814
 1092SOL    HW214913   0.341   3.555  12.107 -0.7273 -0.5620 -0.7263
 1093SOL     OW14914   2.420   2.915   6.209 -0.6860 -0.0081 -0.2254
 1093SOL    HW114915   2.476   2.984   6.174 -1.1544  0.6478  0.3235
 1093SOL    HW214916   2.402   2.946   6.297 -0.7099  0.0159 -0.2389
 1094SOL     OW14917   3.732   1.057   1.859  0.7101 -0.3135  0.2591
 1094SOL    HW114918   3.811   1.006   1.844  0.5276 -0.2393 -0.9379
 1094SOL    HW214919   3.690   1.068   1.774 -0.0531 -1.3619  0.4946
 1095SOL     OW14920   0.552   3.980   7.097 -0.4522  0.0933  0.2696
 1095SOL    HW114921   0.632   3.928   7.097  0.8384  2.0937 -0.9056
 1095SOL    HW214922   0.563   4.038   7.172 -3.7689  0.0523  0.8080
 1096SOL     OW14923   1.233   4.735  15.271  0.8039 -0.6058  0.2163
 1096SOL    HW114924   1.171   4.665  15.290  0.0581  0.5617  2.1141
 1096SOL    HW214925   1.317   4.695  15.290 -0.6971 -3.8057  0.0833
 1097SOL     OW14926   4.357   2.685   2.354 -0.0068  0.8543 -0.0469
 1097SOL    HW114927   4.299   2.716   2.284  0.9153  1.9716 -0.3205
 1097SOL    HW214928   4.400   2.770   2.369 -2.1661  1.6720  1.5829
 1098SOL     OW14929   4.661   4.093   5.676  0.3983 -0.0691 -0.0389
 1098SOL    HW114930   4.689   4.182   5.657 -2.5416  0.4707 -1.9558
 1098SOL    HW214931   4.700   4.044   5.603 -0.7054  1.0295 -1.3631
 1099SOL     OW14932   2.974   2.957   8.052  0.3436  0.3688 -0.2122
 1099SOL    HW114933   2.881   2.945   8.033  0.1180 -0.3827  1.3785
 1099SOL    HW214934   2.967   3.043   8.093  1.1858  0.5878 -0.5330
 1100SOL     OW14935   1.126   1.102  17.492  0.2038  0.3489 -0.4588
 1100SOL    HW114936   1.167   1.019  17.469  0.6434  0.2867  0.5484
 1100SOL    HW214937   1.206   1.150  17.513 -1.4532  3.3030 -0.8753
 1101SOL     OW14938   1.638   1.583   2.709 -0.3571 -0.4252  0.1662
 1101SOL    HW114939   1.565   1.601   2.769  0.8555  1.2665  1.1363
 1101SOL    HW214940   1.714   1.595   2.765  0.3289 -0.3619 -0.7781
 1102SOL     OW14941   0.680   1.169   7.344 -0.1802 -0.5320  0.0311
 1102SOL    HW114942   0.767   1.173   7.305 -1.4333 -0.4562 -2.7489
 1102SOL    HW214943   0.703   1.122   7.425 -1.3169  1.7225  1.6688
 1103SOL     OW14944   3.848   0.398   8.383 -0.0873 -0.5318  0.2845
 1103SOL    HW114945   3.875   0.486   8.409 -0.4405 -0.2449 -0.3377
 1103SOL    HW214946   3.752   0.400   8.387 -0.1410 -1.8154 -0.4820
 1104SOL     OW14947   1.183   1.094   6.196 -0.1912 -0.1409 -0.2827
 1104SOL    HW114948   1.189   1.099   6.291 -1.1479  2.0597 -0.3389
 1104SOL    HW214949   1.132   1.013   6.193  0.7688 -0.7711  0.3473
 1105SOL     OW14950   4.732   2.114   5.640 -0.2495 -0.0160  0.1645
 1105SOL    HW114951   4.713   2.094   5.548 -3.6880 -2.3228  1.3794
 1105SOL    HW214952   0.089   2.122   5.631 -0.1577 -1.2023 -0.0134
 1106SOL     OW14953   2.598   1.054   6.251 -0.0934 -0.3609 -0.2142
 1106SOL    HW114954   2.533   1.124   6.258  0.2514 -0.0556 -0.0779
 1106SOL    HW214955   2.649   1.076   6.173  2.6747 -1.4149  1.3232
 1107SOL     OW14956   0.598   2.885  14.495  0.3433  0.4121 -0.2400
 1107SOL    HW114957   0.666   2.882  14.562  0.5544  1.0322 -0.4280
 1107SOL    HW214958   0.517   2.900  14.543 -0.0066  0.7229 -0.9172
 1108SOL     OW14959   2.596   3.904   6.948  0.5967 -0.6288  0.0799
 1108SOL    HW114960   2.551   3.988   6.935 -1.7795 -2.0638 -0.8052
 1108SOL    HW214961   2.552   3.854   6.880  2.4540 -0.3921 -1.2925
 1109SOL     OW14962   4.553   0.883   2.411 -0.5918 -0.1908 -0.2468
 1109SOL    HW114963   4.524   0.866   2.322 -0.4846 -2.4312  0.1465
 1109SOL    HW214964   4.644   0.855   2.403  0.0567  2.2837 -1.6812
 1110SOL     OW14965   0.055   3.841   4.416 -0.5762 -0.5402 -0.2639
 1110SOL    HW114966   4.703   3.835   4.447 -0.7286  2.5405 -0.1319
 1110SOL    HW214967   0.050   3.812   4.325 -0.4685 -1.0460 -0.1049
 1111SOL     OW14968   3.313   0.111   2.101 -0.4561 -0.2199 -0.1664
 1111SOL    HW114969   3.385   0.049   2.106 -0.3663 -0.0560  0.5763
 1111SOL    HW214970   3.334   0.164   2.178  0.4264  1.1746 -1.3694
 1112SOL     OW14971   2.608   2.626  14.847 -0.0986  0.9517 -0.3816
 1112SOL    HW114972   2.543   2.696  14.846  0.0060  1.0241 -2.2263
 1112SOL    HW214973   2.684   2.660  14.894 -0.0669  0.0833  0.1983
 1113SOL     OW14974   2.784   3.193   4.608 -0.1101  0.0645 -0.3951
 1113SOL    HW114975   2.696   3.155   4.599 -0.1668 -0.1285  0.9665
 1113SOL    HW214976   2.770   3.266   4.669 -0.8489  0.5734 -1.1655
 1114SOL     OW14977   0.745   2.779   5.104 -0.1036 -0.2800  0.2540
 1114SOL    HW114978   0.677   2.712   5.102 -0.7878  0.3352  2.5261
 1114SOL    HW214979   0.791   2.758   5.023 -0.5154  2.9076 -0.8132
 1115SOL     OW14980   2.382   1.589   3.831 -0.1430 -0.6965  0.1778
 1115SOL    HW114981   2.305   1.644   3.816  0.4062 -0.2827 -1.1345
 1115SOL    HW214982   2.456   1.640   3.797  0.2751 -1.0798  0.5016
 1116SOL     OW14983   1.277   2.325   5.136  0.2536 -0.0355 -0.3139
 1116SOL    HW114984   1.184   2.302   5.138 -0.0441  0.9779 -2.4405
 1116SOL    HW214985   1.322   2.299   5.216 -0.3986 -0.8607 -0.2218
 1117SOL     OW14986   2.630   2.226   2.323  0.4915 -0.2759  0.2096
 1117SOL    HW114987   2.571   2.196   2.392 -0.0729  2.0459  0.7655
 1117SOL    HW214988   2.604   2.173   2.248 -1.2230  0.3703  0.3641
 1118SOL     OW14989   1.025   2.777  16.831  0.4649  0.2864  0.2585
 1118SOL    HW114990   0.938   2.811  16.854  1.3388  2.4920  0.3277
 1118SOL    HW214991   1.014   2.682  16.835  0.5219  0.1234 -3.1434
 1119SOL     OW14992   2.457   3.779  13.239  0.3469  0.1738 -0.2814
 1119SOL    HW114993   2.537   3.760  13.191  0.2613  0.7207 -0.6355
 1119SOL    HW214994   2.392   3.784  13.170 -0.3947 -1.6076  0.3036
 1120SOL     OW14995   2.489   0.110   4.802  0.3996  0.6988  0.1751
 1120SOL    HW114996   2.572   0.152   4.781  0.2686  1.4883  1.2252
 1120SOL    HW214997   2.531   0.035   4.844  0.2812  1.0562  0.9413
 1121SOL     OW14998   3.771   2.430   6.313 -0.6234 -0.2606 -0.0070
 1121SOL    HW114999   3.827   2.499   6.277 -1.9239  1.7560  1.8431
 1121SOL    HW215000   3.735   2.475   6.389  1.6148  0.9118  0.3622
 1122SOL     OW15001   2.359   0.894   4.394 -0.8307  0.3409 -0.5912
 1122SOL    HW115002   2.379   0.816   4.342  1.6601  0.3281  0.3420
 1122SOL    HW215003   2.328   0.954   4.327  0.1269  2.6214  0.9966
 1123SOL     OW15004   0.973   2.083   4.943  0.5251 -0.0845 -0.8270
 1123SOL    HW115005   0.884   2.106   4.918 -0.6778 -1.0831  2.5398
 1123SOL    HW215006   0.956   1.990   4.961  0.3598  0.2986  1.0275
 1124SOL     OW15007   3.752   2.480  10.231  0.8522 -0.1418  0.0598
 1124SOL    HW115008   3.715   2.542  10.168  3.0620  0.6231 -0.5131
 1124SOL    HW215009   3.676   2.446  10.278  0.9144  0.7834  0.8396
 1125SOL     OW15010   3.584   0.014   4.529  0.4483  0.6501 -0.2739
 1125SOL    HW115011   3.560   4.719   4.615  0.4418 -0.6266 -0.7757
 1125SOL    HW215012   3.591   0.107   4.551 -0.1947  0.5409  0.4195
 1126SOL     OW15013   3.150   2.579  15.360 -0.1703 -0.1750  0.2941
 1126SOL    HW115014   3.177   2.516  15.293  2.4645  0.5479  0.6653
 1126SOL    HW215015   3.068   2.538  15.387  0.8293 -1.3840  1.5211
 1127SOL     OW15016   3.738   2.191   6.216  0.9880  0.3632 -0.6453
 1127SOL    HW115017   3.764   2.210   6.126 -1.5665 -0.8685 -1.6430
 1127SOL    HW215018   3.757   2.275   6.257 -1.8536  0.5854  0.2120
 1128SOL     OW15019   3.206   0.832   7.775  0.5808  0.1034  0.4501
 1128SOL    HW115020   3.253   0.809   7.694  0.9290  1.5210  0.2447
 1128SOL    HW215021   3.248   0.917   7.784  0.9861  0.0876 -1.2724
 1129SOL     OW15022   3.961   2.862   4.260  0.1352 -0.8302 -0.5452
 1129SOL    HW115023   3.899   2.897   4.196 -1.0989 -2.7333 -0.3893
 1129SOL    HW215024   3.898   2.834   4.326 -0.2327  0.7780 -0.2186
 1130SOL     OW15025   1.972   3.200   1.397 -0.1617 -0.2523 -0.6285
 1130SOL    HW115026   1.959   3.293   1.379  1.0673  0.4511  2.0783
 1130SOL    HW215027   1.991   3.200   1.491  0.0755  0.9978 -0.6741
 1131SOL     OW15028   3.970   3.482   2.843 -0.7670  0.0381 -0.1899
 1131SOL    HW115029   3.932   3.570   2.838  0.6295  0.6033 -0.8769
 1131SOL    HW215030   3.885   3.439   2.850 -0.9934  0.3380 -1.0686
 1132SOL     OW15031   1.864   4.722   7.352  0.3257 -0.5576  0.5026
 1132SOL    HW115032   1.882   4.671   7.430  0.4717 -1.6071 -0.2159
 1132SOL    HW215033   1.865   4.650   7.288 -1.3991 -0.5545  0.4676
 1133SOL     OW15034   0.223   2.707   4.809  0.4362 -0.2839 -0.4234
 1133SOL    HW115035   0.140   2.662   4.799 -0.2796  1.3598 -1.8699
 1133SOL    HW215036   0.249   2.693   4.718 -0.1039 -1.5496 -0.3800
 1134SOL     OW15037   2.847   1.470   4.083 -0.2655  0.2149 -0.3466
 1134SOL    HW115038   2.754   1.469   4.064  0.4585  0.9726 -3.9238
 1134SOL    HW215039   2.848   1.542   4.146  0.9396 -0.7798  0.7884
 1135SOL     OW15040   2.846   3.513  11.920  0.3012  0.1777  0.3755
 1135SOL    HW115041   2.771   3.456  11.938 -0.6898  1.6597  0.9069
 1135SOL    HW215042   2.807   3.600  11.917  2.3654  1.0100 -2.2607
 1136SOL     OW15043   4.069   4.391   2.768 -0.3850  0.1157 -0.1914
 1136SOL    HW115044   4.002   4.359   2.708 -1.3521  2.0258 -0.1062
 1136SOL    HW215045   4.133   4.320   2.762 -0.2568 -0.0188  2.7577
 1137SOL     OW15046   3.990   3.163   4.001 -0.0147 -0.3371 -0.2630
 1137SOL    HW115047   3.963   3.239   4.053 -0.1005 -0.5870  0.0616
 1137SOL    HW215048   3.992   3.199   3.912 -1.5562 -0.7489 -0.4760
 1138SOL     OW15049   0.165   3.380   9.355  0.2388  0.9973  0.1350
 1138SOL    HW115050   0.161   3.439   9.279 -0.2053 -1.1964 -1.5569
 1138SOL    HW215051   0.241   3.413   9.402  1.7329 -2.1768 -0.0536
 1139SOL     OW15052   4.140   4.060  17.674 -0.5104  0.0308 -0.1601
 1139SOL    HW115053   4.077   4.044  17.744 -0.9819  1.1975 -0.3139
 1139SOL    HW215054   4.210   4.107  17.720  0.1614  0.1547 -1.3096
 1140SOL     OW15055   0.638   0.719   5.888 -0.3094 -0.0916 -0.0413
 1140SOL    HW115056   0.681   0.796   5.925 -0.6130  0.9725 -1.8962
 1140SOL    HW215057   0.698   0.684   5.822  0.1817 -0.0215  0.3705
 1141SOL     OW15058   2.825   2.556  17.632  0.6758  0.1938  0.5148
 1141SOL    HW115059   2.825   2.585  17.540 -0.4032  0.2214  0.5223
 1141SOL    HW215060   2.894   2.490  17.636 -0.1009 -0.5821  0.9846
 1142SOL     OW15061   3.802   2.478   6.882  0.0136  0.0965 -0.2478
 1142SOL    HW115062   3.839   2.398   6.846 -2.2818 -1.0060 -0.2114
 1142SOL    HW215063   3.872   2.542   6.874  0.5126 -0.3906  0.2949
 1143SOL     OW15064   1.414   3.950   0.087  0.3811  0.1551  0.4380
 1143SOL    HW115065   1.400   4.000   0.007  0.1447  0.4539  0.6637
 1143SOL    HW215066   1.333   3.899   0.096  0.3029  0.2058  0.0240
 1144SOL     OW15067   0.945   2.606   9.080  0.3330 -0.4580  0.0203
 1144SOL    HW115068   0.933   2.512   9.093  1.6440 -1.0306 -2.9252
 1144SOL    HW215069   1.039   2.621   9.085  0.4011 -0.6093 -0.7925
 1145SOL     OW15070   2.003   4.020  14.345 -0.6793  0.3419  0.3566
 1145SOL    HW115071   1.915   4.017  14.383  0.2608 -0.0289  2.4809
 1145SOL    HW215072   2.046   3.989  14.425  0.6263 -2.1467 -1.2907
 1146SOL     OW15073   2.307   2.893   4.044  0.9201  0.2511 -0.3761
 1146SOL    HW115074   2.375   2.829   4.027  0.0404 -0.6001 -0.6848
 1146SOL    HW215075   2.359   2.951   4.099  2.0092  1.6220 -2.8746
 1147SOL     OW15076   4.118   2.418   6.270  0.1758  1.0794 -0.3692
 1147SOL    HW115077   4.079   2.431   6.184  1.5758 -0.2098 -1.2046
 1147SOL    HW215078   4.112   2.324   6.288 -0.9359  1.1077 -0.5876
 1148SOL     OW15079   1.533   4.645   0.116 -0.2318 -0.2446  1.6026
 1148SOL    HW115080   1.613   4.598   0.142 -0.4293 -1.1604  0.5500
 1148SOL    HW215081   1.478   4.626   0.192 -2.3493  1.7650  0.5719
 1149SOL     OW15082   4.031   4.659   4.112  0.2147 -0.8612  0.0866
 1149SOL    HW115083   4.019   4.733   4.053 -0.9416 -1.0632  0.0648
 1149SOL    HW215084   4.111   4.623   4.073 -0.5237 -1.4133 -0.9275
 1150SOL     OW15085   1.052   3.648  17.362  0.3036  0.3600 -0.3533
 1150SOL    HW115086   1.005   3.620  17.283 -0.1313 -1.0728  0.4174
 1150SOL    HW215087   1.134   3.602  17.346 -0.6511 -1.9506  1.3497
 1151SOL     OW15088   2.885   2.098  11.696 -0.1108 -1.1368  0.4730
 1151SOL    HW115089   2.832   2.065  11.768 -3.0433  0.5450 -0.8942
 1151SOL    HW215090   2.832   2.068  11.621 -0.5893  1.4689 -0.2422
 1152SOL     OW15091   1.044   0.208   3.667 -0.2977 -0.4964  0.2063
 1152SOL    HW115092   0.977   0.275   3.655 -0.4447 -0.3204  1.9197
 1152SOL    HW215093   0.995   0.129   3.647  0.1186 -0.4668 -0.9282
 1153SOL     OW15094   0.180   2.982  12.263 -0.1645 -0.3402 -0.3947
 1153SOL    HW115095   0.237   2.959  12.190 -0.7978 -1.0714 -0.6554
 1153SOL    HW215096   0.177   2.902  12.316  0.0636 -1.2295 -1.7402
 1154SOL     OW15097   1.428   3.529  12.215 -0.0213 -0.0928  0.1184
 1154SOL    HW115098   1.417   3.601  12.278 -0.6133 -0.9937  1.0483
 1154SOL    HW215099   1.462   3.456  12.268 -1.4382 -0.3315  0.6892
 1155SOL     OW15100   0.391   4.219  11.450 -0.2436  0.0530 -0.3657
 1155SOL    HW115101   0.429   4.299  11.414  1.8514 -0.6225  0.3301
 1155SOL    HW215102   0.347   4.251  11.528  0.0212 -1.8704  0.5705
 1156SOL     OW15103   3.466   3.980   1.283 -0.3466  0.9124  0.4896
 1156SOL    HW115104   3.380   4.000   1.245 -0.2015  3.2919  1.4116
 1156SOL    HW215105   3.520   4.056   1.304  0.1483  1.0449 -1.2867
 1157SOL     OW15106   3.573   3.840   1.498  0.0422 -0.2978  0.4516
 1157SOL    HW115107   3.598   3.917   1.550 -1.5469  1.4145 -1.3098
 1157SOL    HW215108   3.538   3.871   1.415  1.4628  0.5345  0.1614
 1158SOL     OW15109   1.391   0.355  14.639  0.0292 -0.1084  0.3375
 1158SOL    HW115110   1.301   0.382  14.658 -0.4469  0.5933 -2.9573
 1158SOL    HW215111   1.384   0.324  14.548 -0.7248 -1.4171  0.8297
 1159SOL     OW15112   2.806   0.606   5.655 -0.0230  0.2333  0.0559
 1159SOL    HW115113   2.749   0.541   5.696  0.4595 -0.7128 -0.7776
 1159SOL    HW215114   2.885   0.563   5.622 -1.3005 -1.3154 -0.9709
 1160SOL     OW15115   0.253   4.492   4.948 -0.5869 -0.2012 -0.3278
 1160SOL    HW115116   0.175   4.515   4.897 -1.9370 -0.8011  1.4723
 1160SOL    HW215117   0.302   4.435   4.889 -0.2143  1.9397 -2.1121
 1161SOL     OW15118   2.664   3.483   3.414 -0.5418  0.3878 -0.5578
 1161SOL    HW115119   2.637   3.515   3.327  0.3889 -0.4749 -1.1674
 1161SOL    HW215120   2.717   3.408   3.386  1.6021  1.0879  1.6291
 1162SOL     OW15121   0.121   3.338   6.285 -0.2484  0.1001  0.6835
 1162SOL    HW115122   0.158   3.361   6.370  1.2369  1.7574 -0.4137
 1162SOL    HW215123   0.181   3.266   6.264  2.6812  2.2735  1.5404
 1163SOL     OW15124   4.457   1.673   8.786  0.1487  0.3303  0.1594
 1163SOL    HW115125   4.420   1.704   8.703 -0.6841 -0.3139  0.2945
 1163SOL    HW215126   4.526   1.734   8.810  2.5172 -3.2377  2.5324
 1164SOL     OW15127   3.107   2.129   2.459  0.4846 -0.3747 -0.0912
 1164SOL    HW115128   3.115   2.082   2.376  2.0879 -1.9514  0.9592
 1164SOL    HW215129   3.015   2.110   2.476  0.6691 -0.3115  0.9422
 1165SOL     OW15130   2.556   2.376   1.968 -0.2919  0.0035 -0.0016
 1165SOL    HW115131   2.502   2.390   1.891  0.4429  2.0975 -0.1347
 1165SOL    HW215132   2.636   2.413   1.931 -1.5292  3.4210  0.7180
 1166SOL     OW15133   2.344   2.339  15.530  0.1067 -0.2380  0.0152
 1166SOL    HW115134   2.397   2.260  15.537  0.8359  0.3352  1.0929
 1166SOL    HW215135   2.391   2.380  15.604  0.9712  1.8760 -1.6957
 1167SOL     OW15136   3.294   3.546   4.190 -0.1221 -0.5553 -0.0275
 1167SOL    HW115137   3.219   3.509   4.236  1.8808  0.4613  4.1038
 1167SOL    HW215138   3.253   3.589   4.115  0.6148  1.2773  0.6095
 1168SOL     OW15139   0.750   2.365   4.092 -0.2936 -0.9514  0.4529
 1168SOL    HW115140   0.807   2.290   4.109 -0.6289 -0.9984  1.3573
 1168SOL    HW215141   0.709   2.336   4.010  0.8238 -1.0986 -0.0453
 1169SOL     OW15142   0.007   2.140   2.231 -0.0637  0.0775  0.1735
 1169SOL    HW115143   4.711   2.199   2.164  1.2708  0.9994  0.2798
 1169SOL    HW215144   4.676   2.075   2.232 -0.4884  0.5038 -2.0816
 1170SOL     OW15145   0.835   0.211  14.088  0.0089  0.2495 -0.3151
 1170SOL    HW115146   0.749   0.253  14.079  0.2681  1.0254  0.7810
 1170SOL    HW215147   0.818   0.119  14.067  1.9969 -0.3388  0.6993
 1171SOL     OW15148   4.494   0.256   2.895  0.0075 -0.7448 -0.3932
 1171SOL    HW115149   4.584   0.288   2.905  0.4735 -2.2990  0.4429
 1171SOL    HW215150   4.465   0.306   2.819  2.8330  1.1147 -0.2700
 1172SOL     OW15151   2.182   2.363   7.745 -0.6826 -0.7533  0.0560
 1172SOL    HW115152   2.245   2.371   7.673 -1.6465 -0.5279 -0.7482
 1172SOL    HW215153   2.099   2.387   7.704 -0.3099  2.1269  0.9745
 1173SOL     OW15154   2.747   4.533  16.623  0.0330  0.9485  0.8044
 1173SOL    HW115155   2.724   4.461  16.682 -2.1313  1.0390  0.0608
 1173SOL    HW215156   2.669   4.535  16.569  0.9412 -1.4102 -0.5593
 1174SOL     OW15157   3.819   2.567   3.280  0.1925 -0.1051  0.1493
 1174SOL    HW115158   3.841   2.609   3.197 -1.3139  1.3021  0.4560
 1174SOL    HW215159   3.734   2.608   3.298  0.3423 -0.5015  1.7441
 1175SOL     OW15160   1.887   3.847  17.634  0.2924 -0.3002  0.1637
 1175SOL    HW115161   1.832   3.833  17.711 -1.3109  0.5789 -0.8013
 1175SOL    HW215162   1.832   3.817  17.561  2.2579  1.3669 -1.9840
 1176SOL     OW15163   3.443   2.782   4.747 -0.0321 -0.6275 -0.0567
 1176SOL    HW115164   3.533   2.748   4.746 -0.2338 -1.1551 -0.2322
 1176SOL    HW215165   3.384   2.714   4.715 -0.4130 -0.2814 -0.0848
 1177SOL     OW15166   0.743   4.589   2.686 -0.3185 -0.2709  0.1810
 1177SOL    HW115167   0.656   4.626   2.700 -0.6110 -0.4438 -1.1826
 1177SOL    HW215168   0.795   4.653   2.636 -1.6055 -0.0098 -0.8166
 1178SOL     OW15169   0.833   3.531   4.115 -0.4474 -0.0813  0.5021
 1178SOL    HW115170   0.739   3.543   4.130  0.0370  0.8562  2.7134
 1178SOL    HW215171   0.820   3.461   4.051  0.7676  0.8020 -0.7191
 1179SOL     OW15172   2.184   0.853  10.330 -0.4694 -0.0743 -0.7351
 1179SOL    HW115173   2.224   0.856  10.244  0.6834  0.2294 -0.1946
 1179SOL    HW215174   2.101   0.824  10.293  0.0220  1.0322 -2.6670
 1180SOL     OW15175   0.454   1.315   1.526 -0.3582 -0.5798  0.4188
 1180SOL    HW115176   0.368   1.352   1.547 -0.3520 -0.9075  1.0393
 1180SOL    HW215177   0.509   1.383   1.566 -0.5515 -1.4741  2.2076
 1181SOL     OW15178   2.850   0.964   0.608 -0.6571 -0.0681 -0.0307
 1181SOL    HW115179   2.827   0.960   0.701  0.7729  0.3171  0.3465
 1181SOL    HW215180   2.937   1.001   0.622 -0.7956  1.1921 -2.4006
 1182SOL     OW15181   0.021   1.821   5.770 -0.6845  0.0667  0.2680
 1182SOL    HW115182   0.074   1.857   5.840 -0.0286  0.6978 -0.5473
 1182SOL    HW215183   4.690   1.887   5.769 -0.7593 -0.0096  0.4186
 1183SOL     OW15184   0.449   1.083  17.204 -0.1506  0.3658 -0.0416
 1183SOL    HW115185   0.511   1.063  17.134  0.1162  0.1587  0.2587
 1183SOL    HW215186   0.504   1.127  17.268  0.5713 -2.0380  0.9821
 1184SOL     OW15187   0.281   0.086  12.201  0.4494 -0.4829 -0.6456
 1184SOL    HW115188   0.207   0.111  12.258  0.9673  0.8228 -0.5518
 1184SOL    HW215189   0.348   0.068  12.267 -0.1471  0.9198  0.3621
 1185SOL     OW15190   0.427   0.330  12.075 -0.4402 -0.1489  0.0587
 1185SOL    HW115191   0.359   0.265  12.094  0.8939 -1.1363  1.4158
 1185SOL    HW215192   0.499   0.270  12.092  0.5743  0.7615 -0.9900
 1186SOL     OW15193   1.433   3.522   6.607 -0.3880 -0.2257 -0.4481
 1186SOL    HW115194   1.503   3.584   6.626 -0.9655  0.2930 -0.0308
 1186SOL    HW215195   1.359   3.583   6.612 -0.7907 -0.7005 -0.6811
 1187SOL     OW15196   3.696   3.418   1.017  0.4613  0.3112  0.5235
 1187SOL    HW115197   3.695   3.495   0.960  0.2376 -1.0386 -1.2911
 1187SOL    HW215198   3.614   3.378   0.990 -0.0515  1.7925 -0.1476
 1188SOL     OW15199   1.380   2.157   2.567 -0.3089  0.2529  0.2563
 1188SOL    HW115200   1.344   2.228   2.514 -0.6851  0.2405  0.4959
 1188SOL    HW215201   1.469   2.149   2.532 -0.5779  1.5632 -0.6829
 1189SOL     OW15202   3.457   2.356  13.537 -0.0361 -0.5032  0.0291
 1189SOL    HW115203   3.513   2.349  13.460  0.3102 -1.0255  0.3322
 1189SOL    HW215204   3.424   2.266  13.538 -0.6802 -0.2706 -0.5509
 1190SOL     OW15205   4.219   0.666   7.407 -0.1322 -0.0186 -0.2625
 1190SOL    HW115206   4.134   0.676   7.364 -1.3519 -0.3382  2.0907
 1190SOL    HW215207   4.199   0.707   7.491 -2.0767 -1.8771  0.1793
 1191SOL     OW15208   2.855   2.185   5.194 -0.0396  0.3584 -0.0698
 1191SOL    HW115209   2.813   2.131   5.126  0.4926  0.4502 -0.4650
 1191SOL    HW215210   2.924   2.126   5.222  1.5928  2.4992  0.3802
 1192SOL     OW15211   1.465   3.183  15.208  0.0975 -0.0766  0.1877
 1192SOL    HW115212   1.426   3.160  15.293  0.6933  0.7109  0.6733
 1192SOL    HW215213   1.432   3.118  15.146  0.6436  0.4420 -0.6459
 1193SOL     OW15214   3.757   3.752   8.312 -0.5433 -0.2363  0.0531
 1193SOL    HW115215   3.844   3.773   8.346 -0.3978  0.8038 -0.9644
 1193SOL    HW215216   3.766   3.763   8.217  1.5125 -0.7569  0.1775
 1194SOL     OW15217   3.408   0.793  13.104 -0.4806 -0.2045  0.8556
 1194SOL    HW115218   3.481   0.837  13.147  1.3922 -0.8910 -1.5712
 1194SOL    HW215219   3.458   0.743  13.039 -1.6009 -0.1147 -0.0747
 1195SOL     OW15220   4.327   4.024   1.319  0.9297  0.0924 -0.3731
 1195SOL    HW115221   4.291   3.960   1.258 -1.9448  0.0990  1.3093
 1195SOL    HW215222   4.359   3.965   1.387 -1.2103 -1.0340 -0.3508
 1196SOL     OW15223   2.331   2.399   9.995 -0.4539  0.0074 -0.4448
 1196SOL    HW115224   2.284   2.413  10.077  1.6358  3.6777  0.1297
 1196SOL    HW215225   2.270   2.444   9.937 -0.7173  1.2457  0.7880
 1197SOL     OW15226   1.148   4.523  16.003  0.1597  0.1770 -0.8764
 1197SOL    HW115227   1.085   4.452  16.004 -0.1311  0.4432 -0.2639
 1197SOL    HW215228   1.111   4.592  15.948  1.7516  2.2634  0.6429
 1198SOL     OW15229   3.598   0.128   7.266 -0.1411  0.5809 -0.2712
 1198SOL    HW115230   3.653   0.146   7.189  0.5091 -0.5691 -0.0683
 1198SOL    HW215231   3.574   0.037   7.252  0.1871  0.6764 -1.5200
 1199SOL     OW15232   2.574   4.349  17.740  0.1434 -0.2156 -0.1680
 1199SOL    HW115233   2.589   4.285  17.670  0.6293 -1.9159  1.5133
 1199SOL    HW215234   2.587   4.427  17.684  0.4781 -1.1208 -1.3576
 1200SOL     OW15235   2.610   0.785   2.021 -0.4226 -0.2438  0.1900
 1200SOL    HW115236   2.669   0.854   1.990 -0.1633 -0.7001 -0.3087
 1200SOL    HW215237   2.548   0.791   1.948  0.1044 -1.5310 -0.3598
 1201SOL     OW15238   0.373   3.811   5.553 -0.1982 -0.2208  0.1723
 1201SOL    HW115239   0.467   3.817   5.536 -0.2695 -1.9537 -0.8027
 1201SOL    HW215240   0.370   3.890   5.607  0.0137 -2.0134  2.7642
 1202SOL     OW15241   3.975   0.917  13.497 -0.1085  0.0197  0.2457
 1202SOL    HW115242   3.988   0.992  13.555  0.0236 -1.2201  1.8404
 1202SOL    HW215243   4.008   0.944  13.412 -0.9704  1.9368  0.5345
 1203SOL     OW15244   1.130   3.522   8.381  0.8078 -0.2738 -0.8002
 1203SOL    HW115245   1.226   3.520   8.371  0.9496 -0.2239  0.6127
 1203SOL    HW215246   1.107   3.449   8.438 -0.5280  2.7246  2.5095
 1204SOL     OW15247   1.850   4.051  16.169 -0.2076  0.0118  0.1550
 1204SOL    HW115248   1.940   4.073  16.143 -0.2528  1.4158  1.1984
 1204SOL    HW215249   1.801   4.112  16.114  0.6781  0.5759 -0.0045
 1205SOL     OW15250   2.652   3.142   5.642  0.3916 -0.3256  0.6280
 1205SOL    HW115251   2.692   3.103   5.564  0.7569  0.1059  0.6063
 1205SOL    HW215252   2.694   3.227   5.647  1.2550 -0.7648  0.8584
 1206SOL     OW15253   4.237   2.610   3.152 -0.1567 -0.2347  0.2188
 1206SOL    HW115254   4.157   2.561   3.134  0.6816 -1.0628 -1.3418
 1206SOL    HW215255   4.246   2.645   3.063 -0.2939 -1.5410 -0.3103
 1207SOL     OW15256   4.281   3.119   4.298 -0.0750  0.2354 -0.0505
 1207SOL    HW115257   4.284   3.087   4.208  0.3592  0.4564 -0.1134
 1207SOL    HW215258   4.237   3.202   4.277  1.9362  1.3691  0.2530
 1208SOL     OW15259   2.816   2.698   5.170 -0.4466  0.6742 -0.5242
 1208SOL    HW115260   2.841   2.778   5.123  0.3158  0.5427 -0.3367
 1208SOL    HW215261   2.822   2.643   5.092 -1.2634  0.4102 -0.4021
 1209SOL     OW15262   0.792   1.659   4.801 -0.4095 -0.4845  0.1097
 1209SOL    HW115263   0.837   1.578   4.821  2.1539  1.1384  0.8477
 1209SOL    HW215264   0.858   1.725   4.823 -0.4378 -0.4068 -0.0379
 1210SOL     OW15265   0.166   0.405   2.257  0.2403  0.0691 -0.6178
 1210SOL    HW115266   0.121   0.324   2.233 -0.2532 -0.7000  2.9981
 1210SOL    HW215267   0.097   0.468   2.274 -1.0903 -1.6376  0.2680
 1211SOL     OW15268   0.842   3.157   7.526  0.5356 -0.0691  0.3761
 1211SOL    HW115269   0.857   3.240   7.571  1.4458  0.6325 -1.2031
 1211SOL    HW215270   0.929   3.145   7.486  0.2399  1.9104 -0.8809
 1212SOL     OW15271   4.562   2.300  11.877 -0.0911 -0.3093 -0.7280
 1212SOL    HW115272   4.517   2.219  11.852 -1.3056  0.2465 -0.3759
 1212SOL    HW215273   4.505   2.373  11.849 -0.1664 -0.2742 -0.4836
 1213SOL     OW15274   1.097   2.260  14.600 -0.1654  0.2535 -0.2085
 1213SOL    HW115275   1.003   2.265  14.579 -0.7802 -0.2818  2.4135
 1213SOL    HW215276   1.130   2.338  14.556  0.4842 -0.6680 -1.3388
 1214SOL     OW15277   0.137   0.239   2.601 -0.0008 -0.1139  0.5811
 1214SOL    HW115278   0.165   0.154   2.634  3.0810  0.4834 -0.3987
 1214SOL    HW215279   0.043   0.231   2.611 -0.1694  0.9873 -0.0143
 1215SOL     OW15280   4.338   0.733   9.864  0.4823  0.3819  0.3409
 1215SOL    HW115281   4.422   0.689   9.869 -0.7356 -2.1998 -1.8797
 1215SOL    HW215282   4.326   0.712   9.771  2.3044  2.2783 -0.3282
 1216SOL     OW15283   3.396   1.089   2.043 -0.5985 -0.0757 -0.1338
 1216SOL    HW115284   3.422   1.018   1.984 -2.3299 -0.0598 -0.9226
 1216SOL    HW215285   3.452   1.080   2.120  0.7953 -1.8015 -1.3673
 1217SOL     OW15286   1.670   3.803   2.684 -0.5388 -0.6540 -0.1666
 1217SOL    HW115287   1.601   3.760   2.635  0.0209  0.6712 -2.1134
 1217SOL    HW215288   1.725   3.734   2.722  1.9686  0.5494 -1.6185
 1218SOL     OW15289   3.724   4.679   3.317 -0.2517  0.3224 -0.4784
 1218SOL    HW115290   3.667   4.637   3.380 -1.4952  1.4190 -0.8718
 1218SOL    HW215291   3.701   4.622   3.243  0.5405 -1.0648  0.3364
 1219SOL     OW15292   2.882   2.118   6.639 -0.0851  0.3273  0.4718
 1219SOL    HW115293   2.806   2.092   6.587 -1.0690  3.4864  0.3377
 1219SOL    HW215294   2.847   2.132   6.727  0.1247  0.0063  0.6051
 1220SOL     OW15295   2.823   4.190   8.286 -0.6948  0.1045 -0.2129
 1220SOL    HW115296   2.792   4.181   8.196  0.1945  3.4883 -0.8520
 1220SOL    HW215297   2.903   4.240   8.273 -0.0242 -0.3190  2.3718
 1221SOL     OW15298   2.722   0.081  16.248  0.0273  0.2969 -0.0912
 1221SOL    HW115299   2.777   0.041  16.315  0.0775  2.4018  1.1341
 1221SOL    HW215300   2.702   0.162  16.294 -0.2384  0.4512 -0.4813
 1222SOL     OW15301   2.884   4.611  16.394 -0.6948 -0.2689 -0.0113
 1222SOL    HW115302   2.974   4.579  16.396 -0.4750  0.5088  1.6106
 1222SOL    HW215303   2.846   4.595  16.480 -0.1207  1.8388  0.6438
 1223SOL     OW15304   4.613   1.222  15.203  0.2768  0.2056  0.4362
 1223SOL    HW115305   4.582   1.141  15.163 -1.3617  1.4690 -0.8510
 1223SOL    HW215306   4.686   1.182  15.251  1.9108  0.9643 -1.4229
 1224SOL     OW15307   0.852   4.545   0.225 -0.0236  0.0737 -0.0643
 1224SOL    HW115308   0.773   4.538   0.171  0.2787  2.4423 -0.8117
 1224SOL    HW215309   0.908   4.615   0.192  1.7399 -1.6423 -0.7335
 1225SOL     OW15310   3.058   1.170   8.831 -0.4386  0.0065  0.2589
 1225SOL    HW115311   2.979   1.150   8.880  0.3917 -0.2998  1.4802
 1225SOL    HW215312   3.117   1.095   8.845  0.6339  0.7077 -0.4613
 1226SOL     OW15313   1.968   0.193   1.687 -0.5373  0.6194  0.0310
 1226SOL    HW115314   1.933   0.280   1.667  0.6395  0.8455 -1.0592
 1226SOL    HW215315   2.002   0.177   1.599 -0.6687  0.5116  0.0000
 1227SOL     OW15316   1.469   1.599   8.289  0.4060 -0.3282  0.8085
 1227SOL    HW115317   1.553   1.565   8.258 -0.7757 -0.9946 -1.7033
 1227SOL    HW215318   1.496   1.691   8.289  2.3950 -0.9220  2.3260
 1228SOL     OW15319   1.732   3.964   7.077 -0.0375 -0.2220 -0.8334
 1228SOL    HW115320   1.652   3.941   7.125  0.3702 -0.4281 -0.2543
 1228SOL    HW215321   1.791   3.999   7.143 -0.4060 -0.9887 -0.0908
 1229SOL     OW15322   2.944   2.715   4.169  0.3869 -0.6435 -0.0261
 1229SOL    HW115323   2.946   2.620   4.182  0.8609 -0.4024  1.6670
 1229SOL    HW215324   3.037   2.731   4.186 -0.0882  0.5100  1.4523
 1230SOL     OW15325   2.840   0.332   4.204  0.2560  0.2877 -0.3173
 1230SOL    HW115326   2.864   0.412   4.252  0.6980  1.1636 -2.0095
 1230SOL    HW215327   2.850   0.365   4.115 -0.4216 -1.5596 -1.0735
 1231SOL     OW15328   2.119   4.018  12.080  0.2403 -0.0381 -0.6703
 1231SOL    HW115329   2.060   3.950  12.048  0.1077 -0.0573 -0.3824
 1231SOL    HW215330   2.204   3.983  12.052  1.1625 -0.9454  3.3796
 1232SOL     OW15331   2.450   0.755   4.973  0.5361 -0.2953 -0.1782
 1232SOL    HW115332   2.528   0.805   4.950 -0.4742  1.0343 -0.7248
 1232SOL    HW215333   2.454   0.727   5.064  0.1605  1.8751  0.4972
 1233SOL     OW15334   0.223   2.774   4.345  0.1091 -0.4743 -0.0856
 1233SOL    HW115335   0.227   2.851   4.401 -1.5651 -1.3251  1.2270
 1233SOL    HW215336   0.172   2.724   4.409  0.5818 -0.0907  0.5879
 1234SOL     OW15337   3.922   4.222  13.931  0.3029  0.1391 -0.3620
 1234SOL    HW115338   3.901   4.215  13.838  0.7677  1.4342 -0.5641
 1234SOL    HW215339   4.015   4.199  13.927  0.0172 -0.4746 -3.1829
 1235SOL     OW15340   3.707   0.246  13.256 -0.2453  0.1871 -0.0099
 1235SOL    HW115341   3.675   0.325  13.211  0.8036 -0.6292 -2.1947
 1235SOL    HW215342   3.753   0.296  13.324 -0.7721 -0.9274  1.1688
 1236SOL     OW15343   1.423   2.650   3.894 -0.6160 -0.2677  0.0990
 1236SOL    HW115344   1.383   2.735   3.876 -2.0834 -0.9812  0.0541
 1236SOL    HW215345   1.390   2.637   3.983  1.4866  0.5517  1.0146
 1237SOL     OW15346   2.380   3.642  14.526 -0.2574 -0.4010 -0.0389
 1237SOL    HW115347   2.346   3.678  14.444  0.9870  1.4664  0.2640
 1237SOL    HW215348   2.417   3.712  14.580 -2.5461 -0.2881  1.3855
 1238SOL     OW15349   2.263   0.206   2.238 -0.4378  0.0104 -0.6742
 1238SOL    HW115350   2.260   0.272   2.306  2.1429  0.9255 -1.4505
 1238SOL    HW215351   2.216   0.241   2.162  2.9591 -0.0857 -2.8689
 1239SOL     OW15352   4.675   3.804  12.313 -0.0458 -0.3131  0.1991
 1239SOL    HW115353   4.708   3.719  12.283 -1.1259 -0.6034 -0.1713
 1239SOL    HW215354   4.613   3.817  12.241 -0.3926  0.4287  0.6270
 1240SOL     OW15355   1.620   4.206   3.439 -0.0010 -0.5599 -0.1110
 1240SOL    HW115356   1.608   4.181   3.530 -0.0340 -0.6618 -0.1424
 1240SOL    HW215357   1.532   4.235   3.415  0.1473 -2.1645 -2.6571
 1241SOL     OW15358   3.579   3.064   9.834  0.0121 -0.1974  0.2649
 1241SOL    HW115359   3.596   3.101   9.747 -2.3193  1.0750  0.3525
 1241SOL    HW215360   3.567   3.145   9.884 -1.9623 -1.0296  1.1089
 1242SOL     OW15361   4.369   1.451  17.280 -0.3203 -0.3174 -0.1688
 1242SOL    HW115362   4.291   1.446  17.334 -0.8770 -0.1260 -0.9532
 1242SOL    HW215363   4.346   1.384  17.215  0.8210 -0.3391 -0.5611
 1243SOL     OW15364   4.647   2.602  14.179  0.1684  0.3984  0.2010
 1243SOL    HW115365   4.664   2.596  14.085 -1.3179 -3.3655  0.1767
 1243SOL    HW215366   4.622   2.512  14.201  0.1857  0.0487 -1.1936
 1244SOL     OW15367   2.196   2.120   3.317 -0.0348  0.0552  0.0633
 1244SOL    HW115368   2.280   2.119   3.271 -0.5881 -0.7520 -0.9383
 1244SOL    HW215369   2.140   2.131   3.240  1.1233  1.2856 -0.6181
 1245SOL     OW15370   0.893   3.178  13.012  0.2944  0.6044 -0.0436
 1245SOL    HW115371   0.951   3.212  13.080  1.3767 -0.2024 -0.5604
 1245SOL    HW215372   0.950   3.110  12.975 -1.5498 -0.2282 -1.3557
 1246SOL     OW15373   0.410   1.008   8.503 -0.2764 -0.2742  0.0873
 1246SOL    HW115374   0.342   1.070   8.531 -1.8524 -2.3614  0.8709
 1246SOL    HW215375   0.470   1.067   8.458  0.0813 -1.2208 -0.6668
 1247SOL     OW15376   1.120   3.506   6.717  0.0619 -0.6580  0.0668
 1247SOL    HW115377   1.060   3.501   6.792 -0.1034 -2.7355 -0.2304
 1247SOL    HW215378   1.185   3.562   6.761  1.1418 -1.8394 -0.0517
 1248SOL     OW15379   2.330   3.212   0.874  0.3870  0.6280 -0.1649
 1248SOL    HW115380   2.252   3.204   0.929 -0.1964  1.7228 -0.8380
 1248SOL    HW215381   2.287   3.202   0.789  1.5086 -1.3216 -0.5252
 1249SOL     OW15382   3.176   1.980   3.693  0.3609  0.0309 -0.4116
 1249SOL    HW115383   3.135   1.894   3.699  0.6884 -0.0111  1.1844
 1249SOL    HW215384   3.120   2.036   3.747 -0.3352  0.5237 -1.6384
 1250SOL     OW15385   3.262   3.963   7.347 -0.4433 -0.3918  0.3367
 1250SOL    HW115386   3.347   3.943   7.306  0.2411 -0.6023  1.8663
 1250SOL    HW215387   3.209   3.954   7.268 -0.9150  2.7284  0.3312
 1251SOL     OW15388   1.422   3.287   3.999  0.0477 -0.2010 -0.3967
 1251SOL    HW115389   1.406   3.195   3.979  0.8343 -0.9550  2.4665
 1251SOL    HW215390   1.347   3.303   4.055  1.0873 -1.5839  1.3882
 1252SOL     OW15391   2.000   1.525   6.683  0.8494 -0.3540  0.2349
 1252SOL    HW115392   1.938   1.493   6.618 -0.4442  0.6517  0.9622
 1252SOL    HW215393   1.942   1.520   6.759  1.8213 -1.1433  0.9306
 1253SOL     OW15394   0.738   1.798   4.154  0.2525  0.0118 -0.0662
 1253SOL    HW115395   0.820   1.813   4.201  0.3089 -2.3232  0.5849
 1253SOL    HW215396   0.673   1.784   4.224  0.3522 -0.5475 -0.0897
 1254SOL     OW15397   2.486   4.639   8.661 -0.1101 -0.2821  0.0269
 1254SOL    HW115398   2.435   4.566   8.696  0.0400 -0.9636 -1.1907
 1254SOL    HW215399   2.418   4.706   8.669 -1.0150 -1.2634  0.5347
 1255SOL     OW15400   4.199   3.642  12.180  0.2197  0.2266 -0.1427
 1255SOL    HW115401   4.139   3.567  12.179  0.6863 -0.1518  1.8596
 1255SOL    HW215402   4.137   3.716  12.180 -0.0085  0.0357  0.0147
 1256SOL     OW15403   2.536   1.593   2.385  0.3568 -0.0572  0.1652
 1256SOL    HW115404   2.626   1.563   2.389  0.3758 -0.1846 -1.0935
 1256SOL    HW215405   2.494   1.521   2.432  0.1426 -0.3026 -0.3988
 1257SOL     OW15406   1.600   1.022   6.258 -0.1201  1.2639  0.0472
 1257SOL    HW115407   1.583   1.095   6.318  1.6622  1.6211  0.1333
 1257SOL    HW215408   1.627   0.961   6.327  0.3238  1.1417 -0.2315
 1258SOL     OW15409   0.733   1.015   3.402 -0.1241  0.3096  0.0113
 1258SOL    HW115410   0.665   1.082   3.400 -0.8731 -0.5939 -3.4006
 1258SOL    HW215411   0.769   1.046   3.485  0.4219  1.1053 -0.5236
 1259SOL     OW15412   2.247   3.983   5.379  0.3823  0.2979  0.5668
 1259SOL    HW115413   2.153   3.964   5.376  0.4044  0.4342 -0.9764
 1259SOL    HW215414   2.276   3.902   5.421 -0.8867 -0.5131 -0.1207
 1260SOL     OW15415   0.896   4.299   6.689 -0.5879 -0.3451 -0.5178
 1260SOL    HW115416   0.846   4.344   6.620 -1.1542 -0.8808 -0.4562
 1260SOL    HW215417   0.855   4.213   6.686  0.2328 -0.7491 -0.1084
 1261SOL     OW15418   2.899   2.188   4.456 -0.1172 -0.1472 -0.0504
 1261SOL    HW115419   2.965   2.133   4.501  0.0512  1.2838  1.4538
 1261SOL    HW215420   2.817   2.141   4.443  0.2755 -0.6466 -0.6883
 1262SOL     OW15421   3.760   3.019   8.725  0.0794 -0.3662 -0.2006
 1262SOL    HW115422   3.769   2.977   8.810  1.8851 -0.3094 -0.3653
 1262SOL    HW215423   3.731   2.946   8.670  3.0571 -0.0579 -2.1987
 1263SOL     OW15424   1.420   1.841   8.004 -0.4703  0.1096  0.0458
 1263SOL    HW115425   1.430   1.913   8.065  0.0420  0.1448 -0.0792
 1263SOL    HW215426   1.328   1.816   8.013 -0.6572  1.0844  0.8428
 1264SOL     OW15427   2.360   1.147  14.206 -0.0983 -0.1037  0.6736
 1264SOL    HW115428   2.416   1.168  14.280 -0.8564 -0.6624  1.4023
 1264SOL    HW215429   2.275   1.180  14.233 -1.1769 -1.9120 -0.5317
 1265SOL     OW15430   1.570   2.060  17.675  0.4669 -0.1813  0.6423
 1265SOL    HW115431   1.570   2.110   0.006 -1.8046 -1.1719  1.2467
 1265SOL    HW215432   1.627   2.115  17.621  0.3251  1.6627  2.3774
 1266SOL     OW15433   1.878   2.572   4.063 -0.6798 -0.1729 -0.2326
 1266SOL    HW115434   1.843   2.589   4.150  1.4590 -0.7323  0.7432
 1266SOL    HW215435   1.871   2.659   4.023  0.2048  0.1947  0.4059
 1267SOL     OW15436   0.615   0.053   1.316 -0.6786 -0.3346  0.0110
 1267SOL    HW115437   0.662   0.028   1.237 -1.0135 -2.0155  0.3254
 1267SOL    HW215438   0.594   4.702   1.346 -1.1171 -0.3530 -0.3481
 1268SOL     OW15439   3.429   3.428   7.755  0.1485  0.1442  0.6098
 1268SOL    HW115440   3.475   3.344   7.752 -1.8106 -0.9199  0.7432
 1268SOL    HW215441   3.501   3.490   7.765  0.8574 -0.5976  0.2047
 1269SOL     OW15442   0.994   4.468   8.414  0.2743  0.2061 -0.5508
 1269SOL    HW115443   0.977   4.386   8.368 -0.3184 -0.2136  0.4235
 1269SOL    HW215444   1.060   4.509   8.358 -0.3100  1.6304 -0.2049
 1270SOL     OW15445   0.736   3.332   3.099 -0.2017 -0.8954  0.5259
 1270SOL    HW115446   0.773   3.301   3.181  0.2724 -0.1968  0.5779
 1270SOL    HW215447   0.792   3.299   3.028  0.1515 -2.0367  1.3459
 1271SOL     OW15448   4.221   3.819   1.156 -0.7008  0.4679  0.3283
 1271SOL    HW115449   4.169   3.744   1.184 -4.1453  2.1349 -1.5676
 1271SOL    HW215450   4.269   3.766   1.093 -1.1284  0.1489  0.2734
 1272SOL     OW15451   1.299   2.718   4.670 -0.0447  0.4442  0.0898
 1272SOL    HW115452   1.255   2.771   4.604 -2.2184  0.2571  1.3694
 1272SOL    HW215453   1.305   2.632   4.629 -1.1907 -0.4604  1.8144
 1273SOL     OW15454   0.371   0.438  14.771 -0.7224  0.3997 -0.0435
 1273SOL    HW115455   0.296   0.465  14.825 -0.8451  0.5755 -0.3010
 1273SOL    HW215456   0.440   0.427  14.836 -2.1752 -1.2303  1.2394
 1274SOL     OW15457   0.488   3.604   1.838  0.0808  0.1012 -0.2126
 1274SOL    HW115458   0.540   3.599   1.918  0.0441  0.9031 -0.1383
 1274SOL    HW215459   0.418   3.539   1.839  0.5199 -0.3843 -0.8485
 1275SOL     OW15460   1.543   1.868  10.022 -0.5324 -0.1542 -0.5187
 1275SOL    HW115461   1.620   1.820  10.053 -1.3571 -1.2995 -0.2416
 1275SOL    HW215462   1.486   1.792  10.027  0.8109 -1.1189  0.0086
 1276SOL     OW15463   4.162   0.489   2.925  0.4192 -0.2994  0.0994
 1276SOL    HW115464   4.170   0.500   3.020  0.9208  1.8574 -0.1905
 1276SOL    HW215465   4.077   0.533   2.916 -0.3285 -1.8727 -0.4708
 1277SOL     OW15466   1.477   0.670  13.585 -0.3688 -0.2365  0.5751
 1277SOL    HW115467   1.496   0.703  13.498  0.6316  4.2445  2.4995
 1277SOL    HW215468   1.425   0.590  13.571  1.1575 -1.1384  0.1256
 1278SOL     OW15469   0.510   2.032   4.724 -0.7574 -0.0696  0.7249
 1278SOL    HW115470   0.539   1.956   4.774 -1.6349 -0.7701  0.1867
 1278SOL    HW215471   0.471   1.995   4.644  0.4811  0.6345 -0.2083
 1279SOL     OW15472   4.054   0.828   9.024 -0.2101 -0.6947 -0.3707
 1279SOL    HW115473   4.032   0.893   8.958  1.9535 -0.0050 -0.4107
 1279SOL    HW215474   4.142   0.856   9.049  0.1466 -1.4045 -0.8371
 1280SOL     OW15475   4.612   0.187   5.170  0.1040 -0.0805  1.0705
 1280SOL    HW115476   4.527   0.228   5.186 -0.1461 -0.2326  0.0952
 1280SOL    HW215477   4.605   0.109   5.225  1.8097  0.1929  1.6774
 1281SOL     OW15478   4.107   2.115   3.122  0.5711  0.0036 -0.2743
 1281SOL    HW115479   4.165   2.095   3.195 -1.9975 -2.8988  0.9673
 1281SOL    HW215480   4.065   2.196   3.150 -3.1175 -1.8861 -0.3419
 1282SOL     OW15481   4.327   3.767   5.606 -0.1166 -0.2832 -0.5929
 1282SOL    HW115482   4.411   3.781   5.650 -0.9982 -0.0247  1.0089
 1282SOL    HW215483   4.353   3.689   5.556  1.5068 -0.6828  0.8733
 1283SOL     OW15484   0.231   1.278  14.373  0.3795 -0.3872 -0.1658
 1283SOL    HW115485   0.281   1.332  14.434 -0.7383  1.7772 -1.1474
 1283SOL    HW215486   0.142   1.293  14.405  0.3307  2.1847 -1.4536
 1284SOL     OW15487   3.482   0.768   7.354  0.7172 -0.2502  0.5883
 1284SOL    HW115488   3.556   0.709   7.342  1.9459  1.1174  1.4381
 1284SOL    HW215489   3.519   0.853   7.378  2.0798 -0.9004  0.7469
 1285SOL     OW15490   2.990   3.913   6.852  0.0937  0.7444 -0.2352
 1285SOL    HW115491   2.943   3.981   6.803  0.6746  0.6761 -0.8953
 1285SOL    HW215492   3.003   3.954   6.937  2.1795 -0.3519 -0.0225
 1286SOL     OW15493   2.750   3.521   4.653  0.0897 -0.0151  0.0965
 1286SOL    HW115494   2.740   3.585   4.583 -1.4309  0.7746  1.0451
 1286SOL    HW215495   2.678   3.545   4.711 -0.7938  1.5824 -1.7180
 1287SOL     OW15496   3.494   0.350   2.062 -0.0800 -0.2108  0.3840
 1287SOL    HW115497   3.468   0.306   2.143 -2.1185  0.7106  0.2386
 1287SOL    HW215498   3.487   0.441   2.091  4.0892  0.2614 -0.1221
 1288SOL     OW15499   4.302   3.817  17.695 -0.7529 -0.3536 -1.1718
 1288SOL    HW115500   4.353   3.807  17.614  2.3957  1.0528  0.6350
 1288SOL    HW215501   4.241   3.889  17.680 -0.5715 -0.2721 -1.5241
 1289SOL     OW15502   3.468   2.596   4.056  0.0849 -0.7040  0.1957
 1289SOL    HW115503   3.401   2.609   4.124 -0.7153 -1.6140 -0.4202
 1289SOL    HW215504   3.442   2.512   4.020 -2.1662  0.4060 -0.8090
 1290SOL     OW15505   2.600   1.863   7.387  0.1846  0.1377 -0.0252
 1290SOL    HW115506   2.567   1.845   7.475 -0.7157  2.2815  0.0696
 1290SOL    HW215507   2.607   1.958   7.389  0.4680  0.1481 -1.3652
 1291SOL     OW15508   3.833   1.939   1.711 -0.2740 -0.3072  0.8630
 1291SOL    HW115509   3.812   2.017   1.762  0.7817 -0.2992  1.2744
 1291SOL    HW215510   3.922   1.952   1.679 -0.2286 -0.3676  0.9654
 1292SOL     OW15511   3.904   0.642  10.066 -0.2903  0.5364  0.2837
 1292SOL    HW115512   3.958   0.617   9.990 -0.5575  1.4154 -0.1986
 1292SOL    HW215513   3.899   0.561  10.116  1.1144  0.4850  0.3567
 1293SOL     OW15514   0.826   3.543  11.978  0.2322 -0.1972  0.7984
 1293SOL    HW115515   0.793   3.527  11.889  1.0077  1.5550  0.1991
 1293SOL    HW215516   0.780   3.469  12.019  1.6800 -0.2891  2.2568
 1294SOL     OW15517   2.346   4.392   2.619  0.2247 -0.0588 -0.1662
 1294SOL    HW115518   2.386   4.428   2.540  1.2324  0.4841  0.5962
 1294SOL    HW215519   2.412   4.331   2.652  2.9704  2.2544 -1.4161
 1295SOL     OW15520   4.730   1.948  10.142  0.9928 -0.1666  0.0764
 1295SOL    HW115521   0.053   2.002  10.091  0.3816 -1.4083 -1.9770
 1295SOL    HW215522   0.041   1.935  10.223 -1.4983  0.2887  1.6808
 1296SOL     OW15523   0.788   4.611   0.745  0.7159 -0.3049  0.2633
 1296SOL    HW115524   0.788   4.706   0.757 -0.7175 -0.1621 -0.8880
 1296SOL    HW215525   0.856   4.600   0.679  2.1447 -3.0066  2.1774
 1297SOL     OW15526   2.132   0.259   5.631  0.4407  0.3226  0.2309
 1297SOL    HW115527   2.137   0.311   5.712  2.5383  0.4009  0.0475
 1297SOL    HW215528   2.053   0.297   5.593 -0.4945 -0.2198  1.5934
 1298SOL     OW15529   0.879   2.591  12.129 -0.3248  0.2787 -0.3101
 1298SOL    HW115530   0.967   2.601  12.092  0.4472 -0.3780  1.3254
 1298SOL    HW215531   0.856   2.500  12.108  0.8296 -0.5576  2.0371
 1299SOL     OW15532   3.193   3.620   6.813 -0.4909 -0.1219 -0.2330
 1299SOL    HW115533   3.265   3.574   6.770 -0.3217 -1.5724  1.6010
 1299SOL    HW215534   3.240   3.650   6.891  0.8369  2.1747 -1.8910
 1300SOL     OW15535   2.015   1.076   7.119 -0.6580 -0.2459 -0.9154
 1300SOL    HW115536   2.034   1.143   7.054 -0.5705 -1.7559 -2.4237
 1300SOL    HW215537   2.100   1.033   7.128 -1.0939 -1.0961 -0.9090
 1301SOL     OW15538   0.764   2.324   8.122  0.1145  0.4464 -0.3300
 1301SOL    HW115539   0.704   2.266   8.077  1.0174 -1.0660  0.4093
 1301SOL    HW215540   0.765   2.292   8.212 -0.1405 -0.5934 -0.7079
 1302SOL     OW15541   1.787   2.361   2.262  0.4233  0.0752  0.5053
 1302SOL    HW115542   1.879   2.357   2.237  0.5374  0.1899  0.9127
 1302SOL    HW215543   1.801   2.404   2.347 -0.3669  0.2687  0.5385
 1303SOL     OW15544   1.351   3.686   9.123  0.4027  0.4803 -0.3265
 1303SOL    HW115545   1.388   3.702   9.210  1.4392  1.0564 -0.8605
 1303SOL    HW215546   1.327   3.595   9.138 -1.1515  1.2436  1.6750
 1304SOL     OW15547   1.953   1.087  11.860 -0.3247 -0.1217 -0.5858
 1304SOL    HW115548   1.911   1.036  11.791  0.6873  1.0365 -2.0448
 1304SOL    HW215549   1.942   1.177  11.831  0.1581  0.1960  0.1908
 1305SOL     OW15550   3.030   2.385   8.689 -0.0729 -0.0481  0.5954
 1305SOL    HW115551   3.031   2.300   8.734 -0.3111  0.1196  0.9114
 1305SOL    HW215552   2.939   2.388   8.660  0.3661  0.5108 -0.7136
 1306SOL     OW15553   1.946   1.084   2.742 -0.2560 -0.3616  0.2177
 1306SOL    HW115554   1.888   1.028   2.794  0.3009 -3.0364 -2.0466
 1306SOL    HW215555   1.945   1.051   2.652 -0.2235 -0.0312  0.0968
 1307SOL     OW15556   4.163   2.736   4.977 -0.1557 -0.0207 -0.4402
 1307SOL    HW115557   4.196   2.656   4.938  1.4962  0.3686  0.1579
 1307SOL    HW215558   4.238   2.787   4.947 -0.6234  1.3071  0.6721
 1308SOL     OW15559   2.834   4.387   1.560  0.1448 -0.2032 -0.3497
 1308SOL    HW115560   2.916   4.437   1.563 -0.4662  0.8618 -1.0825
 1308SOL    HW215561   2.780   4.464   1.539  0.7645  0.9270  2.2568
 1309SOL     OW15562   1.045   0.621   1.095 -0.1403 -0.2300 -0.0060
 1309SOL    HW115563   0.952   0.597   1.092 -0.2494  0.1767  0.2959
 1309SOL    HW215564   1.072   0.611   1.003  2.0798 -0.2299  0.6570
 1310SOL     OW15565   3.473   3.769  13.126 -0.3875 -0.2901  0.2318
 1310SOL    HW115566   3.467   3.851  13.078 -0.4893  0.2835  1.2351
 1310SOL    HW215567   3.434   3.714  13.058 -0.5959 -0.3543  0.4021
 1311SOL     OW15568   3.704   4.517   2.306  1.0442 -0.1689  0.0669
 1311SOL    HW115569   3.777   4.563   2.263  0.6460 -0.0061 -0.4383
 1311SOL    HW215570   3.680   4.566   2.384  0.5002 -1.7064  0.8547
 1312SOL     OW15571   4.073   0.820   0.640 -0.1589 -0.3365 -0.2631
 1312SOL    HW115572   4.117   0.880   0.700  0.0483 -0.1168 -0.6377
 1312SOL    HW215573   4.072   0.882   0.567 -0.2145 -2.1546 -1.8331
 1313SOL     OW15574   4.469   4.591   1.704  0.2193  0.2574 -0.0309
 1313SOL    HW115575   4.511   4.592   1.618  3.6927  0.6735  1.6416
 1313SOL    HW215576   4.535   4.620   1.767 -1.6056 -1.9166  2.8861
 1314SOL     OW15577   0.393   3.958   8.748 -0.0076 -0.6599  0.5025
 1314SOL    HW115578   0.383   3.968   8.843  2.4857 -2.8555  0.9858
 1314SOL    HW215579   0.306   3.935   8.716  0.1206 -1.6662  0.8872
 1315SOL     OW15580   3.701   0.525   5.848  0.3783  0.6957  0.3295
 1315SOL    HW115581   3.736   0.467   5.915 -0.0537  0.9691  0.7946
 1315SOL    HW215582   3.609   0.516   5.871  0.1663  0.0075 -0.7963
 1316SOL     OW15583   1.634   0.911   2.426  0.2563 -0.2128 -0.3691
 1316SOL    HW115584   1.695   0.982   2.408  0.4696 -0.3634 -0.2497
 1316SOL    HW215585   1.660   0.845   2.361 -0.2443 -1.1571  0.3896
 1317SOL     OW15586   0.265   1.563  16.042  0.4510  0.4197 -0.0295
 1317SOL    HW115587   0.192   1.502  16.033  1.8444 -0.9394 -1.9568
 1317SOL    HW215588   0.315   1.543  15.963 -1.2522 -0.7530 -0.7986
 1318SOL     OW15589   0.158   4.092   1.826 -0.0828 -0.1111  0.5117
 1318SOL    HW115590   0.117   4.172   1.792  2.2686  0.0799 -1.8834
 1318SOL    HW215591   0.231   4.084   1.764 -0.0826  3.5524  0.0324
 1319SOL     OW15592   0.646   2.717  14.250  0.3023 -0.9022  0.0039
 1319SOL    HW115593   0.587   2.643  14.238  1.5058 -2.0882  1.5276
 1319SOL    HW215594   0.621   2.747  14.337  0.2546 -2.4040  0.5038
 1320SOL     OW15595   1.422   0.614  12.480  0.2911 -0.2212  0.7017
 1320SOL    HW115596   1.507   0.642  12.515 -0.7125  2.0441  1.3328
 1320SOL    HW215597   1.359   0.684  12.498  1.7271  0.8311  1.6183
 1321SOL     OW15598   0.257   1.656  14.199 -0.0170  0.0693 -0.1782
 1321SOL    HW115599   0.322   1.588  14.179  0.3059  0.1886  0.4633
 1321SOL    HW215600   0.317   1.730  14.199 -0.3258  0.3220  1.4793
 1322SOL     OW15601   4.721   2.302   3.865 -0.1113  0.1147 -0.1333
 1322SOL    HW115602   0.004   2.316   3.773 -1.7985  0.2183 -0.5019
 1322SOL    HW215603   0.039   2.373   3.898  0.1470 -0.5924  0.9606
 1323SOL     OW15604   3.793   1.199  13.530  0.1027  0.2021  0.0479
 1323SOL    HW115605   3.866   1.164  13.580  0.0424 -1.4126 -1.0160
 1323SOL    HW215606   3.830   1.245  13.455 -2.1522 -1.7081 -2.2132
 1324SOL     OW15607   1.267   4.459  17.197 -0.5909 -0.0555 -0.4506
 1324SOL    HW115608   1.209   4.535  17.191  1.5997  1.4005 -3.2316
 1324SOL    HW215609   1.209   4.383  17.190 -0.7661  0.0008  0.4454
 1325SOL     OW15610   0.879   2.778  14.108 -0.1697  0.4638  0.3035
 1325SOL    HW115611   0.805   2.763  14.166  0.7671  2.2760  1.9614
 1325SOL    HW215612   0.841   2.759  14.022 -0.5045 -0.8314  0.7318
 1326SOL     OW15613   4.389   3.155   8.547  0.3877 -0.8930 -0.0251
 1326SOL    HW115614   4.337   3.154   8.627  0.5575  3.1924  0.1141
 1326SOL    HW215615   4.472   3.134   8.591  0.1458 -0.0536  0.8350
 1327SOL     OW15616   3.663   4.242   6.706 -0.1634  0.2131  0.2321
 1327SOL    HW115617   3.605   4.207   6.638 -0.2811 -0.8097  0.8595
 1327SOL    HW215618   3.657   4.185   6.783  1.5278  0.1944  0.3495
 1328SOL     OW15619   3.346   4.330  12.331 -0.1510 -0.2464 -0.6950
 1328SOL    HW115620   3.353   4.277  12.252  3.6340 -0.9425  0.1185
 1328SOL    HW215621   3.432   4.371  12.336 -0.4405  0.5158 -1.8812
 1329SOL     OW15622   0.758   2.268   2.028 -0.3262  0.0360  0.5428
 1329SOL    HW115623   0.701   2.291   1.954 -3.1689  0.2739  2.8012
 1329SOL    HW215624   0.763   2.356   2.064  0.2077  0.0111  0.5349
 1330SOL     OW15625   0.861   1.617   1.162  0.0965  0.0728 -0.3274
 1330SOL    HW115626   0.904   1.697   1.135 -0.4418  0.8434  1.1128
 1330SOL    HW215627   0.935   1.563   1.188  0.5195  0.4896 -0.6884
 1331SOL     OW15628   1.331   4.305   8.227 -0.1923 -0.1767  0.7475
 1331SOL    HW115629   1.389   4.259   8.287 -0.6666 -1.5177  0.1556
 1331SOL    HW215630   1.284   4.228   8.195  0.5293 -1.7587  3.5110
 1332SOL     OW15631   4.281   0.363   4.806  0.3506 -0.5307 -0.2331
 1332SOL    HW115632   4.267   0.441   4.859  1.6823 -0.8544  0.6066
 1332SOL    HW215633   4.372   0.340   4.825 -0.2700 -2.2491  0.6104
 1333SOL     OW15634   1.311   3.319   9.872  0.4473 -0.8333 -0.5043
 1333SOL    HW115635   1.278   3.404   9.903  1.5245 -1.4592  2.3620
 1333SOL    HW215636   1.353   3.342   9.789 -0.2275 -0.0191 -0.6241
 1334SOL     OW15637   1.076   2.088  13.320  0.5876 -0.0607  0.7686
 1334SOL    HW115638   1.057   2.170  13.364  2.1390 -0.4650  2.1872
 1334SOL    HW215639   1.142   2.125  13.261 -2.4128  1.7884 -1.4260
 1335SOL     OW15640   1.383   3.547  15.460  0.4308  0.1004  0.2332
 1335SOL    HW115641   1.407   3.532  15.369  1.4013  0.4369  0.4337
 1335SOL    HW215642   1.390   3.643  15.459  0.6496  0.1054  3.1949
 1336SOL     OW15643   2.358   3.047  13.298 -0.2944  0.4551 -0.0355
 1336SOL    HW115644   2.391   3.135  13.320  1.9171  0.1965 -2.3531
 1336SOL    HW215645   2.272   3.069  13.261 -0.9979  0.6838  1.7233
 1337SOL     OW15646   0.742   0.155  16.687 -0.0362 -0.0841  0.2557
 1337SOL    HW115647   0.833   0.129  16.673 -0.8816 -2.9413 -0.0711
 1337SOL    HW215648   0.743   0.155  16.782 -2.8318  0.9952  0.2658
 1338SOL     OW15649   3.479   1.132   8.723 -0.2383 -0.0238  0.7766
 1338SOL    HW115650   3.520   1.191   8.787  0.4788 -0.2184  0.4854
 1338SOL    HW215651   3.400   1.144   8.777  0.8479  1.1004  2.1230
 1339SOL     OW15652   1.668   2.002   2.718  0.0922 -0.0198 -0.1946
 1339SOL    HW115653   1.725   1.945   2.769  0.6222  0.4825 -0.2218
 1339SOL    HW215654   1.723   2.017   2.641  0.7108 -1.3425 -0.0002
 1340SOL     OW15655   2.340   2.589   4.498 -0.6644  0.3141 -0.1683
 1340SOL    HW115656   2.412   2.561   4.443 -0.1043  1.3670  0.0292
 1340SOL    HW215657   2.279   2.516   4.486  0.3670 -0.3487 -1.3265
 1341SOL     OW15658   2.978   1.495  12.188 -0.1890  0.2671 -0.0090
 1341SOL    HW115659   3.058   1.489  12.239 -1.2486 -0.3687  1.5954
 1341SOL    HW215660   2.920   1.441  12.243  0.3640  0.1416  0.4461
 1342SOL     OW15661   4.635   1.956   4.133  0.6888 -0.7249 -0.2035
 1342SOL    HW115662   4.581   2.006   4.194  1.6682 -0.0213  0.0781
 1342SOL    HW215663   4.714   2.009   4.122  0.1183 -0.4104 -2.6400
 1343SOL     OW15664   1.114   0.997   8.843  0.4637 -0.2944  0.4655
 1343SOL    HW115665   1.110   1.088   8.814  0.3999 -0.5013 -0.1978
 1343SOL    HW215666   1.176   1.007   8.914 -0.6567  0.9187  1.2662
 1344SOL     OW15667   1.468   3.092   2.839 -0.1664 -0.7669 -0.7778
 1344SOL    HW115668   1.520   3.045   2.903 -1.9045 -0.5676  0.7793
 1344SOL    HW215669   1.388   3.039   2.841 -1.0594  0.5658 -1.2971
 1345SOL     OW15670   0.878   2.123   5.363  0.2631 -0.5176 -0.1116
 1345SOL    HW115671   0.963   2.082   5.345  0.7271 -0.4598  1.9534
 1345SOL    HW215672   0.898   2.191   5.426  0.0302 -1.2000  0.7000
 1346SOL     OW15673   0.893   0.137   0.255 -0.3656 -0.5314 -0.1421
 1346SOL    HW115674   0.867   0.216   0.303 -1.2635 -0.6358 -0.4730
 1346SOL    HW215675   0.956   0.172   0.193 -0.9866  0.2183 -0.3426
 1347SOL     OW15676   0.037   0.861   2.832 -0.2287 -0.1343 -0.1188
 1347SOL    HW115677   4.701   0.893   2.882  0.1463 -0.8094  0.8853
 1347SOL    HW215678   0.108   0.888   2.890 -1.0479 -1.5458  1.5442
 1348SOL     OW15679   0.774   0.360   3.604  0.0719  0.1784 -0.3855
 1348SOL    HW115680   0.700   0.406   3.566 -1.5255 -1.0554  1.2166
 1348SOL    HW215681   0.743   0.270   3.608  0.4405  0.0523 -0.3732
 1349SOL     OW15682   3.893   0.386   1.967  0.6279  0.2476 -0.0757
 1349SOL    HW115683   3.852   0.431   2.041 -0.7227 -1.1756  0.0289
 1349SOL    HW215684   3.964   0.349   2.019 -0.3519  1.1602  1.8999
 1350SOL     OW15685   1.104   0.936  12.377 -0.0463  0.3362 -0.5104
 1350SOL    HW115686   1.130   0.911  12.288  1.0944  0.5254 -0.2301
 1350SOL    HW215687   1.163   0.884  12.430 -0.2442 -0.3123 -0.9288
 1351SOL     OW15688   4.672   0.483   5.346 -0.0483 -0.2391 -0.2756
 1351SOL    HW115689   4.676   0.391   5.371 -1.6797 -0.1298  0.3923
 1351SOL    HW215690   4.581   0.503   5.366  0.5596  1.6462  0.6126
 1352SOL     OW15691   2.894   0.426   0.152 -0.4082  0.8149  0.2773
 1352SOL    HW115692   2.946   0.455   0.227 -3.0501  3.3633  1.1386
 1352SOL    HW215693   2.876   0.337   0.181  0.7145  1.2258  2.2614
 1353SOL     OW15694   4.431   2.611  11.301 -0.0763  0.2241  0.3615
 1353SOL    HW115695   4.486   2.654  11.367 -0.4889 -1.2886  1.6780
 1353SOL    HW215696   4.468   2.663  11.229 -1.3210 -2.5668 -2.3159
 1354SOL     OW15697   0.165   1.762   7.827  0.2818 -0.2972  0.4310
 1354SOL    HW115698   0.130   1.701   7.762 -0.9090  0.7545  0.0852
 1354SOL    HW215699   0.139   1.722   7.910 -2.3701 -0.6098 -0.5519
 1355SOL     OW15700   1.181   3.275   6.013 -0.2696  0.1050 -0.5435
 1355SOL    HW115701   1.152   3.184   6.005 -2.5711  0.8038 -0.1851
 1355SOL    HW215702   1.176   3.301   5.921  0.5998  0.8909 -0.3580
 1356SOL     OW15703   4.259   3.531   3.690 -0.4490 -0.0911 -0.1304
 1356SOL    HW115704   4.291   3.445   3.664  0.6668  0.4853 -0.6368
 1356SOL    HW215705   4.330   3.560   3.748  1.5763 -1.8420 -1.7398
 1357SOL     OW15706   4.320   2.947   4.494  0.5200  0.0598 -0.0019
 1357SOL    HW115707   4.318   3.013   4.424 -2.1055 -2.8279 -2.6406
 1357SOL    HW215708   4.225   2.944   4.505  0.6991 -0.7154  1.2612
 1358SOL     OW15709   3.059   4.453   1.265 -0.3173  0.0551  0.2886
 1358SOL    HW115710   2.994   4.387   1.241 -1.3299  1.6564 -1.3410
 1358SOL    HW215711   3.040   4.510   1.191 -0.3987 -0.6488 -0.2303
 1359SOL     OW15712   2.401   3.294   7.335 -0.5057  0.1128  0.5453
 1359SOL    HW115713   2.401   3.378   7.288 -1.2620 -0.5947 -0.6922
 1359SOL    HW215714   2.390   3.329   7.424  0.4787  2.2534 -0.1640
 1360SOL     OW15715   3.165   0.279   6.600  0.0649  0.2029  0.6463
 1360SOL    HW115716   3.133   0.232   6.677  0.7928 -2.8180 -0.8879
 1360SOL    HW215717   3.092   0.256   6.543  3.1931  0.1971 -3.4116
 1361SOL     OW15718   1.763   4.654   4.926 -0.7468 -0.5402  0.1649
 1361SOL    HW115719   1.800   4.629   5.010 -0.9478 -1.3567  0.0058
 1361SOL    HW215720   1.815   4.608   4.860 -0.4739 -0.2913  0.2065
 1362SOL     OW15721   0.668   3.043   5.469 -0.1617 -0.1404  0.1172
 1362SOL    HW115722   0.676   3.026   5.375 -0.4230  0.2427  0.0256
 1362SOL    HW215723   0.640   2.955   5.496  0.7554  0.0136  1.5857
 1363SOL     OW15724   4.471   2.071   6.083 -0.6449 -0.4734  0.9639
 1363SOL    HW115725   4.437   1.982   6.071  0.0757 -0.7010  0.6283
 1363SOL    HW215726   4.450   2.105   5.996 -0.8240  2.5227  2.1737
 1364SOL     OW15727   0.968   3.588   8.788 -0.2002 -0.0444  0.1932
 1364SOL    HW115728   0.994   3.651   8.720  0.0579 -0.1686  0.1753
 1364SOL    HW215729   0.999   3.641   8.862 -0.7346  0.5467 -0.0014
 1365SOL     OW15730   3.182   1.558  10.878 -0.4535  0.1571 -0.5940
 1365SOL    HW115731   3.153   1.471  10.905 -0.8713  0.4310 -0.1495
 1365SOL    HW215732   3.249   1.514  10.827  0.7499 -1.2933  2.2094
 1366SOL     OW15733   1.712   4.020  11.609 -0.2061 -0.0533  0.2992
 1366SOL    HW115734   1.743   3.997  11.697  0.3323  1.0917  0.4090
 1366SOL    HW215735   1.638   4.077  11.633 -2.3540 -1.8815 -2.0664
 1367SOL     OW15736   3.598   2.986   1.933 -0.6652 -0.7041 -0.1861
 1367SOL    HW115737   3.627   3.077   1.920  1.4448 -1.4033 -0.3913
 1367SOL    HW215738   3.602   2.966   1.839  1.3746  1.6740 -0.5999
 1368SOL     OW15739   1.236   0.407   5.482 -0.0582  0.3078  0.3744
 1368SOL    HW115740   1.213   0.428   5.392 -0.0742 -1.6635 -0.0915
 1368SOL    HW215741   1.316   0.356   5.468  0.3754  0.7614  1.1957
 1369SOL     OW15742   4.031   3.795   4.872  0.3502 -0.0526  0.5003
 1369SOL    HW115743   4.015   3.723   4.933  1.2912  0.2537  1.1200
 1369SOL    HW215744   3.939   3.811   4.853  0.5467 -1.9768 -1.9890
 1370SOL     OW15745   1.747   2.454   6.032  0.3711 -0.0198 -0.6465
 1370SOL    HW115746   1.730   2.371   6.077 -1.6610  0.5083 -0.4593
 1370SOL    HW215747   1.766   2.430   5.942 -0.5140  0.4228 -0.9547
 1371SOL     OW15748   0.261   2.670   6.021 -0.0119  0.0808 -0.4159
 1371SOL    HW115749   0.201   2.608   5.980  0.1783 -0.0555 -0.4908
 1371SOL    HW215750   0.232   2.755   5.989 -1.7179  0.4817  2.1395
 1372SOL     OW15751   2.778   0.376   3.504 -0.4303 -0.1221  0.5679
 1372SOL    HW115752   2.766   0.301   3.446 -2.3309  2.3111 -2.1897
 1372SOL    HW215753   2.690   0.414   3.501  0.6723  2.4143  0.1343
 1373SOL     OW15754   1.586   3.401   5.537  0.6558 -0.0075  0.2568
 1373SOL    HW115755   1.523   3.357   5.594 -0.6091  0.5795 -0.6910
 1373SOL    HW215756   1.606   3.481   5.586  1.6606 -1.5309  2.3155
 1374SOL     OW15757   2.000   2.850   4.375 -0.3627 -0.0572 -0.3178
 1374SOL    HW115758   2.005   2.843   4.470  1.7494 -1.3636 -0.5218
 1374SOL    HW215759   1.934   2.919   4.373 -1.8272 -1.5270 -3.0670
 1375SOL     OW15760   1.770   4.359   3.227 -0.2574 -0.4476 -0.0272
 1375SOL    HW115761   1.683   4.378   3.262 -0.6324  0.2269 -1.3088
 1375SOL    HW215762   1.824   4.433   3.255 -0.8197  0.7501 -2.0708
 1376SOL     OW15763   0.465   2.327   2.581  0.4241  0.3100 -0.3037
 1376SOL    HW115764   0.490   2.399   2.524  0.7553 -0.0134 -0.5709
 1376SOL    HW215765   0.465   2.264   2.509  0.4331 -0.3093  0.2395
 1377SOL     OW15766   4.593   2.534  16.901 -0.0955 -0.0327  0.0148
 1377SOL    HW115767   4.547   2.450  16.911  0.5833 -0.3954  0.0790
 1377SOL    HW215768   4.653   2.521  16.828  0.6051 -0.3182  0.6429
 1378SOL     OW15769   4.309   3.038   2.055  0.1821 -0.8946  0.5448
 1378SOL    HW115770   4.360   3.088   2.120  0.3728  0.2281 -0.4787
 1378SOL    HW215771   4.228   3.089   2.063  0.2211 -1.1532  2.6706
 1379SOL     OW15772   2.485   2.309   8.091  0.3473  0.7342 -0.6412
 1379SOL    HW115773   2.490   2.267   8.176 -0.5528  0.8058 -0.5469
 1379SOL    HW215774   2.529   2.245   8.035  0.1440  0.8323 -0.9146
 1380SOL     OW15775   0.138   1.298   1.891  0.4909  0.2806  0.1677
 1380SOL    HW115776   0.096   1.258   1.815  0.4288  3.0729 -1.2605
 1380SOL    HW215777   0.211   1.238   1.906  1.7124  1.1176 -2.5106
 1381SOL     OW15778   2.809   4.650   8.705 -0.4546 -0.5306  0.2556
 1381SOL    HW115779   2.876   4.703   8.661 -0.5260 -1.1593 -0.6211
 1381SOL    HW215780   2.734   4.644   8.644  0.6637  0.4285 -1.2147
 1382SOL     OW15781   4.381   4.480  14.546 -0.1835 -0.5339  0.2428
 1382SOL    HW115782   4.371   4.385  14.555  0.9104 -0.7461 -0.7850
 1382SOL    HW215783   4.475   4.487  14.567 -0.2714  1.1823  0.0146
 1383SOL     OW15784   0.058   3.709   8.261 -0.0180 -0.4605 -0.6008
 1383SOL    HW115785   4.715   3.713   8.312  0.3463 -0.6298 -0.0009
 1383SOL    HW215786   0.123   3.724   8.330  0.2782  0.8678 -1.1810
 1384SOL     OW15787   4.271   4.666   2.550 -0.3028  0.8784 -0.1547
 1384SOL    HW115788   4.257   4.602   2.481  0.4360  2.4034 -1.7283
 1384SOL    HW215789   4.350   4.619   2.579 -0.2841  0.6969 -0.5020
 1385SOL     OW15790   0.015   1.139   1.708  0.2695  0.2747 -0.1818
 1385SOL    HW115791   0.000   1.076   1.778 -1.5082  0.3806 -0.4547
 1385SOL    HW215792   4.702   1.097   1.639 -0.6594  0.7792  0.1973
 1386SOL     OW15793   2.043   0.557  16.745 -0.3001  0.0684  0.4888
 1386SOL    HW115794   1.986   0.600  16.682 -1.8345 -1.2469  0.9848
 1386SOL    HW215795   2.001   0.593  16.824 -1.7846 -0.5600 -0.0227
 1387SOL     OW15796   1.507   2.136   9.269  0.0103  0.0253  0.1424
 1387SOL    HW115797   1.473   2.097   9.350 -1.7123  2.1583  0.4513
 1387SOL    HW215798   1.556   2.216   9.285  0.3003 -0.0807 -0.2354
 1388SOL     OW15799   1.812   3.769   0.997  0.1876  0.3889  0.4024
 1388SOL    HW115800   1.722   3.748   0.976  0.0640 -0.9552  2.2431
 1388SOL    HW215801   1.806   3.838   1.064 -2.6402  0.5770 -0.0502
 1389SOL     OW15802   3.453   0.487  16.658 -0.0701 -0.1656 -0.1552
 1389SOL    HW115803   3.406   0.413  16.620 -0.0252 -0.4066  0.2579
 1389SOL    HW215804   3.442   0.486  16.753  0.3911 -1.1113 -0.1114
 1390SOL     OW15805   1.370   1.673  12.050 -0.1488  0.2150 -0.1808
 1390SOL    HW115806   1.410   1.683  11.963  1.6831 -1.7744  0.4251
 1390SOL    HW215807   1.443   1.626  12.090  0.0550  1.8893  1.4534
 1391SOL     OW15808   2.628   1.210   3.077 -0.3167 -0.5247  0.1487
 1391SOL    HW115809   2.719   1.182   3.075 -0.1206  0.1568 -0.8969
 1391SOL    HW215810   2.589   1.151   3.013 -0.2538 -0.7699  0.3390
 1392SOL     OW15811   1.919   0.569   7.510 -0.1280 -0.2186  0.0516
 1392SOL    HW115812   1.973   0.628   7.562  1.4696 -1.6172 -0.0106
 1392SOL    HW215813   1.972   0.492   7.488  1.5707  0.8838  0.3480
 1393SOL     OW15814   1.205   1.987   7.639 -0.1615 -0.0205  0.5612
 1393SOL    HW115815   1.188   2.072   7.679  3.6869  1.6804 -1.4700
 1393SOL    HW215816   1.119   1.949   7.658 -0.7245  1.1519  0.3429
 1394SOL     OW15817   1.583   0.472   1.545  0.6810  0.2351  0.4994
 1394SOL    HW115818   1.491   0.457   1.566 -0.0896  2.0752 -1.6144
 1394SOL    HW215819   1.577   0.538   1.476 -0.8258  0.3802  0.7676
 1395SOL     OW15820   1.368   2.093   4.139 -0.0247 -0.1282 -0.0341
 1395SOL    HW115821   1.443   2.047   4.101  1.7446  1.1675  1.9277
 1395SOL    HW215822   1.296   2.031   4.130 -0.8996  0.5436  2.5427
 1396SOL     OW15823   2.309   3.410   1.411  0.1570 -0.0909  0.3179
 1396SOL    HW115824   2.330   3.349   1.341  0.5043  0.6191 -0.2041
 1396SOL    HW215825   2.215   3.430   1.410  0.2898  0.3882 -1.7679
 1397SOL     OW15826   4.317   4.568   5.489  0.1263 -0.3754  0.1203
 1397SOL    HW115827   4.381   4.594   5.424  0.0941  0.0292  0.2464
 1397SOL    HW215828   4.330   4.474   5.485 -0.5625 -0.4607 -0.1550
 1398SOL     OW15829   3.141   1.226   3.481 -0.1102 -0.4463  0.2167
 1398SOL    HW115830   3.156   1.266   3.566 -1.6225  1.9276 -0.6414
 1398SOL    HW215831   3.126   1.296   3.418 -1.3857 -1.8811 -1.0983
 1399SOL     OW15832   4.025   1.356   4.165  0.4253  0.1794 -0.0883
 1399SOL    HW115833   3.958   1.424   4.151 -0.4585 -0.3153  1.7236
 1399SOL    HW215834   4.000   1.303   4.089 -0.4226 -0.0824  0.3679
 1400SOL     OW15835   2.076   1.703   9.204 -0.1588  0.8186  0.3880
 1400SOL    HW115836   2.163   1.701   9.244 -0.8892 -4.2984  1.7384
 1400SOL    HW215837   2.031   1.673   9.283  0.2924 -2.1002 -0.4518
 1401SOL     OW15838   3.076   1.992   6.022 -0.0587  0.6023 -0.3491
 1401SOL    HW115839   3.089   1.906   5.982 -0.7920  0.2616  0.1366
 1401SOL    HW215840   3.148   2.044   5.986  0.1732  0.1208 -0.5809
 1402SOL     OW15841   1.247   2.946   6.069 -0.4331 -0.8031  0.3322
 1402SOL    HW115842   1.154   2.954   6.087 -0.5593  0.2487 -0.8256
 1402SOL    HW215843   1.285   2.977   6.151 -1.6128  1.0561  0.1662
 1403SOL     OW15844   0.704   2.420   8.400 -0.4222  0.1713 -0.6114
 1403SOL    HW115845   0.713   2.368   8.480 -0.3469 -1.0417 -1.4026
 1403SOL    HW215846   0.797   2.442   8.393 -1.1274  2.4462 -2.5178
 1404SOL     OW15847   3.544   2.537   8.946 -0.1349  0.0469  0.1299
 1404SOL    HW115848   3.515   2.450   8.918 -0.5444 -0.6583  2.7514
 1404SOL    HW215849   3.516   2.540   9.037  0.9331  2.3877  0.3643
 1405SOL     OW15850   0.253   2.799   6.272 -0.2785 -0.0359 -0.1775
 1405SOL    HW115851   0.256   2.746   6.193 -0.1699  0.3243 -0.4141
 1405SOL    HW215852   0.216   2.738   6.336  1.3053  0.8503  1.5788
 1406SOL     OW15853   4.452   0.177   8.272 -0.5272  0.4425 -0.5140
 1406SOL    HW115854   4.481   0.121   8.200  2.8897  1.8292 -0.2367
 1406SOL    HW215855   4.527   0.166   8.330 -1.0359  1.1278  0.2840
 1407SOL     OW15856   2.582   4.414   3.933 -0.1183  0.4194 -0.1599
 1407SOL    HW115857   2.535   4.479   3.881 -1.0391  0.6745  0.9987
 1407SOL    HW215858   2.513   4.378   3.988  3.6270 -1.9574  2.9428
 1408SOL     OW15859   0.653   3.740   9.740  0.3628  0.3795 -0.5526
 1408SOL    HW115860   0.656   3.818   9.795 -0.8708  0.4570 -0.5934
 1408SOL    HW215861   0.714   3.760   9.669  0.8678 -1.4185 -0.6351
 1409SOL     OW15862   1.344   2.969  15.106  0.0104 -0.8404 -0.6909
 1409SOL    HW115863   1.260   2.997  15.144  1.3641 -0.1619  1.8434
 1409SOL    HW215864   1.359   2.885  15.149 -2.2209 -0.1096  1.5263
 1410SOL     OW15865   1.345   2.990   2.042 -0.0079 -0.1576 -0.3299
 1410SOL    HW115866   1.350   2.919   2.106  0.6886 -1.3625 -1.7292
 1410SOL    HW215867   1.332   3.067   2.098 -0.8180 -1.4222  1.1991
 1411SOL     OW15868   3.805   0.440   4.903  0.1985  0.8163  0.1179
 1411SOL    HW115869   3.781   0.433   4.995 -1.8460  0.0617 -0.4711
 1411SOL    HW215870   3.733   0.398   4.856  0.9172 -0.1386 -0.1341
 1412SOL     OW15871   4.640   0.476  15.922 -0.1070 -0.3064  0.6056
 1412SOL    HW115872   4.579   0.426  15.976 -0.9400  0.8722  0.7573
 1412SOL    HW215873   4.685   0.528  15.989 -1.6058  0.3520  1.1005
 1413SOL     OW15874   2.704   3.867   6.362  0.1492 -0.0780  0.3020
 1413SOL    HW115875   2.793   3.901   6.361 -0.6111  1.8588 -0.5335
 1413SOL    HW215876   2.641   3.939   6.357  0.0386  0.0038  2.9052
 1414SOL     OW15877   1.858   1.606  10.325  0.3678  0.1166 -0.1102
 1414SOL    HW115878   1.794   1.656  10.374  0.4551 -0.4783  0.6178
 1414SOL    HW215879   1.941   1.653  10.331  0.7393 -0.3957 -1.1395
 1415SOL     OW15880   4.084   3.696   0.166  1.0334  0.1770 -0.3065
 1415SOL    HW115881   4.048   3.617   0.207  0.6908  1.0774  1.1281
 1415SOL    HW215882   4.163   3.669   0.119  0.9608 -0.1900 -0.2248
 1416SOL     OW15883   4.204   0.023   7.335 -0.3448 -0.0700  0.1459
 1416SOL    HW115884   4.284   0.074   7.321 -1.1671  1.7646  1.9647
 1416SOL    HW215885   4.229   4.712   7.413 -1.4824  1.5899  1.5492
 1417SOL     OW15886   4.012   3.829   6.874 -0.6294  0.1880 -0.4816
 1417SOL    HW115887   4.037   3.793   6.959 -2.5868  0.8996  0.3974
 1417SOL    HW215888   4.076   3.787   6.818  0.8312 -0.4049  1.6344
 1418SOL     OW15889   4.364   4.094  16.675  0.0255  0.2822 -0.2922
 1418SOL    HW115890   4.436   4.106  16.737  0.2404 -1.0399 -0.2875
 1418SOL    HW215891   4.298   4.148  16.719  2.9582  2.0325  1.9652
 1419SOL     OW15892   1.864   2.606   4.710 -0.6121 -0.5845 -0.1363
 1419SOL    HW115893   1.844   2.532   4.653 -0.6050 -1.8083  1.4517
 1419SOL    HW215894   1.786   2.615   4.764 -1.0037  1.2317 -1.0123
 1420SOL     OW15895   3.326   1.126  13.084 -0.3748  0.1491 -0.0004
 1420SOL    HW115896   3.358   1.205  13.129 -0.9659  1.2759 -1.5487
 1420SOL    HW215897   3.288   1.087  13.163 -0.3550  0.1866  0.0278
 1421SOL     OW15898   2.583   0.561  15.668 -1.2347 -0.1978 -0.6866
 1421SOL    HW115899   2.554   0.491  15.609 -2.9604 -0.2813  0.2547
 1421SOL    HW215900   2.557   0.645  15.630  1.0834  2.0537  2.7316
 1422SOL     OW15901   2.155   0.069   4.260  0.2693 -0.4429 -0.7914
 1422SOL    HW115902   2.130   0.080   4.168  0.8403 -0.8689 -0.9971
 1422SOL    HW215903   2.179   0.154   4.296  0.5587 -0.6813 -0.4174
 1423SOL     OW15904   3.343   2.825  17.235 -0.0325  0.5658 -0.2956
 1423SOL    HW115905   3.318   2.905  17.190  0.7185  0.2643 -1.2410
 1423SOL    HW215906   3.432   2.845  17.262  0.2865  0.1911 -1.0475
 1424SOL     OW15907   3.797   2.759  15.094 -0.5720  0.7614 -0.4998
 1424SOL    HW115908   3.710   2.775  15.130 -0.6466  1.7447 -1.1087
 1424SOL    HW215909   3.844   2.840  15.113  1.5291 -0.7597  0.7786
 1425SOL     OW15910   2.864   2.667   2.709  0.8662  0.0215 -0.0366
 1425SOL    HW115911   2.874   2.573   2.691 -0.1890  0.1721 -1.4072
 1425SOL    HW215912   2.860   2.697   2.619 -0.2013 -0.2316 -0.0777
 1426SOL     OW15913   1.454   4.026   9.286 -0.2016  0.3621  0.8408
 1426SOL    HW115914   1.524   3.961   9.286 -0.4241  0.1178  1.5108
 1426SOL    HW215915   1.479   4.080   9.211  0.1317 -1.6097 -0.4884
 1427SOL     OW15916   0.498   3.245   4.508 -0.0403 -0.6012  0.2410
 1427SOL    HW115917   0.558   3.178   4.541 -2.3924 -3.4150 -1.1637
 1427SOL    HW215918   0.451   3.255   4.591 -2.4323 -0.4776 -1.1058
 1428SOL     OW15919   2.108   1.049   3.062 -0.1677  0.0339  0.3380
 1428SOL    HW115920   2.194   1.089   3.055  0.2033 -0.7569  0.4841
 1428SOL    HW215921   2.060   1.119   3.017 -1.2371 -0.7705  0.2053
 1429SOL     OW15922   2.466   3.283   2.110  0.4104 -0.3999 -0.2676
 1429SOL    HW115923   2.382   3.269   2.066  1.2032 -1.1087 -1.5677
 1429SOL    HW215924   2.505   3.351   2.054  2.1324  0.8544  2.4894
 1430SOL     OW15925   3.784   2.020   7.602  0.6993 -0.4157  0.3540
 1430SOL    HW115926   3.784   2.036   7.697 -2.0085 -0.4894  0.3574
 1430SOL    HW215927   3.820   2.106   7.577 -1.8993  0.1897 -1.2112
 1431SOL     OW15928   0.216   0.742  14.104 -0.5041 -0.6395 -0.1100
 1431SOL    HW115929   0.188   0.829  14.132  1.7330  0.5452 -1.5650
 1431SOL    HW215930   0.227   0.756  14.010 -2.6419  1.6387 -0.0221
 1432SOL     OW15931   4.666   4.074   3.843  0.3774  0.2048 -0.3485
 1432SOL    HW115932   4.634   3.988   3.869 -1.0177  0.8567  0.1013
 1432SOL    HW215933   4.615   4.136   3.895  0.2678  0.6448 -0.9758
 1433SOL     OW15934   0.605   0.147  12.148 -0.0188 -0.1102 -0.0448
 1433SOL    HW115935   0.640   0.121  12.063 -2.1142 -0.8662 -0.6917
 1433SOL    HW215936   0.607   0.061  12.191 -0.3667  0.1659  0.5229
 1434SOL     OW15937   0.759   3.811   4.162  0.9305  0.4109  0.5126
 1434SOL    HW115938   0.773   3.772   4.248 -0.6344  0.6975  0.9068
 1434SOL    HW215939   0.678   3.772   4.130  0.7093  0.1534  1.3799
 1435SOL     OW15940   2.421   0.914   3.115  0.0282  0.3516 -0.0380
 1435SOL    HW115941   2.455   0.975   3.050 -1.7013  1.0699 -0.2805
 1435SOL    HW215942   2.354   0.870   3.063 -0.3983 -0.9435  1.6084
 1436SOL     OW15943   4.456   2.901   7.108  0.2029  0.0442 -0.1282
 1436SOL    HW115944   4.486   2.810   7.100  0.8274  0.3594 -1.3840
 1436SOL    HW215945   4.489   2.922   7.195 -1.3236  2.7273 -0.2165
 1437SOL     OW15946   1.657   2.954  10.676 -0.0339 -0.7457 -0.5734
 1437SOL    HW115947   1.670   3.043  10.643 -0.1470 -1.5330 -2.6972
 1437SOL    HW215948   1.741   2.916  10.651  0.0449 -1.2934  0.5070
 1438SOL     OW15949   4.016   3.766   0.848 -0.1775  0.0917 -0.1961
 1438SOL    HW115950   4.080   3.813   0.901  2.4121  0.3510 -3.5301
 1438SOL    HW215951   4.004   3.686   0.898 -1.9399  1.5765  1.7452
 1439SOL     OW15952   0.555   0.832   1.377 -0.0066 -0.2795  0.1156
 1439SOL    HW115953   0.566   0.920   1.340 -2.7661  0.3921  0.8733
 1439SOL    HW215954   0.468   0.806   1.348 -0.2352  0.1603  0.4060
 1440SOL     OW15955   3.081   2.732   6.627 -0.3841 -0.5135 -0.4516
 1440SOL    HW115956   3.031   2.666   6.673 -0.2099 -0.4788 -0.2145
 1440SOL    HW215957   3.012   2.780   6.581 -0.5280  1.3660  1.7239
 1441SOL     OW15958   4.734   0.386   8.819  0.1824 -0.1410 -0.1742
 1441SOL    HW115959   0.053   0.462   8.809 -0.5836  0.6803  1.7319
 1441SOL    HW215960   4.663   0.408   8.759  0.2478 -0.4942 -0.3863
 1442SOL     OW15961   2.346   3.012   7.368 -1.1410 -0.5089  0.5315
 1442SOL    HW115962   2.289   3.084   7.396  0.0993  1.4710 -2.0498
 1442SOL    HW215963   2.423   3.028   7.422 -0.2013  0.5674 -1.1386
 1443SOL     OW15964   0.920   0.905   7.859 -0.1165  0.8712 -0.1480
 1443SOL    HW115965   1.004   0.883   7.899 -1.4781  0.8950  2.6751
 1443SOL    HW215966   0.943   0.978   7.801  2.0821  1.0234  0.9181
 1444SOL     OW15967   0.516   2.955  11.453 -0.4506  0.4023 -0.2266
 1444SOL    HW115968   0.586   3.014  11.427  0.6476 -0.7968  0.0182
 1444SOL    HW215969   0.475   2.939  11.368  0.2545  1.2061 -0.7180
 1445SOL     OW15970   1.061   2.459   2.136  0.5219  0.1808 -0.1368
 1445SOL    HW115971   1.046   2.485   2.045  0.4814  0.4012 -0.0679
 1445SOL    HW215972   1.112   2.379   2.129  1.1302  0.5857 -0.3282
 1446SOL     OW15973   4.420   3.170   9.240 -0.3755  0.1123 -0.0532
 1446SOL    HW115974   4.468   3.206   9.315 -0.2034  1.7984 -0.9552
 1446SOL    HW215975   4.359   3.244   9.230  0.1486  0.4009 -1.0862
 1447SOL     OW15976   4.534   4.721   6.347  0.2338  0.3049  0.4173
 1447SOL    HW115977   4.623   0.016   6.359  0.9616 -1.2510 -0.6675
 1447SOL    HW215978   4.526   0.021   6.260  1.3833 -0.5190 -0.0358
 1448SOL     OW15979   3.381   1.771   2.937  0.0799 -0.0144 -0.2099
 1448SOL    HW115980   3.414   1.725   2.859  0.0346  0.5931 -0.5882
 1448SOL    HW215981   3.464   1.813   2.959 -0.3137  0.0040  1.2250
 1449SOL     OW15982   2.867   2.508   5.923 -0.5342  0.3492  0.4257
 1449SOL    HW115983   2.781   2.541   5.948 -0.2201  0.9849  0.6691
 1449SOL    HW215984   2.898   2.459   5.998 -0.6158  0.4377  0.5171
 1450SOL     OW15985   1.649   0.328   6.321  0.8386 -0.3822 -0.0403
 1450SOL    HW115986   1.591   0.402   6.301 -0.0638 -1.3239 -0.8888
 1450SOL    HW215987   1.641   0.281   6.238  0.1364 -2.4768  1.2173
 1451SOL     OW15988   1.048   0.282   0.022 -0.3216  0.1050 -0.2849
 1451SOL    HW115989   1.105   0.245  17.705  0.1440  0.3448 -0.0297
 1451SOL    HW215990   1.001   0.353  17.728  0.3650  0.3444 -0.6266
 1452SOL     OW15991   2.176   0.348  13.275  0.0189 -0.2873 -0.3853
 1452SOL    HW115992   2.084   0.327  13.291  0.5658 -0.9953  1.7649
 1452SOL    HW215993   2.170   0.444  13.277 -0.7597 -0.2680 -3.1806
 1453SOL     OW15994   2.632   0.738   0.690 -0.4700  0.5312 -0.0307
 1453SOL    HW115995   2.698   0.671   0.711 -1.7555 -0.2252  1.5263
 1453SOL    HW215996   2.654   0.757   0.599  0.6777  1.5283  0.4594
 1454SOL     OW15997   2.792   3.583   8.025 -0.2693  0.6838 -0.1283
 1454SOL    HW115998   2.883   3.576   7.996 -0.4877  0.3512 -0.7345
 1454SOL    HW215999   2.800   3.623   8.112  2.3461  2.3000 -1.0931
 1455SOL     OW16000   2.646   3.129   4.327 -0.3676 -0.5058  0.6549
 1455SOL    HW116001   2.634   3.204   4.386  3.7394  1.1414 -0.6468
 1455SOL    HW216002   2.554   3.113   4.305 -0.0467  0.0583 -1.0706
 1456SOL     OW16003   0.308   2.282   8.102 -0.3017  0.1235 -0.1460
 1456SOL    HW116004   0.350   2.340   8.038 -0.6679 -0.1503 -0.6349
 1456SOL    HW216005   0.264   2.347   8.157 -0.5829 -0.7204  0.6287
 1457SOL     OW16006   4.350   1.210   8.523 -0.3638  0.0765  0.5159
 1457SOL    HW116007   4.365   1.135   8.465  2.7407 -0.0273  1.4951
 1457SOL    HW216008   4.254   1.210   8.527 -0.3103  0.5690  2.0114
 1458SOL     OW16009   0.351   4.651  14.004 -0.2928  0.0264  0.0677
 1458SOL    HW116010   0.275   4.699  13.972  0.8161  2.6748  1.3622
 1458SOL    HW216011   0.365   4.591  13.931  1.1648  1.5449 -0.9187
 1459SOL     OW16012   0.830   1.718  15.471 -0.0809 -0.0385  0.1868
 1459SOL    HW116013   0.814   1.794  15.416  1.0036  0.6468  0.8336
 1459SOL    HW216014   0.744   1.720  15.513  0.2007 -0.2015  0.7764
 1460SOL     OW16015   2.132   0.332   5.093  0.4811  0.2453 -0.4218
 1460SOL    HW116016   2.226   0.323   5.080  0.1827  0.5968 -2.8758
 1460SOL    HW216017   2.111   0.242   5.071  0.6282  0.5506 -1.8173
 1461SOL     OW16018   0.196   4.258   7.042  0.3708  0.0741  0.1951
 1461SOL    HW116019   0.246   4.190   6.996 -0.8586 -0.5255 -0.2753
 1461SOL    HW216020   0.199   4.229   7.133  1.2791  1.5974  0.6468
 1462SOL     OW16021   2.391   0.001   2.448 -0.4973  0.5986 -0.4105
 1462SOL    HW116022   2.406   0.007   2.354  2.8528 -0.4722  0.0379
 1462SOL    HW216023   2.305   0.042   2.449 -0.5850  0.4115  0.0673
 1463SOL     OW16024   2.503   4.113   2.138  0.2201 -0.3511  0.3668
 1463SOL    HW116025   2.415   4.149   2.148 -0.5045 -1.3317 -2.2391
 1463SOL    HW216026   2.490   4.022   2.166  0.6516 -1.2154 -2.1528
 1464SOL     OW16027   4.461   3.054  16.163  0.1281 -0.4443 -0.5425
 1464SOL    HW116028   4.552   3.024  16.157  1.0760  2.3880 -0.2001
 1464SOL    HW216029   4.466   3.140  16.122  0.0997 -0.5255 -0.7184
 1465SOL     OW16030   3.640   3.587   7.797 -0.1155 -0.0428 -0.1821
 1465SOL    HW116031   3.714   3.533   7.824 -0.0011 -0.5766 -1.5421
 1465SOL    HW216032   3.669   3.647   7.728 -0.1136 -0.5757 -0.6435
 1466SOL     OW16033   1.083   1.698   3.522  0.0956  0.1622  0.0542
 1466SOL    HW116034   1.168   1.706   3.566  0.4684 -1.8633 -0.2948
 1466SOL    HW216035   1.098   1.689   3.428  1.3178  0.5272  0.2089
 1467SOL     OW16036   2.126   1.247   4.172  0.6504  0.2522  0.6644
 1467SOL    HW116037   2.167   1.312   4.115 -0.5191  0.3207 -0.0895
 1467SOL    HW216038   2.124   1.289   4.257  3.9646  0.5591  0.5912
 1468SOL     OW16039   3.281   0.961   6.352 -0.3632  0.2491 -0.0672
 1468SOL    HW116040   3.298   0.867   6.354 -0.1182  0.2877 -0.5819
 1468SOL    HW216041   3.262   0.970   6.446  1.6420  1.3680  0.2254
 1469SOL     OW16042   4.538   1.219   5.877 -0.7284 -0.3238  0.0013
 1469SOL    HW116043   4.493   1.254   5.954  0.0530 -0.8694  0.7164
 1469SOL    HW216044   4.491   1.279   5.819 -0.3462  2.4562  2.5471
 1470SOL     OW16045   3.921   1.026   6.482  0.4424  0.0857  0.0260
 1470SOL    HW116046   3.982   1.050   6.412  1.4552 -3.2904 -0.2379
 1470SOL    HW216047   3.976   0.987   6.550 -1.9852 -0.2456  1.8083
 1471SOL     OW16048   4.493   2.970  10.807  0.5983 -0.4763 -0.3286
 1471SOL    HW116049   4.411   3.003  10.843  1.2615 -1.8574  2.4167
 1471SOL    HW216050   4.529   3.055  10.779  0.5356  0.0223  1.1099
 1472SOL     OW16051   1.878   1.809   3.853 -0.0611 -0.3217 -0.3751
 1472SOL    HW116052   1.868   1.742   3.786 -1.6860  0.7951 -1.2405
 1472SOL    HW216053   1.848   1.761   3.931  0.5959  0.6410  0.4729
 1473SOL     OW16054   1.842   4.623   8.491  0.9364 -0.3182  0.0092
 1473SOL    HW116055   1.849   4.718   8.499 -0.7363 -0.1498 -0.5134
 1473SOL    HW216056   1.748   4.614   8.472  1.0024  1.2377 -1.1243
 1474SOL     OW16057   2.117   4.571   0.196 -0.0125  0.2731  0.6999
 1474SOL    HW116058   2.187   4.582   0.132 -0.8987  2.8673  0.1553
 1474SOL    HW216059   2.109   4.476   0.190 -1.9909  0.3217  2.3033
 1475SOL     OW16060   3.344   2.820  14.763 -0.2803 -0.1619 -0.5705
 1475SOL    HW116061   3.269   2.809  14.821  1.0794  0.4507  1.3556
 1475SOL    HW216062   3.422   2.834  14.818  0.7569 -3.9861 -1.0542
 1476SOL     OW16063   2.892   1.834   4.952 -0.2657 -0.2516  0.0244
 1476SOL    HW116064   2.976   1.874   4.929  0.6706 -2.1161  0.2174
 1476SOL    HW216065   2.915   1.797   5.037  0.5711 -3.5213 -1.6432
 1477SOL     OW16066   4.314   4.232   2.766 -0.3435 -0.6209 -0.0368
 1477SOL    HW116067   4.405   4.201   2.773 -0.4140 -1.1820 -1.6028
 1477SOL    HW216068   4.287   4.184   2.844 -2.1573  0.6410  0.0942
 1478SOL     OW16069   0.119   1.967   1.477 -0.6213 -0.2179  0.2993
 1478SOL    HW116070   0.125   1.905   1.550  0.4693  0.8962  1.1608
 1478SOL    HW216071   0.156   2.041   1.526 -2.0472  1.0859 -0.6192
 1479SOL     OW16072   4.685   0.307   9.761 -0.5362 -0.8849 -0.1770
 1479SOL    HW116073   4.688   0.337   9.670 -1.9099  1.2300  0.4548
 1479SOL    HW216074   4.687   0.212   9.758  0.1371 -0.9183  1.2844
 1480SOL     OW16075   2.847   1.382   8.738  0.3385 -0.5859 -0.9092
 1480SOL    HW116076   2.805   1.467   8.746  0.0482 -0.8434  0.3007
 1480SOL    HW216077   2.900   1.382   8.818  1.0031 -0.0997 -1.3531
 1481SOL     OW16078   0.646   2.176  11.303  0.3890  0.4861  0.0751
 1481SOL    HW116079   0.622   2.163  11.211 -0.8031 -0.2832  0.4928
 1481SOL    HW216080   0.739   2.155  11.300  0.1995 -0.1237 -1.3499
 1482SOL     OW16081   1.714   1.571   7.715 -0.9134 -0.2904  0.1175
 1482SOL    HW116082   1.658   1.589   7.791 -0.8460 -0.1368  0.1304
 1482SOL    HW216083   1.782   1.520   7.760  0.7962  1.7618 -0.1421
 1483SOL     OW16084   2.792   2.521   7.954  0.4189  0.2929 -0.0742
 1483SOL    HW116085   2.756   2.511   8.042  0.2290 -0.1263 -0.2001
 1483SOL    HW216086   2.860   2.586   7.974  0.5632  0.1949 -0.2424
 1484SOL     OW16087   4.336   1.479   4.644 -0.5430 -0.7351  0.6501
 1484SOL    HW116088   4.293   1.526   4.573  0.8403 -1.4648 -0.6505
 1484SOL    HW216089   4.291   1.395   4.638 -0.7573 -0.6285  0.7646
 1485SOL     OW16090   3.854   0.486   9.604  0.4854 -0.1669  0.4525
 1485SOL    HW116091   3.900   0.568   9.589 -0.7049  0.4793  0.3224
 1485SOL    HW216092   3.876   0.447   9.519  0.5384  0.0800  0.3540
 1486SOL     OW16093   2.281   3.214   6.558  0.6335  0.0105  0.9252
 1486SOL    HW116094   2.300   3.250   6.472  0.9137  0.5472  1.2161
 1486SOL    HW216095   2.336   3.260   6.620  0.4779  0.8996  0.3965
 1487SOL     OW16096   0.365   2.094   6.227  0.4480  0.0750 -0.2374
 1487SOL    HW116097   0.309   2.170   6.213 -0.4752 -0.5560 -0.0049
 1487SOL    HW216098   0.297   2.027   6.240 -0.7125  1.2533 -0.3075
 1488SOL     OW16099   3.319   1.195   4.182  0.1274 -0.3496  0.0466
 1488SOL    HW116100   3.256   1.226   4.117 -0.8913 -0.4281  0.9887
 1488SOL    HW216101   3.296   1.261   4.248  1.0363  1.8038 -1.7895
 1489SOL     OW16102   0.669   0.212   5.374 -0.1736 -0.0041 -0.0579
 1489SOL    HW116103   0.664   0.231   5.281  1.4034  0.8184  0.0325
 1489SOL    HW216104   0.759   0.180   5.376 -0.8914 -2.1357 -1.2364
 1490SOL     OW16105   0.353   1.848   9.066 -0.1133  0.4892 -0.1962
 1490SOL    HW116106   0.363   1.834   9.160  2.1274  0.4528 -0.4479
 1490SOL    HW216107   0.269   1.893   9.061 -0.6207 -0.4508 -0.1629
 1491SOL     OW16108   2.611   1.349  11.483 -0.0901 -0.6599  0.0372
 1491SOL    HW116109   2.562   1.313  11.409 -0.4372  0.3837 -0.2476
 1491SOL    HW216110   2.691   1.296  11.487  1.5274  1.6539 -1.1557
 1492SOL     OW16111   2.138   2.331  10.587  0.4412  0.1010 -0.0689
 1492SOL    HW116112   2.217   2.348  10.638  1.0575  0.0101 -0.9803
 1492SOL    HW216113   2.184   2.300  10.509  0.6487  1.8853 -0.6566
 1493SOL     OW16114   0.654   1.105  11.024  0.6281 -0.0010 -0.5794
 1493SOL    HW116115   0.617   1.184  11.064 -0.1900 -0.8455  0.3371
 1493SOL    HW216116   0.720   1.072  11.085 -1.1490 -1.9934  0.2639
 1494SOL     OW16117   4.382   2.081   0.159 -0.5955 -0.9958  0.0639
 1494SOL    HW116118   4.467   2.092   0.116  0.9160  0.7749  3.5549
 1494SOL    HW216119   4.404   2.115   0.245  2.6533  0.0884 -1.2078
 1495SOL     OW16120   4.365   1.005   4.166  0.3489  0.2806  0.0530
 1495SOL    HW116121   4.374   0.930   4.224 -0.0140  0.4924  0.3837
 1495SOL    HW216122   4.440   1.056   4.196  0.2596 -0.0251  0.7781
 1496SOL     OW16123   4.543   0.897   6.462 -0.4173 -0.0809  0.0926
 1496SOL    HW116124   4.632   0.865   6.476 -0.3636  1.1729  2.5367
 1496SOL    HW216125   4.530   0.922   6.553 -1.7591 -0.3180 -0.0306
 1497SOL     OW16126   2.403   1.231   6.325 -0.8057 -0.1954  0.2370
 1497SOL    HW116127   2.354   1.220   6.406 -1.3560  1.0457  0.0726
 1497SOL    HW216128   2.329   1.220   6.266 -1.4025 -0.5080  1.0345
 1498SOL     OW16129   1.540   2.806  13.961  0.5606  0.2107 -0.0056
 1498SOL    HW116130   1.470   2.871  13.965 -0.3590 -0.7825 -0.0168
 1498SOL    HW216131   1.573   2.814  14.050  1.4227 -1.7040 -0.1562
 1499SOL     OW16132   0.691   1.282   6.674 -0.0743 -0.3175  0.3355
 1499SOL    HW116133   0.783   1.300   6.658 -0.3780  0.6608 -0.3036
 1499SOL    HW216134   0.647   1.359   6.637 -1.7216 -1.6003 -0.4001
 1500SOL     OW16135   1.949   3.560   1.098 -0.2515 -0.2444  0.4628
 1500SOL    HW116136   1.900   3.631   1.056  1.5845  0.2321 -0.8829
 1500SOL    HW216137   1.942   3.490   1.033  0.2073 -2.2567  2.5922
 1501SOL     OW16138   1.607   1.294   5.635 -0.0756 -0.0547  0.5575
 1501SOL    HW116139   1.586   1.297   5.728 -0.9608 -0.7769  0.3878
 1501SOL    HW216140   1.699   1.316   5.646 -0.1224 -0.5374  1.9285
 1502SOL     OW16141   1.983   2.668   5.366 -0.2417 -0.4342  0.3534
 1502SOL    HW116142   2.032   2.627   5.438 -0.4540  0.8753  1.2373
 1502SOL    HW216143   2.021   2.755   5.374  0.9487 -0.7262 -2.3734
 1503SOL     OW16144   1.104   3.564   5.148  0.3848  0.4227  0.8178
 1503SOL    HW116145   1.149   3.587   5.229  0.7977  0.7864  0.4805
 1503SOL    HW216146   1.073   3.478   5.177  1.2446 -1.1325 -2.9777
 1504SOL     OW16147   3.477   2.234   8.947 -0.0287  0.1494  0.1032
 1504SOL    HW116148   3.479   2.238   9.043  2.7697 -0.7135  0.0804
 1504SOL    HW216149   3.569   2.247   8.925  0.0171 -1.4926 -0.6655
 1505SOL     OW16150   1.133   1.087   3.472 -0.0693  0.2696  0.3679
 1505SOL    HW116151   1.079   1.166   3.473  1.0899  1.1133 -3.1529
 1505SOL    HW216152   1.215   1.136   3.477 -0.4083  0.8271  0.4944
 1506SOL     OW16153   4.449   2.568   9.974  0.1057  0.1404  0.1290
 1506SOL    HW116154   4.421   2.480   9.947  2.0384 -0.5179  0.2567
 1506SOL    HW216155   4.431   2.567  10.068  3.4929  0.7573  0.7802
 1507SOL     OW16156   4.162   3.245  16.584 -0.1696 -0.5646 -0.0544
 1507SOL    HW116157   4.132   3.204  16.503  4.2529 -0.8962 -1.5335
 1507SOL    HW216158   4.144   3.337  16.569 -0.5539 -0.6921 -0.3787
 1508SOL     OW16159   2.324   3.042  14.284  0.2710 -0.3345 -0.2774
 1508SOL    HW116160   2.405   3.057  14.333 -0.8852 -0.5473  1.7247
 1508SOL    HW216161   2.341   2.970  14.224  0.5668 -0.1669 -0.3917
 1509SOL     OW16162   1.757   2.263  15.733 -0.2977  0.0926 -0.1304
 1509SOL    HW116163   1.742   2.240  15.824 -2.1014 -1.9384 -0.9461
 1509SOL    HW216164   1.748   2.359  15.730  3.4449  0.3664 -1.9005
 1510SOL     OW16165   2.510   2.671   5.527  0.5362  0.7844 -0.7570
 1510SOL    HW116166   2.559   2.705   5.603 -3.1943  1.4211  1.3559
 1510SOL    HW216167   2.494   2.743   5.467 -0.7881  2.4346  1.5668
 1511SOL     OW16168   2.352   0.705   4.617 -0.0331  0.0405  0.5669
 1511SOL    HW116169   2.312   0.763   4.551  0.0841  0.1566  0.5982
 1511SOL    HW216170   2.339   0.619   4.576 -1.3032 -0.6067  2.3475
 1512SOL     OW16171   2.253   3.575   6.405 -0.2951 -0.2916 -0.2144
 1512SOL    HW116172   2.339   3.610   6.427 -1.3521  2.6587 -0.7826
 1512SOL    HW216173   2.273   3.485   6.379  1.4321 -0.1813  0.7388
 1513SOL     OW16174   0.111   4.094   9.365 -0.6565 -0.6898  0.2479
 1513SOL    HW116175   0.114   4.104   9.270 -1.5688 -0.4032  0.2482
 1513SOL    HW216176   0.197   4.125   9.394 -0.9816  1.3459 -0.8847
 1514SOL     OW16177   1.136   3.890   7.840  0.5398  0.4256 -0.2563
 1514SOL    HW116178   1.080   3.818   7.868  1.2797  0.5474  1.5505
 1514SOL    HW216179   1.124   3.899   7.746 -1.7128 -3.6826 -0.3576
 1515SOL     OW16180   4.125   4.414   8.584 -0.1723  0.1475  0.0936
 1515SOL    HW116181   4.126   4.322   8.560 -0.8800  0.0684  0.3850
 1515SOL    HW216182   4.087   4.401   8.671  0.3035 -0.5006  0.2053
 1516SOL     OW16183   3.383   3.898   9.506  0.2188 -0.5595 -0.1954
 1516SOL    HW116184   3.382   3.931   9.596  1.4334 -1.1335  0.0186
 1516SOL    HW216185   3.419   3.813   9.528 -0.6149 -1.2016 -1.3010
 1517SOL     OW16186   0.644   1.994   7.881 -0.0565 -0.1623  0.5129
 1517SOL    HW116187   0.590   1.915   7.883  0.8805 -0.7705  1.9152
 1517SOL    HW216188   0.580   2.060   7.908 -0.4141 -0.2198 -0.1759
 1518SOL     OW16189   1.742   0.982   4.722 -0.0806  0.3433 -0.0818
 1518SOL    HW116190   1.823   0.936   4.703  0.0648  1.2764 -1.6614
 1518SOL    HW216191   1.682   0.907   4.719  1.7200 -0.9758 -2.7130
 1519SOL     OW16192   4.686   2.886   8.328 -0.6829 -0.3321 -0.3487
 1519SOL    HW116193   4.720   2.949   8.392  0.8698 -0.3397 -1.1658
 1519SOL    HW216194   4.617   2.850   8.383 -0.8327 -2.0513 -1.6542
 1520SOL     OW16195   1.698   1.088   3.958  0.3267 -0.3680  0.3323
 1520SOL    HW116196   1.774   1.096   4.016  0.5210 -0.3222  0.0687
 1520SOL    HW216197   1.700   1.175   3.919  0.2631 -0.7827 -0.5944
 1521SOL     OW16198   3.621   1.965   6.879  0.5444  0.1822 -0.0388
 1521SOL    HW116199   3.602   2.059   6.881  0.2884  0.1461 -1.1603
 1521SOL    HW216200   3.556   1.932   6.941 -0.3808  0.1431 -1.0368
 1522SOL     OW16201   1.736   0.373  15.838  0.2482 -0.6663  0.3697
 1522SOL    HW116202   1.646   0.377  15.871  0.1581  2.0575 -0.2369
 1522SOL    HW216203   1.793   0.326  15.899  0.7603 -4.1669 -2.8030
 1523SOL     OW16204   2.033   0.018  11.141  0.2786  0.0103  0.3778
 1523SOL    HW116205   2.080   4.728  11.219  0.6859  1.7192  0.7488
 1523SOL    HW216206   2.002   4.667  11.127  0.8447 -0.1523  0.1579
 1524SOL     OW16207   1.955   3.425   3.479  0.4769 -0.0935 -0.2215
 1524SOL    HW116208   2.041   3.406   3.517  0.5406  0.5642 -0.0400
 1524SOL    HW216209   1.929   3.335   3.458  0.7099  0.0327 -1.0624
 1525SOL     OW16210   4.542   2.681   6.212  0.1882 -0.1668 -0.5604
 1525SOL    HW116211   4.561   2.589   6.191  0.0233 -0.6767  1.5851
 1525SOL    HW216212   4.454   2.669   6.247  0.5170  0.8697  0.6020
 1526SOL     OW16213   4.303   0.853  16.314  0.6520 -0.7930 -0.8553
 1526SOL    HW116214   4.276   0.906  16.240 -0.2407 -0.2301 -0.1332
 1526SOL    HW216215   4.395   0.845  16.290  0.7493 -0.6924 -0.5192
 1527SOL     OW16216   2.212   4.246   5.513  0.3512  0.5681  0.3965
 1527SOL    HW116217   2.233   4.183   5.444  1.8537  0.4760  0.9454
 1527SOL    HW216218   2.185   4.184   5.580 -1.4299  1.0944  0.1769
 1528SOL     OW16219   0.971   4.505   5.910  0.0425  0.2174  0.4604
 1528SOL    HW116220   0.963   4.422   5.956  0.6763  2.2709  4.2161
 1528SOL    HW216221   1.058   4.482   5.880 -0.1361  0.4608 -0.2627
 1529SOL     OW16222   0.645   1.350   7.047 -0.3624  0.0920 -0.2577
 1529SOL    HW116223   0.648   1.254   7.038  2.4994  0.1612  0.0943
 1529SOL    HW216224   0.597   1.367   6.966  2.2007 -0.2003 -1.8205
 1530SOL     OW16225   2.817   2.795   4.673  0.1721 -0.1179 -0.5755
 1530SOL    HW116226   2.872   2.872   4.685 -0.9252  0.6430 -0.4113
 1530SOL    HW216227   2.731   2.836   4.679  0.9499  1.0833  2.4459
 1531SOL     OW16228   0.026   2.941  15.158 -0.2819  0.2187 -0.9944
 1531SOL    HW116229   0.036   2.853  15.122  2.2156  0.8739 -1.8747
 1531SOL    HW216230   4.728   2.926  15.246  1.9653  0.3513 -0.0499
 1532SOL     OW16231   0.443   0.887   7.283  0.6851  0.2155  0.5417
 1532SOL    HW116232   0.396   0.895   7.200  1.5330 -0.5787 -0.0188
 1532SOL    HW216233   0.383   0.829   7.328  0.7343 -0.7908 -0.6988
 1533SOL     OW16234   1.853   3.713   8.449  0.2980 -0.1489 -0.0873
 1533SOL    HW116235   1.948   3.720   8.437  0.2653  2.1686  1.1054
 1533SOL    HW216236   1.833   3.806   8.449 -1.7369 -0.5870  0.6897
 1534SOL     OW16237   3.138   1.988   7.971 -0.7446 -0.0019 -0.3307
 1534SOL    HW116238   3.080   1.912   7.965  1.0718 -1.6112  2.6683
 1534SOL    HW216239   3.138   2.004   7.876  0.1348 -0.7017 -0.4441
 1535SOL     OW16240   4.131   3.288  12.889 -1.2964  0.0623  0.3211
 1535SOL    HW116241   4.111   3.221  12.824 -1.8873 -2.3170  2.9828
 1535SOL    HW216242   4.226   3.290  12.883 -1.3649 -0.8818 -1.1949
 1536SOL     OW16243   1.078   2.762   6.717  0.2991 -0.5177 -0.1945
 1536SOL    HW116244   1.107   2.774   6.807 -2.3927  0.1660  0.5866
 1536SOL    HW216245   1.074   2.853   6.689  1.1625 -0.3337  0.2991
 1537SOL     OW16246   4.565   0.905  16.260 -0.6184 -0.4619  0.3175
 1537SOL    HW116247   4.635   0.848  16.291  0.0611 -1.0715 -2.3484
 1537SOL    HW216248   4.568   0.892  16.165  0.2581  1.7261  0.0521
 1538SOL     OW16249   1.739   1.351   2.570  0.4934  0.3499  0.0592
 1538SOL    HW116250   1.696   1.435   2.588  0.2812  0.4617 -0.9377
 1538SOL    HW216251   1.827   1.375   2.600  0.6912 -0.9815  0.5220
 1539SOL     OW16252   2.429   0.998   8.919  0.5918  0.2358 -0.2142
 1539SOL    HW116253   2.492   1.045   8.864  2.4410 -0.7600  1.0173
 1539SOL    HW216254   2.485   0.936   8.967 -2.6626 -2.2276  0.3496
 1540SOL     OW16255   1.620   4.467   5.461 -0.8648 -0.2960  0.0873
 1540SOL    HW116256   1.677   4.490   5.534 -1.2542 -0.8560  0.5587
 1540SOL    HW216257   1.668   4.399   5.413 -1.7989 -0.3256 -0.7920
 1541SOL     OW16258   3.689   0.651  11.120 -0.0157  0.4888  0.1436
 1541SOL    HW116259   3.695   0.734  11.073  0.7166  1.0059  1.1637
 1541SOL    HW216260   3.766   0.617  11.076 -0.7564  1.3024 -1.7853
 1542SOL     OW16261   3.536   2.398  10.366 -0.0373 -0.0114  0.3839
 1542SOL    HW116262   3.442   2.414  10.356  0.2904  1.8643  0.4773
 1542SOL    HW216263   3.535   2.304  10.384 -0.9237  0.3122  1.9893
 1543SOL     OW16264   4.221   0.980   3.953 -0.2110  0.1382  0.1113
 1543SOL    HW116265   4.163   0.929   4.010  2.1365 -0.7195  1.7462
 1543SOL    HW216266   4.279   1.009   4.023  0.9862  0.3075 -0.9673
 1544SOL     OW16267   0.209   4.266   6.627  0.5062 -0.1503 -0.3571
 1544SOL    HW116268   0.249   4.179   6.617  2.5103  0.4414  2.5124
 1544SOL    HW216269   0.203   4.282   6.533  1.7962  2.8928  0.1075
 1545SOL     OW16270   2.402   3.486  17.378  0.2844 -0.4850  0.2776
 1545SOL    HW116271   2.316   3.449  17.356  0.2051 -0.6886  0.9232
 1545SOL    HW216272   2.418   3.433  17.457  2.5928  1.0041  0.8170
 1546SOL     OW16273   3.666   1.375   4.077 -0.1592  0.4975  0.5020
 1546SOL    HW116274   3.703   1.360   4.164 -2.3811  1.4269  1.6114
 1546SOL    HW216275   3.732   1.440   4.049  0.7396 -1.2961 -1.6034
 1547SOL     OW16276   1.417   3.260   5.725 -0.0526  0.1971  0.1382
 1547SOL    HW116277   1.397   3.184   5.780 -0.5854 -0.2057 -0.6178
 1547SOL    HW216278   1.415   3.337   5.783 -0.9406 -1.3702  2.1922
 1548SOL     OW16279   0.513   1.803  11.787 -0.3324 -0.4735  1.0053
 1548SOL    HW116280   0.516   1.728  11.727 -0.5559 -0.3409  0.8271
 1548SOL    HW216281   0.508   1.757  11.871  1.0456 -0.8716  0.8730
 1549SOL     OW16282   3.144   2.687   2.700 -0.5562 -0.1726  0.4527
 1549SOL    HW116283   3.052   2.683   2.725 -1.0674  1.2048 -1.2267
 1549SOL    HW216284   3.138   2.658   2.609  2.4880 -1.8142  0.7767
 1550SOL     OW16285   0.278   4.646  11.197  0.0086 -0.7483  0.1432
 1550SOL    HW116286   0.299   4.642  11.291 -0.2966 -3.0743  0.1066
 1550SOL    HW216287   0.301   0.000  11.185 -0.7440 -0.3658  1.6169
 1551SOL     OW16288   3.414   0.416   3.897  0.2660 -0.0773 -0.3559
 1551SOL    HW116289   3.416   0.415   3.801  3.0419  1.4281 -0.3350
 1551SOL    HW216290   3.335   0.366   3.917 -0.3111  2.0852  2.7074
 1552SOL     OW16291   4.106   2.437   3.733 -0.0117 -0.0193 -0.1950
 1552SOL    HW116292   4.019   2.397   3.733 -0.4987  1.0367  0.2085
 1552SOL    HW216293   4.098   2.501   3.662  1.5843 -0.0048 -0.3455
 1553SOL     OW16294   4.058   1.839   1.287  0.0909 -0.1787 -0.1001
 1553SOL    HW116295   4.034   1.780   1.358  1.8103 -1.8287 -0.8785
 1553SOL    HW216296   4.026   1.919   1.329 -0.8930 -0.1393 -0.9498
 1554SOL     OW16297   4.230   2.569   7.858 -0.1311  0.0112  0.1759
 1554SOL    HW116298   4.263   2.634   7.919 -0.4465  0.1467  0.2030
 1554SOL    HW216299   4.252   2.612   7.775 -1.8549  2.9489  1.2206
 1555SOL     OW16300   0.859   4.003   2.059 -0.6422 -0.4094  0.3876
 1555SOL    HW116301   0.779   4.055   2.068  0.5068  1.4513 -0.2107
 1555SOL    HW216302   0.927   4.067   2.038 -0.5296 -0.2662  1.1933
 1556SOL     OW16303   3.041   0.158  11.506  0.3749  0.3679  0.5505
 1556SOL    HW116304   3.066   0.095  11.438 -1.4034  0.9749 -0.6710
 1556SOL    HW216305   3.112   0.221  11.515  0.4944  0.2748  0.2893
 1557SOL     OW16306   0.772   0.785   6.382  0.0560  0.0966  0.2552
 1557SOL    HW116307   0.802   0.787   6.473 -0.2473 -1.9388  0.3829
 1557SOL    HW216308   0.760   0.876   6.355 -2.6112 -0.5181 -0.6749
 1558SOL     OW16309   1.495   1.553   4.379 -0.5815 -0.6852 -1.0362
 1558SOL    HW116310   1.426   1.596   4.329 -0.2387  0.6318 -0.3843
 1558SOL    HW216311   1.449   1.560   4.462 -0.4110  1.3085 -1.1097
 1559SOL     OW16312   0.028   0.028   9.194  0.6479 -0.3893 -0.2529
 1559SOL    HW116313   4.680   0.065   9.176 -0.2092 -1.9050  0.7063
 1559SOL    HW216314   0.076   0.070   9.123 -0.3536  1.7455  0.3281
 1560SOL     OW16315   4.360   4.504   3.348  0.1060  0.3774  0.2373
 1560SOL    HW116316   4.387   4.592   3.323  0.4770  0.7017  1.7404
 1560SOL    HW216317   4.349   4.519   3.442 -0.3292 -1.5588  0.4868
 1561SOL     OW16318   1.875   1.432   7.887 -0.1424  0.5499 -0.3386
 1561SOL    HW116319   1.966   1.448   7.910  0.5452 -0.7209 -2.2320
 1561SOL    HW216320   1.828   1.478   7.957 -0.1065 -2.0389  1.3960
 1562SOL     OW16321   4.726   0.555   6.572 -0.4863  0.8672 -0.4842
 1562SOL    HW116322   0.034   0.501   6.508  0.4163 -0.1659  1.0647
 1562SOL    HW216323   4.635   0.543   6.544 -0.2872  1.3440 -1.3344
 1563SOL     OW16324   2.205   1.244   6.150  0.1623  0.2572  0.6002
 1563SOL    HW116325   2.206   1.273   6.059  3.0541 -0.1464  0.4895
 1563SOL    HW216326   2.112   1.256   6.167  0.4757  2.0087  1.0018
 1564SOL     OW16327   4.214   2.695   4.261  0.8248  0.6355  0.0720
 1564SOL    HW116328   4.151   2.766   4.249 -2.3918 -2.0696  0.8745
 1564SOL    HW216329   4.296   2.740   4.241 -0.1891  2.1819 -0.6075
 1565SOL     OW16330   0.217   4.204   6.348 -0.2326 -0.4062  0.0428
 1565SOL    HW116331   0.300   4.231   6.307 -1.4254  0.1699 -1.9840
 1565SOL    HW216332   0.229   4.111   6.326  1.6686  0.0119 -0.7405
 1566SOL     OW16333   2.600   0.945   8.570 -0.0135  0.1448  0.5556
 1566SOL    HW116334   2.663   1.013   8.593 -0.2289  0.5353 -0.0184
 1566SOL    HW216335   2.645   0.914   8.492  1.2258 -0.5701  1.5514
 1567SOL     OW16336   4.328   1.100   0.356 -0.6181 -0.2160 -0.0015
 1567SOL    HW116337   4.406   1.045   0.346  0.4169  1.3334 -0.4779
 1567SOL    HW216338   4.346   1.129   0.446  3.5055  0.0794 -0.8994
 1568SOL     OW16339   3.338   0.590   4.744 -0.0350  0.0462 -0.3589
 1568SOL    HW116340   3.360   0.498   4.729  1.0577 -0.3411  3.4863
 1568SOL    HW216341   3.397   0.609   4.818  0.3405 -0.1966 -0.5985
 1569SOL     OW16342   0.245   0.846   3.999  0.2183  0.2080 -0.3902
 1569SOL    HW116343   0.249   0.753   4.023 -0.3644  0.6096  1.2319
 1569SOL    HW216344   0.322   0.880   4.044  0.2948  0.1841 -0.5016
 1570SOL     OW16345   0.244   1.675   6.177 -0.8814  0.0841 -0.0070
 1570SOL    HW116346   0.178   1.609   6.154 -0.1586 -1.5079  2.4765
 1570SOL    HW216347   0.288   1.631   6.250 -0.7978  0.1382 -0.0254
 1571SOL     OW16348   4.091   1.291   2.253  0.4310 -0.4772  0.7254
 1571SOL    HW116349   4.039   1.287   2.172 -0.3196  0.3176  1.1664
 1571SOL    HW216350   4.023   1.292   2.320  1.0119  0.4469  1.3129
 1572SOL     OW16351   4.279   1.485   8.926 -0.2009 -0.1303  0.7396
 1572SOL    HW116352   4.188   1.506   8.907  0.4960  1.2197 -1.0088
 1572SOL    HW216353   4.318   1.567   8.898  0.8857 -0.6644  0.6950
 1573SOL     OW16354   4.365   0.153   1.848 -0.9560 -0.2077 -0.2904
 1573SOL    HW116355   4.289   0.097   1.839 -0.8071 -0.3674 -0.5609
 1573SOL    HW216356   4.348   0.226   1.788 -3.1843 -0.3420  0.1930
 1574SOL     OW16357   3.319   0.886   4.957  0.3480  0.0832 -0.2457
 1574SOL    HW116358   3.311   0.923   5.045 -1.9172  0.8077 -0.7685
 1574SOL    HW216359   3.404   0.843   4.966  0.4562  0.6316  1.4761
 1575SOL     OW16360   0.630   3.543   6.490 -0.1898  0.0186 -0.0248
 1575SOL    HW116361   0.565   3.568   6.425  0.0182 -0.5980 -0.4657
 1575SOL    HW216362   0.711   3.576   6.452 -0.9296 -0.1872 -1.8078
 1576SOL     OW16363   1.144   3.294  13.049 -0.2654  0.0356 -0.6861
 1576SOL    HW116364   1.100   3.343  12.979  0.3075 -0.5940 -1.4822
 1576SOL    HW216365   1.235   3.298  13.022 -0.9156  1.1878 -2.6941
 1577SOL     OW16366   3.669   3.111   8.422  0.2253  0.5402 -0.5772
 1577SOL    HW116367   3.623   3.080   8.500  0.5730  0.2792 -0.4760
 1577SOL    HW216368   3.756   3.130   8.456  0.8161 -2.4262 -0.4206
 1578SOL     OW16369   1.643   3.105  11.327 -0.1965  0.0467  0.1530
 1578SOL    HW116370   1.705   3.172  11.299  1.1880 -0.6158  1.6979
 1578SOL    HW216371   1.569   3.118  11.267  0.6378 -0.3637 -0.9559
 1579SOL     OW16372   3.329   2.992   3.042 -0.5870  0.0789 -0.6466
 1579SOL    HW116373   3.249   3.029   3.004 -1.0952  0.2003  0.5427
 1579SOL    HW216374   3.326   2.900   3.016  0.1282  0.0687 -0.6853
 1580SOL     OW16375   4.651   2.499   2.097  0.0432  0.8643  0.6454
 1580SOL    HW116376   4.624   2.407   2.094 -1.9439  1.4959 -0.7155
 1580SOL    HW216377   4.682   2.505   2.187 -2.2841  1.1086  1.4433
 1581SOL     OW16378   3.791   4.532   1.389 -0.4061  0.4030 -0.3594
 1581SOL    HW116379   3.717   4.474   1.408 -0.9236  1.9976  2.4506
 1581SOL    HW216380   3.804   4.569   1.476  2.2075 -1.6945  0.1649
 1582SOL     OW16381   0.941   1.825   5.519  0.2525 -0.0888 -0.1962
 1582SOL    HW116382   1.013   1.827   5.582 -1.1956  0.7259  1.4337
 1582SOL    HW216383   0.982   1.864   5.441 -0.1922  0.0576 -0.3595
 1583SOL     OW16384   2.113   4.551  10.852 -0.2784 -0.3317  0.2159
 1583SOL    HW116385   2.180   4.588  10.909 -0.2906 -1.3303  0.8872
 1583SOL    HW216386   2.054   4.515  10.919  1.6016 -1.2531  1.3855
 1584SOL     OW16387   0.620   1.476   3.266  0.5356  0.0979  0.5899
 1584SOL    HW116388   0.624   1.513   3.355 -1.4479 -1.1108  1.1859
 1584SOL    HW216389   0.540   1.423   3.264 -0.0160  0.9848 -0.7281
 1585SOL     OW16390   0.138   1.966   7.055 -0.1710  0.2643 -0.4270
 1585SOL    HW116391   0.093   1.999   7.133  0.9251  0.8330 -0.0300
 1585SOL    HW216392   0.069   1.938   6.995  1.0284 -0.4606 -1.4748
 1586SOL     OW16393   4.436   0.623  10.444  0.0468  0.6299 -0.9109
 1586SOL    HW116394   4.488   0.692  10.485 -0.5680  0.6174 -0.1218
 1586SOL    HW216395   4.406   0.666  10.364  0.7053 -0.6030 -1.8134
 1587SOL     OW16396   2.610   4.198   0.221 -0.6169 -0.3949 -0.5529
 1587SOL    HW116397   2.607   4.244   0.137 -0.6476 -1.3191 -1.0660
 1587SOL    HW216398   2.559   4.118   0.206 -2.6423  0.3381  2.4125
 1588SOL     OW16399   0.255   2.789  14.748 -0.4044  0.2726 -0.1346
 1588SOL    HW116400   0.278   2.872  14.706  2.3741 -1.7182 -2.6446
 1588SOL    HW216401   0.329   2.734  14.722  1.2726  2.9206 -1.0009
 1589SOL     OW16402   0.029   1.616   9.484  0.0773 -0.2447  0.2643
 1589SOL    HW116403   4.679   1.651   9.479  0.1812 -0.0802 -0.4313
 1589SOL    HW216404   0.009   1.537   9.534  2.0086 -0.4491  0.7036
 1590SOL     OW16405   4.357   2.258   2.766  0.2569 -0.1676 -0.2577
 1590SOL    HW116406   4.365   2.168   2.733 -3.3843 -0.6358  0.2025
 1590SOL    HW216407   4.265   2.277   2.748  0.7139 -0.6676 -3.2185
 1591SOL     OW16408   2.561   3.068   2.784  0.2943 -0.2988 -0.3583
 1591SOL    HW116409   2.579   3.155   2.748  2.6984  0.3815  2.4366
 1591SOL    HW216410   2.633   3.054   2.846 -1.8868 -0.2304  2.2112
 1592SOL     OW16411   0.183   1.630  10.326  0.7100  0.1370 -0.6691
 1592SOL    HW116412   0.198   1.724  10.334 -0.8331  0.2094  1.5632
 1592SOL    HW216413   0.102   1.626  10.377 -0.6109  1.2920 -2.6428
 1593SOL     OW16414   4.235   2.643   7.077 -0.2401 -0.1498 -0.1364
 1593SOL    HW116415   4.322   2.664   7.043 -0.2968 -1.4504 -1.0855
 1593SOL    HW216416   4.192   2.596   7.005 -0.2657 -0.5804  0.1579
 1594SOL     OW16417   0.300   1.599   0.315 -0.5551 -0.0192  0.0415
 1594SOL    HW116418   0.277   1.656   0.387  1.6150  1.5857 -0.5247
 1594SOL    HW216419   0.324   1.664   0.249  1.4811 -0.7463  0.0675
 1595SOL     OW16420   0.054   1.278   5.885 -0.4686 -0.3750  0.4363
 1595SOL    HW116421   4.705   1.244   5.868 -0.5715 -0.4264  1.0699
 1595SOL    HW216422   0.100   1.220   5.824  0.5352  0.3015  0.5446
 1596SOL     OW16423   3.808   2.140   5.307 -0.0057  0.6437  0.5149
 1596SOL    HW116424   3.797   2.052   5.271  2.7614 -0.0654  1.3816
 1596SOL    HW216425   3.876   2.130   5.375 -0.7834 -2.5452  0.8192
 1597SOL     OW16426   2.909   1.480   9.954  0.4383  0.7638 -0.4395
 1597SOL    HW116427   2.955   1.404   9.990 -0.0895 -0.0097 -1.4017
 1597SOL    HW216428   2.865   1.512  10.033 -0.2536 -0.5903 -0.2773
 1598SOL     OW16429   2.568   1.791   1.646  0.7857  0.0493  0.6735
 1598SOL    HW116430   2.569   1.701   1.681  2.1173  0.2028  1.0078
 1598SOL    HW216431   2.641   1.785   1.586 -0.1980  0.5606 -0.5675
 1599SOL     OW16432   0.169   1.121   5.688  0.5437 -0.3191  0.1598
 1599SOL    HW116433   0.154   1.031   5.719  1.0966 -0.9549 -1.4178
 1599SOL    HW216434   0.121   1.116   5.606  0.8175 -1.3806  0.0597
 1600SOL     OW16435   4.487   2.839  10.584  0.0078 -0.4858 -0.2813
 1600SOL    HW116436   4.580   2.851  10.566 -0.1078  1.2439  0.2098
 1600SOL    HW216437   4.475   2.873  10.673 -0.1453  0.1842 -0.5514
 1601SOL     OW16438   3.141   2.789  14.945 -0.1960 -0.5778 -0.5359
 1601SOL    HW116439   3.153   2.823  15.034 -0.9448 -0.7037 -0.3881
 1601SOL    HW216440   3.052   2.754  14.945  0.0913 -1.3344  1.5458
 1602SOL     OW16441   2.842   1.021   2.382  0.1807 -0.1267  0.7723
 1602SOL    HW116442   2.871   1.101   2.340 -1.0125 -0.4730 -0.6860
 1602SOL    HW216443   2.771   0.989   2.327  2.6267 -2.3638 -1.1169
 1603SOL     OW16444   0.638   3.762  11.738 -0.2438  0.8129  0.0767
 1603SOL    HW116445   0.546   3.745  11.758  0.1078 -0.4874  0.6050
 1603SOL    HW216446   0.632   3.854  11.712  1.2625  1.1161  0.7630
 1604SOL     OW16447   2.738   4.686   7.972 -0.3742  0.0049 -0.7973
 1604SOL    HW116448   2.830   4.695   7.947 -1.0486  2.1252 -2.5503
 1604SOL    HW216449   2.738   4.712   8.064 -0.2840 -0.5627 -0.6316
 1605SOL     OW16450   4.171   2.899  11.834  0.0801 -0.2404  0.1333
 1605SOL    HW116451   4.184   2.831  11.767  2.7784  2.0251 -1.6550
 1605SOL    HW216452   4.088   2.872  11.873 -1.3836  1.3081 -1.8818
 1606SOL     OW16453   2.160   3.288   6.077  0.0229 -0.4353  0.5389
 1606SOL    HW116454   2.202   3.208   6.046  0.1904  0.3764 -1.3490
 1606SOL    HW216455   2.069   3.266   6.057 -0.6871  1.6075  1.5743
 1607SOL     OW16456   0.634   0.716   4.121 -0.3357 -0.0125  0.5725
 1607SOL    HW116457   0.584   0.698   4.042  1.0125 -2.4535  0.3075
 1607SOL    HW216458   0.713   0.663   4.114  0.5062  1.3962 -0.7444
 1608SOL     OW16459   3.518   3.655  14.587 -0.5070  0.0556 -0.1014
 1608SOL    HW116460   3.585   3.590  14.564 -1.1778 -0.9696  0.8600
 1608SOL    HW216461   3.466   3.641  14.508  1.4076 -0.2635 -1.3026
 1609SOL     OW16462   3.602   2.208   4.612  0.3188 -0.3990  0.5480
 1609SOL    HW116463   3.519   2.166   4.590  0.5724 -0.3328 -0.5611
 1609SOL    HW216464   3.571   2.281   4.665  0.8407  0.3461 -0.1671
 1610SOL     OW16465   4.115   2.801  13.457  0.2475 -0.4609  0.2826
 1610SOL    HW116466   4.035   2.849  13.438  0.7063 -0.4125 -1.6251
 1610SOL    HW216467   4.180   2.857  13.413 -0.8783  0.4072 -0.2967
 1611SOL     OW16468   4.133   3.963  13.520 -0.3661  0.0898  0.1133
 1611SOL    HW116469   4.121   3.871  13.496 -2.3224 -0.2430  2.2936
 1611SOL    HW216470   4.133   4.000  13.431 -1.2061 -0.3243 -0.0616
 1612SOL     OW16471   4.548   4.545   8.366  0.1363 -0.5920 -0.2488
 1612SOL    HW116472   4.544   4.624   8.314  2.2203 -1.9248 -2.4048
 1612SOL    HW216473   4.470   4.496   8.338 -1.4610  1.1802  1.1005
 1613SOL     OW16474   0.512   3.979   5.973 -0.1336 -0.2089  0.0585
 1613SOL    HW116475   0.509   3.996   5.879  0.6277 -1.2891 -0.1538
 1613SOL    HW216476   0.563   4.051   6.011 -0.4230  0.7738 -1.4387
 1614SOL     OW16477   3.046   3.842  13.511 -0.0481  1.0035  0.5472
 1614SOL    HW116478   3.021   3.903  13.442  2.2738  1.9136  0.5040
 1614SOL    HW216479   3.103   3.777  13.469  2.0596  3.1114  0.1754
 1615SOL     OW16480   0.747   0.288   0.583  0.1833 -0.4523 -0.4901
 1615SOL    HW116481   0.707   0.331   0.658 -0.5923  0.6562 -1.5358
 1615SOL    HW216482   0.679   0.304   0.518 -0.3030 -0.3454  0.0540
 1616SOL     OW16483   4.068   0.482   1.747  0.5371 -0.3580 -0.3699
 1616SOL    HW116484   4.058   0.434   1.830 -0.0735 -1.0416 -0.8352
 1616SOL    HW216485   4.060   0.412   1.682  0.5547 -0.5230 -0.1951
 1617SOL     OW16486   0.746   3.224  11.410 -0.2588 -0.4216 -0.1039
 1617SOL    HW116487   0.801   3.301  11.398 -1.7112  0.7973  1.1881
 1617SOL    HW216488   0.656   3.256  11.420 -0.5354 -1.3380  0.3733
 1618SOL     OW16489   1.015   1.353   0.319 -0.2843  0.5647 -0.3664
 1618SOL    HW116490   1.083   1.391   0.375  0.8839  0.5623 -1.7616
 1618SOL    HW216491   0.974   1.292   0.380 -0.0964 -0.1011 -0.8997
 1619SOL     OW16492   1.962   1.547   1.422 -0.2528  0.4227 -0.2232
 1619SOL    HW116493   2.027   1.558   1.353 -1.4856  0.1270 -1.4349
 1619SOL    HW216494   1.905   1.483   1.379  1.1653 -2.3540  2.0273
 1620SOL     OW16495   2.071   3.098  14.364 -0.2628 -0.0033 -0.3421
 1620SOL    HW116496   2.097   3.073  14.452  1.2211 -0.3391 -0.8673
 1620SOL    HW216497   2.158   3.084  14.325  0.0282 -2.8000  1.2930
 1621SOL     OW16498   0.071   0.870   7.928  0.0519  0.2362 -0.2869
 1621SOL    HW116499   0.156   0.854   7.886 -0.3365  1.5017 -1.5582
 1621SOL    HW216500   0.076   0.818   8.008 -1.5868  3.8730  2.1973
 1622SOL     OW16501   2.581   0.440   8.464  0.1311  0.4261 -0.0415
 1622SOL    HW116502   2.607   0.443   8.372 -1.5010  1.6776 -0.4631
 1622SOL    HW216503   2.613   0.519   8.506  1.0355  1.2254 -2.2363
 1623SOL     OW16504   1.050   3.708   9.290 -0.1582  0.4002 -0.1853
 1623SOL    HW116505   0.970   3.666   9.321 -2.1719  2.9807 -1.8727
 1623SOL    HW216506   1.091   3.723   9.376 -0.1927  3.9425 -0.7824
 1624SOL     OW16507   3.434   0.369   3.115  0.1949 -0.0312 -0.0909
 1624SOL    HW116508   3.513   0.316   3.129  1.4873  1.8130 -0.4229
 1624SOL    HW216509   3.480   0.447   3.146 -0.7335  0.3297  0.3606
 1625SOL     OW16510   4.616   1.072  10.622  0.6505  0.1425  0.4660
 1625SOL    HW116511   4.620   0.998  10.682  0.3026  0.6882  1.1582
 1625SOL    HW216512   4.611   1.037  10.533  0.2845  0.1690  0.4790
 1626SOL     OW16513   3.124   3.084   6.038 -0.1940  0.0743 -0.2961
 1626SOL    HW116514   3.122   2.989   6.025  2.3195  0.1150 -1.0322
 1626SOL    HW216515   3.164   3.099   5.952  4.0386  0.2047  1.6964
 1627SOL     OW16516   0.123   4.650  16.224 -0.5388 -0.6196  0.3983
 1627SOL    HW116517   0.168   4.570  16.248 -0.9944 -1.2403 -0.8154
 1627SOL    HW216518   0.061   4.666  16.295 -0.8645  2.3638 -0.5359
 1628SOL     OW16519   0.635   1.985  15.265 -0.5690 -0.0262 -0.2152
 1628SOL    HW116520   0.691   2.024  15.332  1.1403 -0.2099 -1.5392
 1628SOL    HW216521   0.588   2.064  15.237 -1.6770 -0.6241 -0.0422
 1629SOL     OW16522   4.586   3.876   8.860  0.0657  0.0574  0.1098
 1629SOL    HW116523   4.581   3.791   8.816  1.5033  0.5678 -1.0338
 1629SOL    HW216524   4.669   3.900   8.818 -0.8820  1.1085 -1.1509
 1630SOL     OW16525   2.305   3.863   3.091 -0.3768 -0.5110  0.1337
 1630SOL    HW116526   2.307   3.769   3.077  1.5506 -0.5428  0.5737
 1630SOL    HW216527   2.398   3.885   3.081 -1.0941  2.1764 -0.7381
 1631SOL     OW16528   2.744   4.010  14.456 -0.6379  0.8601 -0.0969
 1631SOL    HW116529   2.815   3.961  14.499 -1.3609 -0.6587 -0.6243
 1631SOL    HW216530   2.788   4.094  14.444 -1.7864  1.9081  3.0575
 1632SOL     OW16531   2.345   1.786   2.553  0.1576  0.1216  0.2168
 1632SOL    HW116532   2.291   1.808   2.629  2.0459 -1.2856  1.9622
 1632SOL    HW216533   2.415   1.731   2.588 -1.2942 -0.5455  2.0621
 1633SOL     OW16534   0.581   1.033   6.602 -0.4235  0.3939 -0.1564
 1633SOL    HW116535   0.625   1.002   6.523  2.3945  0.5757  1.3317
 1633SOL    HW216536   0.620   1.121   6.599 -1.1587  0.6634 -1.7636
 1634SOL     OW16537   3.502   0.293   5.882  0.0220  0.2217  0.0876
 1634SOL    HW116538   3.589   0.298   5.922  0.5424 -1.4379 -0.8001
 1634SOL    HW216539   3.520   0.256   5.795 -1.3130  0.5967 -0.3458
 1635SOL     OW16540   1.665   0.322  12.670  0.5873  0.6830 -0.1264
 1635SOL    HW116541   1.744   0.363  12.635  0.2330  1.1732 -0.3510
 1635SOL    HW216542   1.632   0.396  12.722 -2.7876 -1.5613  0.9062
 1636SOL     OW16543   4.424   0.310   5.401 -0.7482  0.5900  0.3989
 1636SOL    HW116544   4.398   0.355   5.320  1.0206  0.7108 -0.1083
 1636SOL    HW216545   4.397   0.220   5.383  1.4077 -0.2899  1.5598
 1637SOL     OW16546   1.382   2.247   5.380  0.0958  0.6602 -0.1622
 1637SOL    HW116547   1.477   2.238   5.394  0.0287  0.0553 -0.1102
 1637SOL    HW216548   1.345   2.230   5.466 -0.0879  0.7090 -0.2313
 1638SOL     OW16549   3.767   2.037  17.586 -0.7784 -0.2622  0.9844
 1638SOL    HW116550   3.798   2.126  17.600 -0.8686 -0.2263  0.9503
 1638SOL    HW216551   3.830   1.976  17.626 -0.5953  0.3817  1.6690
 1639SOL     OW16552   2.653   0.296  10.610  0.2467 -0.6261  0.2516
 1639SOL    HW116553   2.654   0.319  10.517  1.4596  1.3821  0.7696
 1639SOL    HW216554   2.628   0.375  10.658  0.0661 -0.4928 -0.0651
 1640SOL     OW16555   3.884   1.520   5.882  0.4664 -0.1115  0.0792
 1640SOL    HW116556   3.817   1.588   5.878  0.6262  0.0817  0.6936
 1640SOL    HW216557   3.931   1.545   5.961 -1.8031 -1.1796  1.7686
 1641SOL     OW16558   3.130   2.872  15.204  0.2973 -0.4337 -0.5656
 1641SOL    HW116559   3.146   2.946  15.264 -0.1029 -0.1500 -0.8035
 1641SOL    HW216560   3.043   2.843  15.233  0.9647  0.8169  2.7260
 1642SOL     OW16561   3.510   3.938   5.262  0.3873 -0.5513 -0.5759
 1642SOL    HW116562   3.470   3.992   5.194 -0.4365 -1.6325 -0.9501
 1642SOL    HW216563   3.568   3.879   5.213  0.4241  1.1056 -2.5064
 1643SOL     OW16564   3.648   3.463   6.666  0.4704  0.0329  0.0910
 1643SOL    HW116565   3.701   3.384   6.658  0.0594 -0.4264  2.1342
 1643SOL    HW216566   3.700   3.521   6.610  0.5024  0.0689  0.1589
 1644SOL     OW16567   3.153   1.591  14.140  0.7202  0.3833 -0.3372
 1644SOL    HW116568   3.182   1.678  14.169 -0.8121  0.1604  1.8386
 1644SOL    HW216569   3.064   1.606  14.109  0.0949 -0.1213  1.2445
 1645SOL     OW16570   4.231   1.392  12.379 -0.2647  0.2432  0.4733
 1645SOL    HW116571   4.158   1.448  12.353  0.9217  0.7575 -1.7846
 1645SOL    HW216572   4.190   1.344  12.451  1.0060 -2.4874 -0.6232
 1646SOL     OW16573   0.277   1.779   5.626 -0.1644  0.2372  0.2199
 1646SOL    HW116574   0.198   1.802   5.675  1.2317 -0.2081  2.6533
 1646SOL    HW216575   0.296   1.854   5.570  2.0611  1.6367  2.8748
 1647SOL     OW16576   2.318   4.286   8.122  0.2759 -0.0674  0.8899
 1647SOL    HW116577   2.406   4.319   8.141  0.3482 -0.2506  0.8790
 1647SOL    HW216578   2.266   4.366   8.124  1.0107  0.4387 -0.3588
 1648SOL     OW16579   4.316   0.866   9.060  0.5219 -0.0288  0.8289
 1648SOL    HW116580   4.364   0.784   9.059 -3.3556 -2.2514 -3.1261
 1648SOL    HW216581   4.391   0.926   9.052  2.8873 -3.1904 -0.7551
 1649SOL     OW16582   0.796   1.992  13.267 -0.6088 -0.0329 -0.5385
 1649SOL    HW116583   0.718   2.011  13.320 -0.1777  1.2739 -0.3683
 1649SOL    HW216584   0.865   2.020  13.326  0.3405 -2.6403 -0.4342
 1650SOL     OW16585   3.270   0.613   3.392 -0.1139  0.1017 -0.2939
 1650SOL    HW116586   3.264   0.669   3.470  0.3116 -1.5748  0.9322
 1650SOL    HW216587   3.181   0.626   3.358  0.1126 -0.7664 -1.2163
 1651SOL     OW16588   3.626   0.842   7.983  0.0216  0.1916  0.2233
 1651SOL    HW116589   3.634   0.748   7.966  0.2120  0.2151  0.1843
 1651SOL    HW216590   3.652   0.878   7.898 -2.2165  1.1332 -0.0741
 1652SOL     OW16591   4.472   0.452   6.534 -0.2352  0.2071  0.0997
 1652SOL    HW116592   4.402   0.447   6.598  1.0042  0.0881  1.4539
 1652SOL    HW216593   4.465   0.361   6.503  1.1408  0.2624 -0.4001
 1653SOL     OW16594   1.106   2.851  13.982 -0.3057  0.4683  0.4925
 1653SOL    HW116595   1.047   2.865  13.908  0.1161 -1.2590 -0.1558
 1653SOL    HW216596   1.050   2.850  14.060 -1.7680 -1.2256 -0.5945
 1654SOL     OW16597   1.508   4.415   5.133 -0.1719 -0.3618 -0.5804
 1654SOL    HW116598   1.562   4.360   5.190 -1.9268  0.2112  1.6212
 1654SOL    HW216599   1.442   4.355   5.097 -1.7110  1.9937 -1.6524
 1655SOL     OW16600   1.583   1.563   6.583  0.4430 -0.5666  0.1051
 1655SOL    HW116601   1.566   1.642   6.633 -1.3393 -1.0313  0.2272
 1655SOL    HW216602   1.501   1.514   6.583  0.3094 -0.3284 -0.7244
 1656SOL     OW16603   2.581   4.089  13.063 -0.3223 -0.2384 -0.1317
 1656SOL    HW116604   2.637   4.165  13.053 -0.1418 -0.6487 -2.1633
 1656SOL    HW216605   2.553   4.069  12.974  0.0777 -0.3696 -0.2295
 1657SOL     OW16606   0.686   2.764   8.479 -0.1040  0.3114  0.0935
 1657SOL    HW116607   0.669   2.795   8.568 -1.0365  1.0024 -0.3237
 1657SOL    HW216608   0.632   2.823   8.426  1.5582 -0.3416 -2.3352
 1658SOL     OW16609   3.767   0.835  16.164  0.1576 -0.2203  0.3196
 1658SOL    HW116610   3.804   0.762  16.115 -0.3391 -0.6681  0.6148
 1658SOL    HW216611   3.853   0.876  16.177 -0.6235  1.8887 -1.2146
 1659SOL     OW16612   1.528   0.642   1.335  0.6922  0.3752 -0.0129
 1659SOL    HW116613   1.543   0.726   1.292  1.7619 -0.8395 -2.0504
 1659SOL    HW216614   1.471   0.602   1.269  1.3668 -0.4748 -0.0825
 1660SOL     OW16615   0.816   3.364  10.484 -0.4631 -0.1102  0.0173
 1660SOL    HW116616   0.876   3.400  10.549  1.0087 -0.7358 -0.9935
 1660SOL    HW216617   0.876   3.310  10.432  1.1234  2.1705 -0.5043
 1661SOL     OW16618   2.103   2.398  13.248  0.0822 -0.2272  0.3417
 1661SOL    HW116619   2.010   2.374  13.248  0.2239 -0.7929  0.9579
 1661SOL    HW216620   2.103   2.491  13.271  2.0447 -0.2583  0.4157
 1662SOL     OW16621   4.444   3.401   1.450 -0.3661  0.1714 -0.0202
 1662SOL    HW116622   4.421   3.380   1.360 -0.3228  1.1268 -0.2589
 1662SOL    HW216623   4.430   3.326   1.508 -1.9541  0.4314 -0.0778
 1663SOL     OW16624   2.225   3.141   1.281 -0.4046 -0.1981 -0.0579
 1663SOL    HW116625   2.150   3.174   1.329 -1.0002 -1.1924 -0.3056
 1663SOL    HW216626   2.300   3.159   1.339 -0.1834 -0.8682 -0.1352
 1664SOL     OW16627   3.973   3.654   2.533  0.0208  0.0603 -0.1809
 1664SOL    HW116628   3.902   3.591   2.519 -1.1184  1.2404  0.3056
 1664SOL    HW216629   3.967   3.654   2.629 -2.0496 -2.4669 -0.3026
 1665SOL     OW16630   2.918   3.667   6.792  0.6626 -0.5378 -0.3088
 1665SOL    HW116631   2.935   3.756   6.825  0.5412 -0.3024 -0.8829
 1665SOL    HW216632   3.011   3.649   6.781  0.4948 -0.5255 -1.8180
 1666SOL     OW16633   4.504   1.370   9.791  0.2515 -0.0958  0.7406
 1666SOL    HW116634   4.579   1.385   9.733 -0.4278 -0.2732 -0.2016
 1666SOL    HW216635   4.439   1.417   9.738  1.2706  1.8991  1.2517
 1667SOL     OW16636   1.885   4.655  17.700  0.3767 -0.2934  0.6497
 1667SOL    HW116637   1.880   4.591   0.020 -4.5022 -2.0373 -1.3152
 1667SOL    HW216638   1.924   4.596  17.635  0.1033 -0.1073  0.3195
 1668SOL     OW16639   1.288   0.822   5.382  0.1070  1.0318  0.2407
 1668SOL    HW116640   1.303   0.743   5.330  0.6514  0.8895  0.6163
 1668SOL    HW216641   1.254   0.785   5.464 -0.8152  0.8775 -0.2134
 1669SOL     OW16642   3.556   1.302   5.028 -0.6057  0.1423  0.1231
 1669SOL    HW116643   3.597   1.389   5.028  2.0512 -1.0845 -0.0005
 1669SOL    HW216644   3.465   1.328   5.020 -0.7766 -0.7644 -0.9959
 1670SOL     OW16645   0.439   0.639   5.642 -0.3032  0.1049 -0.0474
 1670SOL    HW116646   0.524   0.680   5.626 -0.8771  1.2527 -0.0997
 1670SOL    HW216647   0.383   0.716   5.632  0.6004  0.7107 -0.4880
 1671SOL     OW16648   0.999   0.744   6.949  0.3361  0.0278  0.1438
 1671SOL    HW116649   1.074   0.770   6.895  1.3678 -2.7194  0.2445
 1671SOL    HW216650   0.956   0.826   6.974  0.2390 -0.2023  0.7393
 1672SOL     OW16651   0.046   3.788   6.258  0.3753  0.0218 -0.3794
 1672SOL    HW116652   4.719   3.764   6.192  0.6383  0.2803 -0.7355
 1672SOL    HW216653   0.124   3.747   6.221 -1.6794 -2.4476 -2.0178
 1673SOL     OW16654   4.049   1.951   3.832  0.0964  0.0863 -0.0869
 1673SOL    HW116655   4.077   2.025   3.886  1.7511  0.1891 -1.0785
 1673SOL    HW216656   4.128   1.918   3.788 -1.2110 -1.2162 -1.4730
 1674SOL     OW16657   1.777   2.859   4.974 -0.1511  0.1697  0.6333
 1674SOL    HW116658   1.764   2.767   4.954  0.2024  0.2232  0.1716
 1674SOL    HW216659   1.745   2.869   5.064 -2.5845 -0.4123 -0.1513
 1675SOL     OW16660   4.460   2.982   9.589 -0.0968  0.8914  0.0250
 1675SOL    HW116661   4.445   3.074   9.569 -1.1583  0.5747 -0.6414
 1675SOL    HW216662   4.482   2.987   9.682  1.0612 -0.2416 -0.1802
 1676SOL     OW16663   0.250   2.015   2.234  0.3265 -0.0528 -0.0216
 1676SOL    HW116664   0.223   1.949   2.298  0.2339 -0.2632 -0.2720
 1676SOL    HW216665   0.165   2.055   2.216  0.5723  0.9787  1.1718
 1677SOL     OW16666   3.853   0.304   9.818 -0.0635 -0.1767  0.2831
 1677SOL    HW116667   3.864   0.360   9.740  1.4651 -1.7885 -0.6395
 1677SOL    HW216668   3.761   0.278   9.813  0.3754 -1.2339 -2.1331
 1678SOL     OW16669   3.922   1.824   2.617 -0.2425  0.1543 -0.0766
 1678SOL    HW116670   3.858   1.762   2.582 -0.1348  0.1575 -0.2842
 1678SOL    HW216671   4.003   1.773   2.624 -0.2437  0.1143 -0.3672
 1679SOL     OW16672   0.455   0.095   5.112  0.2069 -0.1946 -0.4926
 1679SOL    HW116673   0.380   0.121   5.165  1.0326  1.6547 -0.2567
 1679SOL    HW216674   0.431   0.008   5.080  1.4017 -1.3792  1.8254
 1680SOL     OW16675   0.225   0.412   7.060 -0.4006  0.2819  0.0072
 1680SOL    HW116676   0.234   0.484   6.997  0.4254 -2.1779 -2.6793
 1680SOL    HW216677   0.179   0.342   7.015  1.8251 -0.4938 -1.0564
 1681SOL     OW16678   3.973   2.242   6.863 -0.5081  0.0656  0.0429
 1681SOL    HW116679   3.933   2.156   6.846 -0.2600  0.0109 -0.2515
 1681SOL    HW216680   4.066   2.219   6.859 -0.5950 -0.6226  2.1779
 1682SOL     OW16681   1.479   4.190   3.049  0.5307 -0.6758 -0.5500
 1682SOL    HW116682   1.492   4.102   3.013 -0.3814  0.1589 -2.9403
 1682SOL    HW216683   1.451   4.171   3.138  2.5148 -1.6713 -0.1332
 1683SOL     OW16684   4.447   4.568   0.979  0.6482 -0.0603 -0.1631
 1683SOL    HW116685   4.492   4.595   0.900  0.7313  2.5034  0.7549
 1683SOL    HW216686   4.379   4.634   0.963  0.1316  0.0766  2.5779
 1684SOL     OW16687   2.440   0.706   8.765 -0.1292  0.0646  0.1582
 1684SOL    HW116688   2.516   0.739   8.717 -0.0485 -0.4541 -0.0630
 1684SOL    HW216689   2.380   0.780   8.762 -0.3390 -0.0369  1.8854
 1685SOL     OW16690   0.704   3.682   1.686  0.0529 -0.6420  0.0390
 1685SOL    HW116691   0.627   3.636   1.718  0.7866 -0.8861  1.4539
 1685SOL    HW216692   0.751   3.706   1.766 -1.1303 -1.7230  1.0519
 1686SOL     OW16693   3.851   4.624   8.551 -0.3930  0.4020  0.1970
 1686SOL    HW116694   3.868   4.603   8.459  2.0067 -0.6951  0.8845
 1686SOL    HW216695   3.850   4.719   8.542  2.0615  0.7012  3.0074
 1687SOL     OW16696   2.496   1.323   8.096 -0.3432 -0.0217  0.5412
 1687SOL    HW116697   2.578   1.334   8.142  0.7239 -1.9152 -0.8865
 1687SOL    HW216698   2.435   1.318   8.170  0.1800  2.8516  1.1614
 1688SOL     OW16699   0.071   4.533   8.271  0.0931  0.3609  0.1476
 1688SOL    HW116700   4.717   4.551   8.290  0.5796  0.5719  2.2904
 1688SOL    HW216701   0.103   4.505   8.356 -1.9296 -0.4118  0.6656
 1689SOL     OW16702   2.377   1.066   8.524  0.4280 -0.5100 -0.2319
 1689SOL    HW116703   2.325   0.996   8.563  0.5643 -2.0898 -2.8692
 1689SOL    HW216704   2.461   1.021   8.532 -0.0941 -1.4225  0.2057
 1690SOL     OW16705   3.965   4.232   1.183 -0.5272 -0.5304 -0.0483
 1690SOL    HW116706   4.042   4.289   1.182 -0.1114 -1.0560  4.3572
 1690SOL    HW216707   3.976   4.178   1.261  2.3177 -0.1211 -0.1744
 1691SOL     OW16708   2.162   2.765   1.666  0.3104  0.1174 -0.8004
 1691SOL    HW116709   2.140   2.692   1.724  0.3897  0.8875  0.2056
 1691SOL    HW216710   2.216   2.725   1.598  0.5149 -0.1926 -0.4534
 1692SOL     OW16711   3.139   1.105   0.779  0.0555  0.4034 -0.5991
 1692SOL    HW116712   3.153   1.048   0.703 -1.5595 -2.1386  1.0316
 1692SOL    HW216713   3.198   1.179   0.763 -1.9484  2.0146 -0.4918
 1693SOL     OW16714   4.674   3.435  11.712 -0.0316 -0.8592 -0.4448
 1693SOL    HW116715   4.590   3.394  11.733 -0.3030 -0.3163 -0.4793
 1693SOL    HW216716   4.723   3.404  11.788 -1.4773 -1.9588  0.0213
 1694SOL     OW16717   1.388   4.350   5.435  0.1570  0.4191 -0.8134
 1694SOL    HW116718   1.474   4.388   5.449  0.8497 -1.0764 -0.9897
 1694SOL    HW216719   1.350   4.424   5.389 -2.1456 -0.9765 -1.1732
 1695SOL     OW16720   2.964   3.038   3.347 -0.2133 -0.1435  0.1910
 1695SOL    HW116721   3.030   2.995   3.402 -0.8271 -0.6830  0.4986
 1695SOL    HW216722   2.944   2.973   3.280 -0.6898  0.4296 -0.2218
 1696SOL     OW16723   4.533   4.435   6.123  0.2411 -0.0871 -0.4099
 1696SOL    HW116724   4.598   4.374   6.088 -0.3439 -0.0822 -1.5051
 1696SOL    HW216725   4.542   4.512   6.068 -0.4861  0.8323  0.7498
 1697SOL     OW16726   4.124   2.651   4.000  0.1952  0.8261  0.0293
 1697SOL    HW116727   4.154   2.647   4.091  0.0110  0.8922  0.0921
 1697SOL    HW216728   4.035   2.617   4.009 -0.2737  1.2098 -3.0725
 1698SOL     OW16729   0.062   3.400   2.776  0.1753 -0.3974 -0.4060
 1698SOL    HW116730   0.140   3.374   2.726  1.5920 -0.0681  1.6592
 1698SOL    HW216731   0.063   3.495   2.767  0.3768 -0.2289  1.4056
 1699SOL     OW16732   1.636   0.556  12.841  0.9391 -0.2029 -0.7174
 1699SOL    HW116733   1.545   0.575  12.818  0.7292  3.0163  2.9815
 1699SOL    HW216734   1.649   0.648  12.863 -0.2930 -0.0677 -0.5284
 1700SOL     OW16735   1.703   2.058   6.897 -0.3840 -0.2509 -0.5480
 1700SOL    HW116736   1.616   2.040   6.934 -0.7889 -0.5513 -1.6243
 1700SOL    HW216737   1.687   2.070   6.803 -0.7920  1.3138 -0.2719
 1701SOL     OW16738   0.443   3.864   4.442 -0.2816 -0.5709  0.4645
 1701SOL    HW116739   0.509   3.818   4.493  1.8673  1.1963 -0.6802
 1701SOL    HW216740   0.483   3.926   4.380  0.3888  1.8179  3.2796
 1702SOL     OW16741   3.931   0.697   8.085 -0.2529 -0.4404  0.0706
 1702SOL    HW116742   3.855   0.647   8.055  0.4665 -1.8373  0.5489
 1702SOL    HW216743   3.982   0.645   8.147  0.0521 -0.5162 -0.2403
 1703SOL     OW16744   1.409   0.979   0.873  0.2972 -0.5184  0.3077
 1703SOL    HW116745   1.429   0.979   0.779 -0.5842 -0.7761  0.1207
 1703SOL    HW216746   1.315   0.961   0.871  0.0785  0.5576  0.8662
 1704SOL     OW16747   4.300   4.551   9.097 -0.6880  0.3813 -0.2390
 1704SOL    HW116748   4.321   4.461   9.073  0.4542  0.7597 -0.6376
 1704SOL    HW216749   4.358   4.603   9.041 -0.1886  2.0713  1.8397
 1705SOL     OW16750   4.686   0.045   9.774 -0.5750 -0.6433  0.1309
 1705SOL    HW116751   4.602   0.004   9.753 -0.1366 -1.3547 -0.2126
 1705SOL    HW216752   4.700   0.033   9.868  0.2837  0.0171  0.0845
 1706SOL     OW16753   1.833   0.348   3.184  0.1401  0.5161  0.4471
 1706SOL    HW116754   1.842   0.255   3.204 -3.6053 -0.3120 -1.5964
 1706SOL    HW216755   1.822   0.390   3.269 -0.4577  1.7578 -0.2362
 1707SOL     OW16756   3.021   1.183   6.366 -0.4035 -0.4628  0.4957
 1707SOL    HW116757   2.976   1.259   6.329  1.8750  1.2428  1.1826
 1707SOL    HW216758   3.107   1.226   6.372  0.2013 -1.3860 -1.8373
 1708SOL     OW16759   0.543   3.433   3.543  0.0959  0.5454  0.3180
 1708SOL    HW116760   0.529   3.340   3.561  0.1201  0.5526  0.3726
 1708SOL    HW216761   0.638   3.443   3.548  0.2028 -0.1284 -0.2929
 1709SOL     OW16762   2.892   1.999  13.777  0.5391 -0.1412 -0.2473
 1709SOL    HW116763   2.949   1.932  13.741  2.0483 -0.4118  2.7025
 1709SOL    HW216764   2.909   2.078  13.725  2.2172 -0.9780 -0.9350
 1710SOL     OW16765   0.742   4.589  13.128 -0.2615  0.1608 -0.2638
 1710SOL    HW116766   0.804   4.604  13.057  2.4075 -1.0293  1.7744
 1710SOL    HW216767   0.797   4.622  13.200  2.8424 -0.2672 -2.4461
 1711SOL     OW16768   2.550   2.476   3.924 -0.1320 -0.3625  0.0671
 1711SOL    HW116769   2.485   2.433   3.869 -0.4724  1.0737 -0.6745
 1711SOL    HW216770   2.630   2.480   3.870  0.5311  0.8353  1.1358
 1712SOL     OW16771   0.550   2.533  11.758 -1.1441 -0.1183 -0.5948
 1712SOL    HW116772   0.580   2.601  11.698  0.9475 -0.8247 -0.3582
 1712SOL    HW216773   0.627   2.477  11.767 -0.9756  0.7652  3.3262
 1713SOL     OW16774   1.877   2.254   7.083 -0.3084 -0.1630 -0.1784
 1713SOL    HW116775   1.967   2.232   7.060 -0.1671 -0.7023  0.8560
 1713SOL    HW216776   1.833   2.178   7.044  1.4732  0.3717 -3.2599
 1714SOL     OW16777   3.220   3.745   2.123 -0.1092  0.3061 -0.2297
 1714SOL    HW116778   3.136   3.784   2.102  0.1516  1.6203  1.2329
 1714SOL    HW216779   3.211   3.699   2.206  0.3976 -2.6990 -1.8291
 1715SOL     OW16780   2.398   2.412   2.211 -0.1252 -0.4203 -0.1937
 1715SOL    HW116781   2.474   2.462   2.243  1.8662 -3.3226 -0.4532
 1715SOL    HW216782   2.417   2.414   2.117 -3.8316 -2.1417 -0.9348
 1716SOL     OW16783   4.193   1.260   4.578 -0.2232 -0.6104 -0.2692
 1716SOL    HW116784   4.173   1.167   4.575 -0.5403 -0.5572  0.0985
 1716SOL    HW216785   4.105   1.296   4.593 -0.1299 -0.7189  0.5460
 1717SOL     OW16786   2.596   0.107  13.474 -0.2777 -0.2598 -0.5357
 1717SOL    HW116787   2.662   0.156  13.523 -2.6472  1.9495  0.4290
 1717SOL    HW216788   2.517   0.157  13.493 -0.5775 -1.1715  0.6222
 1718SOL     OW16789   1.467   4.273   1.493  0.0555  0.1498 -0.2433
 1718SOL    HW116790   1.501   4.351   1.536 -0.9758  1.5271 -1.9474
 1718SOL    HW216791   1.544   4.221   1.520 -0.9105 -1.5550 -0.7515
 1719SOL     OW16792   3.920   2.750   4.841 -0.3300 -0.5452 -0.0206
 1719SOL    HW116793   3.854   2.747   4.910  1.5064  1.5028  1.8237
 1719SOL    HW216794   4.000   2.724   4.886  0.6320  0.5161 -1.1184
 1720SOL     OW16795   3.845   3.569   6.884 -0.4910  0.4291 -0.1521
 1720SOL    HW116796   3.828   3.493   6.829  2.5975  0.1116 -0.6817
 1720SOL    HW216797   3.911   3.615   6.831 -1.4196 -1.1665 -2.6812
 1721SOL     OW16798   0.743   1.758   8.440  0.0333 -0.8054 -0.5119
 1721SOL    HW116799   0.805   1.830   8.429  0.3514 -0.9162  0.5210
 1721SOL    HW216800   0.699   1.799   8.514 -1.3002  0.3505 -1.9425
 1722SOL     OW16801   4.596   1.565   8.108 -0.3355  0.3142  0.6115
 1722SOL    HW116802   4.686   1.581   8.082 -0.9244  0.1620 -1.5393
 1722SOL    HW216803   4.578   1.491   8.050  0.2769  0.1297  0.6567
 1723SOL     OW16804   0.263   1.575   1.842 -0.0990 -0.3221 -0.4264
 1723SOL    HW116805   0.321   1.578   1.919  1.2032  2.5175 -1.5185
 1723SOL    HW216806   0.217   1.493   1.863  0.5467  0.0216  2.3318
 1724SOL     OW16807   3.358   1.559   5.161 -0.0017 -0.2324 -0.5075
 1724SOL    HW116808   3.389   1.508   5.236  4.2812 -0.6869 -2.5810
 1724SOL    HW216809   3.348   1.651   5.182  4.0987 -0.2284  1.2986
 1725SOL     OW16810   3.957   4.061   3.837 -0.4179 -0.2389  0.5875
 1725SOL    HW116811   3.908   4.133   3.797 -1.7075 -0.0797  2.4411
 1725SOL    HW216812   3.942   4.075   3.931 -2.0657  1.1810  0.1137
 1726SOL     OW16813   0.987   3.694   7.925  0.2013 -0.8513 -0.3104
 1726SOL    HW116814   1.016   3.654   8.007 -0.3815  0.2221  0.4266
 1726SOL    HW216815   0.894   3.690   7.950  0.5610 -0.8744  1.0324
 1727SOL     OW16816   3.878   1.320   2.731  0.2449  0.5781 -0.1119
 1727SOL    HW116817   3.938   1.360   2.794 -1.4417  2.2561  0.4117
 1727SOL    HW216818   3.804   1.287   2.782 -1.5363  0.3428 -2.8407
 1728SOL     OW16819   2.224   0.854   8.619  0.1258 -0.2434  0.0184
 1728SOL    HW116820   2.203   0.774   8.571  1.2115 -0.0401 -0.7930
 1728SOL    HW216821   2.140   0.896   8.638  0.2191 -0.6011  1.2247
 1729SOL     OW16822   4.063   3.651   4.469  0.2825 -0.0994 -0.2021
 1729SOL    HW116823   3.982   3.676   4.515  1.1814  1.8284  0.3211
 1729SOL    HW216824   4.076   3.561   4.498 -0.9439 -0.4636 -0.7962
 1730SOL     OW16825   4.621   3.694   8.446 -0.3089  0.6171 -0.3851
 1730SOL    HW116826   4.680   3.707   8.520  1.4405  1.8324 -1.9861
 1730SOL    HW216827   4.560   3.634   8.489  0.0595  1.4656  1.2773
 1731SOL     OW16828   4.479   0.727   3.297  0.1823 -0.1369  0.5732
 1731SOL    HW116829   4.510   0.637   3.288  0.6890  0.2206 -1.1881
 1731SOL    HW216830   4.536   0.766   3.363 -1.1629  3.0375 -0.1227
 1732SOL     OW16831   4.616   1.931   8.738 -0.1703 -0.6512 -0.7571
 1732SOL    HW116832   4.691   1.972   8.781 -0.3304  0.5924 -1.6513
 1732SOL    HW216833   4.648   1.935   8.648 -0.7146 -1.0657 -0.9703
 1733SOL     OW16834   1.814   0.835  11.216 -0.3589 -0.5762  0.9054
 1733SOL    HW116835   1.833   0.796  11.131 -2.4960 -1.5615  0.8851
 1733SOL    HW216836   1.863   0.917  11.219  1.9949 -1.9561  0.2705
 1734SOL     OW16837   3.463   4.643  12.041  0.4858 -0.0385  0.2282
 1734SOL    HW116838   3.505   4.646  12.127  2.3300  1.1714 -0.7403
 1734SOL    HW216839   3.371   4.662  12.061  0.4810 -1.2099  1.3828
 1735SOL     OW16840   0.183   4.076   3.323  0.1872  0.4049  0.6273
 1735SOL    HW116841   0.149   3.993   3.356  1.0883 -0.1536  0.1572
 1735SOL    HW216842   0.111   4.136   3.343  1.4736  2.3109 -0.4814
 1736SOL     OW16843   0.848   3.442   9.139  0.7055 -0.9437 -0.4516
 1736SOL    HW116844   0.772   3.403   9.182 -1.1779  1.7574 -1.3740
 1736SOL    HW216845   0.853   3.528   9.180 -1.9729  0.1742 -2.5270
 1737SOL     OW16846   0.083   3.492   6.056 -0.8124  0.4593  0.3185
 1737SOL    HW116847   0.091   3.456   6.144  1.2602 -1.2452 -0.5682
 1737SOL    HW216848   0.013   3.557   6.062 -0.2574  0.9012  2.0314
 1738SOL     OW16849   2.568   2.215   0.300 -0.6441 -0.6058 -0.0686
 1738SOL    HW116850   2.648   2.195   0.252  0.0160  0.7971  0.4397
 1738SOL    HW216851   2.608   2.234   0.385 -0.0794 -1.7385 -0.0818
 1739SOL     OW16852   2.234   1.347   9.349 -0.2870  0.0315 -0.1094
 1739SOL    HW116853   2.145   1.341   9.314 -0.5063 -0.8151  0.5897
 1739SOL    HW216854   2.271   1.267   9.314 -0.7365  0.2712 -1.1286
 1740SOL     OW16855   3.789   4.536   5.680 -0.3309  0.0480 -0.0233
 1740SOL    HW116856   3.878   4.527   5.713 -0.4391  1.1407  0.5843
 1740SOL    HW216857   3.769   4.443   5.667  1.1378 -0.4885  1.5810
 1741SOL     OW16858   0.454   3.237   2.415 -0.4341  0.4231  0.7796
 1741SOL    HW116859   0.544   3.255   2.441  0.0821 -1.6660  0.4576
 1741SOL    HW216860   0.464   3.190   2.333 -1.3861 -0.2122  1.0244
 1742SOL     OW16861   2.822   4.594   5.626 -0.2068 -0.0823 -0.1873
 1742SOL    HW116862   2.741   4.546   5.607  0.0803 -1.2405  1.5030
 1742SOL    HW216863   2.875   4.526   5.668  0.3948 -0.4819 -1.6026
 1743SOL     OW16864   4.738   0.737   8.584 -0.2042 -0.5720  0.8075
 1743SOL    HW116865   0.041   0.805   8.531  1.8832 -0.9889  1.9229
 1743SOL    HW216866   0.060   0.734   8.658 -1.6349  4.3987  2.1800
 1744SOL     OW16867   1.499   2.929  11.145 -0.1772  0.6081 -0.0786
 1744SOL    HW116868   1.419   2.977  11.125 -0.0672  0.3036 -1.2548
 1744SOL    HW216869   1.548   2.946  11.065  1.4081  0.7832  0.9381
 1745SOL     OW16870   1.642   2.118   7.295 -0.3212 -0.0705 -0.0783
 1745SOL    HW116871   1.583   2.192   7.281 -1.0431 -0.7914 -0.8533
 1745SOL    HW216872   1.580   2.060   7.338  0.5549 -0.0181  1.2401
 1746SOL     OW16873   3.191   0.015   5.321  0.1063  0.0951  0.3818
 1746SOL    HW116874   3.283   4.733   5.306 -0.4749 -3.1827  1.2202
 1746SOL    HW216875   3.201   0.110   5.316 -1.4538  0.1261 -2.5767
 1747SOL     OW16876   0.277   1.112   8.249  0.3203  0.8257  0.0372
 1747SOL    HW116877   0.253   1.130   8.158  1.8624  0.2191 -0.4894
 1747SOL    HW216878   0.249   1.195   8.287 -1.9353 -0.1716  0.5575
 1748SOL     OW16879   3.768   3.283   5.689 -0.2404  0.0528 -0.3622
 1748SOL    HW116880   3.755   3.350   5.755 -2.1105 -0.5922 -0.0961
 1748SOL    HW216881   3.714   3.318   5.618  0.7087  1.1537 -0.5410
 1749SOL     OW16882   1.025   2.620   9.807 -0.2987 -0.1479  0.7502
 1749SOL    HW116883   1.033   2.532   9.843 -0.2121 -1.2120 -1.8399
 1749SOL    HW216884   1.108   2.658   9.837 -0.0080 -0.4404  0.3336
 1750SOL     OW16885   2.706   3.039  16.138  0.4188  0.2425 -0.0293
 1750SOL    HW116886   2.725   3.064  16.047  0.1086  2.6512  0.5669
 1750SOL    HW216887   2.692   2.944  16.131 -1.5243  0.6906 -2.0758
 1751SOL     OW16888   3.996   1.759   7.168 -0.7903 -0.4898  0.1270
 1751SOL    HW116889   3.919   1.806   7.200 -0.3371  0.1129  0.3300
 1751SOL    HW216890   3.961   1.707   7.094  2.1605  0.1769 -1.7124
 1752SOL     OW16891   2.519   0.069   8.190  0.3006 -0.5638 -0.1338
 1752SOL    HW116892   2.439   0.098   8.234  1.3335  0.8039  0.8207
 1752SOL    HW216893   2.577   0.075   8.265  0.3800 -0.6968 -0.1848
 1753SOL     OW16894   0.050   4.535  15.348  0.4141 -0.5699  0.4213
 1753SOL    HW116895   4.733   4.494  15.415 -2.2471  1.9335 -0.2735
 1753SOL    HW216896   0.132   4.489  15.367  0.4735 -0.2999  0.8243
 1754SOL     OW16897   0.148   1.199   2.797  0.1404  0.2505 -0.0053
 1754SOL    HW116898   0.118   1.289   2.785 -1.2209 -0.0475  1.1955
 1754SOL    HW216899   0.067   1.148   2.793 -0.5443  1.3230  0.3058
 1755SOL     OW16900   1.326   0.893   2.960 -0.2680  0.3293 -0.0690
 1755SOL    HW116901   1.242   0.884   3.006  0.6519 -2.4554  1.0756
 1755SOL    HW216902   1.364   0.967   3.007  1.9799 -0.8775 -0.0140
 1756SOL     OW16903   2.928   1.519  13.343 -0.1360  0.3017  0.7183
 1756SOL    HW116904   2.960   1.576  13.273  1.3189 -1.5526 -0.1684
 1756SOL    HW216905   2.904   1.576  13.415 -1.0100 -0.5233  1.0738
 1757SOL     OW16906   4.339   1.417   0.380 -0.0307 -0.3515 -0.0234
 1757SOL    HW116907   4.328   1.419   0.475  1.7314  0.7604  0.1635
 1757SOL    HW216908   4.254   1.451   0.355 -0.0244 -0.1426  0.2349
 1758SOL     OW16909   2.460   2.723  13.809  0.1362  0.0091  0.0799
 1758SOL    HW116910   2.370   2.755  13.819 -0.5867 -1.6876 -0.8813
 1758SOL    HW216911   2.439   2.632  13.832  0.7329  0.5380  2.6810
 1759SOL     OW16912   4.089   0.102   3.909  0.0429  0.2504 -0.0982
 1759SOL    HW116913   4.147   0.169   3.944  0.0149  1.5665 -2.5258
 1759SOL    HW216914   4.093   0.117   3.814 -0.1867  0.8402 -0.0171
 1760SOL     OW16915   0.602   0.955  17.016  0.1160 -0.0655 -0.6538
 1760SOL    HW116916   0.693   0.969  16.990 -0.5060  1.1482 -2.2177
 1760SOL    HW216917   0.597   0.865  16.983  0.2104 -0.8117  1.3941
 1761SOL     OW16918   1.425   2.044   9.517 -0.3561  0.6023  0.3733
 1761SOL    HW116919   1.396   1.957   9.492 -0.1468  0.5761  0.2204
 1761SOL    HW216920   1.471   2.027   9.599  2.1770  0.2494 -1.1045
 1762SOL     OW16921   3.375   1.006  13.763  0.3716 -0.0660 -0.1455
 1762SOL    HW116922   3.394   1.095  13.731 -0.7891 -0.4572 -1.9537
 1762SOL    HW216923   3.449   0.980  13.817  0.3416 -1.2016 -0.6497
 1763SOL     OW16924   1.867   3.276   0.694  0.2395  0.5979  0.0712
 1763SOL    HW116925   1.811   3.206   0.728 -0.6552  0.7723 -1.0481
 1763SOL    HW216926   1.818   3.286   0.612  0.7191  1.8056 -0.0542
 1764SOL     OW16927   1.249   1.638   6.184 -0.8840  0.6489 -0.0688
 1764SOL    HW116928   1.342   1.627   6.166 -0.7975 -1.6606  1.7072
 1764SOL    HW216929   1.245   1.723   6.227  3.8874  1.2432 -0.7864
 1765SOL     OW16930   4.089   1.570   8.132 -0.0569  0.4248  0.2921
 1765SOL    HW116931   4.166   1.623   8.113  0.4281 -0.2398  0.3874
 1765SOL    HW216932   4.079   1.500   8.068  0.3587 -1.0899  1.8704
 1766SOL     OW16933   0.076   2.166   4.735 -0.0941 -0.1703 -0.3147
 1766SOL    HW116934   0.088   2.254   4.700  1.5978 -0.6161 -0.8349
 1766SOL    HW216935   0.040   2.119   4.660  2.5690  0.3234 -1.8681
 1767SOL     OW16936   0.839   2.520   2.552 -0.8248 -0.2743  0.0168
 1767SOL    HW116937   0.898   2.505   2.625  0.9415 -0.0468 -1.3670
 1767SOL    HW216938   0.842   2.439   2.501  2.0325 -0.0808 -0.0923
 1768SOL     OW16939   1.754   1.383   3.391 -0.1009 -0.1353  0.1516
 1768SOL    HW116940   1.816   1.323   3.349  3.1609  3.2613  0.1319
 1768SOL    HW216941   1.791   1.467   3.364  2.6515 -1.7698 -1.3174
 1769SOL     OW16942   4.435   3.205   5.924 -0.0869 -0.1473  0.0358
 1769SOL    HW116943   4.471   3.117   5.937 -0.2172 -0.0953  0.7561
 1769SOL    HW216944   4.501   3.257   5.878  0.8339  0.0148  1.5330
 1770SOL     OW16945   0.047   4.522   2.611  0.1585  0.2660  0.4154
 1770SOL    HW116946   4.699   4.537   2.650  0.0825  1.2346 -0.1173
 1770SOL    HW216947   0.095   4.596   2.648 -0.4484  0.7504  0.2397
 1771SOL     OW16948   4.348   2.406   3.952 -0.2269  0.1809 -0.5213
 1771SOL    HW116949   4.295   2.355   4.013  1.6728 -1.3943 -0.2018
 1771SOL    HW216950   4.285   2.444   3.891 -0.8112  1.3806  0.8546
 1772SOL     OW16951   1.865   1.688   6.140  0.5424 -0.2498  0.4195
 1772SOL    HW116952   1.940   1.689   6.199  1.8849 -2.9459 -1.2297
 1772SOL    HW216953   1.795   1.656   6.196 -0.8056  0.7659 -0.6732
 1773SOL     OW16954   4.567   1.264   0.380  0.3085  0.6231  0.0719
 1773SOL    HW116955   4.558   1.177   0.419 -0.9168  1.8331  2.5055
 1773SOL    HW216956   4.480   1.300   0.399  1.6834  2.5945  2.6205
 1774SOL     OW16957   3.389   1.391   8.521 -0.2521  0.5439 -0.2801
 1774SOL    HW116958   3.318   1.449   8.493 -0.4709 -0.5819 -2.0601
 1774SOL    HW216959   3.340   1.311   8.539  0.7315  0.5812  2.5723
 1775SOL     OW16960   2.992   4.284   2.787  0.4999  0.0569 -0.8901
 1775SOL    HW116961   2.958   4.304   2.874  0.0968  0.1228 -1.0644
 1775SOL    HW216962   3.077   4.327   2.780  0.1577  1.0045  0.8435
 1776SOL     OW16963   0.780   0.041   2.178  0.6605 -0.4429  0.5748
 1776SOL    HW116964   0.783   0.018   2.085  0.5619  3.2607 -0.3173
 1776SOL    HW216965   0.825   4.704   2.217  2.7969  0.1445 -0.7839
 1777SOL     OW16966   4.728   2.029   4.519 -0.4276 -0.2962  0.2557
 1777SOL    HW116967   0.022   2.030   4.428 -1.9653 -4.0984 -0.3547
 1777SOL    HW216968   4.685   1.943   4.513  0.4234 -0.5329 -2.7762
 1778SOL     OW16969   4.725   3.291  17.198 -0.4101  0.1690  0.0619
 1778SOL    HW116970   0.006   3.322  17.286  0.9951  1.2735 -0.6297
 1778SOL    HW216971   4.649   3.345  17.174 -1.4364 -0.6194  1.5609
 1779SOL     OW16972   1.019   1.965   3.467  0.3660 -0.5311  0.5695
 1779SOL    HW116973   1.049   1.887   3.513 -0.4833 -2.0176 -1.3695
 1779SOL    HW216974   0.967   1.934   3.392 -1.3078  2.5534  0.4626
 1780SOL     OW16975   2.272   4.354   6.206  0.0446  0.4192 -0.9797
 1780SOL    HW116976   2.318   4.386   6.129 -1.0570  1.8095 -1.0506
 1780SOL    HW216977   2.198   4.301   6.176  0.8181 -1.2752  0.0915
 1781SOL     OW16978   3.387   2.227   4.178 -0.4426  0.4437  0.0076
 1781SOL    HW116979   3.446   2.186   4.115  0.4584 -1.0505  1.8421
 1781SOL    HW216980   3.309   2.240   4.124 -0.0643  2.6492 -0.0190
 1782SOL     OW16981   0.688   2.709   2.395  0.1279 -0.3876  0.5284
 1782SOL    HW116982   0.670   2.792   2.438 -0.5898  0.5976 -1.6665
 1782SOL    HW216983   0.759   2.675   2.449 -0.3195 -0.2719  1.1950
 1783SOL     OW16984   2.836   0.299   7.309  0.0279 -0.1728 -0.0114
 1783SOL    HW116985   2.779   0.241   7.258 -0.7926  1.6210 -1.1416
 1783SOL    HW216986   2.902   0.243   7.349 -1.0701 -0.7040  1.0859
 1784SOL     OW16987   1.222   2.488   7.968  0.4786  0.1513  0.0868
 1784SOL    HW116988   1.156   2.557   7.960  0.6688  0.6769  2.9107
 1784SOL    HW216989   1.297   2.539   7.938 -0.8577 -0.1536 -3.7062
 1785SOL     OW16990   2.203   4.405   1.904 -0.3944 -0.1512 -0.1101
 1785SOL    HW116991   2.276   4.359   1.862 -0.7274 -2.5694  1.9449
 1785SOL    HW216992   2.249   4.485   1.929  1.9758 -1.2336 -0.9551
 1786SOL     OW16993   2.169   3.920  10.520  0.0995 -0.0112  0.0270
 1786SOL    HW116994   2.137   3.878  10.599  0.3965 -0.3639 -0.0399
 1786SOL    HW216995   2.102   3.891  10.458  1.0439  0.6060 -1.2848
 1787SOL     OW16996   1.463   1.106   8.762 -0.1450  0.3875 -0.4693
 1787SOL    HW116997   1.554   1.128   8.742  0.0624  1.8030  2.0817
 1787SOL    HW216998   1.430   1.058   8.686 -0.5401 -0.4151  0.2167
 1788SOL     OW16999   2.842   0.043  15.169  0.2088  0.2380  0.2094
 1788SOL    HW117000   2.838   0.033  15.264 -0.0572 -0.5173  0.1174
 1788SOL    HW217001   2.904   0.115  15.161  0.4198  0.0685  0.3048
 1789SOL     OW17002   0.445   3.011   2.234 -0.1611  0.0403 -0.2523
 1789SOL    HW117003   0.389   3.017   2.158  2.5739  0.9773 -2.1920
 1789SOL    HW217004   0.509   2.952   2.195  1.2111  2.6713 -1.9653
 1790SOL     OW17005   1.219   0.864   2.726  0.4012 -0.0433  0.2887
 1790SOL    HW117006   1.242   0.951   2.694 -1.8327  0.1250 -0.8356
 1790SOL    HW217007   1.268   0.862   2.809  0.8835 -0.9649 -0.0125
 1791SOL     OW17008   2.178   0.081   6.916 -0.2553 -0.1711 -0.1524
 1791SOL    HW117009   2.270   0.074   6.940 -0.8857 -0.9027  2.0730
 1791SOL    HW217010   2.178   0.171   6.884 -1.0610  0.8828  2.7832
 1792SOL     OW17011   3.807   4.465   6.546  0.0491  0.1276 -0.5092
 1792SOL    HW117012   3.773   4.395   6.603  0.6535 -0.1386 -0.4759
 1792SOL    HW217013   3.860   4.522   6.601  1.0423 -0.1469 -1.1976
 1793SOL     OW17014   4.045   2.840   0.708 -0.4775 -0.4306 -0.0463
 1793SOL    HW117015   4.100   2.914   0.731 -1.5948 -0.3427  2.3474
 1793SOL    HW217016   4.046   2.798   0.794 -0.0995 -0.3899 -0.0315
 1794SOL     OW17017   0.201   0.625  14.347  0.3605 -0.3936 -1.1333
 1794SOL    HW117018   0.110   0.609  14.372  0.2007 -1.0728 -2.1586
 1794SOL    HW217019   0.183   0.655  14.258  0.9647  1.0102 -0.7918
 1795SOL     OW17020   0.758   3.345  12.145  0.1223  0.2121  1.1816
 1795SOL    HW117021   0.850   3.319  12.152  0.0532 -1.0603 -2.4958
 1795SOL    HW217022   0.728   3.316  12.231 -1.4125 -0.3935  0.4349
 1796SOL     OW17023   3.832   3.206  13.452 -0.0565 -0.7563 -0.4977
 1796SOL    HW117024   3.844   3.232  13.361  4.0681  0.4241  0.3430
 1796SOL    HW217025   3.799   3.117  13.439 -2.0042  0.0357 -0.9859
 1797SOL     OW17026   1.884   1.541   4.493  0.1217 -0.6946  0.2902
 1797SOL    HW117027   1.971   1.577   4.478  0.8227 -1.3599  2.8082
 1797SOL    HW217028   1.901   1.477   4.562  3.9908  0.2976  0.2859
 1798SOL     OW17029   3.675   3.142   4.790  0.5276  0.1319  0.0537
 1798SOL    HW117030   3.760   3.137   4.748  0.3230  0.4765 -0.3977
 1798SOL    HW217031   3.612   3.147   4.718 -0.8354 -2.7577  1.0051
 1799SOL     OW17032   0.361   2.100   7.012  0.0616  0.6145 -0.6680
 1799SOL    HW117033   0.303   2.038   7.057 -2.8685  2.8104 -1.3775
 1799SOL    HW217034   0.298   2.161   6.974 -2.4285 -1.9782 -0.7626
 1800SOL     OW17035   2.791   1.259   5.689  0.0409 -0.1378 -0.3905
 1800SOL    HW117036   2.807   1.268   5.595  1.3888 -0.9486 -0.2425
 1800SOL    HW217037   2.820   1.347   5.712 -1.2048 -0.2987  1.7843
 1801SOL     OW17038   1.172   3.019   9.397 -0.1644 -0.0373 -0.2367
 1801SOL    HW117039   1.205   3.094   9.447 -0.9575 -2.4739  3.9579
 1801SOL    HW217040   1.219   2.948   9.440  0.5828  1.4723  1.4792
 1802SOL     OW17041   0.491   4.552   5.315  0.6231  0.0973 -0.3229
 1802SOL    HW117042   0.556   4.516   5.375  0.2886  0.0588  0.0164
 1802SOL    HW217043   0.463   4.632   5.359  2.0777  2.2581 -3.2809
 1803SOL     OW17044   3.297   1.954   8.444  0.0946  0.2337 -0.3804
 1803SOL    HW117045   3.322   2.026   8.386 -1.4529 -0.1870 -1.5429
 1803SOL    HW217046   3.371   1.897   8.424  0.0514  0.1135 -0.1922
 1804SOL     OW17047   3.125   4.112   0.115 -0.8782 -0.3729  0.1454
 1804SOL    HW117048   3.196   4.111   0.050 -1.7612 -0.3463 -0.8287
 1804SOL    HW217049   3.140   4.030   0.161  1.4008 -0.0842 -0.0788
 1805SOL     OW17050   4.302   4.605   6.216 -0.3836  0.1832 -0.0434
 1805SOL    HW117051   4.371   4.583   6.278 -0.0655 -0.1785 -0.5284
 1805SOL    HW217052   4.315   4.696   6.190 -1.5143  0.8458  1.7035
 1806SOL     OW17053   3.271   3.317   0.251 -0.0984  0.2961  0.1897
 1806SOL    HW117054   3.323   3.397   0.239 -0.8021  0.7822  0.3683
 1806SOL    HW217055   3.207   3.350   0.314  0.3276  0.0101  0.7685
 1807SOL     OW17056   3.720   1.803  10.198 -0.8210 -0.5296  0.3196
 1807SOL    HW117057   3.663   1.872  10.165 -1.2353  0.2865  2.7888
 1807SOL    HW217058   3.807   1.831  10.169 -0.7692  0.3466  1.3668
 1808SOL     OW17059   0.111   0.757   6.716  0.1459  0.4914 -0.1447
 1808SOL    HW117060   0.103   0.733   6.808  1.9685  2.5424  0.5589
 1808SOL    HW217061   0.065   0.681   6.680 -1.0978  0.8020  0.7703
 1809SOL     OW17062   3.867   4.574   9.846 -0.2718  0.0102 -0.1232
 1809SOL    HW117063   3.812   4.589   9.769  1.5868  0.0954 -1.4439
 1809SOL    HW217064   3.942   4.629   9.824 -0.9526  0.6118 -0.9859
 1810SOL     OW17065   0.130   3.509  10.842 -0.1581  0.1442  0.1379
 1810SOL    HW117066   0.053   3.565  10.837 -0.2583 -0.0029  0.0312
 1810SOL    HW217067   0.153   3.490  10.751  1.6540 -0.1890  0.6573
 1811SOL     OW17068   2.100   2.991  16.994  0.2937  0.9917  0.1337
 1811SOL    HW117069   2.112   2.944  16.911 -2.0124  0.4440  0.0944
 1811SOL    HW217070   2.124   3.080  16.967  0.1228  1.6348  2.1276
 1812SOL     OW17071   2.992   4.619  12.491 -0.5749 -0.5445 -0.0117
 1812SOL    HW117072   2.905   4.615  12.451  0.1959  3.3994 -2.0935
 1812SOL    HW217073   3.035   4.549  12.441 -0.2724 -0.0860 -0.3814
 1813SOL     OW17074   0.544   0.494   4.556  0.5182 -0.2833 -0.6356
 1813SOL    HW117075   0.626   0.533   4.586 -0.9734  0.9944  1.7854
 1813SOL    HW217076   0.538   0.528   4.466  0.6626  2.1052  0.2476
 1814SOL     OW17077   2.248   1.961  12.822 -0.0893  1.0332  0.1270
 1814SOL    HW117078   2.156   1.978  12.843 -0.0131 -0.0629  1.3620
 1814SOL    HW217079   2.279   1.926  12.906 -1.8076  0.5776  0.5790
 1815SOL     OW17080   1.596   1.670   0.130  0.1631  0.4072  0.0363
 1815SOL    HW117081   1.501   1.668   0.124  0.3680 -2.5951 -1.7833
 1815SOL    HW217082   1.629   1.687   0.042  1.9093 -1.0590  0.4005
 1816SOL     OW17083   4.598   3.625   8.761  0.0648  0.4893 -0.5279
 1816SOL    HW117084   4.688   3.623   8.729 -0.4901 -0.2074 -2.0835
 1816SOL    HW217085   4.576   3.531   8.758 -1.3223  0.7687  0.5801
 1817SOL     OW17086   3.177   3.366   5.654 -0.0376  0.0144 -0.4649
 1817SOL    HW117087   3.209   3.456   5.645 -1.3483  0.3383 -1.8453
 1817SOL    HW217088   3.253   3.316   5.625 -0.7244 -0.7506 -0.9552
 1818SOL     OW17089   2.532   3.388   5.417  0.8041  0.0645  0.4886
 1818SOL    HW117090   2.521   3.390   5.512  0.9698 -0.7362  0.5312
 1818SOL    HW217091   2.625   3.371   5.397  0.6746 -0.6790  0.5082
 1819SOL     OW17092   3.190   1.293   6.704  0.1662  0.1464  0.3510
 1819SOL    HW117093   3.265   1.287   6.763  1.6105  0.1858 -1.5024
 1819SOL    HW217094   3.112   1.258   6.747  1.3701 -2.0335  0.7550
 1820SOL     OW17095   2.294   0.245   4.442 -0.4014 -0.5560 -0.7541
 1820SOL    HW117096   2.270   0.317   4.500 -1.0568  0.1555 -1.9134
 1820SOL    HW217097   2.337   0.286   4.367  0.7167 -2.0241 -0.9201
 1821SOL     OW17098   4.266   4.641   9.713 -0.4683  0.1602 -0.1044
 1821SOL    HW117099   4.323   4.595   9.774  0.6867  0.5181 -0.9273
 1821SOL    HW217100   4.311   4.720   9.684 -0.7666 -0.4273 -2.1908
 1822SOL     OW17101   2.020   1.001   8.313  0.6488  0.5774  0.0765
 1822SOL    HW117102   2.085   1.041   8.255 -0.1686  2.0293  0.1542
 1822SOL    HW217103   2.027   1.040   8.400  1.9356 -0.9395  0.6488
 1823SOL     OW17104   1.304   0.285  11.384 -0.7388 -0.4917  0.0768
 1823SOL    HW117105   1.380   0.315  11.434 -0.9868  2.8252 -1.5425
 1823SOL    HW217106   1.238   0.350  11.408  1.5811  1.1757  1.9406
 1824SOL     OW17107   1.690   0.611  12.555 -0.2566 -0.5235 -0.3011
 1824SOL    HW117108   1.735   0.667  12.617  2.3871 -0.7692 -2.0117
 1824SOL    HW217109   1.740   0.635  12.477  0.4977 -2.4128 -0.4074
 1825SOL     OW17110   1.315   1.936   5.875  0.6206 -0.0999 -0.1081
 1825SOL    HW117111   1.242   1.942   5.937 -0.5927 -0.1650 -1.5434
 1825SOL    HW217112   1.374   1.993   5.925  1.3276  0.0558 -1.1190
 1826SOL     OW17113   3.980   0.822   3.745 -0.4282 -0.6689  0.7763
 1826SOL    HW117114   3.980   0.813   3.649 -2.5602  0.6237  0.6588
 1826SOL    HW217115   4.075   0.826   3.761  0.4091  0.2235 -4.3231
 1827SOL     OW17116   2.863   2.762   9.516  0.0945 -0.4058 -0.4281
 1827SOL    HW117117   2.828   2.706   9.447  0.0732  2.8597 -3.0492
 1827SOL    HW217118   2.906   2.827   9.461  0.1759 -0.3769 -0.3304
 1828SOL     OW17119   3.656   4.614   2.900 -0.0745 -0.2455 -1.0232
 1828SOL    HW117120   3.608   4.617   2.983  0.1058 -2.6796 -0.8452
 1828SOL    HW217121   3.640   4.523   2.876 -0.6480  0.0044 -1.6061
 1829SOL     OW17122   2.469   3.501  17.101  0.0341 -0.0250 -0.3366
 1829SOL    HW117123   2.475   3.516  17.196 -0.4646  2.7077 -0.7430
 1829SOL    HW217124   2.482   3.406  17.096  0.8178  0.1708 -1.7914
 1830SOL     OW17125   0.151   2.232   4.997  0.3139  0.3147 -0.3270
 1830SOL    HW117126   0.137   2.176   4.920  0.6251  1.3036 -1.1056
 1830SOL    HW217127   0.243   2.216   5.016  0.3954  2.0564  0.7236
 1831SOL     OW17128   2.631   4.432  15.012  0.3044 -0.4490 -0.4201
 1831SOL    HW117129   2.621   4.521  14.978  2.0593 -0.1419 -0.1393
 1831SOL    HW217130   2.566   4.438  15.081  0.9683  0.6394  0.1072
 1832SOL     OW17131   0.860   3.768   3.277  0.5245 -0.4996  0.1839
 1832SOL    HW117132   0.773   3.735   3.299 -0.2927  0.8453 -1.0719
 1832SOL    HW217133   0.852   3.840   3.215  2.7705 -2.0205 -1.8776
 1833SOL     OW17134   1.399   0.476   1.162 -0.2334  0.5064 -0.0402
 1833SOL    HW117135   1.470   0.421   1.130  1.3972  1.7144  1.5246
 1833SOL    HW217136   1.338   0.468   1.089  0.0885  1.4258 -0.4156
 1834SOL     OW17137   1.281   3.629   5.386  0.0224  0.4224  0.1264
 1834SOL    HW117138   1.367   3.664   5.407  0.6065 -0.5912 -0.6365
 1834SOL    HW217139   1.294   3.537   5.409 -0.4617 -0.3902 -2.8313
 1835SOL     OW17140   3.602   2.320  10.720 -0.0339  0.0218 -0.6043
 1835SOL    HW117141   3.632   2.410  10.702 -0.1482  1.0214  4.2734
 1835SOL    HW217142   3.509   2.328  10.737 -0.1307  0.8901 -1.5170
 1836SOL     OW17143   2.681   3.336   7.427  0.1728  0.3098  0.3055
 1836SOL    HW117144   2.662   3.407   7.366  0.6928  0.0072 -0.1960
 1836SOL    HW217145   2.631   3.263   7.390  1.0438 -0.0152 -0.2323
 1837SOL     OW17146   0.670   1.253   4.994  0.6887  0.0713  0.0542
 1837SOL    HW117147   0.702   1.282   4.909  0.4201 -0.8067 -0.3428
 1837SOL    HW217148   0.587   1.301   4.999  0.0964 -0.9461  0.1374
 1838SOL     OW17149   1.630   4.312  14.873 -0.0358  0.0691  0.1885
 1838SOL    HW117150   1.698   4.360  14.826  1.1079 -0.8620  0.8834
 1838SOL    HW217151   1.564   4.300  14.804  0.3723  0.3776 -0.2528
 1839SOL     OW17152   0.007   1.756   6.888 -0.3219 -0.6351 -0.5032
 1839SOL    HW117153   4.693   1.720   6.817 -2.5857 -0.9175  1.3361
 1839SOL    HW217154   0.076   1.788   6.829  0.1331 -3.1582 -1.3300
 1840SOL     OW17155   1.068   0.201  15.377  0.2307 -0.3050 -0.0792
 1840SOL    HW117156   1.021   0.219  15.296 -1.2357 -0.1263  0.8256
 1840SOL    HW217157   1.118   0.128  15.339 -0.9552 -0.4791 -1.2804
 1841SOL     OW17158   4.076   3.649  16.712 -0.4734 -0.8894  0.2361
 1841SOL    HW117159   4.001   3.590  16.712  0.3198 -1.9101 -1.5655
 1841SOL    HW217160   4.060   3.713  16.643  2.4522 -1.6370 -1.1356
 1842SOL     OW17161   3.883   2.330   4.704  0.1371  0.2779 -0.8296
 1842SOL    HW117162   3.907   2.357   4.793  0.6359 -0.7098 -0.6665
 1842SOL    HW217163   3.788   2.344   4.703 -0.0776 -1.0495 -0.0538
 1843SOL     OW17164   0.528   0.976   6.178 -0.1653  0.0263  0.6371
 1843SOL    HW117165   0.593   1.009   6.115  1.0352 -2.8805  0.3413
 1843SOL    HW217166   0.576   1.006   6.255  0.5658 -1.3744  0.7201
 1844SOL     OW17167   1.187   2.275   7.755 -0.0860  0.1028 -0.1654
 1844SOL    HW117168   1.265   2.278   7.700 -1.0592 -2.3149 -1.6747
 1844SOL    HW217169   1.216   2.328   7.829 -0.7159 -0.3897  0.4286
 1845SOL     OW17170   1.207   3.990   2.223 -0.4420  0.0797  0.3457
 1845SOL    HW117171   1.113   3.990   2.208 -0.4366 -1.5718  0.3585
 1845SOL    HW217172   1.216   4.035   2.307 -0.1984 -0.5786  0.6758
 1846SOL     OW17173   4.444   2.945  11.808 -0.0878 -0.0378 -0.4762
 1846SOL    HW117174   4.470   2.899  11.888 -2.6306  0.7851  0.8386
 1846SOL    HW217175   4.355   2.911  11.816  0.5760 -1.6056  0.3802
 1847SOL     OW17176   2.603   1.409   4.286  0.2497  0.2657  0.1623
 1847SOL    HW117177   2.612   1.441   4.197 -0.9674  1.5612  0.5203
 1847SOL    HW217178   2.573   1.322   4.258  0.5299  0.3421 -0.3741
 1848SOL     OW17179   0.166   4.140   4.027  0.5405  0.2226 -0.6434
 1848SOL    HW117180   0.191   4.223   3.986 -0.0394  0.7839  0.1302
 1848SOL    HW217181   0.109   4.105   3.959  0.0722 -1.5779  0.6742
 1849SOL     OW17182   3.705   3.428   2.871 -0.8785 -0.1887 -0.2523
 1849SOL    HW117183   3.680   3.349   2.823 -0.8955 -2.7169  3.9843
 1849SOL    HW217184   3.634   3.442   2.934 -1.4697  1.9712 -1.4045
 1850SOL     OW17185   2.168   3.494  14.408 -0.5420  0.1962  0.2104
 1850SOL    HW117186   2.244   3.468  14.356 -1.0795  0.1503 -0.5551
 1850SOL    HW217187   2.217   3.510  14.488  1.2987  0.4353 -0.9419
 1851SOL     OW17188   3.128   4.680  17.091 -0.0966 -0.3276  0.5267
 1851SOL    HW117189   3.133   4.684  16.995  1.4501  2.3596  0.6959
 1851SOL    HW217190   3.056   4.618  17.098 -0.5499  0.1127 -0.1451
 1852SOL     OW17191   4.639   2.443  14.981 -0.0366 -0.8085 -0.4109
 1852SOL    HW117192   4.594   2.359  14.986 -1.3907 -0.1094 -0.9126
 1852SOL    HW217193   4.607   2.473  14.896  0.1368  1.3020  0.2684
 1853SOL     OW17194   3.428   1.475   6.047 -0.1359  0.6651  0.2806
 1853SOL    HW117195   3.495   1.543   6.035  0.3343  0.3591  1.2140
 1853SOL    HW217196   3.371   1.508   6.117  2.3273  2.8226  1.2778
 1854SOL     OW17197   3.147   2.549   5.399  0.3167 -0.2020 -0.0461
 1854SOL    HW117198   3.081   2.486   5.368  1.2597 -2.3685  2.3606
 1854SOL    HW217199   3.137   2.561   5.493 -0.2225 -0.2325 -0.0981
 1855SOL     OW17200   1.820   2.613  14.593 -0.6039 -0.2326 -0.4503
 1855SOL    HW117201   1.900   2.630  14.542  0.2277  1.8571  1.5767
 1855SOL    HW217202   1.788   2.539  14.542 -2.1480  0.3484 -0.3077
 1856SOL     OW17203   3.289   3.283   6.850 -0.4053 -0.0166  0.0356
 1856SOL    HW117204   3.373   3.242   6.870  0.0405  0.8855  0.0313
 1856SOL    HW217205   3.250   3.219   6.791 -0.0052 -1.4615  1.3302
 1857SOL     OW17206   1.545   1.967   4.599  0.3775  0.1118 -0.3983
 1857SOL    HW117207   1.614   1.966   4.532 -0.2015 -0.5273 -0.9791
 1857SOL    HW217208   1.567   1.892   4.654  0.4180  1.3503  1.2781
 1858SOL     OW17209   0.267   3.564  15.478 -1.1492  0.0096  1.0570
 1858SOL    HW117210   0.292   3.591  15.389 -0.2423 -0.9104  1.0308
 1858SOL    HW217211   0.183   3.518  15.471 -1.4005  0.8453 -1.6655
 1859SOL     OW17212   1.589   3.559   7.059  0.1818  0.2401  0.0263
 1859SOL    HW117213   1.611   3.468   7.038 -0.9024  0.4907 -2.1730
 1859SOL    HW217214   1.607   3.598   6.974  2.4276 -0.5777  0.1309
 1860SOL     OW17215   4.293   3.246  12.668  0.1047 -0.1530 -0.3780
 1860SOL    HW117216   4.347   3.185  12.618  0.4456  1.7519 -2.3397
 1860SOL    HW217217   4.358   3.270  12.734 -0.7879 -0.2013  0.5157
 1861SOL     OW17218   3.899   4.390   0.927  0.4498  0.5243  0.1209
 1861SOL    HW117219   3.918   4.328   0.997 -0.2844  0.5670  0.3509
 1861SOL    HW217220   3.865   4.461   0.982 -0.8463  0.3865 -0.5232
 1862SOL     OW17221   3.433   2.555   2.592 -0.3318  0.1021 -0.0007
 1862SOL    HW117222   3.366   2.492   2.565  1.8968 -2.5779  0.6998
 1862SOL    HW217223   3.505   2.517   2.541 -2.1739 -1.0883 -1.7088
 1863SOL     OW17224   0.434   4.288   7.546  0.2574  0.1542 -0.1662
 1863SOL    HW117225   0.372   4.329   7.607  0.2198  1.1518 -0.8744
 1863SOL    HW217226   0.453   4.357   7.483 -0.7453  1.2367  0.7173
 1864SOL     OW17227   0.335   2.292  11.345  0.1299 -0.6066  0.2190
 1864SOL    HW117228   0.402   2.231  11.375 -0.0620 -0.5455  0.7722
 1864SOL    HW217229   0.264   2.235  11.315 -0.9187  0.5881  0.4591
 1865SOL     OW17230   0.355   0.032   3.553  0.1873 -0.0704 -0.3351
 1865SOL    HW117231   0.374   4.706   3.621 -2.6144 -1.5451 -0.9738
 1865SOL    HW217232   0.283   4.721   3.514 -1.5791  4.0594 -2.2586
 1866SOL     OW17233   1.974   1.993  11.266  0.2662  0.2464  0.0111
 1866SOL    HW117234   1.894   2.045  11.264 -0.2750 -0.4359  3.1682
 1866SOL    HW217235   2.034   2.049  11.315  1.5798 -0.3397 -0.9230
 1867SOL     OW17236   0.591   0.503   2.461  0.0977  0.0892 -0.3218
 1867SOL    HW117237   0.510   0.550   2.479  0.2197 -0.3356  1.3263
 1867SOL    HW217238   0.619   0.544   2.379  0.7968  1.4534  0.5970
 1868SOL     OW17239   4.680   4.158   3.074  0.2431 -0.4115 -0.3632
 1868SOL    HW117240   4.681   4.074   3.119  2.7886 -1.0814 -1.7014
 1868SOL    HW217241   4.635   4.220   3.132 -0.8891 -2.5904  1.0641
 1869SOL     OW17242   2.459   0.662   7.583 -0.0995 -0.1921 -0.4248
 1869SOL    HW117243   2.460   0.748   7.625 -0.4277 -1.0205  1.3039
 1869SOL    HW217244   2.508   0.609   7.646 -0.4971 -2.1396 -1.7490
 1870SOL     OW17245   1.615   0.598   8.478 -0.4108 -1.3673 -0.2158
 1870SOL    HW117246   1.623   0.569   8.569  1.3698  0.2333  0.1593
 1870SOL    HW217247   1.702   0.640   8.475 -0.6396 -0.8214  0.5480
 1871SOL     OW17248   2.151   0.804   6.911  0.0736  0.1732 -0.3358
 1871SOL    HW117249   2.072   0.756   6.937 -0.2538  1.5262  1.1579
 1871SOL    HW217250   2.165   0.864   6.984  0.3566 -0.2070 -0.0787
 1872SOL     OW17251   1.266   2.271   8.138  0.2353  0.6985 -0.1932
 1872SOL    HW117252   1.253   2.338   8.070  0.1552  1.4296  0.5375
 1872SOL    HW217253   1.268   2.331   8.213  0.6219 -1.0990  1.2146
 1873SOL     OW17254   1.102   4.263   4.381  0.0521 -0.5413  0.0619
 1873SOL    HW117255   1.152   4.203   4.325  1.4602  0.2590  0.4640
 1873SOL    HW217256   1.092   4.203   4.455  2.4430 -0.4259  0.4682
 1874SOL     OW17257   4.640   2.912  15.405  0.2794  0.4178 -0.3079
 1874SOL    HW117258   4.557   2.951  15.378 -1.3499 -0.6547  3.1737
 1874SOL    HW217259   4.627   2.819  15.387  1.3958  0.0229  0.9624
 1875SOL     OW17260   3.415   1.314   3.601 -0.2514 -0.3030 -0.2863
 1875SOL    HW117261   3.443   1.237   3.551  1.6615 -0.8571  1.6518
 1875SOL    HW217262   3.467   1.305   3.681 -0.3248 -0.0456 -0.2099
 1876SOL     OW17263   4.001   1.580   1.443 -0.5685 -0.4138  0.3281
 1876SOL    HW117264   3.920   1.614   1.481  0.6580  0.2832  2.3178
 1876SOL    HW217265   3.978   1.487   1.439  1.3311 -0.9129  0.6176
 1877SOL     OW17266   2.416   3.130   4.180 -0.2326  0.2452 -0.4199
 1877SOL    HW117267   2.329   3.122   4.218 -0.1138 -1.8115 -0.5661
 1877SOL    HW217268   2.421   3.216   4.137 -2.1806  0.8131  0.5076
 1878SOL     OW17269   0.690   1.823   2.147 -0.3087 -0.2385  0.4744
 1878SOL    HW117270   0.711   1.898   2.203  0.7842  0.3600 -0.7251
 1878SOL    HW217271   0.595   1.828   2.135 -0.4659 -2.9147  0.7799
 1879SOL     OW17272   1.118   3.214   2.539 -0.4481  0.1449 -0.5249
 1879SOL    HW117273   1.149   3.234   2.627 -1.5240 -0.2871 -0.0536
 1879SOL    HW217274   1.042   3.161   2.562  0.4591 -0.4933  0.9849
 1880SOL     OW17275   3.087   3.099  10.767 -0.7538 -0.1403  0.1824
 1880SOL    HW117276   3.126   3.020  10.731 -0.1499  0.4040 -0.3422
 1880SOL    HW217277   3.111   3.161  10.698 -0.9376  1.1594  1.2940
 1881SOL     OW17278   0.906   4.057   6.441 -0.6470  0.1743  0.0621
 1881SOL    HW117279   0.816   4.080   6.466 -0.6237 -1.5230  1.7705
 1881SOL    HW217280   0.946   4.143   6.444 -0.2981  0.1230 -3.6813
 1882SOL     OW17281   2.087   3.525   7.788  0.3272  0.4196  0.2860
 1882SOL    HW117282   2.026   3.484   7.849 -2.5293  1.3930 -1.9503
 1882SOL    HW217283   2.163   3.534   7.845 -0.1556  0.3211  0.9409
 1883SOL     OW17284   0.247   3.839   3.845 -0.0824 -0.1010  0.1133
 1883SOL    HW117285   0.241   3.801   3.933  2.0799 -2.8101 -0.9212
 1883SOL    HW217286   0.231   3.760   3.793 -2.4590  0.1875  0.4239
 1884SOL     OW17287   2.144   0.276   3.126 -0.0816  0.2782 -0.3074
 1884SOL    HW117288   2.076   0.337   3.154  0.6443  0.2604  1.5075
 1884SOL    HW217289   2.177   0.244   3.210  0.1201 -0.4018 -0.6397
 1885SOL     OW17290   3.027   3.350   3.491 -0.5908  1.0235  0.1311
 1885SOL    HW117291   3.112   3.364   3.449  0.1699 -1.1642  0.9611
 1885SOL    HW217292   3.041   3.279   3.553 -0.5249  2.4363  1.7243
 1886SOL     OW17293   2.280   1.319  17.115 -0.4076 -0.6745 -0.2789
 1886SOL    HW117294   2.230   1.317  17.196  0.1640  0.3062  0.0969
 1886SOL    HW217295   2.365   1.282  17.140 -0.1050 -1.3206 -2.2044
 1887SOL     OW17296   0.591   2.985   8.307 -0.0860 -0.4693 -0.2912
 1887SOL    HW117297   0.552   3.034   8.379  2.4992 -1.1820  1.5717
 1887SOL    HW217298   0.537   3.022   8.237  1.6832  2.0364 -0.3431
 1888SOL     OW17299   4.337   1.783   3.553 -0.0223 -0.1649  0.0278
 1888SOL    HW117300   4.429   1.806   3.568  0.2390 -0.7867 -0.6819
 1888SOL    HW217301   4.298   1.866   3.582  0.6674  0.8804 -2.0676
 1889SOL     OW17302   3.966   1.691  14.554  0.6393  0.1591 -0.6632
 1889SOL    HW117303   4.036   1.626  14.557 -0.0188 -0.4295  1.6055
 1889SOL    HW217304   3.951   1.702  14.460 -0.5534  3.5484 -0.0665
 1890SOL     OW17305   1.820   4.540   1.860 -0.1183 -0.9084 -0.1957
 1890SOL    HW117306   1.910   4.564   1.836 -0.6104  0.8244 -0.3313
 1890SOL    HW217307   1.778   4.626   1.868 -0.5511 -1.1811  0.4504
 1891SOL     OW17308   1.798   3.038   8.325 -0.2977  0.3179  0.2958
 1891SOL    HW117309   1.867   3.091   8.364  0.2227  0.5386 -0.9442
 1891SOL    HW217310   1.745   3.030   8.404  1.0688  1.2023  1.3021
 1892SOL     OW17311   3.008   0.549   8.003 -0.5046  0.2205  0.4892
 1892SOL    HW117312   3.040   0.559   7.913 -0.6721  0.1981  0.4276
 1892SOL    HW217313   2.938   0.486   7.984  0.8695 -0.6069 -1.8728
 1893SOL     OW17314   1.063   3.084   5.804 -0.3070 -0.2345  0.2851
 1893SOL    HW117315   1.003   3.029   5.854 -0.5972 -0.7948 -0.6842
 1893SOL    HW217316   0.998   3.141   5.762  1.1599 -0.0497 -1.7030
 1894SOL     OW17317   1.836   0.936   5.237  0.1923  0.5762 -0.4348
 1894SOL    HW117318   1.861   1.008   5.178 -1.2545 -2.2707 -4.5213
 1894SOL    HW217319   1.759   0.971   5.281  0.2223  1.5923 -1.1756
 1895SOL     OW17320   3.261   1.001   3.468  0.2342 -0.0191  0.0259
 1895SOL    HW117321   3.349   1.029   3.493 -0.3479  0.7257  1.2075
 1895SOL    HW217322   3.221   1.087   3.452  0.2883  0.0478  0.2493
 1896SOL     OW17323   4.660   0.660   2.708  0.1546 -0.3938  0.4189
 1896SOL    HW117324   4.699   0.743   2.736 -0.9935 -0.8704  3.4135
 1896SOL    HW217325   4.672   0.601   2.783  0.2009 -0.3801  0.4226
 1897SOL     OW17326   2.675   2.099   3.279  0.6961  0.1049  0.3358
 1897SOL    HW117327   2.732   2.024   3.292 -1.0830 -1.6191 -1.6451
 1897SOL    HW217328   2.717   2.132   3.199 -1.1362 -2.7327 -1.8052
 1898SOL     OW17329   1.267   1.627   8.453 -0.1394  0.2350  0.1764
 1898SOL    HW117330   1.317   1.610   8.373  0.6743  1.5742  0.4127
 1898SOL    HW217331   1.276   1.540   8.491 -0.8608 -0.1580 -0.5379
 1899SOL     OW17332   2.589   1.925  13.722  0.1167 -0.1915  0.2111
 1899SOL    HW117333   2.579   2.016  13.692 -0.4907 -0.7894 -1.3485
 1899SOL    HW217334   2.680   1.936  13.750 -0.3128 -0.4903  1.7327
 1900SOL     OW17335   2.562   1.279  15.946  0.1829  0.2524  0.3958
 1900SOL    HW117336   2.607   1.278  16.030 -0.1004  1.8867  0.5601
 1900SOL    HW217337   2.615   1.347  15.904  0.7562 -1.2505 -1.3155
 1901SOL     OW17338   0.731   3.696   8.403 -0.7434  0.2642  0.5736
 1901SOL    HW117339   0.685   3.726   8.482 -0.5033 -1.1891  1.2795
 1901SOL    HW217340   0.731   3.764   8.336  2.5402 -1.2852 -0.9987
 1902SOL     OW17341   2.702   4.445   7.850 -0.1479  0.2749 -0.3567
 1902SOL    HW117342   2.608   4.463   7.837 -0.9894 -1.4053  3.4258
 1902SOL    HW217343   2.719   4.521   7.906 -0.7375  0.2222 -0.0955
 1903SOL     OW17344   2.893   4.403   6.890 -0.1567 -0.0936 -0.1720
 1903SOL    HW117345   2.922   4.470   6.827  1.8200 -0.1453  0.6717
 1903SOL    HW217346   2.889   4.323   6.838  1.9320  0.2599 -0.8953
 1904SOL     OW17347   4.350   4.251  11.205 -0.0363  0.1630  0.1966
 1904SOL    HW117348   4.350   4.298  11.122 -0.0114  1.6424  1.0331
 1904SOL    HW217349   4.415   4.182  11.190 -1.6938 -0.5988 -3.2850
 1905SOL     OW17350   3.487   4.032   9.283  0.0414 -0.6177  0.0426
 1905SOL    HW117351   3.529   4.113   9.312  1.9128 -1.3567 -0.5966
 1905SOL    HW217352   3.433   4.020   9.361 -2.4016  2.7721 -1.0977
 1906SOL     OW17353   3.571   2.950   7.658 -0.9784  0.7031 -0.6962
 1906SOL    HW117354   3.651   2.898   7.658 -2.0072 -0.8477 -1.7363
 1906SOL    HW217355   3.529   2.919   7.738 -0.3214 -0.4785 -0.8160
 1907SOL     OW17356   4.380   0.852  10.686 -0.2277  1.1202 -0.3676
 1907SOL    HW117357   4.471   0.838  10.659  0.6146  1.5744  2.2854
 1907SOL    HW217358   4.362   0.903  10.607  0.7747 -1.8841 -2.5843
 1908SOL     OW17359   2.170   2.418   6.305  0.1303 -0.7243 -0.3517
 1908SOL    HW117360   2.250   2.366   6.301  2.1956  2.4198 -0.0223
 1908SOL    HW217361   2.178   2.464   6.222  0.1051  2.5673  1.4386
 1909SOL     OW17362   0.729   3.854   3.598 -0.0745  0.3718  0.3917
 1909SOL    HW117363   0.661   3.838   3.532  1.5133  0.8245 -1.3553
 1909SOL    HW217364   0.675   3.903   3.660  0.3966  2.0244 -0.5247
 1910SOL     OW17365   3.734   3.448   7.493  0.0816  0.3815  0.2462
 1910SOL    HW117366   3.762   3.420   7.580 -0.5004  1.1461  0.6717
 1910SOL    HW217367   3.684   3.372   7.463  1.0143  0.0891 -0.5977
 1911SOL     OW17368   0.243   2.871  15.464  0.6175  0.3169  0.3976
 1911SOL    HW117369   0.200   2.937  15.409  0.7860 -2.2304 -2.7878
 1911SOL    HW217370   0.268   2.920  15.543  0.1465 -0.2388  0.8977
 1912SOL     OW17371   1.654   0.323   6.602  0.0813  0.4210 -0.2370
 1912SOL    HW117372   1.656   0.343   6.508  0.0933 -0.6848 -0.4718
 1912SOL    HW217373   1.608   0.402   6.630 -0.0124  0.7068 -1.2095
 1913SOL     OW17374   1.159   2.467   8.848  0.2481  0.5158  0.0595
 1913SOL    HW117375   1.118   2.487   8.933  1.6104  2.4436  0.2685
 1913SOL    HW217376   1.240   2.422   8.872 -0.3708 -1.3860 -1.4861
 1914SOL     OW17377   2.076   2.290  17.558 -0.3236 -0.1747 -0.1555
 1914SOL    HW117378   2.110   2.201  17.545  0.2180  0.2664 -1.7443
 1914SOL    HW217379   2.004   2.300  17.496 -0.9966 -1.9574  0.3272
 1915SOL     OW17380   1.521   0.696   2.871  0.3359 -0.2967 -0.1649
 1915SOL    HW117381   1.555   0.740   2.793 -1.1750  2.0660  0.5113
 1915SOL    HW217382   1.459   0.760   2.907 -1.0888 -1.7149 -0.0598
 1916SOL     OW17383   2.025   4.340   4.554  0.2592  0.4819  0.3888
 1916SOL    HW117384   2.059   4.268   4.501  0.0479  1.3824 -0.9611
 1916SOL    HW217385   1.932   4.331   4.535  0.2713  0.1363  0.4970
 1917SOL     OW17386   2.369   2.142   5.157  0.2020  0.2894  0.1397
 1917SOL    HW117387   2.443   2.203   5.150  0.0168  0.4020 -0.7502
 1917SOL    HW217388   2.343   2.141   5.065 -0.9619  1.8003  0.4437
 1918SOL     OW17389   4.695   3.494  15.740 -0.5936  0.4832  0.3554
 1918SOL    HW117390   4.658   3.407  15.755  1.0755 -0.4073 -0.6119
 1918SOL    HW217391   0.043   3.487  15.782 -0.4936 -0.3446  0.0119
 1919SOL     OW17392   2.296   3.126   0.389 -0.5844 -0.3793  0.0480
 1919SOL    HW117393   2.289   3.034   0.363  1.3362 -0.9355  1.4974
 1919SOL    HW217394   2.390   3.139   0.379 -0.4035 -2.3337 -0.8403
 1920SOL     OW17395   1.769   3.828   4.095 -0.0680 -0.2344  0.2708
 1920SOL    HW117396   1.800   3.908   4.053 -0.6471 -0.2796 -0.2551
 1920SOL    HW217397   1.680   3.831   4.060  0.7420  0.4944 -1.7344
 1921SOL     OW17398   1.426   1.701   2.350  0.5077 -0.3189  0.2242
 1921SOL    HW117399   1.381   1.756   2.414 -0.6914  0.5595 -1.3825
 1921SOL    HW217400   1.515   1.715   2.381 -0.2227  1.3366  1.5261
 1922SOL     OW17401   4.593   3.230   6.297  0.6798  0.2251 -0.0669
 1922SOL    HW117402   4.565   3.282   6.373  1.3458 -1.2016  1.1553
 1922SOL    HW217403   4.684   3.257   6.281  0.6440  0.6506  0.4362
 1923SOL     OW17404   3.097   0.163   0.288  0.1070  0.3302  0.3208
 1923SOL    HW117405   3.091   0.104   0.213 -1.6422 -0.4051  1.0507
 1923SOL    HW217406   3.177   0.131   0.330 -0.5563 -1.1260  0.4502
 1924SOL     OW17407   3.145   0.798   4.052  0.0324 -0.3693 -0.7614
 1924SOL    HW117408   3.124   0.760   3.966 -2.2665  0.0637 -0.3829
 1924SOL    HW217409   3.221   0.747   4.077 -0.7937 -0.5097  1.4399
 1925SOL     OW17410   4.669   1.820   2.706 -0.1279  0.3429 -0.0352
 1925SOL    HW117411   0.004   1.791   2.650  0.9237  1.1766  0.9229
 1925SOL    HW217412   4.606   1.753   2.678 -0.0632  0.7235 -1.0916
 1926SOL     OW17413   2.834   4.601   4.687  0.6132  0.0357 -0.0261
 1926SOL    HW117414   2.799   4.680   4.646 -0.7204 -0.9121 -0.7095
 1926SOL    HW217415   2.775   4.532   4.657  0.8003 -1.4658  3.1146
 1927SOL     OW17416   0.262   3.131   7.344 -0.0872  0.4011 -0.1504
 1927SOL    HW117417   0.341   3.164   7.300 -1.0075  1.0270 -1.3219
 1927SOL    HW217418   0.257   3.040   7.313  0.4570 -0.1973  1.4745
 1928SOL     OW17419   4.408   2.825  10.348  0.4409 -0.0122  0.3022
 1928SOL    HW117420   4.480   2.861  10.296  0.6549 -0.6347  0.1742
 1928SOL    HW217421   4.438   2.852  10.435  0.6293  0.7276  0.0116
 1929SOL     OW17422   0.128   3.592   9.159  0.0648 -0.6293 -0.0180
 1929SOL    HW117423   0.068   3.613   9.230  0.7586  4.0543 -0.8355
 1929SOL    HW217424   0.074   3.541   9.099  1.5753 -0.9263 -1.1424
 1930SOL     OW17425   2.699   1.995   6.447  0.0228 -0.2883 -0.2287
 1930SOL    HW117426   2.683   1.912   6.492  0.6578 -0.0779  0.3775
 1930SOL    HW217427   2.746   1.948   6.378 -1.4662 -2.0466 -0.0673
 1931SOL     OW17428   2.383   2.838  15.447 -0.4025 -0.1978 -0.3415
 1931SOL    HW117429   2.380   2.848  15.542 -3.3147  1.8673 -0.6282
 1931SOL    HW217430   2.295   2.864  15.417 -0.3928  1.5712  1.1440
 1932SOL     OW17431   3.116   3.210   7.113  0.6981  0.6147  0.0049
 1932SOL    HW117432   3.211   3.197   7.117  0.9748  2.1293 -1.4783
 1932SOL    HW217433   3.103   3.241   7.203  0.0777 -0.1133  0.1615
 1933SOL     OW17434   0.885   4.206   5.393  0.2623 -0.2592 -0.1558
 1933SOL    HW117435   0.843   4.122   5.374 -2.1896 -0.1218  4.5241
 1933SOL    HW217436   0.826   4.269   5.352  0.0350  1.1183  2.2591
 1934SOL     OW17437   2.256   2.711   6.242  0.2688 -0.1106  0.4255
 1934SOL    HW117438   2.314   2.784   6.218  0.2737 -1.0260 -2.3745
 1934SOL    HW217439   2.217   2.670   6.165 -3.0178 -0.1145  2.1088
 1935SOL     OW17440   3.356   1.623   8.184 -0.5552  0.5942 -0.4460
 1935SOL    HW117441   3.385   1.702   8.138  2.1461 -0.4810 -0.6029
 1935SOL    HW217442   3.406   1.629   8.265 -0.5954  1.2579 -0.4691
 1936SOL     OW17443   0.957   0.026   3.304  0.3058  0.0680  0.0494
 1936SOL    HW117444   0.872   4.733   3.272  0.2466  2.0310 -1.6919
 1936SOL    HW217445   0.952   0.005   3.397  1.6497 -0.5340 -0.0212
 1937SOL     OW17446   2.442   0.066   3.563  0.5445 -0.1911  0.0033
 1937SOL    HW117447   2.435   0.143   3.619  0.2236 -0.2231  0.0045
 1937SOL    HW217448   2.512   0.027   3.615 -0.5661 -0.9255  0.9500
 1938SOL     OW17449   3.763   2.626   1.232 -0.3766 -0.8652  0.5058
 1938SOL    HW117450   3.675   2.594   1.213 -0.9314  0.2734  1.0995
 1938SOL    HW217451   3.806   2.623   1.147  0.2054 -2.1462  0.8527
 1939SOL     OW17452   4.453   3.854   3.775  0.5723  0.1311 -0.3655
 1939SOL    HW117453   4.466   3.768   3.815 -0.4709 -0.6428 -1.6960
 1939SOL    HW217454   4.363   3.878   3.795  1.0595  1.2754  0.4187
 1940SOL     OW17455   3.425   3.733   0.632 -0.4720  0.0712  0.2693
 1940SOL    HW117456   3.444   3.827   0.641 -0.8878 -0.2422  4.2084
 1940SOL    HW217457   3.334   3.734   0.602  0.8201  3.7165 -3.5764
 1941SOL     OW17458   2.618   0.493   3.778  0.0140  0.5310 -0.0854
 1941SOL    HW117459   2.593   0.516   3.688 -0.3235 -0.0117 -0.1304
 1941SOL    HW217460   2.701   0.537   3.794  0.2683  0.2263 -0.5287
 1942SOL     OW17461   3.031   3.796   7.708  0.5374 -0.3651  0.3746
 1942SOL    HW117462   3.028   3.825   7.799 -1.1214 -0.5770  0.3903
 1942SOL    HW217463   2.941   3.765   7.716  0.5206 -0.3378  0.2840
 1943SOL     OW17464   0.501   3.714   3.160  0.3627  0.3212  0.0680
 1943SOL    HW117465   0.570   3.671   3.109  0.8483 -0.1033  1.0847
 1943SOL    HW217466   0.475   3.785   3.102 -2.6709 -0.4361  0.5039
 1944SOL     OW17467   1.583   2.514  13.934  0.0877 -0.2394 -0.2795
 1944SOL    HW117468   1.616   2.570  14.004  0.6838 -1.0234  0.0695
 1944SOL    HW217469   1.643   2.439  13.936  2.0187  1.3279  0.7760
 1945SOL     OW17470   2.655   0.382  15.474 -0.0693 -0.0862  0.5127
 1945SOL    HW117471   2.652   0.379  15.378  1.1772 -1.4462  0.5180
 1945SOL    HW217472   2.750   0.381  15.483  0.2577  1.0655 -2.8710
 1946SOL     OW17473   2.557   1.044   3.309 -0.5228  0.8064 -0.1846
 1946SOL    HW117474   2.573   1.126   3.263 -1.8962  0.2216 -1.7187
 1946SOL    HW217475   2.498   0.993   3.254  1.0627 -1.6441  0.3771
 1947SOL     OW17476   3.192   4.418   2.432  0.1390  0.6451  0.9856
 1947SOL    HW117477   3.229   4.342   2.387 -1.0120  0.1393  0.8689
 1947SOL    HW217478   3.100   4.404   2.410  0.5622  0.1763 -0.4561
 1948SOL     OW17479   0.723   3.296   4.331 -0.2456 -0.0883  0.4837
 1948SOL    HW117480   0.630   3.280   4.346 -0.8242  1.6320 -1.4019
 1948SOL    HW217481   0.725   3.390   4.346  0.9218  0.1739 -1.3475
 1949SOL     OW17482   3.607   0.474  13.151  0.6030 -0.0487 -0.0838
 1949SOL    HW117483   3.563   0.493  13.068  3.8971  2.6428 -1.2370
 1949SOL    HW217484   3.681   0.535  13.145 -0.4712  1.3736  0.8788
 1950SOL     OW17485   4.073   3.167  12.183 -0.4984  0.6394  0.0827
 1950SOL    HW117486   4.168   3.173  12.188 -0.4274 -0.2907  0.0042
 1950SOL    HW217487   4.059   3.189  12.091 -2.1931 -1.6837 -0.2358
 1951SOL     OW17488   3.779   3.018   2.936 -0.0482 -0.1753 -0.7651
 1951SOL    HW117489   3.775   3.017   2.841  1.4096 -0.3897 -0.8162
 1951SOL    HW217490   3.710   3.081   2.958  0.7389 -0.1670  1.7197
 1952SOL     OW17491   0.365   2.467  10.883 -0.3123  0.2325 -0.2808
 1952SOL    HW117492   0.330   2.486  10.970 -1.9506 -0.6189 -0.7586
 1952SOL    HW217493   0.456   2.494  10.897 -0.2809  1.6531 -3.2793
 1953SOL     OW17494   4.582   2.751   2.971 -0.3188 -0.1508 -0.3197
 1953SOL    HW117495   4.501   2.802   2.967 -0.4466 -0.0827  3.3555
 1953SOL    HW217496   4.637   2.769   2.894 -0.6023  0.5308 -0.3669
 1954SOL     OW17497   1.570   1.402   6.288  0.7745  0.1256  0.8200
 1954SOL    HW117498   1.571   1.496   6.271  0.2119 -0.3150 -1.6765
 1954SOL    HW217499   1.659   1.379   6.261  0.2727  0.4006 -1.0668
 1955SOL     OW17500   2.461   3.584   6.915  0.0339 -0.9311  0.6847
 1955SOL    HW117501   2.379   3.558   6.957 -1.4323  0.1217 -1.5310
 1955SOL    HW217502   2.434   3.661   6.865  1.4599 -1.2446 -0.5713
 1956SOL     OW17503   3.050   2.452   6.417  0.3561  0.4101  0.0460
 1956SOL    HW117504   3.071   2.366   6.381 -0.3515  0.0449  0.4890
 1956SOL    HW217505   3.080   2.440   6.507  0.2905 -1.1797 -0.1411
 1957SOL     OW17506   0.866   0.202   8.083 -0.2982  0.0156 -0.1068
 1957SOL    HW117507   0.817   0.155   8.150  2.2772 -0.6484  1.2882
 1957SOL    HW217508   0.852   0.291   8.116  0.4456 -0.5357  1.6756
 1958SOL     OW17509   3.487   0.060  10.771  0.4072  0.1723 -0.5873
 1958SOL    HW117510   3.420   0.111  10.725  1.3990  2.3530  0.3886
 1958SOL    HW217511   3.509   0.122  10.840  0.4514 -2.0772  1.4356
 1959SOL     OW17512   3.411   3.845   4.433  0.5272 -0.1720 -0.0967
 1959SOL    HW117513   3.454   3.776   4.381  1.0014 -0.3218  0.5021
 1959SOL    HW217514   3.362   3.892   4.365  1.8837 -1.9958 -2.3640
 1960SOL     OW17515   3.295   1.322   7.841  0.1035 -0.4042  0.4867
 1960SOL    HW117516   3.305   1.275   7.923  1.2634 -2.4100 -0.8149
 1960SOL    HW217517   3.326   1.409   7.868  0.1791 -0.5075  0.7257
 1961SOL     OW17518   1.748   1.360   3.843  0.3682 -0.4090  0.4524
 1961SOL    HW117519   1.669   1.392   3.885  1.3621 -0.4731  2.3764
 1961SOL    HW217520   1.732   1.402   3.758 -1.7836 -0.9410  0.6112
 1962SOL     OW17521   2.217   4.021  14.541 -0.1389 -0.0727  0.1923
 1962SOL    HW117522   2.214   4.114  14.517  0.7016  1.1070  4.6422
 1962SOL    HW217523   2.293   4.011  14.598  0.1697  1.1792 -0.0038
 1963SOL     OW17524   1.134   3.065   5.223 -0.3265 -0.6439 -0.1209
 1963SOL    HW117525   1.106   3.067   5.315 -0.0875 -2.4911 -0.0248
 1963SOL    HW217526   1.088   2.988   5.190  1.3272 -0.6073 -2.4750
 1964SOL     OW17527   3.925   3.013   7.469  0.2489 -0.1276  0.2730
 1964SOL    HW117528   3.966   2.952   7.531  2.0598  0.1886 -0.6525
 1964SOL    HW217529   3.907   3.076   7.539  4.2236 -0.2343  1.3725
 1965SOL     OW17530   4.100   1.886   7.925  0.2623 -0.1636  0.5490
 1965SOL    HW117531   4.115   1.817   7.860 -0.6365  0.8687 -0.7547
 1965SOL    HW217532   4.010   1.867   7.951 -1.6221  2.3605 -4.0960
 1966SOL     OW17533   1.130   4.307   7.788 -0.4685 -0.5876  0.0641
 1966SOL    HW117534   1.216   4.347   7.795 -0.9511  0.5646 -0.7234
 1966SOL    HW217535   1.068   4.356   7.842  0.3743 -1.1059  1.4828
 1967SOL     OW17536   3.449   3.793   8.229  0.0365 -0.6381  0.5443
 1967SOL    HW117537   3.537   3.796   8.266 -0.2639  0.6980  1.1887
 1967SOL    HW217538   3.465   3.737   8.154  1.6980  0.0460  0.3876
 1968SOL     OW17539   0.525   0.467   5.019  0.2307  0.2261 -0.4448
 1968SOL    HW117540   0.457   0.445   5.083  0.1591  0.9529 -0.2647
 1968SOL    HW217541   0.595   0.417   5.060  1.1437  2.0949  0.2792
 1969SOL     OW17542   2.118   3.450  12.542 -0.3495  0.0441 -0.1710
 1969SOL    HW117543   2.111   3.361  12.577 -2.9951 -0.5836 -2.3197
 1969SOL    HW217544   2.125   3.423  12.451 -2.5390 -2.1830  0.3570
 1970SOL     OW17545   1.150   0.312  12.069  0.2578 -0.2707  0.7127
 1970SOL    HW117546   1.177   0.320  12.160  2.0228  0.0031  0.1578
 1970SOL    HW217547   1.097   0.391  12.055  0.0330 -0.6155 -0.3573
 1971SOL     OW17548   0.327   0.260  10.851 -0.8143  0.3845  0.1748
 1971SOL    HW117549   0.407   0.280  10.900  1.5791 -3.2162 -2.2437
 1971SOL    HW217550   0.335   0.310  10.770  0.4036 -2.1445 -1.2649
 1972SOL     OW17551   1.101   1.875   2.040 -0.0895  0.1982  0.0031
 1972SOL    HW117552   1.010   1.876   2.011 -0.1009  0.4421  0.0430
 1972SOL    HW217553   1.129   1.949   1.985 -0.3295  1.3179  1.4010
 1973SOL     OW17554   2.210   2.622   2.613  0.5798  0.1979  0.1843
 1973SOL    HW117555   2.185   2.588   2.527  1.3005  1.8417 -0.6741
 1973SOL    HW217556   2.284   2.679   2.594 -0.3338  0.3848 -2.8669
 1974SOL     OW17557   1.870   1.717   7.366 -0.3187 -0.0134  0.3023
 1974SOL    HW117558   1.947   1.773   7.358 -0.8475  0.3123 -2.6605
 1974SOL    HW217559   1.810   1.784   7.396 -1.9699 -0.7689 -1.2702
 1975SOL     OW17560   2.367   3.237   1.607 -0.1971 -0.0011 -0.1281
 1975SOL    HW117561   2.425   3.173   1.567  1.4483  1.1113  0.4900
 1975SOL    HW217562   2.385   3.312   1.551  0.7735 -0.3796 -0.3243
 1976SOL     OW17563   4.319   3.484   5.374  0.5233  0.1906 -0.1765
 1976SOL    HW117564   4.288   3.416   5.435 -0.3311 -0.3495 -1.2111
 1976SOL    HW217565   4.407   3.456   5.350  0.7053 -0.4636  1.2470
 1977SOL     OW17566   4.037   4.452  10.014 -0.0601 -0.5572 -0.1227
 1977SOL    HW117567   3.967   4.469   9.952  0.5310  1.6069 -0.1944
 1977SOL    HW217568   4.019   4.509  10.089 -3.5615  0.5421 -1.8057
 1978SOL     OW17569   1.791   4.515   0.183 -0.0317  0.1792  0.1163
 1978SOL    HW117570   1.875   4.481   0.214  2.1818  3.7394 -1.9124
 1978SOL    HW217571   1.757   4.549   0.265 -1.5737 -2.3556  0.5139
 1979SOL     OW17572   3.764   0.489   8.677 -0.3061  0.2259  0.3294
 1979SOL    HW117573   3.815   0.541   8.615  0.5405  1.2252  1.8586
 1979SOL    HW217574   3.692   0.540   8.714 -0.8810 -0.5103  0.2073
 1980SOL     OW17575   4.563   1.984   2.373  0.3749 -0.0816  0.0275
 1980SOL    HW117576   4.591   1.978   2.464 -1.6853 -3.1636  0.4685
 1980SOL    HW217577   4.601   1.902   2.340  1.8849  0.3306  0.7726
 1981SOL     OW17578   3.546   1.946   5.420  0.0458  0.2289  0.1523
 1981SOL    HW117579   3.619   1.936   5.359 -0.6289 -3.8380 -0.0015
 1981SOL    HW217580   3.484   1.997   5.368  1.3104 -0.1971 -1.7903
 1982SOL     OW17581   4.711   3.668   2.452 -0.0846 -0.3846 -0.4814
 1982SOL    HW117582   0.049   3.617   2.426  0.3257 -0.0093 -0.0323
 1982SOL    HW217583   4.684   3.707   2.369  1.1874 -0.2281 -0.8334
 1983SOL     OW17584   3.175   2.645   3.663  0.6636 -0.2942  0.1706
 1983SOL    HW117585   3.205   2.601   3.742  2.4815  1.1273  0.2910
 1983SOL    HW217586   3.235   2.610   3.597  1.0115 -1.4865  1.1349
 1984SOL     OW17587   1.398   4.557  14.966 -0.3327 -0.1152 -0.2747
 1984SOL    HW117588   1.489   4.537  14.987 -0.3288  0.4258  0.2302
 1984SOL    HW217589   1.357   4.487  15.015  0.5388 -0.7600 -0.4822
 1985SOL     OW17590   3.518   1.270   9.176 -0.2716  0.1633 -0.0709
 1985SOL    HW117591   3.535   1.334   9.245 -2.1851 -1.1700  1.6568
 1985SOL    HW217592   3.422   1.270   9.169 -0.2760  0.3853 -0.0071
 1986SOL     OW17593   2.427   1.154   7.395 -0.4810 -0.0102 -0.2290
 1986SOL    HW117594   2.354   1.207   7.366 -0.5195  1.9555  3.4119
 1986SOL    HW217595   2.489   1.216   7.435 -0.5534  0.8574 -1.4714
 1987SOL     OW17596   0.947   3.885  16.731  0.3692 -0.3794 -0.0464
 1987SOL    HW117597   1.017   3.938  16.693  0.6761  0.3317  1.5374
 1987SOL    HW217598   0.881   3.954  16.739  0.3236 -0.7749  2.9584
 1988SOL     OW17599   0.569   4.637  10.913 -0.1208  0.0676  0.2047
 1988SOL    HW117600   0.476   4.645  10.892 -0.0959 -0.2697 -0.0185
 1988SOL    HW217601   0.565   4.632  11.009 -1.1236 -1.7960  0.0568
 1989SOL     OW17602   2.647   4.325   2.186  0.0745 -0.3356 -0.4205
 1989SOL    HW117603   2.589   4.249   2.186  0.4032 -0.5894  1.1949
 1989SOL    HW217604   2.604   4.374   2.116  1.1503 -1.3852 -1.8276
 1990SOL     OW17605   0.335   0.422   6.000 -0.1317 -0.2064 -0.3090
 1990SOL    HW117606   0.431   0.420   6.002 -0.0901 -0.1842 -2.2268
 1990SOL    HW217607   0.309   0.456   5.914 -3.1913 -0.6831  0.4276
 1991SOL     OW17608   3.748   3.603   4.256 -0.3974 -0.3563  0.2802
 1991SOL    HW117609   3.763   3.686   4.302  0.0872 -0.4215  0.2314
 1991SOL    HW217610   3.662   3.576   4.290 -0.6168  0.3124  0.2710
 1992SOL     OW17611   0.395   3.356   4.806 -0.0412  0.5295 -0.5055
 1992SOL    HW117612   0.311   3.403   4.806  0.6653  1.8307  1.1275
 1992SOL    HW217613   0.444   3.396   4.879 -0.8957  0.8182 -0.0907
 1993SOL     OW17614   2.150   0.091   4.007  0.4935 -0.3468 -0.0988
 1993SOL    HW117615   2.111   0.143   3.937 -2.1355  1.0181  2.3675
 1993SOL    HW217616   2.181   0.015   3.958  0.9018 -0.0964 -0.2378
 1994SOL     OW17617   0.063   0.842   7.003  0.4101  0.5705  0.4460
 1994SOL    HW117618   0.040   0.750   7.008 -1.4588  0.8967 -2.0149
 1994SOL    HW217619   0.033   0.880   7.086 -0.4211  0.7553  0.0663
 1995SOL     OW17620   1.855   0.542  10.680  0.0540 -0.2528 -0.0304
 1995SOL    HW117621   1.870   0.636  10.692  2.3127 -0.4352 -1.3325
 1995SOL    HW217622   1.822   0.541  10.590 -1.9228  1.1470  0.6943
 1996SOL     OW17623   1.505   0.566   7.681  0.1835  0.8141  0.0342
 1996SOL    HW117624   1.578   0.545   7.739 -0.3354 -0.5256  0.2075
 1996SOL    HW217625   1.547   0.584   7.597 -1.9988  0.2541 -1.1742
 1997SOL     OW17626   3.066   0.158  10.898 -0.3144 -0.1590  0.2451
 1997SOL    HW117627   2.981   0.116  10.913 -2.8006  4.6631 -0.3053
 1997SOL    HW217628   3.046   0.215  10.824  2.2600 -0.0742 -0.3800
 1998SOL     OW17629   4.111   2.472   5.804 -0.2773 -0.0002 -0.4112
 1998SOL    HW117630   4.070   2.558   5.808  0.9955  0.6512 -1.6374
 1998SOL    HW217631   4.077   2.440   5.888 -2.8236 -0.6069 -1.6815
 1999SOL     OW17632   3.355   2.161  10.895 -0.1060 -0.1976 -0.4913
 1999SOL    HW117633   3.352   2.069  10.920 -1.1783  0.0406  0.2389
 1999SOL    HW217634   3.432   2.195  10.941 -0.0347 -0.7558 -0.1988
 2000SOL     OW17635   3.535   0.117   6.676  0.1625 -0.3811  0.0574
 2000SOL    HW117636   3.550   0.206   6.708  0.9095 -0.0060 -1.3876
 2000SOL    HW217637   3.567   0.109   6.587  0.8227  1.8051  0.0988
 2001SOL     OW17638   2.163   1.980   9.439  0.2420  0.0448  0.0158
 2001SOL    HW117639   2.207   1.896   9.427 -1.7614 -0.9879 -0.1702
 2001SOL    HW217640   2.126   1.952   9.523 -0.1593 -2.2050 -0.8987
 2002SOL     OW17641   0.867   2.719   9.435  0.0335  0.0707  0.3215
 2002SOL    HW117642   0.826   2.714   9.522  1.1038  3.1752  1.0060
 2002SOL    HW217643   0.913   2.636   9.441  0.2928  0.2215  0.4156
 2003SOL     OW17644   1.656   0.666  15.759 -0.0522 -0.0395 -0.2194
 2003SOL    HW117645   1.739   0.633  15.725  0.9049  1.3558  0.7523
 2003SOL    HW217646   1.663   0.682  15.853 -2.4046  0.1460 -0.0650
 2004SOL     OW17647   1.473   1.484   2.012 -0.2854  0.0377  0.4709
 2004SOL    HW117648   1.419   1.409   2.036  0.7987 -0.4444  1.4135
 2004SOL    HW217649   1.554   1.435   1.995 -0.6829  0.0078 -1.3886
 2005SOL     OW17650   2.494   1.937  10.301 -0.3248 -0.5480 -0.5207
 2005SOL    HW117651   2.551   2.011  10.321  1.1183 -2.3705  2.1088
 2005SOL    HW217652   2.556   1.866  10.315  2.0234  1.7185  0.6697
 2006SOL     OW17653   4.625   0.957  12.432  0.3259 -0.0772 -0.2736
 2006SOL    HW117654   4.623   1.007  12.513 -0.5973  0.9220 -0.9060
 2006SOL    HW217655   4.705   0.992  12.394 -1.1481 -0.2754 -3.5267
 2007SOL     OW17656   2.107   3.657   2.352 -0.2916 -0.4966 -0.2044
 2007SOL    HW117657   2.027   3.607   2.334  0.9601 -2.1810 -1.1425
 2007SOL    HW217658   2.057   3.723   2.399 -0.3761 -0.7384  0.0455
 2008SOL     OW17659   1.023   2.663   6.094 -0.2749  0.3119  0.3698
 2008SOL    HW117660   1.046   2.663   6.187 -1.5975 -0.8368  0.6956
 2008SOL    HW217661   1.111   2.657   6.057 -0.1124  0.8788  0.6732
 2009SOL     OW17662   3.321   0.770   5.326 -0.1923  0.0545 -0.2309
 2009SOL    HW117663   3.311   0.849   5.273 -0.3557  0.7129  0.7795
 2009SOL    HW217664   3.352   0.811   5.407 -1.5081 -3.6847  2.2202
 2010SOL     OW17665   4.699   0.712   6.183  0.1138 -0.2200 -0.1746
 2010SOL    HW117666   4.706   0.779   6.116 -0.3184 -0.9955 -0.9890
 2010SOL    HW217667   4.617   0.747   6.218  0.8310  1.1634  0.1596
 2011SOL     OW17668   1.274   3.759   6.619 -0.1121  0.3512  0.3477
 2011SOL    HW117669   1.187   3.779   6.585 -0.0774  0.0649  0.0876
 2011SOL    HW217670   1.293   3.820   6.690  1.5438  1.1210 -0.7678
 2012SOL     OW17671   1.998   3.212   6.981  0.2357 -0.0013  0.1972
 2012SOL    HW117672   2.073   3.215   7.039 -0.4061 -3.3824  1.1722
 2012SOL    HW217673   2.019   3.123   6.953  0.4255  0.5458 -1.4123
 2013SOL     OW17674   3.802   0.140   9.349  0.7446 -0.5380 -0.7710
 2013SOL    HW117675   3.883   0.130   9.298  0.2348  0.0653 -1.7087
 2013SOL    HW217676   3.750   0.189   9.285 -1.2102  1.5058  2.4144
 2014SOL     OW17677   3.820   1.694   1.949  0.6703 -0.1053  0.2443
 2014SOL    HW117678   3.762   1.730   1.882  0.0700 -0.7414  0.4212
 2014SOL    HW217679   3.903   1.689   1.903  1.3242  1.5098  1.2526
 2015SOL     OW17680   4.412   3.209   3.466 -0.0310 -0.1011  0.1634
 2015SOL    HW117681   4.338   3.208   3.526 -0.1129 -0.3735  0.0580
 2015SOL    HW217682   4.447   3.120   3.471  1.8574  0.5254 -2.0312
 2016SOL     OW17683   4.584   3.210  16.817  0.0709 -0.4748 -0.2693
 2016SOL    HW117684   4.525   3.190  16.744  0.0320  0.3594 -0.4653
 2016SOL    HW217685   4.533   3.166  16.885  1.5818 -0.9010  0.5878
 2017SOL     OW17686   1.149   2.742   7.602 -0.6021 -0.3408  0.0198
 2017SOL    HW117687   1.191   2.769   7.684 -1.1945  1.5339 -0.2903
 2017SOL    HW217688   1.210   2.777   7.537 -0.5819 -1.0042 -0.3128
 2018SOL     OW17689   0.764   1.633  16.727 -0.5539  0.2588  0.5670
 2018SOL    HW117690   0.849   1.667  16.754 -0.0609 -2.0521  1.8910
 2018SOL    HW217691   0.758   1.568  16.797  1.5408  0.0512  0.5488
 2019SOL     OW17692   2.967   0.938   6.210 -0.0033  0.3415  0.4086
 2019SOL    HW117693   3.017   0.878   6.265  1.6749  0.0970 -1.3871
 2019SOL    HW217694   2.984   1.020   6.258 -1.1067 -0.1726  1.6825
 2020SOL     OW17695   0.911   1.343   1.693  0.3942  0.1552 -0.0974
 2020SOL    HW117696   0.960   1.352   1.775 -1.0808  0.7532  0.7081
 2020SOL    HW217697   0.978   1.371   1.631  0.0369  2.7265  0.6933
 2021SOL     OW17698   3.616   1.219   6.324  0.1228  0.0804  0.0655
 2021SOL    HW117699   3.637   1.178   6.408 -0.1277  1.8658  0.9955
 2021SOL    HW217700   3.588   1.307   6.348 -1.6353 -0.3370 -0.4987
 2022SOL     OW17701   1.108   0.543   0.165  0.0213  0.2112  0.0342
 2022SOL    HW117702   1.094   0.449   0.152  1.3732  0.0785 -0.4288
 2022SOL    HW217703   1.076   0.573   0.080 -0.4037 -0.2687  0.0275
 2023SOL     OW17704   3.933   3.119   7.117 -0.6091 -0.2037  0.0885
 2023SOL    HW117705   3.903   3.168   7.194 -1.3114  1.6699 -1.3759
 2023SOL    HW217706   4.018   3.158   7.099 -0.5688 -1.3193 -2.1184
 2024SOL     OW17707   0.699   4.284   4.336 -0.3088 -0.7586 -0.1628
 2024SOL    HW117708   0.688   4.191   4.315 -0.5087 -0.8386  0.2923
 2024SOL    HW217709   0.658   4.280   4.423  2.7227  2.3177  1.4084
 2025SOL     OW17710   4.532   0.722  12.769 -0.1235  0.0827 -0.1663
 2025SOL    HW117711   4.602   0.708  12.705 -1.5390  2.1044 -2.1527
 2025SOL    HW217712   4.522   0.635  12.807 -0.2820 -0.2590 -0.9832
 2026SOL     OW17713   1.975   0.006   5.560 -0.1639  0.4019  0.6156
 2026SOL    HW117714   1.942   0.025   5.648 -0.5118  1.7741  0.1890
 2026SOL    HW217715   2.056   0.054   5.550  1.0468 -1.6929  0.3983
 2027SOL     OW17716   1.638   2.803   5.481 -0.2776 -0.1008  0.2985
 2027SOL    HW117717   1.718   2.855   5.474  0.3850 -1.1130  0.3171
 2027SOL    HW217718   1.577   2.861   5.435  0.6101  0.7584  0.2242
 2028SOL     OW17719   2.566   1.769   7.910  0.0183 -0.8620 -0.0886
 2028SOL    HW117720   2.511   1.702   7.952 -1.5092 -0.1561 -0.9603
 2028SOL    HW217721   2.651   1.735   7.940  0.2883 -0.1059 -0.0081
 2029SOL     OW17722   3.026   1.189   7.590 -0.7120 -0.2169  0.3004
 2029SOL    HW117723   2.983   1.273   7.603  0.3360  0.6454 -1.7400
 2029SOL    HW217724   3.011   1.180   7.496  0.9958 -2.1114  0.1887
 2030SOL     OW17725   0.325   1.999   6.518  0.7605  0.2341  0.0542
 2030SOL    HW117726   0.336   2.011   6.423  0.8787 -2.1466 -0.2374
 2030SOL    HW217727   0.369   2.076   6.555  1.8798 -0.9096  1.0724
 2031SOL     OW17728   4.424   2.761   7.410 -0.0733 -0.5497 -0.4803
 2031SOL    HW117729   4.381   2.680   7.438 -1.1777  0.2261  0.0909
 2031SOL    HW217730   4.349   2.820   7.405 -0.8137 -1.4240  0.2167
 2032SOL     OW17731   1.801   3.505  11.198 -0.5705 -0.1404 -0.0278
 2032SOL    HW117732   1.841   3.423  11.226 -1.4334 -0.2723  0.8243
 2032SOL    HW217733   1.747   3.530  11.273  0.2938  0.6529  0.3339
 2033SOL     OW17734   1.744   3.203   6.649  0.1187  0.0828  0.5065
 2033SOL    HW117735   1.836   3.230   6.641  0.1349 -0.8336 -2.6238
 2033SOL    HW217736   1.736   3.196   6.744 -1.4203 -0.1171  0.3638
 2034SOL     OW17737   4.419   1.801  12.800 -0.1709  0.3192  0.3330
 2034SOL    HW117738   4.383   1.748  12.728 -0.0117  0.4125  0.1820
 2034SOL    HW217739   4.436   1.730  12.862  0.9797 -0.4597 -0.8630
 2035SOL     OW17740   0.879   4.005   9.256  0.3185  0.3205  0.0870
 2035SOL    HW117741   0.865   4.087   9.304  3.0632  0.5710  0.4563
 2035SOL    HW217742   0.970   4.014   9.230  0.4899 -1.0015  0.1966
 2036SOL     OW17743   3.717   3.505  14.502 -0.1469 -0.3400 -0.3209
 2036SOL    HW117744   3.737   3.412  14.498  0.3036 -0.2720  0.3754
 2036SOL    HW217745   3.739   3.540  14.416  2.4601 -0.2738  0.3719
 2037SOL     OW17746   0.058   0.341   6.366  0.8458  0.1431  0.0349
 2037SOL    HW117747   0.113   0.411   6.333 -0.0999 -0.1590 -2.1898
 2037SOL    HW217748   0.012   0.325   6.284  1.1961  1.2136 -0.3571
 2038SOL     OW17749   0.475   3.700  16.199 -0.3357 -0.6398 -0.3173
 2038SOL    HW117750   0.422   3.779  16.190 -0.4480 -0.6300  0.4319
 2038SOL    HW217751   0.551   3.737  16.243 -1.0934 -0.0394  0.4670
 2039SOL     OW17752   0.197   2.326   2.659  0.2643 -0.1523 -0.3802
 2039SOL    HW117753   0.179   2.280   2.741 -4.2091  0.5375 -0.9694
 2039SOL    HW217754   0.290   2.309   2.645  0.3359  0.6799 -0.8914
 2040SOL     OW17755   2.857   1.357   2.492 -0.4365 -0.0493 -0.8416
 2040SOL    HW117756   2.890   1.360   2.402  2.0102 -2.9759 -0.0447
 2040SOL    HW217757   2.851   1.450   2.513 -1.2419 -0.3337  0.1568
 2041SOL     OW17758   0.880   1.306  11.289 -0.3246  0.3808  0.5939
 2041SOL    HW117759   0.966   1.314  11.330  0.5546 -0.8746 -1.0359
 2041SOL    HW217760   0.879   1.212  11.270 -0.5565  0.7298 -1.0621
 2042SOL     OW17761   1.084   1.375   1.942  0.3898 -0.3665  0.3840
 2042SOL    HW117762   1.132   1.457   1.953 -1.1255  0.3614  1.6241
 2042SOL    HW217763   1.028   1.378   2.020 -1.2062 -1.0297 -0.7243
 2043SOL     OW17764   3.352   3.505   7.503  0.2413 -0.1537  0.0811
 2043SOL    HW117765   3.366   3.487   7.596 -4.3815 -0.3380  0.7319
 2043SOL    HW217766   3.260   3.524   7.517  0.5490  2.0863 -0.8457
 2044SOL     OW17767   1.626   2.398   2.599  0.3677  0.0533  0.0377
 2044SOL    HW117768   1.590   2.331   2.657  2.4903 -1.0156  0.1128
 2044SOL    HW217769   1.584   2.478   2.630 -0.2623 -0.2588  0.0007
 2045SOL     OW17770   2.434   0.869  12.897  0.3074 -0.0375 -0.7211
 2045SOL    HW117771   2.454   0.903  12.984 -2.4488  0.5092 -0.2756
 2045SOL    HW217772   2.493   0.922  12.844 -1.6676 -0.1369 -3.0168
 2046SOL     OW17773   3.119   0.708   9.018 -0.1189  0.3746 -0.3913
 2046SOL    HW117774   3.164   0.692   9.101 -0.9359  1.5998  0.2963
 2046SOL    HW217775   3.171   0.648   8.965  2.8886  0.3863  2.5168
 2047SOL     OW17776   0.769   1.587   0.785  0.7551  0.4126 -0.3496
 2047SOL    HW117777   0.688   1.576   0.836  0.2659 -1.5896 -1.5907
 2047SOL    HW217778   0.728   1.573   0.700  0.3358  0.4623 -0.1572
 2048SOL     OW17779   2.394   4.203   1.749 -0.2524  0.1951  0.2636
 2048SOL    HW117780   2.380   4.237   1.660 -1.0147  0.4599  0.4828
 2048SOL    HW217781   2.426   4.120   1.715 -0.6923 -0.7480  2.1825
 2049SOL     OW17782   0.905   0.746   5.375 -0.2317  0.3319  0.2679
 2049SOL    HW117783   0.828   0.800   5.356 -0.0540 -0.2504 -2.1431
 2049SOL    HW217784   0.909   0.768   5.468 -2.3282  1.2584  0.1407
 2050SOL     OW17785   2.113   3.259   2.802 -0.2691 -0.6336 -0.7060
 2050SOL    HW117786   2.142   3.225   2.886 -2.0990  1.3137  0.7338
 2050SOL    HW217787   2.128   3.354   2.794 -0.5250 -0.5368 -0.0868
 2051SOL     OW17788   1.084   3.923  17.407 -0.2188  0.7204 -0.1883
 2051SOL    HW117789   1.067   3.851  17.347 -0.4142 -0.6414  1.4909
 2051SOL    HW217790   1.149   3.890  17.470 -0.5631 -0.8084 -0.6369
 2052SOL     OW17791   4.272   2.133   8.755  0.0520  0.0626  0.0364
 2052SOL    HW117792   4.288   2.177   8.672  1.3333  1.6189  1.1238
 2052SOL    HW217793   4.269   2.042   8.724 -0.6840  0.0478  0.1591
 2053SOL     OW17794   1.042   0.968  16.614  0.0184 -0.1350 -0.4561
 2053SOL    HW117795   1.059   0.972  16.708 -1.2720 -0.1686 -0.2199
 2053SOL    HW217796   0.961   1.016  16.596 -0.2793 -0.2083  0.6725
 2054SOL     OW17797   0.130   3.047   4.890  0.5686 -0.4745 -0.0727
 2054SOL    HW117798   0.083   3.040   4.973 -0.2596 -1.8336 -0.6485
 2054SOL    HW217799   0.116   2.956   4.862  1.7987 -0.2232 -1.5216
 2055SOL     OW17800   1.989   0.896  17.404 -0.2768  0.1058  0.0629
 2055SOL    HW117801   2.064   0.917  17.348 -0.9725 -2.4101 -1.8095
 2055SOL    HW217802   2.021   0.890  17.494 -0.9504  2.5210  0.4574
 2056SOL     OW17803   2.134   0.650   8.468 -0.2432 -0.4426 -0.1773
 2056SOL    HW117804   2.212   0.618   8.423 -0.3372 -2.5988  1.1888
 2056SOL    HW217805   2.082   0.617   8.394 -1.5882  0.6456  0.2948
 2057SOL     OW17806   4.659   3.965   5.907 -0.2019 -0.1569  0.0374
 2057SOL    HW117807   4.617   3.882   5.885  0.3003 -0.6933  1.0813
 2057SOL    HW217808   4.652   4.005   5.821  1.3794 -0.0957 -0.0606
 2058SOL     OW17809   3.076   0.724   3.800 -0.1210 -0.2896  0.3945
 2058SOL    HW117810   3.013   0.770   3.744  0.5672 -1.3250 -1.2659
 2058SOL    HW217811   3.154   0.724   3.743 -2.0565  0.9567 -2.2660
 2059SOL     OW17812   0.923   4.297  17.029  0.5313  0.5155  0.1584
 2059SOL    HW117813   0.991   4.322  17.092  0.5821 -1.2692  0.8194
 2059SOL    HW217814   0.850   4.355  17.051 -0.6119 -0.2010 -1.7642
 2060SOL     OW17815   0.900   1.854   7.968 -0.8103  0.3169  0.5894
 2060SOL    HW117816   0.823   1.907   7.989 -1.3269 -0.4519  0.6201
 2060SOL    HW217817   0.947   1.850   8.051  1.5176  0.2919 -0.7281
 2061SOL     OW17818   2.110   0.039   6.442  0.5665 -0.1286  0.0062
 2061SOL    HW117819   2.034   0.094   6.423 -0.0391 -1.0729 -0.2688
 2061SOL    HW217820   2.068   4.701   6.481  0.7254  0.5519  1.5260
 2062SOL     OW17821   3.604   2.877  17.218 -0.0456 -0.1737  0.1166
 2062SOL    HW117822   3.665   2.805  17.230  2.5840  1.6592 -2.1938
 2062SOL    HW217823   3.643   2.929  17.147  0.1657  0.6121  0.8092
 2063SOL     OW17824   0.341   1.835   3.316  0.2149 -0.4837  0.5930
 2063SOL    HW117825   0.332   1.928   3.340 -0.2650 -0.9053  2.0434
 2063SOL    HW217826   0.435   1.823   3.298  0.4034  0.4951  0.9231
 2064SOL     OW17827   1.010   0.115   6.441  0.2929 -0.4236  0.4987
 2064SOL    HW117828   0.973   0.028   6.454 -1.1360  0.1589  0.4549
 2064SOL    HW217829   0.953   0.165   6.501 -0.2818 -0.5377  0.0463
 2065SOL     OW17830   0.614   3.034   7.069  0.0967 -0.1954  0.8735
 2065SOL    HW117831   0.578   3.114   7.031  0.5226 -0.8086 -0.8161
 2065SOL    HW217832   0.610   3.055   7.163  2.0990 -1.0207  1.1649
 2066SOL     OW17833   0.956   4.635   4.009  0.1098 -0.0898 -0.5171
 2066SOL    HW117834   0.994   4.589   4.083 -0.6998 -0.7219 -0.4891
 2066SOL    HW217835   1.009   4.612   3.933 -0.8926 -1.1581 -0.8945
 2067SOL     OW17836   0.210   0.728   4.727 -0.4700 -0.1678 -0.3334
 2067SOL    HW117837   0.177   0.762   4.643  1.3179  0.6939 -0.6742
 2067SOL    HW217838   0.305   0.735   4.724 -0.3891 -1.6784 -1.2104
 2068SOL     OW17839   0.333   1.347   3.278  0.3598 -0.0326 -0.0939
 2068SOL    HW117840   0.289   1.342   3.194 -0.8111  0.3530  0.4896
 2068SOL    HW217841   0.261   1.371   3.337  0.8443 -0.9236  0.8637
 2069SOL     OW17842   0.267   4.087   4.437  0.3182 -0.2268  0.4777
 2069SOL    HW117843   0.294   3.999   4.463  2.4984  0.9422  2.0777
 2069SOL    HW217844   0.334   4.142   4.476 -0.1122 -0.5797  1.7118
 2070SOL     OW17845   1.118   2.303   0.115 -0.5281 -0.6724 -0.1810
 2070SOL    HW117846   1.188   2.260   0.164 -1.9875 -2.0480  0.6950
 2070SOL    HW217847   1.043   2.250   0.144  0.3529 -3.1393 -2.4004
 2071SOL     OW17848   3.305   3.676  12.184 -0.2234 -0.5061  0.2295
 2071SOL    HW117849   3.312   3.744  12.251  1.1096 -0.6690  0.2522
 2071SOL    HW217850   3.376   3.702  12.126  0.6193 -0.0640  1.4673
 2072SOL     OW17851   1.744   4.323   4.769  0.0135 -0.4283 -0.1232
 2072SOL    HW117852   1.658   4.362   4.780  0.4410  1.0405 -2.1168
 2072SOL    HW217853   1.754   4.324   4.674  0.6424  0.7540 -0.0446
 2073SOL     OW17854   0.522   3.249   6.929  0.6141  0.1462 -0.6372
 2073SOL    HW117855   0.436   3.230   6.966  0.3250 -0.9283 -1.8403
 2073SOL    HW217856   0.523   3.345   6.929  2.9760  0.1030 -0.6556
 2074SOL     OW17857   2.789   3.116   8.288 -0.3765  0.6489 -0.1078
 2074SOL    HW117858   2.698   3.113   8.258 -0.4930  2.2486  0.0945
 2074SOL    HW217859   2.798   3.022   8.305 -0.1792  0.4022 -1.6368
 2075SOL     OW17860   0.824   0.000   6.165  0.1739 -0.1296 -0.0905
 2075SOL    HW117861   0.735   0.029   6.185 -0.8517 -1.8105 -2.2374
 2075SOL    HW217862   0.856   4.706   6.249 -1.7931  1.8812  1.4233
 2076SOL     OW17863   0.449   3.329   7.735  0.0020 -0.5098 -0.0136
 2076SOL    HW117864   0.452   3.417   7.772 -1.2521  0.4212 -2.1017
 2076SOL    HW217865   0.533   3.294   7.763 -0.5035 -0.6118  1.3911
 2077SOL     OW17866   2.277   1.020   6.666 -0.3990 -1.1128 -0.5762
 2077SOL    HW117867   2.285   0.980   6.752 -0.9961  3.3129  1.5418
 2077SOL    HW217868   2.364   1.036   6.628 -0.8182  2.7699  0.1300
 2078SOL     OW17869   2.083   0.443   4.576 -0.3894 -0.1060 -0.7174
 2078SOL    HW117870   2.008   0.391   4.545  0.6621 -1.7288 -0.5129
 2078SOL    HW217871   2.075   0.450   4.671 -1.9062  1.0729 -0.9224
 2079SOL     OW17872   1.867   3.589   2.664  0.6629  0.2308  0.0479
 2079SOL    HW117873   1.857   3.505   2.620 -0.8700  0.4327 -0.0052
 2079SOL    HW217874   1.885   3.650   2.592  0.2869 -0.4886 -0.6650
 2080SOL     OW17875   0.101   3.036   0.749  0.3647  0.0955  0.2332
 2080SOL    HW117876   0.010   3.008   0.743  0.1434  0.1554  3.0974
 2080SOL    HW217877   0.102   3.096   0.824 -2.1615 -0.6219  0.8572
 2081SOL     OW17878   2.637   0.420  10.992 -0.0981  0.0477  0.2878
 2081SOL    HW117879   2.725   0.431  10.956  0.9643 -0.4329  2.8080
 2081SOL    HW217880   2.587   0.450  10.915 -0.3072  0.3118  0.5240
 2082SOL     OW17881   1.768   1.505   6.854  0.0915  0.2366 -0.0332
 2082SOL    HW117882   1.680   1.520   6.820 -1.0580 -0.7726  2.5346
 2082SOL    HW217883   1.766   1.576   6.918 -0.1116  1.7325 -1.7074
 2083SOL     OW17884   4.606   1.486   4.542 -0.6674 -0.5163 -0.3010
 2083SOL    HW117885   4.525   1.477   4.592  0.0235  3.3775  1.5691
 2083SOL    HW217886   4.675   1.450   4.598  0.2706  1.6592 -0.0236
 2084SOL     OW17887   2.474   0.681   3.258 -0.1066  0.3345  0.0987
 2084SOL    HW117888   2.561   0.669   3.220 -0.7400  1.6323 -1.7597
 2084SOL    HW217889   2.452   0.769   3.225 -2.5585 -0.0306  0.7095
 2085SOL     OW17890   1.726   1.018   6.007  0.5281 -0.3268  0.1074
 2085SOL    HW117891   1.719   0.938   5.956  0.6564 -1.1469  1.3787
 2085SOL    HW217892   1.678   0.989   6.085  1.6771 -1.2980  0.4464
 2086SOL     OW17893   2.178   1.798   9.649 -0.0434  0.5571 -0.0741
 2086SOL    HW117894   2.167   1.705   9.628  2.1874  0.5055 -0.9773
 2086SOL    HW217895   2.232   1.794   9.729  1.9055 -3.2142 -1.5876
 2087SOL     OW17896   2.253   2.477  16.108 -0.0559  0.5987  0.1477
 2087SOL    HW117897   2.178   2.430  16.072  0.6803 -1.0241  0.7384
 2087SOL    HW217898   2.221   2.482  16.198 -2.1557 -2.7923 -0.4278
 2088SOL     OW17899   3.638   1.436   3.123 -0.4279 -0.2864  0.3910
 2088SOL    HW117900   3.731   1.429   3.147 -0.1636 -3.0731 -1.4123
 2088SOL    HW217901   3.643   1.499   3.051 -1.3074  1.2478  1.6860
 2089SOL     OW17902   0.506   4.181   0.083  0.2611  0.3490  0.2329
 2089SOL    HW117903   0.486   4.088   0.096  2.0555  0.3998  3.2599
 2089SOL    HW217904   0.585   4.178   0.028  0.0721 -1.6088  0.0844
 2090SOL     OW17905   3.513   2.280   2.680 -0.0987  0.2410  0.7553
 2090SOL    HW117906   3.519   2.237   2.765 -1.6124  2.3690  1.9315
 2090SOL    HW217907   3.608   2.275   2.667 -0.1901  3.5352 -1.2895
 2091SOL     OW17908   1.271   3.624   1.901 -0.0151 -0.1657  0.0987
 2091SOL    HW117909   1.259   3.539   1.859  0.8522 -0.6782  0.8969
 2091SOL    HW217910   1.360   3.648   1.875  1.2156 -1.7035  2.8961
 2092SOL     OW17911   3.856   0.344   7.195  0.1215  0.1861 -0.0710
 2092SOL    HW117912   3.790   0.318   7.130 -0.4831 -0.8748  0.9761
 2092SOL    HW217913   3.892   0.260   7.222 -0.2481 -0.3512 -1.2370
 2093SOL     OW17914   4.139   3.621  15.002  0.4039  0.5721 -0.1909
 2093SOL    HW117915   4.134   3.674  14.923 -1.6711 -0.6725 -0.8905
 2093SOL    HW217916   4.071   3.667  15.052  1.1132 -0.3377  1.6364
 2094SOL     OW17917   2.033   3.923   1.646  0.6745 -0.0157 -0.2600
 2094SOL    HW117918   2.053   4.009   1.609  2.3677 -1.1667 -2.0444
 2094SOL    HW217919   2.113   3.905   1.696 -0.1891  0.1163  1.1491
 2095SOL     OW17920   3.216   1.550   7.335 -1.3804 -0.0661 -0.1798
 2095SOL    HW117921   3.288   1.486   7.331  1.2640  2.9677 -1.6760
 2095SOL    HW217922   3.154   1.503   7.391 -2.2259  0.1708 -0.9270
 2096SOL     OW17923   3.664   2.266   2.341 -0.2846  0.7580  0.3422
 2096SOL    HW117924   3.652   2.358   2.367 -0.2477  1.4018 -1.8885
 2096SOL    HW217925   3.572   2.242   2.351 -0.3766  1.5922  1.4605
 2097SOL     OW17926   4.166   2.261  16.310 -0.3610  0.0110 -0.4262
 2097SOL    HW117927   4.243   2.307  16.340  1.6375 -1.6439 -2.9485
 2097SOL    HW217928   4.107   2.335  16.297 -0.2692  0.5345  2.3020
 2098SOL     OW17929   0.090   0.117   7.351 -0.2535  0.0082 -0.9905
 2098SOL    HW117930   0.185   0.129   7.361 -0.6242 -0.2260  2.8197
 2098SOL    HW217931   0.072   0.071   7.434 -2.9281 -0.6443 -1.9607
 2099SOL     OW17932   1.453   4.189   4.948 -0.0349  0.3430  0.2173
 2099SOL    HW117933   1.410   4.120   4.899 -1.9198  1.0948  0.8093
 2099SOL    HW217934   1.392   4.260   4.931 -0.9528 -0.7401 -0.9608
 2100SOL     OW17935   1.241   0.784  14.891  0.2974 -0.0516  0.1992
 2100SOL    HW117936   1.224   0.743  14.976 -0.7284  2.1747  1.0479
 2100SOL    HW217937   1.206   0.728  14.822 -0.5960  0.8536 -0.0849
 2101SOL     OW17938   3.892   3.089   4.625 -0.3879 -0.2559 -0.4573
 2101SOL    HW117939   3.951   3.015   4.610  0.4685  0.0608  1.3288
 2101SOL    HW217940   3.872   3.110   4.534  1.7367  3.5483 -0.0340
 2102SOL     OW17941   4.053   0.313   8.121  0.0865 -0.0775 -0.0063
 2102SOL    HW117942   3.966   0.349   8.103  0.5178  1.1478  0.3221
 2102SOL    HW217943   4.045   0.303   8.216 -1.5712 -3.1666 -0.4630
 2103SOL     OW17944   3.798   2.005   2.789  0.1749  0.2792 -0.3706
 2103SOL    HW117945   3.771   2.082   2.739 -1.2768  0.0125 -0.0012
 2103SOL    HW217946   3.828   1.938   2.728  0.7259 -0.6466  0.9075
 2104SOL     OW17947   1.712   2.359  12.595 -0.3275  0.2834  0.2992
 2104SOL    HW117948   1.642   2.415  12.630 -1.9822 -0.4742 -1.8257
 2104SOL    HW217949   1.783   2.420  12.574 -0.8204  1.4690  2.0293
 2105SOL     OW17950   0.218   3.687   5.332  0.7750 -0.1124  0.0194
 2105SOL    HW117951   0.187   3.755   5.272 -2.9529 -1.0156  0.8785
 2105SOL    HW217952   0.279   3.732   5.390 -0.2991  1.6933 -0.2545
 2106SOL     OW17953   2.056   1.675  13.349  0.4062 -0.2931 -0.7160
 2106SOL    HW117954   2.019   1.630  13.272 -2.1537 -0.1620  0.4339
 2106SOL    HW217955   2.119   1.616  13.391  1.0217 -0.0284 -1.2641
 2107SOL     OW17956   4.173   0.878  12.691  0.1666  0.2450 -0.2244
 2107SOL    HW117957   4.206   0.869  12.602  1.0440  1.3529 -0.0074
 2107SOL    HW217958   4.078   0.864  12.690 -0.0911  1.7718  1.5137
 2108SOL     OW17959   0.392   3.693  11.851 -0.1153  0.3182  0.7446
 2108SOL    HW117960   0.346   3.706  11.934 -0.8939  0.9808  0.2145
 2108SOL    HW217961   0.402   3.598  11.846  0.3591  0.4137 -0.1339
 2109SOL     OW17962   4.603   1.105   7.181  0.4784 -0.3913  0.7861
 2109SOL    HW117963   4.652   1.185   7.196  1.1468 -1.0589  2.1537
 2109SOL    HW217964   4.670   1.038   7.199  1.3305 -0.7747 -3.8067
 2110SOL     OW17965   0.341   1.887  16.789 -0.9146  0.1506  0.5172
 2110SOL    HW117966   0.415   1.920  16.841  0.1504 -1.8702  0.2640
 2110SOL    HW217967   0.263   1.881  16.844 -0.9279  0.5729  0.5491
 2111SOL     OW17968   4.159   3.451  10.323  0.7209 -0.4737  0.1115
 2111SOL    HW117969   4.109   3.369  10.324  1.3119 -0.8153  1.3698
 2111SOL    HW217970   4.194   3.462  10.411  1.4601 -1.2367 -0.0859
 2112SOL     OW17971   3.078   4.217   7.056  0.3328  0.5067  0.1672
 2112SOL    HW117972   3.119   4.253   7.134  1.3878 -2.6926  1.0534
 2112SOL    HW217973   3.079   4.128   7.089 -0.7635  1.1773  1.9754
 2113SOL     OW17974   1.262   1.307   5.586  0.0201 -0.4918 -0.3235
 2113SOL    HW117975   1.230   1.281   5.500 -1.7470 -0.7757  0.4136
 2113SOL    HW217976   1.300   1.225   5.617  0.1066 -0.5435 -0.5668
 2114SOL     OW17977   3.380   0.095   9.671  0.5559  0.0665 -0.3418
 2114SOL    HW117978   3.317   0.027   9.648  1.6470 -0.3674 -2.0252
 2114SOL    HW217979   3.457   0.047   9.702  0.9534  1.5940  1.0062
 2115SOL     OW17980   1.952   1.880  12.784  0.0884  0.0404 -0.2684
 2115SOL    HW117981   2.002   1.799  12.791 -1.2219 -0.5766  2.1554
 2115SOL    HW217982   1.870   1.849  12.745 -0.7393 -0.2608  1.6943
 2116SOL     OW17983   3.607   2.934   0.231  0.3157  0.3065  0.2034
 2116SOL    HW117984   3.660   2.957   0.156  0.1350  1.3633  0.4016
 2116SOL    HW217985   3.566   3.017   0.257 -1.1032 -0.2956 -0.1236
 2117SOL     OW17986   2.882   0.157  17.701  0.2384  0.1231 -0.4158
 2117SOL    HW117987   2.952   0.220  17.717  0.5138 -0.1704 -0.4536
 2117SOL    HW217988   2.804   0.209  17.683 -1.5396 -2.4126 -0.0654
 2118SOL     OW17989   3.680   1.132   4.859 -0.1462  0.1085 -0.0138
 2118SOL    HW117990   3.730   1.069   4.910  1.9229  0.7387 -1.2450
 2118SOL    HW217991   3.649   1.188   4.930  0.0845  2.5806 -1.8325
 2119SOL     OW17992   3.821   3.558  14.902  0.0719  0.3742  0.5518
 2119SOL    HW117993   3.726   3.553  14.888 -0.1066  2.6525  1.0966
 2119SOL    HW217994   3.837   3.613  14.978  2.5322  0.2744  0.1071
 2120SOL     OW17995   2.078   0.288   2.025 -0.2427  0.6986  0.0345
 2120SOL    HW117996   2.096   0.378   1.997 -0.0856  1.2837  1.9664
 2120SOL    HW217997   1.987   0.293   2.053  0.4115  1.1146  2.1157
 2121SOL     OW17998   1.003   0.084   1.826  0.1592  0.1315  0.0424
 2121SOL    HW117999   0.916   0.062   1.860 -0.5302  2.0294 -0.4854
 2121SOL    HW218000   1.045   0.140   1.891  0.1738 -1.5127  1.4546
 2122SOL     OW18001   0.459   2.865  16.498  0.6573  0.4220  0.5179
 2122SOL    HW118002   0.489   2.943  16.544  0.2510 -0.0766  1.6080
 2122SOL    HW218003   0.364   2.870  16.506  0.6375  2.8739 -1.1159
 2123SOL     OW18004   4.430   3.158  17.238  0.1688 -0.3927  0.1402
 2123SOL    HW118005   4.477   3.097  17.294 -0.9154  1.1528  2.7690
 2123SOL    HW218006   4.412   3.106  17.160 -0.3089 -2.9484  1.9586
 2124SOL     OW18007   3.302   4.018   5.095 -0.0684  0.1782 -0.1600
 2124SOL    HW118008   3.342   3.988   5.014  2.2328  2.6760  0.0277
 2124SOL    HW218009   3.301   4.112   5.075  1.4294  0.1507 -0.3575
 2125SOL     OW18010   4.201   4.133   8.592 -0.7330  0.6072 -0.0463
 2125SOL    HW118011   4.263   4.064   8.569 -1.2929  0.7948 -2.1237
 2125SOL    HW218012   4.231   4.141   8.683  1.1372 -3.5263 -0.2818
 2126SOL     OW18013   3.894   4.375  17.540  0.2014  0.4885 -0.2923
 2126SOL    HW118014   3.851   4.300  17.498 -1.0934  1.3062 -0.4328
 2126SOL    HW218015   3.878   4.441  17.473  0.2634  0.7554 -0.0418
 2127SOL     OW18016   4.423   1.096   5.179  0.0430  0.0848  0.1581
 2127SOL    HW118017   4.380   1.029   5.232  0.9997 -0.3731  0.3661
 2127SOL    HW218018   4.512   1.081   5.211  0.2972 -0.0324 -0.5898
 2128SOL     OW18019   3.570   1.107   8.025 -0.2391 -0.3060 -0.0817
 2128SOL    HW118020   3.656   1.135   8.056 -0.8542  1.4254  0.0396
 2128SOL    HW218021   3.593   1.016   8.007 -2.5101 -1.2224  1.5955
 2129SOL     OW18022   4.575   3.783  16.616  0.2972 -0.5824 -0.6239
 2129SOL    HW118023   4.614   3.853  16.667  1.7777 -0.5197 -1.8714
 2129SOL    HW218024   4.512   3.747  16.679  2.4937 -2.5669  0.4245
 2130SOL     OW18025   3.152   3.783  12.556  0.0826  0.1534  0.2119
 2130SOL    HW118026   3.171   3.863  12.605 -1.0212 -0.5271  1.7301
 2130SOL    HW218027   3.190   3.717  12.614  3.1691 -0.4122 -2.3982
 2131SOL     OW18028   1.801   3.528   4.482  0.1041  0.5109  0.2235
 2131SOL    HW118029   1.779   3.555   4.571  1.3694 -2.3596  1.4013
 2131SOL    HW218030   1.844   3.605   4.445 -1.6361  0.9839 -0.8258
 2132SOL     OW18031   2.906   0.556   9.971  0.1474  0.2796 -0.4663
 2132SOL    HW118032   2.933   0.475  10.016  0.4234 -0.0108 -1.1568
 2132SOL    HW218033   2.824   0.532   9.928  1.1912 -1.4891 -1.4857
 2133SOL     OW18034   1.906   2.534  16.067 -0.2891 -0.5667 -0.3459
 2133SOL    HW118035   1.933   2.524  15.976 -1.4644 -2.8456 -0.4325
 2133SOL    HW218036   1.897   2.446  16.102  0.8753 -0.4298  0.3181
 2134SOL     OW18037   1.180   3.303  15.040  0.2315 -0.3847  0.0036
 2134SOL    HW118038   1.274   3.295  15.025  0.4312 -0.0864  1.0721
 2134SOL    HW218039   1.172   3.279  15.133  1.1089  3.8710  1.1675
 2135SOL     OW18040   1.971   3.127   6.016  0.7630  0.0834  0.2434
 2135SOL    HW118041   2.004   3.037   6.005 -0.7108 -0.1192 -2.4051
 2135SOL    HW218042   1.877   3.118   6.006  0.4434  2.0396  1.5355
 2136SOL     OW18043   3.444   2.191   7.240 -0.5078  0.2720 -0.1080
 2136SOL    HW118044   3.445   2.106   7.196 -0.0873 -0.3610  1.1281
 2136SOL    HW218045   3.416   2.243   7.164 -0.9136  1.6626  1.0132
 2137SOL     OW18046   4.275   3.236  16.848  0.7508 -0.5515 -0.3330
 2137SOL    HW118047   4.252   3.229  16.755  0.7723  0.6505 -0.4300
 2137SOL    HW218048   4.227   3.315  16.874 -0.5408 -1.5885  0.3995
 2138SOL     OW18049   1.866   3.030   5.467  0.0107  0.2846 -0.2529
 2138SOL    HW118050   1.883   3.107   5.521 -0.5910  1.5204 -1.8258
 2138SOL    HW218051   1.914   3.047   5.386  3.1229 -1.4141  1.2518
 2139SOL     OW18052   3.959   2.472   8.011  0.1372  0.0163  0.0573
 2139SOL    HW118053   4.025   2.529   7.973  0.8746 -1.2569 -0.5865
 2139SOL    HW218054   3.918   2.536   8.068 -0.9677  0.1781 -0.9363
 2140SOL     OW18055   0.023   2.582   1.854 -0.2272  0.4472 -0.0145
 2140SOL    HW118056   0.095   2.634   1.889  0.6840 -1.0708  0.3551
 2140SOL    HW218057   4.709   2.562   1.932  0.5285  0.6636  0.5475
 2141SOL     OW18058   2.074   2.660  12.446 -0.3165  0.2193 -0.4738
 2141SOL    HW118059   2.099   2.752  12.436  2.9501 -0.6350  0.0906
 2141SOL    HW218060   2.138   2.612  12.394  0.3186 -0.0748  0.5870
 2142SOL     OW18061   2.099   1.694   4.541  0.3312  0.0998  0.1704
 2142SOL    HW118062   2.082   1.767   4.482  0.2094 -0.3787 -0.3825
 2142SOL    HW218063   2.193   1.703   4.558  0.7798 -0.5341 -2.0168
 2143SOL     OW18064   3.484   2.635  12.025  0.5603 -0.1231 -0.1571
 2143SOL    HW118065   3.536   2.695  12.079  0.9128 -0.4335 -0.1483
 2143SOL    HW218066   3.459   2.572  12.094  2.1846 -0.7033 -0.0799
 2144SOL     OW18067   3.410   1.478  12.854 -0.1327 -0.1129 -0.2379
 2144SOL    HW118068   3.340   1.511  12.910  0.9253  0.6521  0.6410
 2144SOL    HW218069   3.485   1.485  12.914 -0.8861 -0.6780  0.7621
 2145SOL     OW18070   4.250   3.068   4.019 -0.2536  0.9906  0.4960
 2145SOL    HW118071   4.232   2.986   3.973 -0.8385  0.2483  2.0477
 2145SOL    HW218072   4.165   3.112   4.020  0.6565  2.8225 -1.3913
 2146SOL     OW18073   1.007   2.320   7.178 -0.2391 -0.2181 -0.5971
 2146SOL    HW118074   0.982   2.396   7.232 -1.3081 -1.0935  0.1556
 2146SOL    HW218075   0.923   2.306   7.133 -1.1955 -1.0374  1.4042
 2147SOL     OW18076   3.102   1.297   3.063 -0.2522 -0.4951 -0.4982
 2147SOL    HW118077   3.066   1.381   3.035  0.1930 -0.3183 -0.5532
 2147SOL    HW218078   3.185   1.338   3.088 -0.1569 -2.0610  1.7983
 2148SOL     OW18079   1.575   2.239   2.834  0.5983 -0.0870 -1.3994
 2148SOL    HW118080   1.603   2.155   2.797 -0.9369 -0.4585 -1.7382
 2148SOL    HW218081   1.661   2.265   2.866  0.2409  0.2772 -0.7129
 2149SOL     OW18082   2.911   1.072   8.158 -0.3823  0.0541  0.0396
 2149SOL    HW118083   2.962   0.999   8.122 -3.2520 -1.4102 -0.9645
 2149SOL    HW218084   2.903   1.134   8.086 -1.3472 -3.0385 -2.5115
 2150SOL     OW18085   4.087   2.316   5.222  0.0348  0.1597 -0.0527
 2150SOL    HW118086   4.166   2.363   5.196 -0.2698 -0.4527 -2.1171
 2150SOL    HW218087   4.088   2.236   5.169  0.2860  0.1806 -0.0800
 2151SOL     OW18088   1.404   3.373  12.964 -0.4116  0.0142 -0.7523
 2151SOL    HW118089   1.475   3.322  12.926 -1.3984 -1.9976  0.1260
 2151SOL    HW218090   1.456   3.446  12.999 -0.3993  0.0648 -0.8787
 2152SOL     OW18091   2.141   3.386  16.732 -0.4394  0.2748 -0.0407
 2152SOL    HW118092   2.168   3.478  16.725  0.0979  0.1511  0.3607
 2152SOL    HW218093   2.059   3.395  16.685  0.0984  1.3735 -0.7584
 2153SOL     OW18094   4.701   4.469  16.848 -0.4300 -0.0907 -0.3351
 2153SOL    HW118095   4.698   4.513  16.933  0.7908  0.2284 -0.4585
 2153SOL    HW218096   4.611   4.482  16.819 -1.0855 -0.2712  1.6087
 2154SOL     OW18097   1.667   3.571   4.008  0.1425 -0.5887  0.0921
 2154SOL    HW118098   1.732   3.635   4.037  0.5504 -0.7104 -0.5536
 2154SOL    HW218099   1.587   3.603   4.050 -0.5316  0.1509 -1.7623
 2155SOL     OW18100   2.899   3.414   7.540  0.7544 -0.4138 -0.3952
 2155SOL    HW118101   2.811   3.396   7.508  1.4103 -0.5991 -2.0910
 2155SOL    HW218102   2.888   3.354   7.614 -0.6867 -0.0795 -0.3273
 2156SOL     OW18103   2.568   3.604   3.188  0.6007 -0.2707  0.5896
 2156SOL    HW118104   2.524   3.636   3.109  2.3938  0.6706 -0.0300
 2156SOL    HW218105   2.639   3.668   3.184 -0.5494  1.0142  0.8762
 2157SOL     OW18106   3.696   3.796   7.601  0.1169  0.4100  0.3667
 2157SOL    HW118107   3.617   3.796   7.545  0.4216  1.4922 -0.0562
 2157SOL    HW218108   3.694   3.882   7.642  1.5650  0.2074  0.8322
 2158SOL     OW18109   0.509   0.669   4.349  0.6052  0.1617 -0.2725
 2158SOL    HW118110   0.449   0.743   4.341  0.7850  0.4036  0.5848
 2158SOL    HW218111   0.549   0.672   4.263 -1.4122 -1.8431 -1.2576
 2159SOL     OW18112   2.519   1.436   5.604 -0.3485  0.0662 -0.2229
 2159SOL    HW118113   2.520   1.341   5.611  0.7280  0.0669 -0.4184
 2159SOL    HW218114   2.437   1.426   5.556  1.1320 -0.2148 -2.7115
 2160SOL     OW18115   2.088   0.787   6.597 -0.0239 -0.2766  0.6239
 2160SOL    HW118116   2.148   0.829   6.535 -0.0273 -2.1229 -0.6064
 2160SOL    HW218117   2.145   0.742   6.660  0.4402  0.0360  0.4297
 2161SOL     OW18118   0.458   0.179   7.659 -0.2453 -0.2087  0.1391
 2161SOL    HW118119   0.552   0.159   7.656  0.2640  2.3408 -1.4911
 2161SOL    HW218120   0.467   0.259   7.710  0.8847  0.0270 -0.4187
 2162SOL     OW18121   3.327   2.861   5.644  0.3026  0.6621  0.2127
 2162SOL    HW118122   3.334   2.913   5.564  1.1856 -1.0555 -0.8200
 2162SOL    HW218123   3.261   2.903   5.699 -0.5532 -2.0414  1.2754
 2163SOL     OW18124   0.038   3.104   3.278 -0.0504  0.1404 -0.5227
 2163SOL    HW118125   0.061   3.094   3.370  0.9113  0.7640 -0.6986
 2163SOL    HW218126   0.031   3.200   3.273 -0.2202  0.1937  0.7370
 2164SOL     OW18127   1.768   3.884   1.740  0.1915  0.2939  0.0672
 2164SOL    HW118128   1.812   3.800   1.754 -0.9373 -0.7772 -2.7728
 2164SOL    HW218129   1.843   3.930   1.701  0.0075  0.1323 -0.4812
 2165SOL     OW18130   0.369   2.959  10.210 -0.3560  0.4467  0.2781
 2165SOL    HW118131   0.435   2.939  10.144 -2.9578  2.6336 -3.0086
 2165SOL    HW218132   0.415   2.929  10.288  0.1875 -0.6324 -0.4672
 2166SOL     OW18133   3.955   3.517   0.937  1.0011  0.5092 -0.4446
 2166SOL    HW118134   3.945   3.467   0.856  2.8642 -0.3457 -0.1592
 2166SOL    HW218135   3.878   3.495   0.989  1.2026  0.2764 -0.2494
 2167SOL     OW18136   0.687   1.300   9.078 -0.6254 -0.2180 -0.1569
 2167SOL    HW118137   0.660   1.228   9.134  0.5437 -0.2182  0.3968
 2167SOL    HW218138   0.660   1.373   9.134  0.3237  0.7660 -0.9755
 2168SOL     OW18139   2.749   4.601   7.064  0.1681 -0.1529  1.2679
 2168SOL    HW118140   2.839   4.586   7.094  0.2375 -2.3660 -0.0417
 2168SOL    HW218141   2.767   4.690   7.036  0.0647 -0.4445  0.3031
 2169SOL     OW18142   2.228   0.361   3.619  0.3742  0.1366  0.2531
 2169SOL    HW118143   2.299   0.343   3.681 -0.4221 -1.5449  0.6725
 2169SOL    HW218144   2.276   0.417   3.557 -0.7511 -0.7046 -1.3900
 2170SOL     OW18145   3.924   1.291  14.403  0.8596  0.2122  0.2814
 2170SOL    HW118146   3.850   1.255  14.452  0.8986 -0.4877 -0.1633
 2170SOL    HW218147   3.997   1.261  14.456 -0.5538 -2.5567  0.6878
 2171SOL     OW18148   4.621   2.979   3.962  0.3848 -0.1855 -0.3195
 2171SOL    HW118149   4.587   3.064   3.935 -0.7868 -1.3353 -2.4557
 2171SOL    HW218150   4.707   2.975   3.921 -0.1628  1.4847 -1.6132
 2172SOL     OW18151   1.342   1.552   1.394 -0.2166 -0.6452  0.1032
 2172SOL    HW118152   1.371   1.480   1.337  0.0604 -1.6495  1.5087
 2172SOL    HW218153   1.402   1.541   1.468 -0.1619  1.2522  0.3369
 2173SOL     OW18154   1.954   3.992   0.165  0.2720 -0.2986 -0.8514
 2173SOL    HW118155   2.012   3.986   0.241 -1.1028 -0.5966  0.1993
 2173SOL    HW218156   2.013   3.946   0.105 -0.5573 -1.7358 -0.5626
 2174SOL     OW18157   2.215   1.370   3.552  0.0748 -0.2784  0.6675
 2174SOL    HW118158   2.299   1.413   3.565  0.7483 -1.2617 -0.3956
 2174SOL    HW218159   2.242   1.291   3.505 -0.3620  0.0815 -0.1873
 2175SOL     OW18160   1.433   3.355  16.235  0.6407 -0.0590 -0.0706
 2175SOL    HW118161   1.506   3.403  16.197  1.0393  1.1641  2.2146
 2175SOL    HW218162   1.401   3.305  16.161  0.3786  1.8975 -1.2887
 2176SOL     OW18163   3.958   3.640   5.463 -0.0378  0.2989  0.1619
 2176SOL    HW118164   4.010   3.663   5.386  0.5626 -2.8515 -0.3495
 2176SOL    HW218165   3.969   3.545   5.464 -0.4237  0.2403 -0.9677
 2177SOL     OW18166   4.402   0.099   1.449  0.2270 -0.0034  0.5431
 2177SOL    HW118167   4.448   0.149   1.382  0.6575 -0.2854  0.6335
 2177SOL    HW218168   4.444   0.015   1.437 -0.3313 -0.0429 -1.0684
 2178SOL     OW18169   4.703   3.056  15.633 -0.2922  0.6395  0.9411
 2178SOL    HW118170   4.655   2.998  15.692 -2.2169 -0.3838 -1.6415
 2178SOL    HW218171   4.680   3.015  15.549 -1.5268 -0.9771  2.0733
 2179SOL     OW18172   3.939   2.168   8.036  0.3678 -0.1545  0.2058
 2179SOL    HW118173   3.941   2.256   7.998  2.1223  0.8381  2.5864
 2179SOL    HW218174   4.005   2.195   8.099  1.8092 -0.3369 -1.2124
 2180SOL     OW18175   1.642   4.116   1.635 -0.4641  0.0573 -0.3152
 2180SOL    HW118176   1.701   4.046   1.665 -2.3868 -1.3005  0.2612
 2180SOL    HW218177   1.595   4.130   1.717 -3.1906 -2.6436 -1.4504
 2181SOL     OW18178   3.872   3.102  14.788 -0.4793  0.1024 -0.0276
 2181SOL    HW118179   3.920   3.179  14.759  2.5210 -1.8285 -0.2270
 2181SOL    HW218180   3.803   3.154  14.828 -0.1150 -0.3795  1.2299
 2182SOL     OW18181   0.567   3.580   5.655  0.2208 -0.5141  0.2819
 2182SOL    HW118182   0.562   3.515   5.725  0.4669 -1.7626 -0.8487
 2182SOL    HW218183   0.575   3.529   5.574 -2.2972  0.8782 -0.8686
 2183SOL     OW18184   0.478   2.511  17.204  0.4407  0.5018  0.3769
 2183SOL    HW118185   0.560   2.561  17.199  0.9815 -0.2897  1.3181
 2183SOL    HW218186   0.476   2.484  17.296 -1.2431  0.1341  0.2265
 2184SOL     OW18187   4.638   3.977  10.142  0.2536  0.7488  0.1170
 2184SOL    HW118188   4.668   3.968  10.232  2.0732  1.0378 -0.4422
 2184SOL    HW218189   4.555   4.024  10.150 -1.0841 -1.4226 -1.0008
 2185SOL     OW18190   1.024   0.296  12.512  0.0111  0.1607 -0.7529
 2185SOL    HW118191   1.111   0.335  12.516 -0.7071  1.7090 -0.3784
 2185SOL    HW218192   1.028   0.244  12.432 -0.1428  0.3430 -0.8776
 2186SOL     OW18193   2.880   2.885  15.280 -0.1988 -0.5137  0.0684
 2186SOL    HW118194   2.846   2.972  15.303  0.6326  0.5952 -2.8514
 2186SOL    HW218195   2.865   2.854  15.369  0.9930 -0.9145  0.1250
 2187SOL     OW18196   3.650   0.904   5.915  0.7236 -0.1223  0.0308
 2187SOL    HW118197   3.685   0.978   5.965 -0.3190 -0.2428  0.9360
 2187SOL    HW218198   3.566   0.897   5.960  1.5665  2.8789  2.0707
 2188SOL     OW18199   4.575   0.010  14.413  0.2172 -0.2096  0.5311
 2188SOL    HW118200   4.576   4.682  14.482  0.1359 -0.1386  0.6008
 2188SOL    HW218201   4.480   0.024  14.407  0.5162  1.0866 -1.0768
 2189SOL     OW18202   1.599   2.656  10.682 -0.6158 -0.3529 -0.5353
 2189SOL    HW118203   1.582   2.750  10.691  0.3753 -0.0040 -2.3862
 2189SOL    HW218204   1.540   2.618  10.747  0.2450  0.3512  0.6626
 2190SOL     OW18205   0.055   0.746   4.274  0.4911  0.2832  0.7327
 2190SOL    HW118206   4.737   0.734   4.350 -0.2057 -1.0971 -0.0021
 2190SOL    HW218207   0.117   0.674   4.288  0.2094 -0.2132 -0.5409
 2191SOL     OW18208   0.683   0.061  12.826  0.2265  0.0557  0.1445
 2191SOL    HW118209   0.734   0.087  12.748 -0.8352  1.8697  0.0578
 2191SOL    HW218210   0.753   0.067  12.891  1.1862 -0.2212 -0.8593
 2192SOL     OW18211   2.091   4.177   4.898 -0.2793 -0.1528  0.6016
 2192SOL    HW118212   2.019   4.240   4.892  0.6893  0.6519 -2.6424
 2192SOL    HW218213   2.156   4.240   4.928 -1.6685  1.1183  0.9589
 2193SOL     OW18214   1.491   0.019  11.720  0.2905  0.2514  0.3318
 2193SOL    HW118215   1.483   0.013  11.624 -0.7587  0.1519  0.4264
 2193SOL    HW218216   1.406   0.061  11.733  0.4415  1.2865 -1.8984
 2194SOL     OW18217   0.872   4.082  10.949 -0.0406 -0.2718  0.3025
 2194SOL    HW118218   0.934   4.009  10.949 -1.1700 -1.2332 -0.1410
 2194SOL    HW218219   0.922   4.161  10.925  0.2552 -0.1390  1.3737
 2195SOL     OW18220   4.383   0.506   9.276  0.0545 -0.1141 -0.5754
 2195SOL    HW118221   4.373   0.569   9.204 -0.0129  2.5492  1.8002
 2195SOL    HW218222   4.472   0.485   9.248  0.3086 -1.8655  1.5980
 2196SOL     OW18223   3.125   2.245  11.032  0.2550 -0.3712 -0.0736
 2196SOL    HW118224   3.163   2.231  11.118  0.8447  0.4130 -0.2148
 2196SOL    HW218225   3.195   2.218  10.974  1.3286  0.2245  0.9534
 2197SOL     OW18226   4.537   0.995   2.090  0.3548 -0.2943 -0.2186
 2197SOL    HW118227   4.606   1.013   2.026 -0.9087  0.5884 -1.3037
 2197SOL    HW218228   4.465   0.994   2.028  0.8841  0.8515 -0.8464
 2198SOL     OW18229   2.073   0.360   7.482 -0.0048  0.0398 -0.5140
 2198SOL    HW118230   2.167   0.356   7.503  0.2184 -1.3229 -1.7864
 2198SOL    HW218231   2.078   0.308   7.402 -0.5025 -1.3000  0.3237
 2199SOL     OW18232   0.464   0.948   2.565 -0.0538  0.2310  0.4888
 2199SOL    HW118233   0.402   0.967   2.635 -0.0958  0.5209  0.3728
 2199SOL    HW218234   0.450   0.854   2.573  1.0040  0.0192 -0.1522
 2200SOL     OW18235   2.716   3.825  10.428  0.3880 -0.4311 -0.1450
 2200SOL    HW118236   2.621   3.817  10.432  0.4019 -1.8158 -2.2141
 2200SOL    HW218237   2.721   3.829  10.523  0.0884 -2.2317 -0.0511
 2201SOL     OW18238   3.513   0.612   3.243 -0.0350 -0.9406 -0.2720
 2201SOL    HW118239   3.436   0.588   3.294 -0.4047  1.5136  0.3384
 2201SOL    HW218240   3.501   0.703   3.213 -0.4617 -0.4803  1.2808
 2202SOL     OW18241   4.158   3.318   7.079 -0.5430 -0.0255 -0.1296
 2202SOL    HW118242   4.159   3.338   6.986  0.6399  2.2429  0.3707
 2202SOL    HW218243   4.250   3.308   7.102  0.0616  1.0353 -2.1220
 2203SOL     OW18244   2.717   1.300   8.252  0.6095  0.5411 -0.1426
 2203SOL    HW118245   2.732   1.335   8.340 -0.4506 -0.3094  0.3749
 2203SOL    HW218246   2.767   1.218   8.258 -0.4349 -0.1948 -1.6150
 2204SOL     OW18247   4.645   1.732   7.155 -0.1953 -0.0441  0.1956
 2204SOL    HW118248   4.693   1.759   7.077 -0.9367  1.4262  0.2350
 2204SOL    HW218249   4.713   1.706   7.217 -1.4307 -2.3633  0.6208
 2205SOL     OW18250   2.569   1.610   0.098 -0.3791 -0.1938 -0.2924
 2205SOL    HW118251   2.620   1.689   0.116 -0.0102  0.1790 -2.8986
 2205SOL    HW218252   2.507   1.629   0.168 -1.2473 -2.7295 -0.3961
 2206SOL     OW18253   1.316   3.074  10.992 -0.4546  0.2743  0.3056
 2206SOL    HW118254   1.226   3.106  10.984 -0.6788 -0.6705 -0.9557
 2206SOL    HW218255   1.330   3.047  10.901  2.4913  2.2809  0.1507
 2207SOL     OW18256   2.021   2.673   1.359  0.1110  0.3025 -0.3850
 2207SOL    HW118257   2.083   2.737   1.324  1.3529 -1.2225 -0.9620
 2207SOL    HW218258   1.942   2.714   1.324  0.2719 -0.7113 -1.9393
 2208SOL     OW18259   4.649   4.192   6.624 -0.3376 -0.1109 -0.0733
 2208SOL    HW118260   4.638   4.233   6.538  2.1568  0.8392  0.0553
 2208SOL    HW218261   0.004   4.209   6.641 -0.3401  1.5017 -1.6619
 2209SOL     OW18262   3.305   1.414   4.534 -0.3568  0.0071 -0.7307
 2209SOL    HW118263   3.336   1.323   4.537  0.3284  0.3438  1.8473
 2209SOL    HW218264   3.387   1.449   4.500  0.1268 -1.1178 -0.7078
 2210SOL     OW18265   1.812   0.679  10.940  0.1269 -0.7426  0.2942
 2210SOL    HW118266   1.906   0.672  10.921  0.5219  2.5421  1.0015
 2210SOL    HW218267   1.784   0.592  10.968  1.3015 -1.0969  0.3766
 2211SOL     OW18268   1.383   1.997  10.871 -0.3348  0.2744 -0.1668
 2211SOL    HW118269   1.373   1.990  10.966 -0.6798 -0.8512 -0.2781
 2211SOL    HW218270   1.467   2.042  10.865 -0.2667  0.3928  1.6025
 2212SOL     OW18271   0.443   2.488   6.729 -0.0088 -0.4144 -0.4689
 2212SOL    HW118272   0.530   2.529   6.731 -0.7801  1.2238  0.0836
 2212SOL    HW218273   0.387   2.564   6.749 -0.2411 -0.2159 -1.9071
 2213SOL     OW18274   4.075   1.784   5.393 -0.5229 -0.6169  0.4324
 2213SOL    HW118275   4.011   1.790   5.464 -1.7699 -0.1855 -0.7149
 2213SOL    HW218276   4.120   1.868   5.386  0.5372 -1.2054  0.2160
 2214SOL     OW18277   0.895   3.318   6.597 -0.0663  0.2830  0.2041
 2214SOL    HW118278   0.921   3.409   6.615 -2.3693  1.0041 -0.0605
 2214SOL    HW218279   0.941   3.299   6.516  2.9468 -0.0601  1.9714
 2215SOL     OW18280   0.674   1.935   5.965 -0.2234  0.5144 -0.3316
 2215SOL    HW118281   0.651   1.856   6.015 -1.0843  0.9003 -0.1111
 2215SOL    HW218282   0.744   1.898   5.911  0.4346  0.4848  0.5404
 2216SOL     OW18283   0.061   2.481  15.195  0.2548 -0.1174  0.0011
 2216SOL    HW118284   0.007   2.471  15.117  0.5340  0.8544 -0.3249
 2216SOL    HW218285   0.151   2.486  15.161  0.4913 -0.1817  0.6075
 2217SOL     OW18286   2.779   1.414  10.262  0.6799 -0.5941 -0.2287
 2217SOL    HW118287   2.865   1.378  10.241  0.8416 -0.9887  1.0947
 2217SOL    HW218288   2.789   1.437  10.355 -2.9918 -0.9599  0.2377
 2218SOL     OW18289   1.736   2.834   7.644 -0.0569  0.0666  0.0841
 2218SOL    HW118290   1.727   2.792   7.729  1.8905 -0.1584  0.1797
 2218SOL    HW218291   1.693   2.918   7.660 -1.0534 -0.2458 -1.0056
 2219SOL     OW18292   0.210   3.574   7.500  0.1835 -0.0275  0.1876
 2219SOL    HW118293   0.164   3.608   7.577  2.7431 -0.6772  1.9797
 2219SOL    HW218294   0.138   3.549   7.442  1.6260  1.0571 -2.0733
 2220SOL     OW18295   1.309   4.656   8.034 -0.1616  0.7552  0.6363
 2220SOL    HW118296   1.309   4.595   7.960 -0.6055  0.1132  1.1665
 2220SOL    HW218297   1.385   4.710   8.013  0.2353 -1.1155 -2.7103
 2221SOL     OW18298   1.295   0.523   7.875 -0.1352 -0.3326  0.4032
 2221SOL    HW118299   1.221   0.554   7.822 -1.2129 -3.5521  0.0514
 2221SOL    HW218300   1.367   0.571   7.834 -1.0499  1.2412  0.6509
 2222SOL     OW18301   4.209   4.119  16.195  0.1813  0.2142 -0.2867
 2222SOL    HW118302   4.295   4.101  16.157  0.0355 -1.0101 -0.0311
 2222SOL    HW218303   4.226   4.064  16.271  1.2048 -1.3020 -1.6174
 2223SOL     OW18304   0.973   1.422   4.941 -0.4968 -0.5439  0.0188
 2223SOL    HW118305   0.991   1.328   4.946  0.8151 -0.3491 -0.8552
 2223SOL    HW218306   0.900   1.440   5.000  0.3898 -1.4452  1.3910
 2224SOL     OW18307   2.577   3.080   9.993  0.6568 -0.3699  0.4377
 2224SOL    HW118308   2.663   3.120   9.984 -0.9182  2.5970 -1.3287
 2224SOL    HW218309   2.528   3.161   9.980  1.3470 -0.2181 -1.1960
 2225SOL     OW18310   4.520   1.435   2.737 -0.0087  0.0516 -0.3570
 2225SOL    HW118311   4.451   1.486   2.695 -0.7939 -0.2662  0.5297
 2225SOL    HW218312   4.483   1.443   2.825 -0.6787 -2.2183 -0.4204
 2226SOL     OW18313   2.113   0.585   6.415 -0.2836  0.5636 -0.6567
 2226SOL    HW118314   2.068   0.665   6.443  0.2746  0.6084  0.1082
 2226SOL    HW218315   2.136   0.554   6.503 -0.8241 -0.5033 -0.8920
 2227SOL     OW18316   2.155   0.450   6.667 -0.0407  0.3975 -0.0573
 2227SOL    HW118317   2.236   0.400   6.675 -1.3567 -1.9537 -1.4416
 2227SOL    HW218318   2.103   0.401   6.731 -2.4689  1.4893 -1.2125
 2228SOL     OW18319   1.975   1.226   6.782  0.4754  0.8544 -0.1133
 2228SOL    HW118320   2.063   1.219   6.743  0.4483 -1.7822  0.2497
 2228SOL    HW218321   1.991   1.287   6.853  3.0825  2.0535 -1.7328
 2229SOL     OW18322   0.766   3.776   7.104  0.4942  0.7084 -0.0230
 2229SOL    HW118323   0.829   3.840   7.136  0.1700  2.1825 -2.2883
 2229SOL    HW218324   0.762   3.708   7.171  2.0984 -2.7727 -3.4394
 2230SOL     OW18325   1.489   1.373   1.145  0.1375  0.0274  0.3033
 2230SOL    HW118326   1.560   1.326   1.102 -1.0437 -2.2592  0.8547
 2230SOL    HW218327   1.514   1.458   1.110 -0.7175 -0.1223 -0.6644
 2231SOL     OW18328   3.222   1.616  13.024  0.6077  0.2371 -0.7101
 2231SOL    HW118329   3.187   1.548  13.082  0.4735 -0.1024 -1.1898
 2231SOL    HW218330   3.141   1.639  12.978  0.5090 -1.5906 -1.4393
 2232SOL     OW18331   4.163   0.019   3.143  0.0093 -0.0014 -0.2906
 2232SOL    HW118332   4.184   4.716   3.059  2.2886 -0.9355  0.7392
 2232SOL    HW218333   4.117   0.103   3.134  0.1851 -0.0182 -1.3386
 2233SOL     OW18334   2.583   2.364   7.443 -0.2729  0.1748 -0.3948
 2233SOL    HW118335   2.517   2.392   7.506 -1.5023  2.3926 -2.6421
 2233SOL    HW218336   2.601   2.450   7.405  1.4298 -0.5275 -1.1492
 2234SOL     OW18337   3.039   3.423   0.401 -0.7458  0.1116 -0.6635
 2234SOL    HW118338   3.033   3.508   0.446 -0.0466 -1.0449  1.6119
 2234SOL    HW218339   3.041   3.353   0.466 -0.9163  0.2147 -0.5457
 2235SOL     OW18340   0.830   1.103   1.854  0.3743  0.1271  0.4970
 2235SOL    HW118341   0.911   1.125   1.809  1.7124  0.4913  3.1149
 2235SOL    HW218342   0.774   1.109   1.776  2.7868 -0.5705 -1.3136
 2236SOL     OW18343   1.882   0.087   8.130 -0.3601 -0.0492 -0.2503
 2236SOL    HW118344   1.844   0.126   8.051  3.7813 -0.6721 -2.5674
 2236SOL    HW218345   1.902   0.169   8.175 -1.7427 -0.5241  1.2366
 2237SOL     OW18346   3.813   1.063   5.097 -0.3291  0.2437 -0.1712
 2237SOL    HW118347   3.823   0.998   5.167 -0.3815  1.0477  0.5856
 2237SOL    HW218348   3.829   1.144   5.145 -2.2270  0.9721 -0.7955
 2238SOL     OW18349   4.297   1.819  11.670 -0.4075  0.0691 -0.0912
 2238SOL    HW118350   4.344   1.823  11.753 -0.6447  3.2780 -0.1454
 2238SOL    HW218351   4.363   1.779  11.613 -2.9777 -1.2761 -2.1837
 2239SOL     OW18352   3.776   1.967   8.842 -0.1889 -0.8438 -0.5263
 2239SOL    HW118353   3.854   2.021   8.843 -0.6394 -0.2366  2.0759
 2239SOL    HW218354   3.728   1.990   8.762 -0.6306 -0.9686 -0.2988
 2240SOL     OW18355   0.863   1.048   3.662 -0.4304  0.5240  0.2925
 2240SOL    HW118356   0.882   1.141   3.674  1.4797  0.0258  1.1708
 2240SOL    HW218357   0.818   1.011   3.738  0.4201 -1.9643 -0.4113
 2241SOL     OW18358   4.002   0.461   5.981  0.6089  0.8463  0.0166
 2241SOL    HW118359   4.028   0.553   5.972 -0.8373  1.2132 -0.3823
 2241SOL    HW218360   4.072   0.437   5.921  2.3883  0.6232  2.1595
 2242SOL     OW18361   3.721   0.713   6.428  0.7810  0.0785 -0.1725
 2242SOL    HW118362   3.728   0.617   6.431 -0.5489 -0.0947 -2.7837
 2242SOL    HW218363   3.652   0.726   6.493 -0.4323  0.4359 -1.5252
 2243SOL     OW18364   1.655   0.869   2.702  0.0218 -0.1354 -0.0089
 2243SOL    HW118365   1.653   0.962   2.724 -1.2190 -0.0765 -0.3887
 2243SOL    HW218366   1.649   0.877   2.607 -0.6111 -0.5760 -0.0042
 2244SOL     OW18367   2.263   3.263   8.597 -0.1663  0.5755  0.0508
 2244SOL    HW118368   2.217   3.346   8.586 -0.5200  0.1554 -1.6314
 2244SOL    HW218369   2.307   3.252   8.512 -3.3715 -0.4967 -1.4695
 2245SOL     OW18370   0.988   0.219   7.680 -0.2868 -0.0235 -0.3379
 2245SOL    HW118371   1.007   0.171   7.761 -1.0304  0.0121 -0.1355
 2245SOL    HW218372   0.953   0.303   7.710 -1.7551 -0.9625  0.6033
 2246SOL     OW18373   4.075   4.015  13.799  0.7374  0.0360 -0.2515
 2246SOL    HW118374   4.091   4.007  13.705 -1.1342 -0.9727 -0.4715
 2246SOL    HW218375   3.980   4.010  13.810  0.7325  0.1443 -0.2449
 2247SOL     OW18376   2.057   3.168  12.928  0.2758 -0.3811 -0.0674
 2247SOL    HW118377   2.141   3.127  12.908  1.4346  2.1599 -0.3732
 2247SOL    HW218378   2.047   3.221  12.850  0.8193  0.6312  0.5483
 2248SOL     OW18379   2.087   2.428   3.283 -0.2434  0.2156  0.1261
 2248SOL    HW118380   2.156   2.485   3.248 -0.6232  0.6518  0.0837
 2248SOL    HW218381   2.103   2.352   3.227  0.5844 -0.4041  1.2251
 2249SOL     OW18382   3.931   4.259   5.606 -0.6702 -0.4171  0.1676
 2249SOL    HW118383   4.021   4.239   5.633 -0.2552  1.8506  0.4886
 2249SOL    HW218384   3.917   4.181   5.553  0.8095 -1.2300  0.9720
 2250SOL     OW18385   1.305   2.853   7.867 -0.1897 -0.7768  0.4127
 2250SOL    HW118386   1.385   2.904   7.882 -1.9426  1.7788  1.1310
 2250SOL    HW218387   1.270   2.866   7.955 -0.3439 -0.4499  0.3040
 2251SOL     OW18388   3.390   1.138   4.494  0.2169 -0.3029 -0.3131
 2251SOL    HW118389   3.312   1.096   4.458 -1.2696  2.3361 -0.2009
 2251SOL    HW218390   3.459   1.077   4.467  0.0359 -0.6642  0.0385
 2252SOL     OW18391   3.716   2.683   4.653  0.4132 -0.2592 -0.0158
 2252SOL    HW118392   3.733   2.723   4.568  2.2151 -1.7695 -0.3420
 2252SOL    HW218393   3.765   2.744   4.709 -1.3095 -0.8710  2.1795
 2253SOL     OW18394   3.635   4.695   8.859 -0.2659 -0.2252 -0.1161
 2253SOL    HW118395   3.675   4.614   8.826  0.1841 -0.4040  0.8767
 2253SOL    HW218396   3.541   4.684   8.843 -0.6191 -0.7400  2.3427
 2254SOL     OW18397   3.339   2.182  16.861 -0.0160 -0.0561  0.0240
 2254SOL    HW118398   3.316   2.164  16.770  1.1277  0.5747 -0.3962
 2254SOL    HW218399   3.305   2.271  16.857  0.2073 -0.0587 -1.6748
 2255SOL     OW18400   1.922   3.445   9.080  0.2988  0.0897 -0.7961
 2255SOL    HW118401   1.871   3.520   9.110  0.8843 -0.8435  2.5299
 2255SOL    HW218402   1.971   3.432   9.161 -3.5709 -0.6538  1.4252
 2256SOL     OW18403   0.671   1.857   5.563  0.5005  0.7625  0.8151
 2256SOL    HW118404   0.758   1.847   5.525  1.3459  1.0825  2.6821
 2256SOL    HW218405   0.649   1.769   5.593  0.3529  0.2381 -0.8348
 2257SOL     OW18406   0.210   4.730   2.673  0.7747  0.2677 -0.3079
 2257SOL    HW118407   0.300   4.706   2.653  0.8699 -1.3274  2.0848
 2257SOL    HW218408   0.209   4.706   2.766  5.7214  0.2419 -0.2671
 2258SOL     OW18409   1.928   1.162   7.871  0.1526  0.7162 -0.3059
 2258SOL    HW118410   1.841   1.123   7.864  0.6991 -0.6636  0.7379
 2258SOL    HW218411   1.897   1.253   7.870 -2.1476 -0.0528  2.0291
 2259SOL     OW18412   3.027   1.383  12.812  0.0417 -0.7231 -0.5261
 2259SOL    HW118413   2.935   1.395  12.788  0.0794 -0.8529 -0.7339
 2259SOL    HW218414   3.040   1.472  12.845  2.7321 -1.3749  0.1302
 2260SOL     OW18415   1.410   0.709   3.725  0.2485  0.2697 -0.6611
 2260SOL    HW118416   1.343   0.751   3.672 -0.0868  1.0392  0.3673
 2260SOL    HW218417   1.482   0.766   3.702  0.7616 -1.4553 -3.2831
 2261SOL     OW18418   0.545   1.728   7.728 -0.0846 -0.3532  0.0018
 2261SOL    HW118419   0.523   1.709   7.637  1.6150  1.2461 -0.7410
 2261SOL    HW218420   0.469   1.776   7.760  0.2420  0.2210 -0.0893
 2262SOL     OW18421   0.985   2.356  10.364 -0.3600 -0.6639  0.3848
 2262SOL    HW118422   0.969   2.345  10.270 -0.2004  0.1314  0.2596
 2262SOL    HW218423   1.007   2.266  10.388 -0.8969 -0.2554  2.4092
 2263SOL     OW18424   2.580   1.847  17.138  0.7178 -0.5738  0.0728
 2263SOL    HW118425   2.650   1.816  17.081  1.5336  0.5550  0.4741
 2263SOL    HW218426   2.525   1.889  17.072  1.3114  1.2859  0.7609
 2264SOL     OW18427   0.365   2.014   7.963  0.2794 -0.2043 -0.4211
 2264SOL    HW118428   0.332   2.053   7.882 -0.7359 -1.3996 -0.5760
 2264SOL    HW218429   0.356   2.087   8.024  1.6279  0.5021 -1.0675
 2265SOL     OW18430   3.922   0.434   6.326 -0.1266  0.2005  0.3602
 2265SOL    HW118431   3.904   0.348   6.288 -0.4939  0.4685 -0.0728
 2265SOL    HW218432   4.000   0.457   6.275  0.5495 -1.1396  0.7882
 2266SOL     OW18433   0.462   0.117   6.855  0.2407  0.0372 -0.1233
 2266SOL    HW118434   0.508   0.060   6.916  1.4471  0.1969 -0.8932
 2266SOL    HW218435   0.485   0.205   6.886 -1.8848  0.7028 -0.3995
 2267SOL     OW18436   3.202   2.715   3.322 -0.3676  0.6735  0.8898
 2267SOL    HW118437   3.127   2.662   3.350  0.2498  0.4403  2.1198
 2267SOL    HW218438   3.235   2.648   3.262 -0.7306 -0.2967  1.7690
 2268SOL     OW18439   3.080   1.338   3.775 -0.2361  0.4171  0.0542
 2268SOL    HW118440   3.116   1.332   3.863 -1.2503 -0.1123  0.4285
 2268SOL    HW218441   3.052   1.430   3.771  0.5627  0.7295  1.5841
 2269SOL     OW18442   4.019   1.547  12.278  0.6745 -0.0725 -0.4198
 2269SOL    HW118443   4.034   1.593  12.196  1.7602 -2.0786 -1.3507
 2269SOL    HW218444   3.981   1.620  12.327  1.3601  0.2787 -0.4067
 2270SOL     OW18445   0.002   2.379   4.465  0.0267 -0.6211  0.2933
 2270SOL    HW118446   4.730   2.397   4.372  1.0807  1.2022  0.5238
 2270SOL    HW218447   4.724   2.285   4.456 -1.2657 -0.5711  2.1816
 2271SOL     OW18448   2.190   1.366   4.412 -0.4738 -0.5845  0.0274
 2271SOL    HW118449   2.265   1.326   4.457 -0.0587 -1.0098 -1.0371
 2271SOL    HW218450   2.128   1.359   4.484 -0.7825 -0.0346 -0.1888
 2272SOL     OW18451   4.331   2.339  17.182 -0.4186  0.6562  0.5686
 2272SOL    HW118452   4.244   2.311  17.210  0.2129 -1.2053  0.6841
 2272SOL    HW218453   4.345   2.427  17.217  2.3338 -0.0742  1.3560
 2273SOL     OW18454   2.398   3.941   6.510 -0.3800  0.2753  0.1471
 2273SOL    HW118455   2.387   3.955   6.416  2.3729 -2.3464 -0.5471
 2273SOL    HW218456   2.310   3.922   6.545 -0.0209  0.1396  0.9710
 2274SOL     OW18457   3.480   1.681   8.441 -0.2706  0.1906 -0.2808
 2274SOL    HW118458   3.449   1.698   8.530 -1.7252  0.4314 -0.8322
 2274SOL    HW218459   3.566   1.643   8.459 -0.5705 -0.4995 -0.3015
 2275SOL     OW18460   0.387   3.168  15.364 -0.5003  0.0748  0.2364
 2275SOL    HW118461   0.312   3.208  15.409  1.4788  1.6571  2.1618
 2275SOL    HW218462   0.358   3.198  15.278 -1.2125 -0.0683  0.4284
 2276SOL     OW18463   2.199   4.563  10.603 -0.1761  0.1726 -0.4966
 2276SOL    HW118464   2.183   4.560  10.698  1.5926 -0.0497 -0.2020
 2276SOL    HW218465   2.179   4.653  10.577 -0.6201 -0.0490 -0.9108
 2277SOL     OW18466   4.718   2.753   7.823  0.7135  0.4149 -0.0013
 2277SOL    HW118467   4.673   2.813   7.883  0.9493  0.9236 -0.3293
 2277SOL    HW218468   0.051   2.725   7.881 -0.5926 -1.2926  0.7776
 2278SOL     OW18469   0.271   0.129   7.997  0.1718 -1.0754 -0.5118
 2278SOL    HW118470   0.280   0.043   7.956  1.0715 -1.8946  1.3636
 2278SOL    HW218471   0.196   0.120   8.056  0.7280  0.1111  0.3833
 2279SOL     OW18472   0.107   1.272   0.434 -0.1725 -0.2406  0.1642
 2279SOL    HW118473   0.012   1.263   0.426  0.0254 -0.6270 -1.7276
 2279SOL    HW218474   0.136   1.188   0.398  0.5510  0.3413 -0.6061
 2280SOL     OW18475   3.554   1.705   3.761  0.0864  0.0428  0.5133
 2280SOL    HW118476   3.524   1.755   3.837 -0.2113 -0.4092  0.6917
 2280SOL    HW218477   3.556   1.754   3.679  2.0366  0.0644  0.5840
 2281SOL     OW18478   3.506   0.250   0.800  0.1765  0.1051  0.1150
 2281SOL    HW118479   3.411   0.251   0.813  0.1705 -0.9313  0.1485
 2281SOL    HW218480   3.513   0.267   0.706 -0.7733 -0.1526 -0.0030
 2282SOL     OW18481   3.451   0.022   7.479  0.2118  0.4694  0.2538
 2282SOL    HW118482   3.520   4.694   7.476  0.0790  0.3149  0.6645
 2282SOL    HW218483   3.495   0.097   7.440 -2.1555  1.8863  0.2618
 2283SOL     OW18484   2.684   4.482   1.261  0.3032  0.0115 -0.0309
 2283SOL    HW118485   2.736   4.534   1.200  1.7331 -1.8122 -0.3517
 2283SOL    HW218486   2.598   4.475   1.220  0.0263  4.8406 -0.2393
 2284SOL     OW18487   1.499   3.386   6.376  0.3369  0.1198 -0.3651
 2284SOL    HW118488   1.474   3.445   6.447 -1.5395 -0.3779 -0.6229
 2284SOL    HW218489   1.589   3.414   6.359  0.8880 -1.7136 -0.4515
 2285SOL     OW18490   2.569   2.187   3.801 -0.2027  0.0032  0.0744
 2285SOL    HW118491   2.615   2.180   3.717 -0.8887  0.2755 -0.3231
 2285SOL    HW218492   2.496   2.248   3.797  0.8146  1.3523  1.8786
 2286SOL     OW18493   1.007   0.855   0.598  0.5561  0.1779  0.7651
 2286SOL    HW118494   0.961   0.807   0.667 -0.7664 -0.2807 -0.4443
 2286SOL    HW218495   1.054   0.777   0.569  1.2936  0.7556  0.3746
 2287SOL     OW18496   3.856   0.648   8.481  0.8273 -0.3438 -0.3307
 2287SOL    HW118497   3.915   0.716   8.514  0.5840 -1.0173  1.5006
 2287SOL    HW218498   3.817   0.692   8.406 -1.4141 -0.5311  0.7249
 2288SOL     OW18499   4.204   1.526  10.462  0.7791  0.7578 -0.1504
 2288SOL    HW118500   4.171   1.609  10.427 -0.5661  0.1523 -0.2805
 2288SOL    HW218501   4.213   1.468  10.387 -2.2195 -0.1898  0.2255
 2289SOL     OW18502   2.289   4.373   8.498 -0.1776 -0.2210 -0.1520
 2289SOL    HW118503   2.259   4.457   8.465 -0.4258 -0.5520 -0.7679
 2289SOL    HW218504   2.291   4.398   8.590 -1.7917  1.5922 -0.6086
 2290SOL     OW18505   2.254   2.602   5.490 -0.0848  0.3057 -0.2434
 2290SOL    HW118506   2.227   2.627   5.578  1.1485  0.9456 -0.0410
 2290SOL    HW218507   2.346   2.619   5.510 -0.1139  1.6049 -1.2366
 2291SOL     OW18508   2.687   4.378   6.643 -0.4810  0.0551  0.6755
 2291SOL    HW118509   2.630   4.406   6.715 -0.5786  1.5034  0.0401
 2291SOL    HW218510   2.647   4.299   6.606 -1.9764  2.1050 -2.0730
 2292SOL     OW18511   2.938   3.779   0.018 -0.0098 -0.0560 -0.0924
 2292SOL    HW118512   2.987   3.862   0.020 -0.6173  0.3288 -0.9862
 2292SOL    HW218513   3.005   3.719  17.736  0.8750 -0.0794  1.7238
 2293SOL     OW18514   0.668   4.260  17.348  0.3456  0.5586 -0.5132
 2293SOL    HW118515   0.678   4.319  17.273 -0.7700  1.3827 -0.0112
 2293SOL    HW218516   0.752   4.214  17.339 -0.8741 -1.6201 -0.7719
 2294SOL     OW18517   4.097   0.689   3.153 -0.3259 -0.5465  0.1962
 2294SOL    HW118518   4.104   0.633   3.231 -0.4290  0.6566  1.0714
 2294SOL    HW218519   4.006   0.717   3.150 -0.2070 -0.2285 -0.4486
 2295SOL     OW18520   1.567   3.671   5.648  0.4097 -0.0514 -0.2853
 2295SOL    HW118521   1.479   3.704   5.664  0.1717 -0.3981 -0.8587
 2295SOL    HW218522   1.594   3.657   5.738  1.2855 -1.3528 -0.7519
 2296SOL     OW18523   3.414   4.246   5.609 -0.3363 -0.6969  0.1620
 2296SOL    HW118524   3.497   4.208   5.578  0.5929  1.8159 -0.4691
 2296SOL    HW218525   3.354   4.172   5.611  0.1809 -1.0647  2.0369
 2297SOL     OW18526   3.927   0.402   9.249  0.1533 -0.2924 -0.6409
 2297SOL    HW118527   3.940   0.495   9.229  3.0227 -0.8367 -1.1594
 2297SOL    HW218528   3.841   0.381   9.212 -0.0688 -0.3500 -0.1051
 2298SOL     OW18529   3.132   2.094  10.393  0.2492  0.6365 -0.5302
 2298SOL    HW118530   3.140   2.068  10.301 -0.2984 -1.3769  0.0092
 2298SOL    HW218531   3.224   2.076  10.414  0.5607  1.9203 -0.7671
 2299SOL     OW18532   0.019   0.417   0.778  0.3612  0.2703  0.2355
 2299SOL    HW118533   0.078   0.422   0.854 -0.1034 -0.5295  0.6458
 2299SOL    HW218534   0.065   0.474   0.717  0.2864  0.3058  0.2124
 2300SOL     OW18535   3.273   0.981  10.599  0.0362  0.5786  0.2421
 2300SOL    HW118536   3.337   0.994  10.528 -0.4486  0.9014 -0.1414
 2300SOL    HW218537   3.297   0.901  10.645 -0.4262  0.3851  0.1544
 2301SOL     OW18538   4.145   4.306  12.535  0.0630 -0.2873  0.0794
 2301SOL    HW118539   4.108   4.220  12.517  1.7931 -0.6000 -1.9248
 2301SOL    HW218540   4.141   4.304  12.631  1.5899  0.7677  0.1658
 2302SOL     OW18541   0.081   4.345   1.773  0.5086  0.1332  0.6649
 2302SOL    HW118542   0.088   4.427   1.724  0.5195 -1.8538 -2.6181
 2302SOL    HW218543   0.123   4.357   1.858  1.1807  0.3623  0.2954
 2303SOL     OW18544   1.906   1.411   4.917 -0.2919  0.0939 -0.2740
 2303SOL    HW118545   1.962   1.471   4.966  0.1229 -0.7939  0.3454
 2303SOL    HW218546   1.897   1.330   4.967 -1.4744  0.4942  0.1596
 2304SOL     OW18547   0.300   4.354   5.255 -0.1266  0.5432  0.0406
 2304SOL    HW118548   0.343   4.439   5.266 -1.0990  0.8555  1.5973
 2304SOL    HW218549   0.256   4.356   5.170  3.4368 -1.5887 -1.8223
 2305SOL     OW18550   0.197   1.407   2.306 -0.1068  0.2275 -0.3991
 2305SOL    HW118551   0.218   1.316   2.282  2.1842  0.6170  0.1169
 2305SOL    HW218552   0.105   1.390   2.324  0.2255  0.1533  1.2944
 2306SOL     OW18553   1.792   0.632  14.883  0.2054  0.5133  0.5023
 2306SOL    HW118554   1.816   0.588  14.964 -2.1615 -1.7318 -0.0278
 2306SOL    HW218555   1.874   0.653  14.838 -0.9433  1.0849 -1.3441
 2307SOL     OW18556   0.239   3.627  10.590 -0.4754  0.8096  0.1460
 2307SOL    HW118557   0.184   3.647  10.514  1.2058  0.5527 -1.1324
 2307SOL    HW218558   0.200   3.539  10.598  2.1904 -0.3538  0.4518
 2308SOL     OW18559   1.367   2.960   8.906 -0.2826 -0.9313  0.1627
 2308SOL    HW118560   1.298   2.994   8.963 -0.6795 -1.3216 -0.0821
 2308SOL    HW218561   1.307   2.921   8.843  0.1693  0.0675 -0.8761
 2309SOL     OW18562   2.766   1.030  11.337  0.2286  0.4517 -0.6198
 2309SOL    HW118563   2.809   1.069  11.413 -1.7631  0.7100  0.4060
 2309SOL    HW218564   2.692   0.983  11.377 -1.6546  2.2509 -1.9448
 2310SOL     OW18565   1.450   0.056   2.101 -0.6256 -0.3050  0.3941
 2310SOL    HW118566   1.397   4.737   2.155 -3.9591  1.8688 -0.5548
 2310SOL    HW218567   1.524   0.072   2.160 -0.3828 -0.6411  0.1737
 2311SOL     OW18568   3.659   1.094   2.597 -0.3103 -0.4816 -0.5602
 2311SOL    HW118569   3.698   1.166   2.647  0.6869 -1.2760 -0.1897
 2311SOL    HW218570   3.589   1.073   2.659  0.5770  0.3508  0.7297
 2312SOL     OW18571   1.268   1.422  10.216  0.1266  0.0047  0.6739
 2312SOL    HW118572   1.235   1.444  10.304  1.0071 -2.5121  1.6323
 2312SOL    HW218573   1.282   1.329  10.233  2.5256  0.2553  0.0295
 2313SOL     OW18574   3.210   2.415  15.151  0.1104 -0.4137 -0.2027
 2313SOL    HW118575   3.301   2.388  15.143 -0.2667 -1.8473  0.2796
 2313SOL    HW218576   3.157   2.341  15.121  1.5616 -1.4057 -0.2936
 2314SOL     OW18577   1.044   4.459   3.059  0.1428 -0.2340  0.1465
 2314SOL    HW118578   1.129   4.461   3.016 -1.2973 -1.7084 -2.7524
 2314SOL    HW218579   0.996   4.526   3.010 -0.6580  1.3579  3.0659
 2315SOL     OW18580   4.556   3.853   1.269 -0.1906 -0.2161  0.0023
 2315SOL    HW118581   4.483   3.868   1.209 -0.3228  0.9598  0.4596
 2315SOL    HW218582   4.529   3.839   1.360 -0.3316 -1.0010 -0.1676
 2316SOL     OW18583   4.287   4.245   2.165  0.4638 -0.2157 -0.0825
 2316SOL    HW118584   4.379   4.238   2.189  1.5522  3.4954 -3.2151
 2316SOL    HW218585   4.276   4.339   2.150 -0.4380 -0.3162 -0.0555
 2317SOL     OW18586   1.902   0.408  14.583  0.5932  0.8722  0.1430
 2317SOL    HW118587   1.925   0.466  14.655 -0.5387 -0.7075  1.7679
 2317SOL    HW218588   1.818   0.377  14.615  0.9505 -0.7553 -0.4832
 2318SOL     OW18589   2.535   3.253   7.005  0.1888  0.1571  0.2197
 2318SOL    HW118590   2.625   3.269   7.030  0.5051  0.7785 -1.2829
 2318SOL    HW218591   2.556   3.241   6.912 -0.2940  0.3149  0.0887
 2319SOL     OW18592   1.648   3.900   5.922  0.0089 -0.1323  0.1879
 2319SOL    HW118593   1.707   3.897   5.997 -0.5770  2.9146  0.7297
 2319SOL    HW218594   1.643   3.806   5.903 -0.6380 -0.5919  2.6360
 2320SOL     OW18595   2.595   2.588   2.268 -0.3779  0.7054 -0.3838
 2320SOL    HW118596   2.677   2.552   2.302  0.5461  1.2423 -2.0079
 2320SOL    HW218597   2.609   2.620   2.179 -1.1187 -2.2710 -1.5680
 2321SOL     OW18598   1.625   1.140   2.717 -0.1334 -0.7404  1.1010
 2321SOL    HW118599   1.616   1.188   2.799  0.5815 -0.2765  0.9115
 2321SOL    HW218600   1.672   1.200   2.659  1.0726 -0.1718  2.6735
 2322SOL     OW18601   4.358   2.175   1.988 -0.6148  0.3195 -0.6928
 2322SOL    HW118602   4.293   2.127   1.938  0.0021  1.5377 -2.6772
 2322SOL    HW218603   4.352   2.141   2.077 -0.3554  1.3291 -0.2940
 2323SOL     OW18604   0.890   2.859   7.803  0.1723  0.0311  0.3937
 2323SOL    HW118605   0.808   2.904   7.781 -0.0610 -0.4187  0.3519
 2323SOL    HW218606   0.953   2.930   7.790  0.4171  0.0557  1.7358
 2324SOL     OW18607   1.854   3.584  10.196  0.1112  0.2322  0.5279
 2324SOL    HW118608   1.948   3.580  10.215  0.2063 -2.1445 -0.4488
 2324SOL    HW218609   1.847   3.638  10.118 -0.0483  0.9155  1.0143
 2325SOL     OW18610   2.904   0.883  11.116  0.0280 -0.4204 -0.3343
 2325SOL    HW118611   2.886   0.945  11.187  3.5486  0.3004 -0.0394
 2325SOL    HW218612   2.863   0.934  11.047  0.0438  1.0251  0.7371
 2326SOL     OW18613   1.200   0.875   7.424  0.1334  0.0249 -0.5415
 2326SOL    HW118614   1.140   0.831   7.363  0.1937 -0.2263 -0.4196
 2326SOL    HW218615   1.137   0.899   7.492  2.4604  1.4283  1.1042
 2327SOL     OW18616   3.932   4.348   0.464  0.0827 -0.0356  0.0363
 2327SOL    HW118617   4.013   4.375   0.506 -0.6020 -0.4221  1.5933
 2327SOL    HW218618   3.893   4.278   0.517  0.0402 -1.6113 -2.0629
 2328SOL     OW18619   3.965   2.381   6.045  0.1267  0.2187  0.2163
 2328SOL    HW118620   3.919   2.341   5.971 -0.4693  0.6448  0.3613
 2328SOL    HW218621   3.923   2.466   6.053  1.3497  1.0041 -1.7136
 2329SOL     OW18622   3.727   0.861  17.684 -1.0669  0.0687  0.0013
 2329SOL    HW118623   3.652   0.916  17.662 -1.2000 -0.5662 -1.1143
 2329SOL    HW218624   3.764   0.915   0.004  0.5994  0.5010 -1.2005
 2330SOL     OW18625   1.767   3.217   3.405 -0.5389  0.1664  0.6269
 2330SOL    HW118626   1.716   3.297   3.417 -1.0387 -0.3016  1.6536
 2330SOL    HW218627   1.749   3.200   3.313 -1.2311 -0.9630  0.9667
 2331SOL     OW18628   0.486   4.714   4.673 -0.3355  0.2843 -0.4384
 2331SOL    HW118629   0.466   0.049   4.615 -0.4167 -0.4826 -1.3639
 2331SOL    HW218630   0.505   0.029   4.751 -2.1716 -0.5570  0.5660
 2332SOL     OW18631   3.761   2.656   7.151 -0.9262  0.1332  0.1349
 2332SOL    HW118632   3.673   2.692   7.166  0.4548  2.6083  2.3138
 2332SOL    HW218633   3.807   2.720   7.098  0.6753 -3.6273 -2.9390
 2333SOL     OW18634   4.431   4.594   0.562  0.2706 -0.0339 -0.0785
 2333SOL    HW118635   4.397   4.524   0.618  0.8030 -0.1142  0.1455
 2333SOL    HW218636   4.357   4.619   0.506 -0.9923 -1.4000  0.9593
 2334SOL     OW18637   4.241   2.315   7.918 -0.0625 -0.5365 -0.1564
 2334SOL    HW118638   4.304   2.287   7.851 -1.4109 -0.4070 -1.5015
 2334SOL    HW218639   4.232   2.406   7.891 -1.2614 -0.8218 -0.7054
 2335SOL     OW18640   3.750   1.092   9.479  0.4376 -0.0937 -0.0736
 2335SOL    HW118641   3.697   1.162   9.518 -2.0466 -1.1625 -1.5513
 2335SOL    HW218642   3.730   1.023   9.542  0.5452 -0.9745 -1.0014
 2336SOL     OW18643   1.641   2.001  15.796 -1.4156 -0.6147 -0.7307
 2336SOL    HW118644   1.660   2.071  15.733 -3.5272 -1.6351 -2.4791
 2336SOL    HW218645   1.566   2.039  15.840 -0.3377  1.2591 -0.5052
 2337SOL     OW18646   3.629   4.513   6.322 -0.1102  0.0799  0.2954
 2337SOL    HW118647   3.697   4.462   6.366 -0.1954 -0.1022  0.2171
 2337SOL    HW218648   3.635   4.497   6.227  1.1266 -0.1776  0.4240
 2338SOL     OW18649   1.207   2.378   2.825 -0.0953 -0.0004  0.4245
 2338SOL    HW118650   1.252   2.362   2.908 -2.8687  0.1004  1.9238
 2338SOL    HW218651   1.169   2.290   2.816  0.5630 -0.4458  1.8491
 2339SOL     OW18652   4.183   4.392   0.587 -0.0480  0.0471  0.2655
 2339SOL    HW118653   4.203   4.299   0.577 -0.6158 -0.1481  0.9695
 2339SOL    HW218654   4.195   4.428   0.499 -0.7468 -0.8712 -0.2020
 2340SOL     OW18655   4.637   2.310   8.622  0.7012  0.2179  0.5587
 2340SOL    HW118656   4.692   2.357   8.560 -0.3879 -0.2119 -0.7261
 2340SOL    HW218657   4.547   2.325   8.593 -0.2701  0.3464  3.6830
 2341SOL     OW18658   2.553   4.327   7.561 -0.3965  0.3327  0.1919
 2341SOL    HW118659   2.522   4.283   7.482  0.9897  1.1685 -0.8266
 2341SOL    HW218660   2.638   4.366   7.543 -0.5767  1.7676  2.3798
 2342SOL     OW18661   3.485   0.674   9.050  0.2086 -0.0054  0.5084
 2342SOL    HW118662   3.398   0.678   9.089 -1.0058 -0.4523 -2.2182
 2342SOL    HW218663   3.473   0.720   8.968 -2.5177 -1.0707  0.2992
 2343SOL     OW18664   1.445   2.425   1.895 -0.5525 -0.1037  0.1537
 2343SOL    HW118665   1.526   2.386   1.927 -0.5110  0.1916  0.4080
 2343SOL    HW218666   1.405   2.353   1.847 -0.3333  0.4229 -0.8266
 2344SOL     OW18667   0.072   1.023   1.382  0.0103 -0.8543  0.1474
 2344SOL    HW118668   4.727   1.018   1.429 -0.2925  0.7454 -0.2066
 2344SOL    HW218669   0.129   1.033   1.458 -1.0694  2.5215  0.5247
 2345SOL     OW18670   1.193   2.436   4.583 -0.2405 -0.4559  0.4125
 2345SOL    HW118671   1.117   2.491   4.570  0.1874 -0.6071 -2.5954
 2345SOL    HW218672   1.154   2.349   4.592 -0.0364 -0.5647  0.2479
 2346SOL     OW18673   1.466   1.770   2.090  0.1481 -0.4905 -0.3116
 2346SOL    HW118674   1.461   1.681   2.055 -2.8392 -1.1490  1.8778
 2346SOL    HW218675   1.462   1.756   2.184  2.9539 -0.9264 -0.2589
 2347SOL     OW18676   4.039   1.725  10.346 -0.8094  0.2303  0.1821
 2347SOL    HW118677   4.065   1.796  10.405  0.6265 -0.7027  0.6554
 2347SOL    HW218678   4.045   1.766  10.260  1.7335  2.4513  1.4149
 2348SOL     OW18679   3.845   0.039   6.071  0.0139 -0.3123  0.2070
 2348SOL    HW118680   3.857   4.683   6.061  0.3010 -0.1666 -0.8771
 2348SOL    HW218681   3.860   0.052   6.165  1.4424 -0.1105 -0.0421
 2349SOL     OW18682   1.917   2.780   8.331 -0.2276  0.2613  0.4077
 2349SOL    HW118683   1.889   2.871   8.324  0.0060  0.0471 -3.5490
 2349SOL    HW218684   2.009   2.788   8.357 -0.0242 -0.2099 -0.1452
 2350SOL     OW18685   1.421   2.170   1.176  0.2906 -0.3083  0.2308
 2350SOL    HW118686   1.486   2.197   1.111  0.1835  1.0867  0.7061
 2350SOL    HW218687   1.464   2.113   1.240  2.4692  0.2970 -0.7172
 2351SOL     OW18688   1.032   0.737   8.119  0.6471  0.5179  0.3012
 2351SOL    HW118689   0.954   0.722   8.172 -1.1536 -0.6526 -2.6599
 2351SOL    HW218690   1.054   0.828   8.138 -0.2726  0.8436 -0.1868
 2352SOL     OW18691   1.699   1.775  14.027  0.1264  0.1589 -0.5485
 2352SOL    HW118692   1.683   1.683  14.008 -2.9945  1.0622 -2.2651
 2352SOL    HW218693   1.647   1.816  13.959 -2.2091  2.0691  2.3830
 2353SOL     OW18694   0.476   2.516   2.376 -0.1315  0.0846  0.4771
 2353SOL    HW118695   0.397   2.558   2.409 -1.0507 -0.4156 -1.0559
 2353SOL    HW218696   0.534   2.591   2.392  2.1323 -2.1989  2.8243
 2354SOL     OW18697   1.398   0.612   4.179  0.4382 -0.2559 -0.5243
 2354SOL    HW118698   1.469   0.575   4.128  2.8276  0.4319  2.3019
 2354SOL    HW218699   1.402   0.704   4.153  0.0699 -0.3090 -0.7722
 2355SOL     OW18700   0.745   4.544   8.556  0.0742 -0.3715  0.1461
 2355SOL    HW118701   0.695   4.541   8.474 -1.0110  1.5164  0.7385
 2355SOL    HW218702   0.827   4.518   8.514  0.7117 -0.2282  1.3130
 2356SOL     OW18703   0.909   2.006   6.647  0.4159 -0.2791  0.0317
 2356SOL    HW118704   0.858   1.938   6.603  2.1813 -2.4609  1.3778
 2356SOL    HW218705   0.973   1.951   6.691  0.5623  0.7126  1.0709
 2357SOL     OW18706   2.304   2.700  14.115 -0.0429  0.2677  0.2118
 2357SOL    HW118707   2.384   2.753  14.120  0.6862 -0.7681 -0.3537
 2357SOL    HW218708   2.232   2.759  14.136 -0.3203 -0.0181  0.0648
 2358SOL     OW18709   4.417   0.635  16.749  0.0290 -0.0849 -0.0628
 2358SOL    HW118710   4.460   0.647  16.664  0.8559  1.2675  0.5625
 2358SOL    HW218711   4.328   0.623  16.716  1.1191 -1.4329 -2.5328
 2359SOL     OW18712   4.726   4.461   3.286 -0.3999  0.6209  0.0734
 2359SOL    HW118713   4.714   4.393   3.352  1.0364 -0.5337 -0.8513
 2359SOL    HW218714   4.656   4.450   3.222 -0.4745  1.3829  0.0148
 2360SOL     OW18715   1.205   0.822  12.022  0.0758 -0.3719  0.3771
 2360SOL    HW118716   1.245   0.754  11.968 -1.9200 -1.7641  0.6360
 2360SOL    HW218717   1.227   0.791  12.109  0.5962 -1.4839 -0.1619
 2361SOL     OW18718   2.296   2.256  10.345 -0.0219  0.3536  0.1272
 2361SOL    HW118719   2.242   2.267  10.267 -0.0798  0.6654  0.2122
 2361SOL    HW218720   2.368   2.314  10.322  0.9715 -1.1245 -0.4731
 2362SOL     OW18721   2.620   1.834  17.626 -0.3822  0.4076 -0.1685
 2362SOL    HW118722   2.656   1.775  17.691 -1.4465  0.9938  0.9483
 2362SOL    HW218723   2.671   1.836  17.545  0.2348 -3.2237  0.1359
 2363SOL     OW18724   0.507   0.013   2.607 -0.6195 -0.1739 -0.4710
 2363SOL    HW118725   0.547   0.066   2.539  0.8448 -0.6709  0.0143
 2363SOL    HW218726   0.523   0.061   2.689 -0.0194 -0.7324 -0.2700
 2364SOL     OW18727   0.749   0.674   5.630 -0.4454  0.3787 -0.0909
 2364SOL    HW118728   0.766   0.580   5.642 -0.6870  0.3994  0.3921
 2364SOL    HW218729   0.831   0.717   5.652 -1.0902 -0.3270  3.7372
 2365SOL     OW18730   4.523   3.384   2.716  0.3779 -0.2729 -0.8952
 2365SOL    HW118731   4.615   3.408   2.729  0.5525 -1.0508 -0.7250
 2365SOL    HW218732   4.488   3.472   2.727 -1.0051 -0.7301 -1.6955
 2366SOL     OW18733   0.359   1.575  15.763  0.0947 -0.0587 -0.2551
 2366SOL    HW118734   0.297   1.614  15.702 -0.8538  0.0671  0.7894
 2366SOL    HW218735   0.432   1.549  15.707  0.4178  0.1349  0.0689
 2367SOL     OW18736   1.855   1.145  14.176 -0.4785  0.2462  0.4341
 2367SOL    HW118737   1.890   1.077  14.234  2.1547  0.3172 -1.0828
 2367SOL    HW218738   1.761   1.130  14.168 -0.2994 -0.3623 -0.5572
 2368SOL     OW18739   1.095   1.135   7.007  0.0331  0.0011 -0.2564
 2368SOL    HW118740   1.052   1.220   6.998  0.0124 -0.2399 -2.4207
 2368SOL    HW218741   1.181   1.170   7.028  0.3326 -1.3834  0.8382
 2369SOL     OW18742   2.972   1.696   7.602  0.1704 -0.2897  0.3086
 2369SOL    HW118743   2.971   1.771   7.543  1.0786 -0.6356 -0.1434
 2369SOL    HW218744   2.984   1.739   7.687  3.9353 -0.2572 -0.2614
 2370SOL     OW18745   2.828   1.108  10.411  0.2294 -0.2704  0.1087
 2370SOL    HW118746   2.902   1.152  10.453  1.0711 -1.5072 -0.0795
 2370SOL    HW218747   2.840   1.125  10.318  2.0867  2.0019  0.7738
 2371SOL     OW18748   3.302   2.396   4.388 -0.0447  0.2079  0.0443
 2371SOL    HW118749   3.334   2.340   4.317 -2.2019 -1.9440  0.7950
 2371SOL    HW218750   3.246   2.343   4.445  1.2280  0.1564  1.2523
 2372SOL     OW18751   4.718   0.230   9.459  0.1456 -0.8088  0.3905
 2372SOL    HW118752   0.020   0.236   9.373  0.9935  0.2960  0.8683
 2372SOL    HW218753   4.714   0.135   9.467  0.4978 -0.8222  0.4140
 2373SOL     OW18754   2.179   2.869   1.267 -0.1228 -0.4191 -0.0945
 2373SOL    HW118755   2.184   2.956   1.227 -0.8971  1.6954  4.4084
 2373SOL    HW218756   2.258   2.863   1.321  0.3863  1.9792 -0.5699
 2374SOL     OW18757   1.884   1.209   4.514  0.1125 -0.2308  0.2924
 2374SOL    HW118758   1.941   1.272   4.558 -0.7359 -0.4384  1.6797
 2374SOL    HW218759   1.817   1.204   4.583  1.5615 -0.1943  1.7095
 2375SOL     OW18760   1.670   3.096  12.179  0.8441 -0.1763  0.1449
 2375SOL    HW118761   1.753   3.072  12.220  1.6278  1.3578 -0.5568
 2375SOL    HW218762   1.704   3.168  12.126  0.5808  0.4646  0.8620
 2376SOL     OW18763   1.384   1.663   3.208  0.1228  0.1608 -0.0574
 2376SOL    HW118764   1.459   1.679   3.151  1.8880  1.0526  2.5284
 2376SOL    HW218765   1.400   1.728   3.276 -0.7821 -1.7116  1.9274
 2377SOL     OW18766   2.637   1.901   5.847 -0.2363  0.0736  0.5141
 2377SOL    HW118767   2.611   1.955   5.772  2.6496 -1.0248 -1.2792
 2377SOL    HW218768   2.606   1.815   5.820 -0.1113  0.4415 -0.8130
 2378SOL     OW18769   1.886   2.676   2.369 -0.3152 -0.4449 -0.4291
 2378SOL    HW118770   1.811   2.686   2.311 -1.4950  2.0624  1.5130
 2378SOL    HW218771   1.858   2.691   2.459 -0.1472 -0.2086 -0.4157
 2379SOL     OW18772   3.011   2.126   2.780  0.5576 -0.1224 -0.0933
 2379SOL    HW118773   3.064   2.060   2.734  1.3026  0.8095 -0.5825
 2379SOL    HW218774   3.058   2.126   2.863  0.6154  1.2496 -0.1315
 2380SOL     OW18775   1.692   2.298   6.322 -0.3190  0.0117 -0.1317
 2380SOL    HW118776   1.691   2.355   6.399  2.5625  0.2513 -0.2932
 2380SOL    HW218777   1.753   2.229   6.347 -1.2662 -0.4956  0.7844
 2381SOL     OW18778   3.265   4.020   2.522  0.4128 -0.6695 -0.5521
 2381SOL    HW118779   3.285   4.078   2.449 -1.0738  0.1717 -0.2887
 2381SOL    HW218780   3.344   3.967   2.527  0.4577 -0.5649 -0.0844
 2382SOL     OW18781   2.890   1.945  10.599 -0.4837 -0.2546  0.3987
 2382SOL    HW118782   2.845   2.006  10.658  1.1024  0.8623  0.4497
 2382SOL    HW218783   2.980   1.946  10.631 -0.4476  0.7041  0.2731
 2383SOL     OW18784   2.938   3.933  10.316  0.2606 -0.5234  0.6559
 2383SOL    HW118785   2.943   4.011  10.371 -2.1601  0.2201 -0.2167
 2383SOL    HW218786   2.857   3.891  10.345 -1.0563  2.0163  0.6609
 2384SOL     OW18787   2.670   2.923   2.411 -0.3873  0.2853  0.4552
 2384SOL    HW118788   2.627   2.963   2.335 -1.6461  0.1356  1.0961
 2384SOL    HW218789   2.684   2.995   2.472  0.7006  0.0163  0.5240
 2385SOL     OW18790   2.460   0.399   5.195  0.4700 -0.5341  0.1356
 2385SOL    HW118791   2.417   0.323   5.156 -1.8270 -0.0870  1.7775
 2385SOL    HW218792   2.434   0.389   5.287 -1.8399 -3.8856 -0.8584
 2386SOL     OW18793   1.295   2.920  14.806  0.1013 -0.3098  0.5770
 2386SOL    HW118794   1.373   2.972  14.825 -0.4061 -0.1383  2.1664
 2386SOL    HW218795   1.276   2.898  14.897 -2.6411  1.0468  0.3260
 2387SOL     OW18796   1.557   0.709   4.860 -0.3728  0.3973  0.0484
 2387SOL    HW118797   1.647   0.677   4.861 -0.9843 -1.3620 -1.3414
 2387SOL    HW218798   1.545   0.749   4.774  0.9584  1.5985  0.4231
 2388SOL     OW18799   2.926   3.725   6.047  0.1048 -0.2311 -0.0715
 2388SOL    HW118800   3.008   3.770   6.027 -1.0687  1.4546 -1.1637
 2388SOL    HW218801   2.886   3.707   5.962 -0.1528 -1.9125  0.4209
 2389SOL     OW18802   2.507   2.177   6.534  0.0303  0.0561 -0.0364
 2389SOL    HW118803   2.567   2.116   6.490 -0.1248  0.5214 -0.8979
 2389SOL    HW218804   2.427   2.126   6.521 -1.6349  2.7161 -0.1245
 2390SOL     OW18805   2.955   4.403  10.315  0.3057 -0.1104 -0.6656
 2390SOL    HW118806   2.892   4.355  10.262  0.7274 -0.5969 -0.7269
 2390SOL    HW218807   3.021   4.432  10.252  1.6537  2.6925  2.0645
 2391SOL     OW18808   4.374   1.123  11.585 -0.2055 -0.4472  0.2697
 2391SOL    HW118809   4.380   1.196  11.646 -1.1662 -2.1529  2.4057
 2391SOL    HW218810   4.381   1.164  11.499 -0.0243 -1.1197 -0.0341
 2392SOL     OW18811   4.164   4.144   7.687  0.4765 -0.4226 -0.2182
 2392SOL    HW118812   4.128   4.060   7.715 -0.8993  0.8089  1.8099
 2392SOL    HW218813   4.253   4.129   7.657 -0.2206  0.2357 -2.6100
 2393SOL     OW18814   3.252   2.572   8.008 -0.0458  0.1698 -0.5337
 2393SOL    HW118815   3.304   2.651   8.027  2.8005 -2.6781  3.3480
 2393SOL    HW218816   3.168   2.608   7.978 -1.1804 -3.1493 -1.3524
 2394SOL     OW18817   1.666   4.030   8.155  0.2452 -0.3257  0.0000
 2394SOL    HW118818   1.604   3.956   8.153  0.7431 -0.6865 -3.0909
 2394SOL    HW218819   1.730   4.003   8.089 -1.9180  0.0348 -2.2681
 2395SOL     OW18820   1.562   3.146   8.147 -0.0968 -0.6727  0.2328
 2395SOL    HW118821   1.627   3.137   8.217 -1.4167  0.7487  1.6697
 2395SOL    HW218822   1.598   3.077   8.092  1.8659 -0.0697  0.7758
 2396SOL     OW18823   4.349   2.957   8.351 -0.2943 -0.0473 -0.9769
 2396SOL    HW118824   4.407   2.885   8.377 -0.8510  0.2539  1.1295
 2396SOL    HW218825   4.359   3.025   8.418 -1.5732  1.1214 -1.9946
 2397SOL     OW18826   0.914   0.620  11.209 -0.3101 -0.2068  0.1068
 2397SOL    HW118827   0.901   0.700  11.158 -0.0194 -1.2174 -1.5532
 2397SOL    HW218828   0.822   0.602  11.229  0.2781  0.0924  3.0470
 2398SOL     OW18829   1.833   1.841   6.688  0.4920  0.1833 -0.0213
 2398SOL    HW118830   1.875   1.801   6.612  0.3301 -1.1709  0.6161
 2398SOL    HW218831   1.902   1.834   6.754  0.1811  0.1799  0.3015
 2399SOL     OW18832   1.834   3.988   7.951 -0.0838 -0.1855  0.5434
 2399SOL    HW118833   1.821   3.907   7.902  0.1424 -0.2273  0.5493
 2399SOL    HW218834   1.927   3.998   7.972  0.0915  0.3503 -0.4700
 2400SOL     OW18835   2.589   0.117   3.994 -0.8100  0.5780  0.2937
 2400SOL    HW118836   2.628   0.086   4.076 -0.6103  0.2640  0.0825
 2400SOL    HW218837   2.669   0.109   3.942 -0.6500 -2.1148  0.9308
 2401SOL     OW18838   0.115   2.072  12.946 -0.0478  0.3857 -1.0067
 2401SOL    HW118839   0.122   2.022  12.865 -1.2293  0.4442 -1.1435
 2401SOL    HW218840   0.158   2.017  13.012  1.1620  0.4472 -1.7295
 2402SOL     OW18841   0.516   0.988   8.198 -0.0732 -0.1800 -0.8900
 2402SOL    HW118842   0.442   1.045   8.220  0.6459  0.8635 -1.1791
 2402SOL    HW218843   0.565   1.049   8.141  1.1096  0.6336  1.0075
 2403SOL     OW18844   1.791   3.339   2.489 -0.2667 -0.3409 -0.7926
 2403SOL    HW118845   1.709   3.290   2.483  0.9381 -2.7013  2.3230
 2403SOL    HW218846   1.765   3.419   2.443  1.3759  1.0002  0.5853
 2404SOL     OW18847   0.569   0.498   9.175 -0.1569  0.3227  0.1054
 2404SOL    HW118848   0.601   0.566   9.234  0.4528 -0.4828  0.6899
 2404SOL    HW218849   0.534   0.435   9.238 -0.7338 -0.5296 -1.0578
 2405SOL     OW18850   1.048   4.640  17.169 -0.2289 -0.1779  0.0706
 2405SOL    HW118851   1.045   4.643  17.265 -0.9240 -0.4878  0.0644
 2405SOL    HW218852   1.105   4.715  17.155  0.8222 -0.7540  1.2563
 2406SOL     OW18853   1.786   2.624   4.331  0.2455 -0.3986 -0.2487
 2406SOL    HW118854   1.696   2.657   4.336 -0.3937 -1.9671 -1.3190
 2406SOL    HW218855   1.832   2.704   4.357  0.2262 -0.4543 -0.0399
 2407SOL     OW18856   3.752   4.553   1.136  0.0133 -0.1243 -0.6430
 2407SOL    HW118857   3.731   4.647   1.135  1.0742  0.1217  0.6168
 2407SOL    HW218858   3.779   4.549   1.228 -0.0412 -3.2671 -0.7769
 2408SOL     OW18859   4.330   2.012   3.294  0.1917  0.1742  0.1150
 2408SOL    HW118860   4.403   2.017   3.356 -0.5838 -1.4055  1.1799
 2408SOL    HW218861   4.368   1.997   3.207 -0.5872  2.2337 -0.5837
 2409SOL     OW18862   3.527   3.251   4.542  0.0941  0.1717 -0.3401
 2409SOL    HW118863   3.475   3.332   4.550  0.9931  1.0506 -3.4419
 2409SOL    HW218864   3.589   3.274   4.473  0.2307  0.9237  0.0261
 2410SOL     OW18865   3.957   1.084  12.875  0.0063  0.0247  0.0523
 2410SOL    HW118866   3.944   1.159  12.816  1.7917  0.5568  0.3184
 2410SOL    HW218867   4.041   1.097  12.919  0.0700  3.7027 -1.1373
 2411SOL     OW18868   0.135   0.906   8.437 -0.1212  0.5151  0.4697
 2411SOL    HW118869   0.075   0.972   8.404 -0.9981  0.1641  1.3723
 2411SOL    HW218870   0.218   0.946   8.410 -1.3416  2.1763 -0.7840
 2412SOL     OW18871   4.078   3.184   2.056 -0.2718 -0.2037  0.2892
 2412SOL    HW118872   4.043   3.230   1.980  0.3830  0.7733  0.5854
 2412SOL    HW218873   4.084   3.257   2.118  1.8301 -0.1093 -0.0281
 2413SOL     OW18874   4.219   3.663  17.443  0.0823  0.0349 -0.3717
 2413SOL    HW118875   4.214   3.584  17.497  0.1413 -1.6833 -2.8755
 2413SOL    HW218876   4.126   3.687  17.445 -0.3005 -1.5142  1.6787
 2414SOL     OW18877   4.510   4.734   9.367 -0.3679 -0.1194 -0.1157
 2414SOL    HW118878   4.513   0.013   9.273 -0.0878  0.6401  0.0319
 2414SOL    HW218879   4.419   0.015   9.391 -0.2939 -0.6530  0.5905
 2415SOL     OW18880   1.740   1.517   9.833 -0.5467  0.3559 -0.2650
 2415SOL    HW118881   1.807   1.473   9.780  0.5870 -0.1957  1.6184
 2415SOL    HW218882   1.745   1.601   9.789 -3.8036  0.6391 -0.0318
 2416SOL     OW18883   2.932   0.661   6.014  0.5576 -0.3102  0.9023
 2416SOL    HW118884   2.995   0.728   5.986 -0.8490  0.6286  0.0165
 2416SOL    HW218885   2.851   0.698   5.980  1.0406 -0.6918 -0.6741
 2417SOL     OW18886   3.783   0.866   8.340 -0.3467  0.1158  0.4780
 2417SOL    HW118887   3.804   0.850   8.248 -0.4181  3.6793 -0.1346
 2417SOL    HW218888   3.691   0.893   8.334 -0.8954 -1.7507  0.4205
 2418SOL     OW18889   3.505   1.609   2.728  0.4873 -0.5005 -0.6846
 2418SOL    HW118890   3.599   1.621   2.746  0.1364  0.0890  0.7156
 2418SOL    HW218891   3.502   1.590   2.634 -0.4461  5.4961 -1.8512
 2419SOL     OW18892   2.276   2.981  13.595  0.2350 -0.5010  0.3771
 2419SOL    HW118893   2.294   2.981  13.501 -0.5508  2.9465  0.2309
 2419SOL    HW218894   2.299   3.071  13.617  1.3195 -1.2928  2.4046
 2420SOL     OW18895   4.683   0.326   7.248 -0.6638  0.1896 -0.4465
 2420SOL    HW118896   4.682   0.293   7.158  0.3474  1.0341 -0.7691
 2420SOL    HW218897   4.738   0.257   7.286 -0.9118  0.5354  0.5463
 2421SOL     OW18898   0.053   3.465  14.722 -0.0868  0.4891 -0.0450
 2421SOL    HW118899   4.710   3.464  14.672 -0.2178  3.2201  0.1462
 2421SOL    HW218900   0.109   3.399  14.679  2.2444  1.3214  1.6943
 2422SOL     OW18901   1.626   1.751   3.086  0.5281 -0.4611 -0.2562
 2422SOL    HW118902   1.625   1.847   3.080 -0.3940 -0.5100 -0.8773
 2422SOL    HW218903   1.576   1.735   3.006 -1.5292  0.6951  0.7953
 2423SOL     OW18904   0.022   1.054  11.286  0.0941 -0.8232 -0.4570
 2423SOL    HW118905   4.715   1.015  11.361 -1.4774  2.2050  0.1629
 2423SOL    HW218906   0.111   1.023  11.307  0.8315  0.3173 -1.8885
 2424SOL     OW18907   4.299   0.263  14.262 -0.1940  0.0591 -0.0280
 2424SOL    HW118908   4.315   0.169  14.259  1.6971  0.4025 -0.3261
 2424SOL    HW218909   4.214   0.280  14.221 -0.1634  1.2651  0.4021
 2425SOL     OW18910   0.086   0.021   6.278  0.0909  0.2363  0.0188
 2425SOL    HW118911   0.089   4.672   6.317 -0.5644  0.0441 -0.3624
 2425SOL    HW218912   0.173   0.055   6.297 -0.5176  0.5825  2.1546
 2426SOL     OW18913   3.803   3.056  13.718  0.7817 -0.2610 -0.3070
 2426SOL    HW118914   3.805   3.115  13.643  1.3921 -0.9593 -0.8416
 2426SOL    HW218915   3.815   3.112  13.795 -0.6420 -3.9340  2.5833
 2427SOL     OW18916   4.443   0.965  12.685  0.8998 -0.0023 -0.1628
 2427SOL    HW118917   4.356   0.927  12.676  1.4591 -0.8829 -1.7154
 2427SOL    HW218918   4.495   0.889  12.710 -2.2455 -2.0694 -0.0005
 2428SOL     OW18919   0.036   2.368   3.599 -0.3010  1.1067  0.4028
 2428SOL    HW118920   4.706   2.358   3.533  0.1444 -1.5059  0.3434
 2428SOL    HW218921   0.116   2.363   3.546 -1.0628  0.5756 -0.7040
 2429SOL     OW18922   1.113   0.178   2.887  0.1851 -0.2967 -0.2012
 2429SOL    HW118923   1.136   0.255   2.939 -0.9662 -1.1650  1.6213
 2429SOL    HW218924   1.089   0.217   2.804 -1.4951 -0.2645  0.2980
 2430SOL     OW18925   3.776   4.138  17.428  0.6816  0.3424  0.2330
 2430SOL    HW118926   3.776   4.089  17.346 -4.4336  0.7110  0.0274
 2430SOL    HW218927   3.705   4.201  17.415 -0.0407 -0.5272 -0.0499
 2431SOL     OW18928   1.214   1.475  11.222 -0.9701  0.0475  0.2646
 2431SOL    HW118929   1.256   1.390  11.206  0.0302  0.8600 -1.4356
 2431SOL    HW218930   1.181   1.463  11.311 -1.1374 -0.3937  0.1441
 2432SOL     OW18931   1.228   4.137  11.837 -0.7461 -0.3042  0.4343
 2432SOL    HW118932   1.151   4.143  11.894 -0.6852 -1.0191  0.5913
 2432SOL    HW218933   1.203   4.208  11.778 -1.6473 -0.7990  0.2089
 2433SOL     OW18934   2.090   4.439   5.787 -0.3606 -0.2282  0.2966
 2433SOL    HW118935   2.183   4.461   5.783 -0.5759  0.1619 -2.4528
 2433SOL    HW218936   2.090   4.357   5.835 -1.9340  1.4218  3.1627
 2434SOL     OW18937   1.633   0.939  10.896 -0.3676 -0.0534  0.4560
 2434SOL    HW118938   1.695   0.996  10.849 -0.4259  0.3501  0.8710
 2434SOL    HW218939   1.682   0.857  10.897 -0.8449 -0.3146  1.6290
 2435SOL     OW18940   4.065   1.430   6.262 -0.1645  0.6271  0.5647
 2435SOL    HW118941   4.100   1.405   6.176 -1.9772 -0.1787  0.0481
 2435SOL    HW218942   4.001   1.496   6.235 -1.3168 -1.8177 -2.6734
 2436SOL     OW18943   0.250   4.066   8.217 -0.5057  0.8567  0.2229
 2436SOL    HW118944   0.163   4.061   8.178 -1.0259  2.4782  1.1697
 2436SOL    HW218945   0.226   4.075   8.310 -0.1425  0.6958  0.3321
 2437SOL     OW18946   1.045   1.224   1.143 -0.1037 -0.2112 -0.4092
 2437SOL    HW118947   1.099   1.288   1.096  3.8939 -2.9884  0.4429
 2437SOL    HW218948   1.110   1.176   1.196  0.5366  0.4748 -0.5604
 2438SOL     OW18949   0.469   1.423   5.190 -0.4324  0.1490  0.2832
 2438SOL    HW118950   0.525   1.394   5.261  0.3253  4.3867  1.3873
 2438SOL    HW218951   0.382   1.408   5.227 -0.4869 -0.8552 -0.2453
 2439SOL     OW18952   1.438   3.672   7.557  0.6575  0.2184 -0.5075
 2439SOL    HW118953   1.356   3.687   7.510  1.7125 -2.7871 -3.3446
 2439SOL    HW218954   1.475   3.595   7.513 -1.2787 -0.0783 -1.6094
 2440SOL     OW18955   2.894   4.332   5.693  0.6584  0.3097 -0.3646
 2440SOL    HW118956   2.972   4.295   5.734 -0.1176 -1.4336 -0.4224
 2440SOL    HW218957   2.835   4.256   5.688  2.4084 -1.2222  2.0842
 2441SOL     OW18958   2.912   2.254  10.403 -0.0633 -0.2756 -0.1475
 2441SOL    HW118959   2.828   2.214  10.379 -1.0111  1.0429  0.9341
 2441SOL    HW218960   2.977   2.184  10.398  0.6642  0.3614  0.4274
 2442SOL     OW18961   1.099   1.970  15.080 -0.1971  0.4068 -0.0206
 2442SOL    HW118962   1.132   1.892  15.124 -0.1168  0.0630 -0.6885
 2442SOL    HW218963   1.166   1.974  15.011  0.7152 -0.7666  0.7902
 2443SOL     OW18964   1.791   4.240   5.031 -0.0369  0.3306 -0.7586
 2443SOL    HW118965   1.752   4.268   4.948  0.6882 -1.8708 -1.8679
 2443SOL    HW218966   1.765   4.312   5.087 -1.0923 -1.3329  0.8799
 2444SOL     OW18967   2.410   2.716  17.541 -0.3151  0.2517  0.3293
 2444SOL    HW118968   2.429   2.803  17.507 -0.2953  0.4926  0.9567
 2444SOL    HW218969   2.422   2.665  17.461  1.7466  0.4855  0.4979
 2445SOL     OW18970   2.267   1.407  12.104  0.4301 -0.2474  0.3244
 2445SOL    HW118971   2.266   1.398  12.199  0.8810  2.4801  0.5846
 2445SOL    HW218972   2.261   1.314  12.082  0.8753  0.2569 -1.9995
 2446SOL     OW18973   4.661   2.853   5.333  0.4118 -0.0328 -0.0199
 2446SOL    HW118974   4.721   2.922   5.304 -0.4835 -0.0874 -2.0158
 2446SOL    HW218975   4.673   2.796   5.257 -0.0667  0.8087 -0.7284
 2447SOL     OW18976   3.524   0.753   1.445  0.0340  0.1908  0.0181
 2447SOL    HW118977   3.487   0.821   1.501 -0.6558  1.4172 -1.8952
 2447SOL    HW218978   3.576   0.809   1.387  0.2656 -0.1271 -0.0866
 2448SOL     OW18979   2.826   2.398   2.452 -0.1191 -0.1670  0.4070
 2448SOL    HW118980   2.760   2.332   2.431 -1.3886  1.2500  0.0158
 2448SOL    HW218981   2.836   2.432   2.363 -0.0411  1.0782  0.8975
 2449SOL     OW18982   1.649   0.467   5.168  0.3948 -1.2781 -0.3019
 2449SOL    HW118983   1.710   0.529   5.207  1.6631 -0.3547 -3.7418
 2449SOL    HW218984   1.713   0.401   5.142  1.1168 -1.2486  1.3914
 2450SOL     OW18985   1.287   0.431   7.565  0.6980  0.1273 -0.4844
 2450SOL    HW118986   1.361   0.460   7.619  1.3478 -0.4255 -1.0833
 2450SOL    HW218987   1.224   0.500   7.584  1.4131  0.9562 -1.1656
 2451SOL     OW18988   0.899   1.048   2.834  0.3695  0.1293  0.0786
 2451SOL    HW118989   0.832   0.983   2.858  0.6083 -0.9888 -2.2459
 2451SOL    HW218990   0.907   1.023   2.742  2.5193  0.2816  0.2304
 2452SOL     OW18991   2.533   3.287   3.590  0.2586  0.0329  0.2650
 2452SOL    HW118992   2.592   3.219   3.559 -0.8600 -0.9222  0.2257
 2452SOL    HW218993   2.574   3.372   3.573  3.7824 -1.4040  1.4959
 2453SOL     OW18994   0.213   3.771  11.639 -0.1185  0.5617 -0.0409
 2453SOL    HW118995   0.184   3.860  11.619  0.1087  0.7516  0.4510
 2453SOL    HW218996   0.249   3.767  11.728  1.1345 -0.7547 -0.6065
 2454SOL     OW18997   2.394   4.512   0.134  0.0893  0.4471  0.1303
 2454SOL    HW118998   2.453   4.507   0.209 -1.3707  1.0285  1.3194
 2454SOL    HW218999   2.432   4.446   0.076  0.3881  0.7426 -0.0103
 2455SOL     OW19000   3.741   2.472   3.542  0.1113 -0.3382  0.2142
 2455SOL    HW119001   3.771   2.521   3.466  3.6343 -1.6294  0.7813
 2455SOL    HW219002   3.725   2.385   3.506  2.6249 -2.6650  4.6899
 2456SOL     OW19003   0.286   0.504  12.721 -0.2076 -0.2810 -0.3317
 2456SOL    HW119004   0.332   0.493  12.637  0.0575  0.7088 -0.3139
 2456SOL    HW219005   0.357   0.516  12.784  1.4623 -1.5535 -1.9511
 2457SOL     OW19006   4.441   3.508   6.973 -0.1310  0.3165 -0.1468
 2457SOL    HW119007   4.437   3.461   7.056  3.0857 -0.9605 -0.7189
 2457SOL    HW219008   4.351   3.498   6.941 -0.4205  0.7982  0.5159
 2458SOL     OW19009   1.535   0.358  16.050  0.1255  0.5815 -0.4151
 2458SOL    HW119010   1.480   0.402  15.985 -0.5969 -0.9320 -0.8315
 2458SOL    HW219011   1.467   0.330  16.112 -0.1730  0.1953 -0.9214
 2459SOL     OW19012   1.166   3.758  14.323 -0.1697 -0.0194 -0.1013
 2459SOL    HW119013   1.166   3.774  14.229  0.5024 -0.4532 -0.1704
 2459SOL    HW219014   1.090   3.701  14.320  0.9880 -1.5155 -0.8125
 2460SOL     OW19015   2.098   2.411   8.340  0.4117 -0.5607 -0.1766
 2460SOL    HW119016   2.175   2.463   8.316  0.1593 -0.1610 -0.1207
 2460SOL    HW219017   2.116   2.326   8.299  0.1158 -0.6468 -0.1262
 2461SOL     OW19018   0.442   4.048   3.171  0.4552 -0.0140 -0.0947
 2461SOL    HW119019   0.435   3.983   3.101  0.6765  0.7726 -0.8521
 2461SOL    HW219020   0.351   4.046   3.202  0.7897 -1.1423  0.7788
 2462SOL     OW19021   0.623   4.510  13.923  0.7050  0.0119 -0.5788
 2462SOL    HW119022   0.543   4.479  13.879 -0.0104  1.0056  0.0350
 2462SOL    HW219023   0.692   4.451  13.892  0.7906 -0.5926  0.7767
 2463SOL     OW19024   3.861   4.356   3.313  0.2449  0.3345  0.4973
 2463SOL    HW119025   3.954   4.379   3.311  0.5315 -0.7816  1.6085
 2463SOL    HW219026   3.835   4.362   3.221 -2.3369 -1.0454  1.1506
 2464SOL     OW19027   0.735   1.703  13.409 -0.0447 -0.3465  0.1927
 2464SOL    HW119028   0.699   1.716  13.322  0.2826 -1.8140 -0.1625
 2464SOL    HW219029   0.826   1.711  13.380  0.1336 -0.0863  0.8150
 2465SOL     OW19030   0.250   3.855   9.016  0.1878  0.5904  0.0059
 2465SOL    HW119031   0.243   3.909   9.095 -2.1933 -0.8019  0.7666
 2465SOL    HW219032   0.230   3.768   9.052 -0.2128 -0.6686 -3.2514
 2466SOL     OW19033   1.994   0.903   1.604  0.1494  1.0124  0.2874
 2466SOL    HW119034   2.064   0.967   1.614  1.7117 -0.8072  0.9674
 2466SOL    HW219035   1.979   0.890   1.698  2.3057  0.1029  0.4944
 2467SOL     OW19036   3.040   2.200   5.580  0.1002  0.0677  0.0355
 2467SOL    HW119037   3.005   2.252   5.508 -1.6686 -0.0319  0.8268
 2467SOL    HW219038   2.960   2.167   5.621  0.5230 -1.4286 -0.3520
 2468SOL     OW19039   3.365   4.652   2.466  0.0798  0.3840  1.3036
 2468SOL    HW119040   3.459   4.646   2.482  0.1761  0.3522  0.7397
 2468SOL    HW219041   3.325   4.565   2.459 -3.9195  2.0992  2.4780
 2469SOL     OW19042   2.382   3.695   1.673  0.4011 -0.2313  0.0597
 2469SOL    HW119043   2.317   3.693   1.602 -0.2922  1.5206  0.6557
 2469SOL    HW219044   2.363   3.776   1.719  2.0284  0.7213 -0.9413
 2470SOL     OW19045   2.375   1.867   2.224 -0.5125  0.4151 -0.4765
 2470SOL    HW119046   2.391   1.939   2.163 -2.6661  0.3144 -1.1675
 2470SOL    HW219047   2.466   1.837   2.226  0.0968  2.3426  1.0257
 2471SOL     OW19048   1.501   2.907   4.637 -0.1293 -0.1842  0.1550
 2471SOL    HW119049   1.597   2.906   4.634 -0.0817 -1.9525  2.8999
 2471SOL    HW219050   1.488   2.818   4.604  0.1950  0.4745 -1.7669
 2472SOL     OW19051   1.152   4.582   7.148  0.3083 -0.0456  0.3132
 2472SOL    HW119052   1.092   4.639   7.100 -2.7237 -2.8892  0.7411
 2472SOL    HW219053   1.173   4.659   7.202  0.8631  0.6526 -0.9006
 2473SOL     OW19054   1.442   1.598  15.996  0.1870  0.1339  0.2262
 2473SOL    HW119055   1.465   1.534  15.929  0.2354  1.7787 -1.3458
 2473SOL    HW219056   1.506   1.667  15.976 -0.5915  0.9255  0.4560
 2474SOL     OW19057   4.085   2.079   7.725  0.2872 -0.4879 -0.1103
 2474SOL    HW119058   4.180   2.082   7.723  0.2980 -0.7173  0.1437
 2474SOL    HW219059   4.070   2.037   7.810  0.7063 -2.0068 -0.7871
 2475SOL     OW19060   0.521   3.468   6.051 -0.0791  0.5253  0.4964
 2475SOL    HW119061   0.448   3.518   6.013  0.7753  0.7424 -0.8736
 2475SOL    HW219062   0.562   3.451   5.967  0.0088  0.5482  0.5353
 2476SOL     OW19063   0.217   3.086   8.845 -0.7142 -0.0501 -0.2289
 2476SOL    HW119064   0.147   3.035   8.805 -0.0971 -1.5695  0.6471
 2476SOL    HW219065   0.203   3.174   8.809 -2.2399 -1.0517 -2.0427
 2477SOL     OW19066   2.736   1.458  14.199  0.0474  0.2756  0.0689
 2477SOL    HW119067   2.649   1.486  14.228  0.3207  0.6945  0.4844
 2477SOL    HW219068   2.719   1.414  14.116  3.0578 -0.8102  0.0029
 2478SOL     OW19069   4.319   2.837  17.328  0.7348 -0.1087  0.1341
 2478SOL    HW119070   4.350   2.832  17.418 -0.6032 -0.0894  0.5841
 2478SOL    HW219071   4.388   2.898  17.299 -0.2812  0.0210 -2.0365
 2479SOL     OW19072   3.710   0.217   5.555 -0.0897 -0.3371  0.3152
 2479SOL    HW119073   3.735   0.150   5.491  0.1218  0.1459 -0.1078
 2479SOL    HW219074   3.733   0.175   5.638 -1.7553  1.0920  1.4911
 2480SOL     OW19075   3.260   4.314   5.393  0.2802 -0.4458 -0.5252
 2480SOL    HW119076   3.332   4.269   5.436  0.0922  0.0925  0.3411
 2480SOL    HW219077   3.236   4.380   5.457  0.5258 -0.1139 -0.7730
 2481SOL     OW19078   0.920   1.450   5.719  0.1184 -0.0179  0.3324
 2481SOL    HW119079   0.985   1.505   5.763  0.0981  0.4267 -0.1890
 2481SOL    HW219080   0.958   1.453   5.631  3.4707 -1.2071  1.7394
 2482SOL     OW19081   3.381   3.430   7.243  0.1952 -0.0698  0.1372
 2482SOL    HW119082   3.368   3.455   7.335 -0.4954 -1.8712  0.5346
 2482SOL    HW219083   3.332   3.496   7.194 -1.0263  1.4701  3.4098
 2483SOL     OW19084   0.095   4.215   3.644 -0.0553  0.1077  0.5620
 2483SOL    HW119085   0.178   4.173   3.667 -1.0311 -2.8773 -1.3499
 2483SOL    HW219086   0.039   4.182   3.714 -1.0030  0.3050 -0.0954
 2484SOL     OW19087   0.272   1.379   4.335 -0.2843  0.2381 -0.2014
 2484SOL    HW119088   0.275   1.428   4.417 -3.4117 -0.9999  0.6449
 2484SOL    HW219089   0.177   1.381   4.320 -1.0584 -1.7224  4.5185
 2485SOL     OW19090   1.870   0.200   7.142  0.4738 -0.2386 -0.1663
 2485SOL    HW119091   1.850   0.216   7.050  1.3960  1.4090 -0.0771
 2485SOL    HW219092   1.825   0.118   7.162  0.1565  0.1456  0.6971
 2486SOL     OW19093   2.925   0.542   9.690  0.3094 -0.4758 -0.1030
 2486SOL    HW119094   2.965   0.537   9.777 -2.0635 -1.4339  0.9163
 2486SOL    HW219095   2.995   0.511   9.633  0.9721  1.2830 -0.2662
 2487SOL     OW19096   0.937   0.565   1.408  0.1845  0.4142  0.2345
 2487SOL    HW119097   0.919   0.476   1.376 -0.8346  1.0019 -0.8261
 2487SOL    HW219098   1.018   0.588   1.363 -1.1435  1.6876 -1.5126
 2488SOL     OW19099   3.633   1.026   5.678 -0.6377 -0.7796  0.5991
 2488SOL    HW119100   3.652   0.982   5.761 -1.8871  0.9291  1.8007
 2488SOL    HW219101   3.709   0.998   5.626  0.2183  1.0080  0.8820
 2489SOL     OW19102   3.131   3.353   6.568 -0.2708 -0.4596 -0.3057
 2489SOL    HW119103   3.074   3.421   6.532  0.0397 -0.7086 -1.2788
 2489SOL    HW219104   3.210   3.407   6.577 -0.1228 -0.3942 -2.0490
 2490SOL     OW19105   1.479   1.558  17.600 -0.2431 -0.2488 -0.3330
 2490SOL    HW119106   1.455   1.649  17.616  1.9675 -0.0196  1.7707
 2490SOL    HW219107   1.573   1.570  17.616 -0.0879 -1.3219 -0.4511
 2491SOL     OW19108   4.645   1.754  16.234 -0.2064  0.5312  0.3162
 2491SOL    HW119109   4.644   1.770  16.329  2.0316  0.7726  0.2961
 2491SOL    HW219110   4.553   1.766  16.210  0.0647 -0.1363 -1.0103
 2492SOL     OW19111   3.498   3.978  15.047 -0.0564 -0.0825 -0.1476
 2492SOL    HW119112   3.496   4.055  15.105  0.6841 -0.1603 -0.0196
 2492SOL    HW219113   3.484   3.910  15.113 -1.8181 -0.1043 -0.5574
 2493SOL     OW19114   4.164   1.217   3.724 -0.2535 -0.1141 -0.0778
 2493SOL    HW119115   4.218   1.177   3.656 -0.1096 -1.2773  0.7201
 2493SOL    HW219116   4.212   1.294   3.755 -0.9756  0.1733  0.3158
 2494SOL     OW19117   3.414   2.424  13.141 -0.1297  0.0376 -0.6472
 2494SOL    HW119118   3.474   2.494  13.116 -1.2011  1.0070 -0.4970
 2494SOL    HW219119   3.450   2.362  13.077  1.7295  0.3166  0.1508
 2495SOL     OW19120   4.179   0.790   9.281  0.0014 -0.2438 -0.5108
 2495SOL    HW119121   4.209   0.820   9.367  2.2852 -1.1686 -0.9984
 2495SOL    HW219122   4.229   0.840   9.216  2.1532 -1.8576 -0.0825
 2496SOL     OW19123   0.752   0.436   6.236  0.7155  0.2106 -0.3526
 2496SOL    HW119124   0.838   0.474   6.251  0.7844  0.3724 -1.1669
 2496SOL    HW219125   0.738   0.433   6.331 -4.0745  2.8257 -0.9555
 2497SOL     OW19126   2.732   3.298   8.017 -0.3478  0.5563  0.2386
 2497SOL    HW119127   2.798   3.241   8.057 -1.4206  0.5084  1.9486
 2497SOL    HW219128   2.770   3.386   8.027  0.8889  0.0774 -0.2640
 2498SOL     OW19129   0.517   4.538   6.346  0.1809 -0.2752 -0.0476
 2498SOL    HW119130   0.490   4.620   6.305 -0.2364 -0.8383 -0.9059
 2498SOL    HW219131   0.480   4.535   6.434 -1.1353 -2.0024 -0.6472
 2499SOL     OW19132   3.292   2.196   5.624  0.0888  0.0519  0.2019
 2499SOL    HW119133   3.198   2.184   5.610 -0.1972  1.0951  1.1836
 2499SOL    HW219134   3.329   2.108   5.619  4.0986  1.7860 -0.8253
 2500SOL     OW19135   2.111   1.144  12.564  0.7809  0.2664  0.2131
 2500SOL    HW119136   2.189   1.166  12.513 -0.2894  0.7522 -1.2345
 2500SOL    HW219137   2.131   1.050  12.572  1.5329  0.2455 -1.6977
 2501SOL     OW19138   1.986   0.852   4.805  0.1372  0.1379  0.4545
 2501SOL    HW119139   2.041   0.864   4.727 -0.0997 -1.1506  0.0951
 2501SOL    HW219140   2.054   0.836   4.871 -1.2385 -0.0596  1.8007
 2502SOL     OW19141   3.933   1.954   5.625  0.5940  0.1329  0.4684
 2502SOL    HW119142   3.845   1.993   5.633  1.5707  2.1608  1.4164
 2502SOL    HW219143   3.980   2.024   5.579 -0.4917  0.2560 -0.4428
 2503SOL     OW19144   2.870   0.991   4.156 -0.5745  0.1666 -0.3435
 2503SOL    HW119145   2.905   1.070   4.197 -0.6469 -0.5152  1.0569
 2503SOL    HW219146   2.892   1.002   4.064  1.7225  1.0840  0.2951
 2504SOL     OW19147   3.447   4.252   4.213 -0.1120  0.6471 -0.6149
 2504SOL    HW119148   3.534   4.261   4.175  0.5063 -2.5922 -0.0319
 2504SOL    HW219149   3.397   4.270   4.134 -0.9602 -0.4165 -0.3206
 2505SOL     OW19150   3.271   0.639   9.271 -0.0697  0.5785 -0.2404
 2505SOL    HW119151   3.281   0.721   9.319  1.8668  1.2594 -1.7895
 2505SOL    HW219152   3.345   0.589   9.303 -0.7620 -1.2442 -1.4829
 2506SOL     OW19153   2.768   2.716  15.475  0.1415  0.3013 -0.2173
 2506SOL    HW119154   2.698   2.713  15.540 -1.0383 -0.8536 -1.5312
 2506SOL    HW219155   2.708   2.705  15.401 -1.6083 -0.1736  1.2695
 2507SOL     OW19156   4.410   3.106  16.611 -0.9651  0.4115 -0.2848
 2507SOL    HW119157   4.345   3.078  16.676  0.6406  0.3103  1.2841
 2507SOL    HW219158   4.378   3.064  16.531  1.9671 -0.5013 -0.9761
 2508SOL     OW19159   4.595   3.633   6.079 -0.6451 -0.2888 -0.0896
 2508SOL    HW119160   4.569   3.658   5.990  0.9978 -0.3064 -0.5612
 2508SOL    HW219161   4.523   3.577   6.110 -1.2707  1.9044  2.4057
 2509SOL     OW19162   1.122   2.230  15.090 -0.2494 -0.5756  0.1985
 2509SOL    HW119163   1.118   2.135  15.102 -0.5851 -0.3925  1.5580
 2509SOL    HW219164   1.032   2.245  15.119 -0.2536  1.9363 -1.0348
 2510SOL     OW19165   1.182   0.830   1.713  0.5033 -0.0979  0.3692
 2510SOL    HW119166   1.124   0.814   1.638  1.9594  0.8680 -0.9517
 2510SOL    HW219167   1.260   0.813   1.660 -0.4775 -1.6834 -0.5661
 2511SOL     OW19168   4.344   2.402   2.324 -0.4694 -0.1839 -0.4892
 2511SOL    HW119169   4.334   2.449   2.242 -1.2052  0.3070 -0.1174
 2511SOL    HW219170   4.323   2.477   2.380  2.5339  2.7938 -3.3414
 2512SOL     OW19171   3.033   0.238   4.726 -0.2897 -0.5595  0.3055
 2512SOL    HW119172   3.000   0.284   4.803 -1.2075  0.1668 -0.5298
 2512SOL    HW219173   3.005   0.299   4.659 -0.4773 -0.5534  0.3905
 2513SOL     OW19174   1.438   3.995   6.126  0.3239  0.3395 -0.3617
 2513SOL    HW119175   1.489   4.062   6.170 -0.0434 -0.0235  0.6250
 2513SOL    HW219176   1.502   3.940   6.080 -0.5501 -0.2117 -0.9271
 2514SOL     OW19177   2.551   1.142   4.168 -0.0158  0.4023  0.1064
 2514SOL    HW119178   2.604   1.128   4.089 -1.3230 -0.1086 -0.6702
 2514SOL    HW219179   2.583   1.072   4.226  2.4312  0.9831 -0.5354
 2515SOL     OW19180   0.114   4.635   6.767 -0.1061 -0.1108 -0.4056
 2515SOL    HW119181   0.128   4.643   6.861  3.0689  0.6066 -0.9379
 2515SOL    HW219182   0.084   4.544   6.760 -4.0910  1.1316  0.7216
 2516SOL     OW19183   2.702   0.387  16.943  0.0663  0.2708  0.1408
 2516SOL    HW119184   2.653   0.423  17.017 -0.4387 -1.3331  0.5910
 2516SOL    HW219185   2.742   0.467  16.909  2.1101 -0.9397 -0.2861
 2517SOL     OW19186   0.582   2.369   1.226 -0.6062 -0.2721  0.0592
 2517SOL    HW119187   0.609   2.327   1.144 -0.7460  0.0029 -0.1286
 2517SOL    HW219188   0.572   2.287   1.274 -2.1043 -0.5972 -0.8148
 2518SOL     OW19189   1.756   4.669   6.794 -0.3973  0.7568 -0.0923
 2518SOL    HW119190   1.850   4.686   6.788 -0.3921 -0.1552 -2.5988
 2518SOL    HW219191   1.745   4.672   6.889  1.9437 -1.8185  0.2541
 2519SOL     OW19192   0.022   3.103   2.403  0.4193  0.3228 -0.1113
 2519SOL    HW119193   0.013   3.194   2.430 -0.2765 -0.2087  1.4657
 2519SOL    HW219194   4.681   3.068   2.445  0.1122  0.2031 -0.7894
 2520SOL     OW19195   4.600   2.107  13.545 -0.0920 -0.4232 -0.6431
 2520SOL    HW119196   4.581   2.088  13.636  2.8918  0.6751  0.2301
 2520SOL    HW219197   4.635   2.023  13.517  0.2722 -0.2253 -0.7908
 2521SOL     OW19198   1.841   3.430   5.949  0.3290  0.9497  0.5586
 2521SOL    HW119199   1.917   3.399   5.998 -1.3555 -1.2565  1.7687
 2521SOL    HW219200   1.781   3.357   5.965  0.5219  1.0691  1.7890
 2522SOL     OW19201   0.723   4.620   7.478  0.1981 -0.3933 -0.1252
 2522SOL    HW119202   0.814   4.592   7.483  0.4288  0.2551 -0.6560
 2522SOL    HW219203   0.702   4.644   7.568  2.5108  2.1916 -0.2574
 2523SOL     OW19204   2.625   3.669  10.664 -0.2740 -0.0545  0.4404
 2523SOL    HW119205   2.612   3.742  10.725  0.4033 -1.2058  1.9709
 2523SOL    HW219206   2.562   3.601  10.690  0.1545 -0.8807 -0.6865
 2524SOL     OW19207   0.931   3.020   0.097 -0.0969  0.2882  0.3628
 2524SOL    HW119208   0.864   2.953   0.113  1.0073 -1.2967 -1.5179
 2524SOL    HW219209   0.968   3.031   0.184  0.0888 -1.2785  0.4805
 2525SOL     OW19210   1.985   3.757   0.454  0.1590  0.4656  0.7309
 2525SOL    HW119211   2.027   3.674   0.478  0.1710  0.6935  1.4899
 2525SOL    HW219212   1.974   3.747   0.360  1.6228 -0.2033  0.6315
 2526SOL     OW19213   3.635   3.237   3.767 -0.7237 -0.4251 -0.3105
 2526SOL    HW119214   3.620   3.245   3.673  0.1521  0.2127 -0.3912
 2526SOL    HW219215   3.678   3.320   3.785 -0.6144 -0.3188 -1.0538
 2527SOL     OW19216   1.343   3.270   8.187 -0.0672  0.6886  0.0004
 2527SOL    HW119217   1.430   3.235   8.167  0.4789  3.0328 -1.6407
 2527SOL    HW219218   1.308   3.193   8.233  0.3854  0.5156  0.0548
 2528SOL     OW19219   0.706   3.300   5.250 -0.0590 -0.2429 -0.2704
 2528SOL    HW119220   0.727   3.208   5.234 -0.8581 -0.3812 -0.5046
 2528SOL    HW219221   0.792   3.334   5.226 -0.7632  0.9478 -1.1235
 2529SOL     OW19222   2.317   0.367   6.440 -0.7836  0.1773 -0.1583
 2529SOL    HW119223   2.257   0.440   6.423 -0.0758  1.0894  1.2437
 2529SOL    HW219224   2.403   0.408   6.432  0.2056 -1.0539  4.2667
 2530SOL     OW19225   2.535   3.302   4.730  0.4872  0.0371 -0.2879
 2530SOL    HW119226   2.594   3.263   4.795  0.2405  1.0570  0.5375
 2530SOL    HW219227   2.450   3.305   4.773  0.3791 -1.1072 -0.4192
 2531SOL     OW19228   3.218   4.517   4.919  0.1300  0.0941 -0.0254
 2531SOL    HW119229   3.138   4.556   4.954 -0.0183 -1.1961  1.0823
 2531SOL    HW219230   3.181   4.481   4.839 -0.8932  1.3890 -0.1288
 2532SOL     OW19231   4.606   1.141   2.876 -0.3820 -0.3703 -0.0307
 2532SOL    HW119232   4.538   1.077   2.898 -2.9913  2.2211 -0.4859
 2532SOL    HW219233   4.554   1.197   2.818 -1.3973 -0.4184  0.8234
 2533SOL     OW19234   0.337   2.993  13.993  0.2161 -0.0487 -0.4553
 2533SOL    HW119235   0.287   3.069  14.023  0.0084  0.5020 -2.1985
 2533SOL    HW219236   0.397   2.977  14.066  1.2222 -0.2892 -1.3462
 2534SOL     OW19237   4.316   3.514  14.713  0.1657 -0.1052  0.0819
 2534SOL    HW119238   4.321   3.603  14.747 -3.0149  0.7395 -1.6889
 2534SOL    HW219239   4.241   3.523  14.654 -0.5328 -1.0611  0.8221
 2535SOL     OW19240   2.384   4.560   6.575  0.8171  0.4524  0.0616
 2535SOL    HW119241   2.374   4.515   6.660 -1.3790 -1.8288 -1.4110
 2535SOL    HW219242   2.329   4.637   6.588 -0.1884  0.0422 -1.8307
 2536SOL     OW19243   1.443   1.293   4.959  0.4066 -0.4324  0.1507
 2536SOL    HW119244   1.378   1.361   4.947  0.0016 -0.8860 -0.1972
 2536SOL    HW219245   1.480   1.320   5.043 -1.3633 -1.1669  1.1510
 2537SOL     OW19246   0.374   3.824   7.250 -0.1095 -0.1347  0.2778
 2537SOL    HW119247   0.406   3.856   7.334  1.5519 -0.0434 -0.3933
 2537SOL    HW219248   0.437   3.868   7.194  1.5020 -2.9494 -0.1153
 2538SOL     OW19249   3.867   3.504  13.441  0.2444  0.0845 -0.1898
 2538SOL    HW119250   3.798   3.569  13.451  0.9940  0.5756  1.8162
 2538SOL    HW219251   3.822   3.424  13.468  0.7917  0.4200  1.7258
 2539SOL     OW19252   0.931   0.044   2.573  0.0567  0.6354 -0.2721
 2539SOL    HW119253   1.020   0.027   2.543  0.6496  1.7290  0.8295
 2539SOL    HW219254   0.960   0.127   2.612 -0.4774  0.5859  0.2209
 2540SOL     OW19255   2.790   0.458   6.852 -0.3620  0.7315  0.1413
 2540SOL    HW119256   2.737   0.408   6.914  0.4169  0.4921  0.6119
 2540SOL    HW219257   2.724   0.508   6.803 -0.7314 -0.9768 -1.0979
 2541SOL     OW19258   2.681   2.522   3.621  0.1196  0.0171  0.4471
 2541SOL    HW119259   2.644   2.438   3.595  0.5473 -0.8181  2.4887
 2541SOL    HW219260   2.635   2.584   3.565 -1.1222  0.6907  2.2113
 2542SOL     OW19261   2.985   0.286   8.964 -0.2068 -0.1154 -0.3707
 2542SOL    HW119262   2.966   0.202   9.007 -1.8921  0.3423 -0.2120
 2542SOL    HW219263   2.918   0.340   9.005 -0.2067 -0.6395  0.3341
 2543SOL     OW19264   3.265   0.304   5.267  0.6194 -0.0341  0.2297
 2543SOL    HW119265   3.174   0.332   5.281  0.2940 -0.9069 -0.1463
 2543SOL    HW219266   3.316   0.372   5.311 -0.2249  0.9153 -0.2603
 2544SOL     OW19267   4.171   1.635   3.033  0.1533 -0.2393 -0.7491
 2544SOL    HW119268   4.172   1.729   3.013 -0.6313 -0.1310 -0.2752
 2544SOL    HW219269   4.149   1.644   3.126 -0.8169  0.1971 -1.0211
 2545SOL     OW19270   0.644   2.403   7.293 -0.2614  0.4577 -0.2770
 2545SOL    HW119271   0.590   2.443   7.361  1.6429  0.2133  1.3642
 2545SOL    HW219272   0.714   2.364   7.344 -0.2414  1.9537  0.8391
 2546SOL     OW19273   0.656   0.266  13.293 -0.1538  0.2238  0.2137
 2546SOL    HW119274   0.599   0.196  13.262 -0.2257  1.6198 -2.8124
 2546SOL    HW219275   0.744   0.227  13.299 -1.9128 -4.1142 -2.0716
 2547SOL     OW19276   4.639   1.765   4.504  0.0890 -0.0612 -0.7712
 2547SOL    HW119277   4.587   1.799   4.577  0.2876 -0.8044 -0.2894
 2547SOL    HW219278   4.611   1.674   4.500  1.4049 -0.4582 -0.6819
 2548SOL     OW19279   1.809   1.647  12.011 -0.2012 -0.5067 -0.0443
 2548SOL    HW119280   1.778   1.647  11.920 -1.0144 -0.4681  0.2332
 2548SOL    HW219281   1.893   1.603  12.000  0.0558 -0.0514  0.0969
 2549SOL     OW19282   4.578   0.443   0.545  0.7225 -1.0150 -0.1500
 2549SOL    HW119283   4.623   0.415   0.626 -3.6164  0.0108  2.5999
 2549SOL    HW219284   4.560   0.358   0.505  0.1919 -1.0185  0.0994
 2550SOL     OW19285   2.344   0.189  13.438 -0.5570  0.8584  0.0339
 2550SOL    HW119286   2.294   0.107  13.446 -0.9831  1.1281  0.1571
 2550SOL    HW219287   2.298   0.238  13.370  1.0739 -1.9664 -3.0555
 2551SOL     OW19288   3.696   4.041   6.933 -0.2315 -0.1420  0.2719
 2551SOL    HW119289   3.727   3.991   7.008  0.5435 -1.2257 -0.7562
 2551SOL    HW219290   3.611   4.006   6.907  0.5032 -0.4312 -1.7577
 2552SOL     OW19291   2.349   3.169   3.757 -0.3034  0.2825  0.4023
 2552SOL    HW119292   2.389   3.217   3.830 -0.8768  1.1647  0.1421
 2552SOL    HW219293   2.388   3.216   3.682 -0.2250  1.4159  1.1417
 2553SOL     OW19294   0.957   3.432   6.152  0.2647  0.3261 -0.0060
 2553SOL    HW119295   1.003   3.369   6.097 -2.1574  0.7265 -2.5123
 2553SOL    HW219296   0.866   3.402   6.145  0.0803  0.7872  0.4055
 2554SOL     OW19297   2.272   3.748   1.397 -0.2775 -0.5679 -0.0553
 2554SOL    HW119298   2.344   3.691   1.371 -0.5182 -2.2188  2.8806
 2554SOL    HW219299   2.230   3.749   1.311  0.9193 -1.3720 -0.6396
 2555SOL     OW19300   3.175   0.387  14.100  0.2721 -0.2573  0.6748
 2555SOL    HW119301   3.250   0.329  14.094  1.5893  1.4368  0.6341
 2555SOL    HW219302   3.158   0.405  14.007 -0.8013  1.4551  1.1981
 2556SOL     OW19303   0.670   4.027   2.573 -0.3361  0.0636  0.2715
 2556SOL    HW119304   0.662   4.004   2.481  1.3485  4.3288 -0.9368
 2556SOL    HW219305   0.586   4.072   2.585  0.7172  2.3562 -0.8575
 2557SOL     OW19306   2.554   3.850  14.958 -0.5586  0.3751 -0.7872
 2557SOL    HW119307   2.645   3.865  14.933 -0.7882 -1.9497 -3.0061
 2557SOL    HW219308   2.559   3.817  15.048  1.5096 -0.2948 -1.1401
 2558SOL     OW19309   3.294   1.194  16.966 -0.4994  0.7375 -0.0416
 2558SOL    HW119310   3.276   1.288  16.964 -2.7496  0.3441  3.8589
 2558SOL    HW219311   3.377   1.202  17.013  0.2713  0.8969 -1.4207
 2559SOL     OW19312   0.659   4.329   9.672 -0.0790  0.2869  0.5371
 2559SOL    HW119313   0.611   4.359   9.595  2.6105 -1.8861 -1.9750
 2559SOL    HW219314   0.750   4.347   9.646 -0.9359  0.3502 -2.4261
 2560SOL     OW19315   2.739   4.252   8.021  0.2420 -0.0806  0.4232
 2560SOL    HW119316   2.810   4.207   7.975 -0.4944 -0.2238 -0.5467
 2560SOL    HW219317   2.715   4.310   7.950 -1.0776 -0.2942  0.6941
 2561SOL     OW19318   0.713   0.429   5.971  0.4794  0.3336  0.2266
 2561SOL    HW119319   0.743   0.440   6.061  2.2587  0.6963 -0.4103
 2561SOL    HW219320   0.665   0.509   5.947 -0.7974 -0.1475  1.1925
 2562SOL     OW19321   1.656   0.738  14.663 -0.3874  0.4728  0.1446
 2562SOL    HW119322   1.594   0.801  14.700  0.2449  0.1964  1.6723
 2562SOL    HW219323   1.703   0.706  14.740 -0.3051  0.2151 -0.0119
 2563SOL     OW19324   4.658   2.059   3.797 -0.2913 -0.1663  0.0535
 2563SOL    HW119325   4.684   2.141   3.841 -0.1809 -0.6814  0.9465
 2563SOL    HW219326   4.707   2.063   3.715  1.3211 -2.8096  0.8869
 2564SOL     OW19327   3.494   2.066   8.290  0.2555 -0.3013 -0.3114
 2564SOL    HW119328   3.540   2.118   8.224 -0.2517  2.0667  1.1929
 2564SOL    HW219329   3.474   2.141   8.346  2.1830  0.5912 -0.8141
 2565SOL     OW19330   3.928   1.423   4.553  0.1379  0.2847  0.1575
 2565SOL    HW119331   3.910   1.439   4.645 -0.7323  0.0063  0.0318
 2565SOL    HW219332   3.978   1.502   4.533  1.7212 -0.7859 -0.1396
 2566SOL     OW19333   2.935   0.411   1.959 -0.4790  0.1719 -1.0061
 2566SOL    HW119334   3.021   0.376   1.982 -1.0628 -0.0731  0.8110
 2566SOL    HW219335   2.947   0.475   1.889 -0.5105  1.9593  0.6178
 2567SOL     OW19336   2.513   3.145   1.357 -0.0399  0.3335 -0.0482
 2567SOL    HW119337   2.562   3.194   1.290  1.4354  2.0931  2.3412
 2567SOL    HW219338   2.537   3.056   1.330  0.5828 -0.5339  3.4262
 2568SOL     OW19339   0.475   2.240   8.887 -0.0769 -0.3365  0.4684
 2568SOL    HW119340   0.511   2.163   8.931  2.2921  1.0698  0.9418
 2568SOL    HW219341   0.440   2.192   8.812 -1.2049 -0.8301  1.2989
 2569SOL     OW19342   0.897   1.898  15.696 -0.1996  0.1832  0.2168
 2569SOL    HW119343   0.929   1.962  15.633 -2.7161 -1.1126 -2.4234
 2569SOL    HW219344   0.902   1.817  15.644  0.2521 -0.5172  1.3595
 2570SOL     OW19345   3.484   0.802   2.391 -0.1105 -0.2860  0.5311
 2570SOL    HW119346   3.561   0.767   2.435  0.6375 -0.7073 -1.1271
 2570SOL    HW219347   3.528   0.842   2.317  0.0148 -0.4142  0.5357
 2571SOL     OW19348   4.115   2.056   1.945  0.5780  0.1332  0.3549
 2571SOL    HW119349   4.083   1.966   1.953 -1.5689  0.7452 -1.0681
 2571SOL    HW219350   4.108   2.069   1.850 -1.3223  1.0395  0.6236
 2572SOL     OW19351   2.974   1.672   4.628 -0.0101 -0.8307 -0.3026
 2572SOL    HW119352   3.003   1.581   4.625  0.2753 -0.8157  2.3890
 2572SOL    HW219353   3.042   1.725   4.670 -0.9635 -0.2155  0.4638
 2573SOL     OW19354   2.427   4.364  17.124 -0.3562 -0.1400  0.3925
 2573SOL    HW119355   2.398   4.418  17.197  0.0465  0.9489 -0.2639
 2573SOL    HW219356   2.467   4.433  17.072  1.1132 -0.6082  0.8895
 2574SOL     OW19357   1.687   2.103  12.539  0.4356  0.2113 -0.6822
 2574SOL    HW119358   1.680   2.192  12.574 -2.2368 -0.6288  0.9166
 2574SOL    HW219359   1.771   2.107  12.493 -0.0327 -0.5934 -1.6225
 2575SOL     OW19360   0.320   3.483  16.161 -0.1648 -0.2101  0.1475
 2575SOL    HW119361   0.241   3.536  16.148  0.0175 -0.1820 -0.8450
 2575SOL    HW219362   0.381   3.550  16.190 -0.9595  0.9256 -0.8590
 2576SOL     OW19363   0.488   1.062   4.860  0.0383  0.0655 -0.1956
 2576SOL    HW119364   0.580   1.068   4.833  0.3934 -0.8424  0.7999
 2576SOL    HW219365   0.472   0.971   4.837  0.0510 -0.5458  2.2116
 2577SOL     OW19366   0.786   4.717   7.223 -0.1393 -0.2544  0.3369
 2577SOL    HW119367   0.782   4.671   7.306 -0.3804  0.7987  0.9165
 2577SOL    HW219368   0.845   0.052   7.245 -0.8262  0.6269 -0.7259
 2578SOL     OW19369   2.403   4.408   1.192  0.4100  0.1460 -0.1247
 2578SOL    HW119370   2.421   4.388   1.100  1.3644 -0.4415  0.1885
 2578SOL    HW219371   2.361   4.327   1.223  0.8055 -0.5527 -1.3810
 2579SOL     OW19372   0.547   1.645   6.978  0.4621 -0.2571  0.3926
 2579SOL    HW119373   0.587   1.596   7.050  2.6876 -1.3395 -1.6124
 2579SOL    HW219374   0.494   1.582   6.929 -1.0108 -0.0297  1.6676
 2580SOL     OW19375   0.221   4.511   7.093 -0.3677 -0.0515  0.6259
 2580SOL    HW119376   0.217   4.419   7.068  1.5029  0.2348 -0.6530
 2580SOL    HW219377   0.314   4.526   7.080 -1.0959  1.7713 -2.3586
 2581SOL     OW19378   4.085   2.551   3.476 -0.8928  0.1230 -0.1563
 2581SOL    HW119379   4.014   2.609   3.502  0.1312  0.9526  0.7980
 2581SOL    HW219380   4.104   2.577   3.385 -0.4215  1.9218  0.4594
 2582SOL     OW19381   2.017   3.756   7.616  0.0162 -0.2749  0.6970
 2582SOL    HW119382   2.096   3.807   7.599  0.5406 -1.2933  0.0701
 2582SOL    HW219383   2.043   3.686   7.676  1.4280 -0.1176  0.2590
 2583SOL     OW19384   1.596   4.004   8.921  0.2939  0.2083  0.5796
 2583SOL    HW119385   1.515   3.975   8.879  1.2729  0.8054 -1.7142
 2583SOL    HW219386   1.602   4.085   8.870  0.8265  0.0387  0.3757
 2584SOL     OW19387   4.168   4.497  12.170  0.6318  0.6974 -0.7002
 2584SOL    HW119388   4.156   4.445  12.091  0.2002  0.0532 -0.2093
 2584SOL    HW219389   4.163   4.585  12.132  2.0770  0.4322 -1.5003
 2585SOL     OW19390   0.445   3.229  13.374 -0.1606 -0.1922 -0.3293
 2585SOL    HW119391   0.425   3.149  13.325 -0.7095 -0.9366  1.0952
 2585SOL    HW219392   0.535   3.208  13.397  0.2667 -0.0715 -1.9351
 2586SOL     OW19393   3.333   1.414   2.832 -0.1245  0.4707 -0.2261
 2586SOL    HW119394   3.395   1.482   2.805 -0.8483  0.1446 -2.6866
 2586SOL    HW219395   3.323   1.430   2.926  2.0885 -1.0679  0.2936
 2587SOL     OW19396   0.539   4.494   7.143 -0.0208  0.0087 -0.4533
 2587SOL    HW119397   0.599   4.426   7.114  2.2446  1.3518  1.0188
 2587SOL    HW219398   0.483   4.447   7.204  2.0828 -1.0254  0.7001
 2588SOL     OW19399   4.322   4.497   1.993  0.0628  0.1003  1.3034
 2588SOL    HW119400   4.413   4.521   1.977 -0.4184  1.1234  0.1860
 2588SOL    HW219401   4.301   4.573   2.048  1.8881  0.4682  1.5019
 2589SOL     OW19402   1.137   1.036   3.809  0.2805  0.1871 -0.0287
 2589SOL    HW119403   1.065   1.021   3.871 -0.5865  3.6473 -0.2013
 2589SOL    HW219404   1.103   1.113   3.765 -0.4425  0.4390  0.9819
 2590SOL     OW19405   0.795   0.143   4.699  0.1233  0.3264 -1.1388
 2590SOL    HW119406   0.730   0.081   4.665 -0.2384  0.3651 -0.5115
 2590SOL    HW219407   0.747   0.184   4.771  0.8058  1.1834 -1.1656
 2591SOL     OW19408   1.228   3.747  13.506 -0.1429  0.7261  0.7302
 2591SOL    HW119409   1.324   3.751  13.515  0.0663  0.5072 -1.5686
 2591SOL    HW219410   1.199   3.792  13.586 -1.3340  2.6674 -0.8028
 2592SOL     OW19411   1.366   3.546   2.741  0.4889  0.1975 -0.0117
 2592SOL    HW119412   1.360   3.610   2.811  4.2596 -1.5787  1.9928
 2592SOL    HW219413   1.369   3.463   2.789  0.5399  0.3043  0.1708
 2593SOL     OW19414   4.391   3.881   2.635 -0.0746  1.2424 -0.1796
 2593SOL    HW119415   4.297   3.894   2.644 -0.2839 -0.0349 -0.5505
 2593SOL    HW219416   4.415   3.887   2.727  0.6131  1.8729 -0.3941
 2594SOL     OW19417   2.559   3.268   2.584  0.4330 -0.4670 -0.0013
 2594SOL    HW119418   2.631   3.252   2.523  1.2927 -1.0964  1.1761
 2594SOL    HW219419   2.492   3.288   2.518  1.4740  0.6019 -0.7318
 2595SOL     OW19420   3.521   1.255   2.380  0.2002 -0.2538 -0.1111
 2595SOL    HW119421   3.583   1.194   2.419  0.5609  0.2665  0.1319
 2595SOL    HW219422   3.440   1.228   2.424 -0.9889  0.0695 -2.0815
 2596SOL     OW19423   2.873   2.210   6.326 -0.1776 -0.0735 -0.3995
 2596SOL    HW119424   2.806   2.197   6.392  1.9972 -0.0057  1.8092
 2596SOL    HW219425   2.858   2.130   6.276 -1.5879 -0.1034  0.0802
 2597SOL     OW19426   4.252   3.541   8.336 -0.7049  0.5454 -0.8107
 2597SOL    HW119427   4.180   3.498   8.382  0.5216  0.2740  0.8535
 2597SOL    HW219428   4.277   3.464   8.285  0.0785 -0.0328  0.4588
 2598SOL     OW19429   4.047   2.994   2.915  0.3718  0.4594 -0.0493
 2598SOL    HW119430   3.954   3.011   2.931  0.1095 -1.7266  0.6865
 2598SOL    HW219431   4.058   3.037   2.831  1.7986  0.8755  0.3406
 2599SOL     OW19432   1.964   3.116   3.831  0.0930 -0.4916  0.6001
 2599SOL    HW119433   1.901   3.187   3.838  1.7841  0.9194  1.3468
 2599SOL    HW219434   2.022   3.140   3.903  1.1475 -1.8399  0.2050
 2600SOL     OW19435   1.622   2.062  10.958 -0.0122 -0.5059  0.5012
 2600SOL    HW119436   1.713   2.089  10.973  0.6644 -2.7416  0.4235
 2600SOL    HW219437   1.573   2.143  10.973  1.8327  0.9347 -1.3060
 2601SOL     OW19438   1.895   0.645   3.057 -0.7450  0.0407  0.4171
 2601SOL    HW119439   1.806   0.615   3.079  0.2076 -2.1347  1.2661
 2601SOL    HW219440   1.880   0.657   2.963 -1.1846  0.6815  0.5714
 2602SOL     OW19441   3.903   3.727   7.752 -0.2541 -0.2767  0.0232
 2602SOL    HW119442   3.905   3.631   7.757  0.5419 -0.2644 -0.0452
 2602SOL    HW219443   3.834   3.744   7.688 -0.4278 -1.2640 -0.0518
 2603SOL     OW19444   1.016   2.847   5.127 -0.4020 -0.1021  0.3729
 2603SOL    HW119445   0.938   2.790   5.132  0.0222 -0.5245  2.1542
 2603SOL    HW219446   1.087   2.785   5.109  1.0758  1.2250  1.6706
 2604SOL     OW19447   0.135   3.161   4.400  0.6639  0.0319  0.0927
 2604SOL    HW119448   0.221   3.124   4.382 -0.0612 -0.2809 -2.7487
 2604SOL    HW219449   0.074   3.143   4.328  0.0240 -1.1481  0.9284
 2605SOL     OW19450   0.346   3.251   5.365 -0.1662  0.2808  0.7925
 2605SOL    HW119451   0.318   3.174   5.414  0.0589  0.0834  0.6122
 2605SOL    HW219452   0.265   3.284   5.326  1.1000  1.0747 -1.1660
 2606SOL     OW19453   3.309   1.173   8.064  0.4826 -0.5731  0.5981
 2606SOL    HW119454   3.398   1.139   8.052  1.0966  0.8015  1.2614
 2606SOL    HW219455   3.261   1.096   8.096 -0.6096 -1.0631 -2.1703
 2607SOL     OW19456   4.157   1.031   9.684 -0.3661  0.0699 -0.3331
 2607SOL    HW119457   4.164   1.118   9.645 -0.0001 -0.5128 -1.5719
 2607SOL    HW219458   4.065   1.032   9.712 -0.9593  3.7481 -2.4334
 2608SOL     OW19459   3.980   4.298   8.774 -0.1853  0.1444  0.0881
 2608SOL    HW119460   3.946   4.216   8.809 -2.8652  1.7640  1.3533
 2608SOL    HW219461   3.997   4.341   8.858 -2.6755  1.3720 -0.0312
 2609SOL     OW19462   4.329   0.715  10.214  0.1464 -0.6232 -0.8881
 2609SOL    HW119463   4.323   0.688  10.122 -1.7702 -2.3824 -0.2535
 2609SOL    HW219464   4.316   0.809  10.200  0.5253 -0.6846 -1.6728
 2610SOL     OW19465   2.118   0.799   9.352  0.3662 -0.5073  0.1078
 2610SOL    HW119466   2.094   0.712   9.384 -0.4223 -0.1724  0.4247
 2610SOL    HW219467   2.157   0.792   9.265  0.4279 -2.1901  0.2629
 2611SOL     OW19468   0.256   1.932  12.742 -0.4090  0.1752  0.5802
 2611SOL    HW119469   0.302   1.863  12.790  1.9126  0.4874 -1.1952
 2611SOL    HW219470   0.221   1.888  12.664  0.6367  2.4539 -1.1816
 2612SOL     OW19471   4.363   2.255  16.019  0.2168 -0.3437  0.0089
 2612SOL    HW119472   4.412   2.285  15.943  0.3669 -1.1691 -0.2156
 2612SOL    HW219473   4.311   2.335  16.027 -0.3692 -0.4018 -3.0778
 2613SOL     OW19474   4.337   3.625   2.517  0.1102 -0.3410  0.2239
 2613SOL    HW119475   4.359   3.715   2.538  1.2428 -0.5129 -0.2160
 2613SOL    HW219476   4.348   3.592   2.606 -0.6165 -0.5028  0.2587
 2614SOL     OW19477   3.140   3.566   0.857  0.4801  0.3655  0.2392
 2614SOL    HW119478   3.177   3.478   0.856 -0.5316 -0.0567 -0.3201
 2614SOL    HW219479   3.216   3.618   0.833  1.1701 -1.4910 -1.6347
 2615SOL     OW19480   4.543   3.067   8.798  0.7497  0.1142 -0.4425
 2615SOL    HW119481   4.556   3.081   8.892 -0.0569 -1.6947 -0.0685
 2615SOL    HW219482   4.476   3.001   8.813  1.8497 -1.0308 -0.5960
 2616SOL     OW19483   2.369   3.921   8.457 -0.1079  0.2687  0.0188
 2616SOL    HW119484   2.377   3.951   8.548 -0.2352  0.6750 -0.1049
 2616SOL    HW219485   2.325   4.001   8.429 -0.9636 -0.6056 -1.1263
 2617SOL     OW19486   4.304   4.243  17.008  0.2062 -0.1854  0.7129
 2617SOL    HW119487   4.271   4.185  17.076 -0.5388  0.8286  1.2137
 2617SOL    HW219488   4.238   4.225  16.941  1.4297  1.5073 -0.9843
 2618SOL     OW19489   1.497   3.069   9.704  0.1897 -0.5158  0.3811
 2618SOL    HW119490   1.586   3.102   9.689  0.2342 -0.8096  0.0286
 2618SOL    HW219491   1.503   2.984   9.661 -0.9369  0.8183 -2.4226
 2619SOL     OW19492   1.289   3.194   8.500 -0.2625  0.3120  0.3034
 2619SOL    HW119493   1.253   3.261   8.558  1.4103  1.9221 -0.5002
 2619SOL    HW219494   1.220   3.128   8.509 -0.1616  0.1105 -0.4013
 2620SOL     OW19495   0.829   1.867   2.418  0.0649  0.4062  0.9071
 2620SOL    HW119496   0.871   1.939   2.370 -1.3022  0.1048 -0.7493
 2620SOL    HW219497   0.878   1.790   2.389 -0.8250 -0.0087  0.5298
 2621SOL     OW19498   1.385   0.994  17.646  0.4987  0.0709  0.0651
 2621SOL    HW119499   1.469   0.997  17.691  0.2613  0.7413  0.4583
 2621SOL    HW219500   1.323   0.985  17.717  1.1227  0.7330  0.6942
 2622SOL     OW19501   2.324   3.081  12.808 -0.2086  0.0573  0.6107
 2622SOL    HW119502   2.326   2.990  12.838 -0.1320 -0.8112 -2.0480
 2622SOL    HW219503   2.413   3.085  12.773 -1.3229  0.2088 -2.2084
 2623SOL     OW19504   2.260   0.096   3.359  0.0281  0.7581 -0.0938
 2623SOL    HW119505   2.319   0.057   3.423 -0.3459  0.7623  0.2506
 2623SOL    HW219506   2.303   0.174   3.325  0.2939  0.2621 -0.9193
 2624SOL     OW19507   4.191   0.442   2.403 -0.2299 -0.1901 -0.0129
 2624SOL    HW119508   4.095   0.440   2.407 -0.3341  2.1768 -1.1219
 2624SOL    HW219509   4.209   0.450   2.496  1.3395  3.0401 -0.5763
 2625SOL     OW19510   0.933   1.869   3.229  0.2031  0.2277  0.0317
 2625SOL    HW119511   0.892   1.901   3.149  1.7473 -0.1626 -0.9081
 2625SOL    HW219512   0.994   1.802   3.200 -1.8363 -1.2082 -0.9285
 2626SOL     OW19513   1.283   4.684   3.489  0.1218 -0.3809 -0.0235
 2626SOL    HW119514   1.287   4.601   3.441  3.7114  0.7408 -1.6417
 2626SOL    HW219515   1.258   4.652   3.576 -0.3558 -0.1993 -0.0924
 2627SOL     OW19516   3.006   4.321   5.309 -0.0867 -0.1797 -0.2778
 2627SOL    HW119517   2.982   4.229   5.324 -1.1067 -0.1355 -1.5420
 2627SOL    HW219518   3.099   4.318   5.330  0.1031 -0.1502 -1.0881
 2628SOL     OW19519   2.703   2.186   4.665 -0.2754 -0.0115 -0.1157
 2628SOL    HW119520   2.636   2.139   4.615  0.7003 -1.0171 -0.4948
 2628SOL    HW219521   2.694   2.270   4.620  0.3247  0.0484 -0.1172
 2629SOL     OW19522   4.543   4.113  11.026  0.0265  0.0240 -0.4682
 2629SOL    HW119523   4.515   4.191  10.978  0.7356  0.7228  0.2481
 2629SOL    HW219524   4.637   4.129  11.033  0.3425 -1.7230 -0.8011
 2630SOL     OW19525   0.174   4.211  16.389 -0.2517 -0.2922  0.0833
 2630SOL    HW119526   0.122   4.163  16.325 -0.4698  0.1301 -0.0598
 2630SOL    HW219527   0.223   4.139  16.429 -0.3256 -1.0390 -1.1851
 2631SOL     OW19528   4.019   3.782   3.631  0.4808 -0.3299  0.0374
 2631SOL    HW119529   4.100   3.824   3.661 -1.3538  2.7112  0.7865
 2631SOL    HW219530   3.962   3.859   3.625  1.7203  0.5567 -0.3651
 2632SOL     OW19531   0.196   2.261   6.840 -0.7241  0.1903 -0.1534
 2632SOL    HW119532   0.256   2.247   6.767  0.0091 -0.7055  0.6070
 2632SOL    HW219533   0.119   2.249   6.785 -2.3266  1.0654  1.8847
 2633SOL     OW19534   2.663   3.591   2.213  0.6150 -0.2648 -0.4839
 2633SOL    HW119535   2.735   3.546   2.257  1.9203  2.2508 -0.0317
 2633SOL    HW219536   2.647   3.534   2.137 -1.0500  0.2305 -0.5106
 2634SOL     OW19537   3.311   4.552   4.576  0.7986  0.3597  0.2097
 2634SOL    HW119538   3.249   4.611   4.620  1.2675  1.8007 -1.0473
 2634SOL    HW219539   3.396   4.573   4.616  1.4098  0.3686 -1.0998
 2635SOL     OW19540   0.389   4.395  13.843  0.4426  0.4077 -0.1584
 2635SOL    HW119541   0.304   4.368  13.879  1.3854 -0.6172  1.2768
 2635SOL    HW219542   0.381   4.346  13.761 -1.3041  0.2032  0.1384
 2636SOL     OW19543   2.064   3.907   6.149  0.5507 -0.4429  0.5054
 2636SOL    HW119544   2.133   3.876   6.090  2.5569  0.0951  2.5631
 2636SOL    HW219545   2.069   4.002   6.140 -1.8695 -0.4395 -0.7631
 2637SOL     OW19546   0.578   4.611  11.178  0.7219  0.7356 -0.5694
 2637SOL    HW119547   0.595   4.531  11.228 -1.2487 -1.0522 -2.7191
 2637SOL    HW219548   0.604   4.681  11.238  0.7079  3.8036 -4.1374
 2638SOL     OW19549   3.279   2.892   5.194  0.1206 -0.0065 -0.3633
 2638SOL    HW119550   3.298   2.798   5.202  1.5129  0.1411 -1.8859
 2638SOL    HW219551   3.284   2.898   5.099  4.4485 -0.6798 -0.1863
 2639SOL     OW19552   3.274   4.147   2.758  0.6729  0.0784 -0.6818
 2639SOL    HW119553   3.327   4.199   2.698 -0.0289  0.0184 -1.3582
 2639SOL    HW219554   3.238   4.086   2.694 -2.1553  0.3462  0.6508
 2640SOL     OW19555   0.188   2.022   7.473 -0.7437 -0.9601 -0.3261
 2640SOL    HW119556   0.264   2.055   7.425  0.0725 -1.5617  0.5642
 2640SOL    HW219557   0.118   2.064   7.423 -0.8520 -0.7337  0.0161
 2641SOL     OW19558   0.430   0.019  12.452  0.3458 -0.5985  0.0537
 2641SOL    HW119559   0.381   4.714  12.521 -1.1883  0.5690 -0.3004
 2641SOL    HW219560   0.467   0.096  12.496  1.3813 -0.8907 -0.2953
 2642SOL     OW19561   1.228   4.412   4.918  0.0339 -0.4381 -0.4657
 2642SOL    HW119562   1.194   4.496   4.948  1.9050  1.0436 -2.5185
 2642SOL    HW219563   1.276   4.444   4.841 -0.2946  2.1400  0.4238
 2643SOL     OW19564   0.039   4.392   6.859 -0.2317 -0.0019  0.4905
 2643SOL    HW119565   0.097   4.357   6.791 -0.7905  0.1497 -0.0734
 2643SOL    HW219566   0.078   4.351   6.935 -0.9766 -0.7969  0.4489
 2644SOL     OW19567   4.578   1.660  16.488 -0.7084  0.2628 -0.3895
 2644SOL    HW119568   4.510   1.655  16.421 -1.8144  0.7395  0.6980
 2644SOL    HW219569   4.634   1.588  16.458 -0.9955 -0.9335  1.9102
 2645SOL     OW19570   2.023   2.543   7.016  0.3170 -0.5161 -0.2095
 2645SOL    HW119571   2.046   2.493   7.094 -2.1788 -1.3823 -0.0450
 2645SOL    HW219572   1.997   2.474   6.956  0.7425 -1.4552  0.6892
 2646SOL     OW19573   2.084   0.990   4.553  0.4853  0.0811 -0.1482
 2646SOL    HW119574   2.162   1.042   4.574 -1.4145  2.3627  1.2841
 2646SOL    HW219575   2.029   1.059   4.517  2.0223  1.8005  0.8185
 2647SOL     OW19576   1.877   2.023   5.401 -0.1474 -0.2840 -0.0933
 2647SOL    HW119577   1.786   2.019   5.373 -0.4594  0.5892  0.8141
 2647SOL    HW219578   1.874   1.965   5.478 -1.2505  0.8630  0.7144
 2648SOL     OW19579   0.314   2.289  12.547  0.0376  0.6381 -0.2907
 2648SOL    HW119580   0.329   2.206  12.502 -0.6598  0.7382 -0.7078
 2648SOL    HW219581   0.323   2.254  12.635 -0.8911 -0.4696 -0.6434
 2649SOL     OW19582   1.455   3.130   6.873  0.7163 -0.6181 -0.3280
 2649SOL    HW119583   1.549   3.137   6.857  0.8818 -1.7717  0.0944
 2649SOL    HW219584   1.435   3.223   6.862 -1.2938 -0.9562  0.4164
 2650SOL     OW19585   0.858   2.549   3.933 -0.2682 -0.0143  0.8521
 2650SOL    HW119586   0.818   2.494   4.000 -1.7465 -0.6653 -0.5786
 2650SOL    HW219587   0.793   2.620   3.930  0.1104  0.1696 -2.9787
 2651SOL     OW19588   0.932   2.786   4.631 -0.3327  0.2192 -0.0188
 2651SOL    HW119589   1.024   2.778   4.606 -0.3112 -0.2542  0.2099
 2651SOL    HW219590   0.896   2.818   4.548 -1.0751  1.5517  0.8167
 2652SOL     OW19591   1.408   2.270   3.065  0.1085 -0.0155 -0.0791
 2652SOL    HW119592   1.460   2.254   2.987  0.9756 -0.4504  0.5864
 2652SOL    HW219593   1.346   2.198   3.070 -1.0747  1.0511  0.6786
 2653SOL     OW19594   2.840   4.100   4.213  0.0831  0.5119 -0.2161
 2653SOL    HW119595   2.832   4.133   4.123 -1.5406  0.7592  0.0145
 2653SOL    HW219596   2.760   4.047   4.212 -0.0677  0.7300  0.7429
 2654SOL     OW19597   4.560   4.700   0.792 -0.2743 -0.7147 -0.2701
 2654SOL    HW119598   4.549   0.054   0.769  1.9136 -0.7565 -1.5157
 2654SOL    HW219599   4.521   4.671   0.710  2.5569 -2.7302 -0.9133
 2655SOL     OW19600   4.220   2.322   7.470 -0.0851  0.4769  0.2591
 2655SOL    HW119601   4.177   2.266   7.405  1.1867 -1.6394  1.2605
 2655SOL    HW219602   4.312   2.307   7.448 -0.8425  0.1209 -2.6674
 2656SOL     OW19603   2.696   2.950   7.993  0.0022  0.9998 -0.1190
 2656SOL    HW119604   2.637   2.882   7.959  0.3913  0.5333  0.1359
 2656SOL    HW219605   2.713   2.996   7.911  1.6799 -0.8065 -0.7830
 2657SOL     OW19606   1.234   1.336  11.925  0.2516  0.0812  0.5890
 2657SOL    HW119607   1.313   1.373  11.887  1.0907 -0.0235  2.2232
 2657SOL    HW219608   1.266   1.246  11.929  0.6959  0.1454 -1.4574
 2658SOL     OW19609   2.937   2.915   9.771 -0.5189  0.4745  0.4971
 2658SOL    HW119610   2.995   2.978   9.729  0.6336 -1.6615 -1.0812
 2658SOL    HW219611   2.938   2.844   9.707  2.5614  2.1344 -1.3041
 2659SOL     OW19612   3.303   2.632  10.502  0.0002 -0.1146 -0.5708
 2659SOL    HW119613   3.234   2.694  10.479 -0.3078 -0.1892  0.1593
 2659SOL    HW219614   3.256   2.549  10.512 -2.7841  1.5489  0.0264
 2660SOL     OW19615   2.123   0.039  16.837 -0.0267 -0.1867 -0.3278
 2660SOL    HW119616   2.103   0.073  16.749 -0.3723 -0.7563 -0.4701
 2660SOL    HW219617   2.120   0.123  16.883 -0.0599  0.8748 -2.2509
 2661SOL     OW19618   0.023   2.898   6.861 -0.3284 -0.5045 -0.3652
 2661SOL    HW119619   0.113   2.907   6.828 -0.1282  1.2614  0.6232
 2661SOL    HW219620   0.038   2.936   6.948  1.8891  0.2538 -1.0639
 2662SOL     OW19621   3.366   0.335  13.432  0.3991 -0.3128 -0.2306
 2662SOL    HW119622   3.422   0.346  13.510  0.3494  0.4914 -0.3107
 2662SOL    HW219623   3.277   0.349  13.465  0.9404  0.8285  0.7545
 2663SOL     OW19624   0.571   0.116   9.740 -0.7509  0.5860  0.3654
 2663SOL    HW119625   0.658   0.077   9.733 -1.2537 -0.5926  0.6418
 2663SOL    HW219626   0.582   0.211   9.743  0.0403  0.4966  0.1122
 2664SOL     OW19627   3.424   0.937   4.087  0.5425  0.3967 -0.1580
 2664SOL    HW119628   3.332   0.913   4.088  0.8074 -0.5676  1.1608
 2664SOL    HW219629   3.435   1.019   4.135  3.1673 -0.0138 -0.0569
 2665SOL     OW19630   1.743   1.582   2.225 -0.1835  0.5846  0.8227
 2665SOL    HW119631   1.701   1.621   2.302 -2.0307  1.8835 -0.8641
 2665SOL    HW219632   1.687   1.507   2.207  1.4274  0.0556 -1.9388
 2666SOL     OW19633   0.672   2.810  12.584  0.6049 -0.2746 -0.1621
 2666SOL    HW119634   0.709   2.731  12.545  1.5639 -0.6002  1.4285
 2666SOL    HW219635   0.656   2.855  12.501  0.8109 -2.0823 -1.1842
 2667SOL     OW19636   0.847   3.085  11.037 -0.8828 -0.1901 -1.0786
 2667SOL    HW119637   0.779   3.152  11.046 -1.9658 -1.4576  0.2466
 2667SOL    HW219638   0.920   3.143  11.016 -1.3550  0.4556 -0.9400
 2668SOL     OW19639   2.234   1.554  14.419  0.4834  0.4099 -0.5214
 2668SOL    HW119640   2.276   1.586  14.499  1.3277 -0.2951 -0.6917
 2668SOL    HW219641   2.170   1.626  14.412  0.8723  0.8612  0.5778
 2669SOL     OW19642   4.210   1.560   5.930 -0.5211  0.2328 -0.6104
 2669SOL    HW119643   4.269   1.549   5.856 -0.2098 -1.0814 -0.1735
 2669SOL    HW219644   4.193   1.473   5.965 -1.1506  0.7901  0.4743
 2670SOL     OW19645   2.019   1.478   5.994  0.1456 -0.0805 -0.1832
 2670SOL    HW119646   1.949   1.495   5.931  1.4248  2.9471 -0.8056
 2670SOL    HW219647   1.989   1.513   6.078 -0.6061  0.7058 -0.7754
 2671SOL     OW19648   0.626   1.153   2.733 -0.4655  0.0391  0.2732
 2671SOL    HW119649   0.554   1.091   2.718 -0.3778  0.1537 -0.6314
 2671SOL    HW219650   0.594   1.195   2.812 -0.4898  0.3031  0.1238
 2672SOL     OW19651   4.622   4.058   9.708  0.4420 -0.1695 -0.9073
 2672SOL    HW119652   4.620   4.074   9.613  0.4421 -0.8617 -1.0212
 2672SOL    HW219653   4.676   4.126   9.748 -0.7682  0.0680  0.2807
 2673SOL     OW19654   0.790   2.258  16.043  0.8234  0.4489 -0.4605
 2673SOL    HW119655   0.758   2.346  16.024 -0.3898  0.3086  0.9193
 2673SOL    HW219656   0.724   2.198  16.008  0.3937  1.1007 -0.7667
 2674SOL     OW19657   2.905   1.855   5.397  0.2764 -0.0129  0.6252
 2674SOL    HW119658   2.954   1.930   5.362 -3.2136  2.3665  0.8816
 2674SOL    HW219659   2.941   1.787   5.340 -1.0434  0.6361 -0.9724
 2675SOL     OW19660   1.322   2.307   1.404 -0.2330  0.4064  0.4442
 2675SOL    HW119661   1.348   2.292   1.313  0.6958 -0.2085  0.8098
 2675SOL    HW219662   1.387   2.370   1.434  1.9151 -1.9467  0.7069
 2676SOL     OW19663   1.934   1.300  10.282 -0.4365 -0.1024 -0.1234
 2676SOL    HW119664   1.863   1.363  10.296 -0.5484 -0.5539  1.3309
 2676SOL    HW219665   1.958   1.333  10.196  0.1876 -0.3741 -0.0486
 2677SOL     OW19666   0.371   4.268   2.388 -0.3375  0.0060  0.1347
 2677SOL    HW119667   0.387   4.352   2.432  0.7338  0.2918 -0.7891
 2677SOL    HW219668   0.352   4.219   2.468 -0.2859  1.0412  0.7865
 2678SOL     OW19669   0.475   1.865   1.678 -0.3608  0.1937  0.5707
 2678SOL    HW119670   0.486   1.807   1.753  0.8643 -0.7213 -0.3165
 2678SOL    HW219671   0.384   1.893   1.689 -0.2332  1.7353 -2.1964
 2679SOL     OW19672   0.486   2.634   3.395 -0.6440 -0.2783  0.0422
 2679SOL    HW119673   0.412   2.590   3.352  1.0324 -0.5164 -2.5886
 2679SOL    HW219674   0.550   2.564   3.403  0.0896  0.4335  0.3774
 2680SOL     OW19675   1.181   2.551   0.997 -0.0917 -1.1798  0.9153
 2680SOL    HW119676   1.129   2.522   0.923  1.8724  1.4137 -1.4871
 2680SOL    HW219677   1.198   2.471   1.046 -2.8441 -1.5200  1.2839
 2681SOL     OW19678   3.201   3.699   0.488 -0.0567 -0.3153  0.1573
 2681SOL    HW119679   3.114   3.737   0.476  1.5604  2.7638 -2.0188
 2681SOL    HW219680   3.223   3.662   0.403 -0.1068 -0.3008  0.1379
 2682SOL     OW19681   1.329   1.125   2.672 -0.1301  0.1979 -0.0251
 2682SOL    HW119682   1.374   1.127   2.756  3.7601 -1.2408 -2.0612
 2682SOL    HW219683   1.253   1.171   2.707  0.6081  0.1717  1.6008
 2683SOL     OW19684   2.235   2.903   3.747 -0.8619  0.3034  0.2929
 2683SOL    HW119685   2.262   2.994   3.740  0.7087 -0.2923 -1.3228
 2683SOL    HW219686   2.264   2.886   3.837 -1.8563 -0.5802  0.4522
 2684SOL     OW19687   1.386   3.057   5.093  0.4758 -0.0466  0.3554
 2684SOL    HW119688   1.377   3.003   5.014  0.8020 -0.0901  0.3482
 2684SOL    HW219689   1.299   3.046   5.133  0.5207 -0.1213  0.4303
 2685SOL     OW19690   0.269   4.311  13.113 -0.0453  0.3977  0.3744
 2685SOL    HW119691   0.312   4.226  13.112 -0.8911  0.0032 -2.2834
 2685SOL    HW219692   0.345   4.369  13.102 -0.3988  0.9303  0.7046
 2686SOL     OW19693   0.759   2.470   2.228 -0.5070  0.1820 -0.0523
 2686SOL    HW119694   0.759   2.554   2.274 -0.8279 -0.6372  1.4530
 2686SOL    HW219695   0.839   2.425   2.255 -2.2993 -2.5456  0.6445
 2687SOL     OW19696   4.662   1.186   6.623  0.1177 -0.6381  0.1370
 2687SOL    HW119697   4.628   1.192   6.713  0.3605 -2.1151  0.3176
 2687SOL    HW219698   4.719   1.110   6.631  0.9948  0.1535  1.5228
 2688SOL     OW19699   3.840   0.290  10.696 -0.1694  0.0382 -0.3194
 2688SOL    HW119700   3.826   0.318  10.606 -1.2944 -0.5768 -0.3310
 2688SOL    HW219701   3.897   0.213  10.685 -2.0556 -1.3349 -0.4516
 2689SOL     OW19702   0.962   4.364   8.718 -0.4093 -0.0254  0.2523
 2689SOL    HW119703   0.927   4.276   8.703 -1.1932  0.4454 -0.7317
 2689SOL    HW219704   1.035   4.358   8.656 -0.5408 -1.6225  0.2438
 2690SOL     OW19705   4.697   1.642   7.673  0.0695  0.0803  0.3063
 2690SOL    HW119706   4.624   1.647   7.734  0.3022  1.7842  0.4414
 2690SOL    HW219707   4.651   1.682   7.599 -1.7257 -3.0438 -0.2613
 2691SOL     OW19708   4.453   4.022  16.097 -0.1673 -0.1180  0.4621
 2691SOL    HW119709   4.465   3.965  16.173 -0.9370 -1.0444 -0.1139
 2691SOL    HW219710   4.537   4.006  16.055 -1.5324 -1.4177 -1.7730
 2692SOL     OW19711   0.757   2.340   9.770  0.1576  0.6055 -0.2832
 2692SOL    HW119712   0.693   2.375   9.708 -1.2213  1.4715  1.6260
 2692SOL    HW219713   0.732   2.390   9.848  1.7443  1.8767 -0.6003
 2693SOL     OW19714   2.836   3.824  13.928 -0.2567  0.1404 -0.0768
 2693SOL    HW119715   2.811   3.891  13.992 -0.9383 -0.9889  0.8384
 2693SOL    HW219716   2.869   3.891  13.868 -2.4805  0.1443 -1.2718
 2694SOL     OW19717   0.181   3.395   3.467  0.2056 -0.2527  0.2966
 2694SOL    HW119718   0.100   3.425   3.427  0.0956  0.8484  1.3526
 2694SOL    HW219719   0.249   3.417   3.403 -0.1833 -0.9306 -0.3468
 2695SOL     OW19720   3.208   1.563   5.654  0.1003  1.1128 -0.2728
 2695SOL    HW119721   3.135   1.517   5.613 -1.9252  2.9343  1.3763
 2695SOL    HW219722   3.199   1.533   5.744 -0.9046 -2.3995 -1.5326
 2696SOL     OW19723   3.181   0.335  16.589 -0.4169 -0.7471 -0.2253
 2696SOL    HW119724   3.121   0.387  16.642  0.4546 -0.9907  0.9812
 2696SOL    HW219725   3.168   0.381  16.506 -1.1039  1.1645  0.9707
 2697SOL     OW19726   4.610   0.132   4.501 -0.2535  0.0118 -0.2817
 2697SOL    HW119727   4.595   0.223   4.475  0.0565  0.3609  0.7577
 2697SOL    HW219728   4.641   0.099   4.417 -2.7877  1.3698 -1.7508
 2698SOL     OW19729   3.735   0.883   7.417  0.5815  0.0840 -0.2917
 2698SOL    HW119730   3.762   0.802   7.461 -0.1039 -0.9515 -1.7808
 2698SOL    HW219731   3.814   0.910   7.371  3.4486 -1.5490  3.5682
 2699SOL     OW19732   2.609   4.255  16.224  0.0839  0.1189  0.0967
 2699SOL    HW119733   2.601   4.213  16.139 -0.2309 -1.0687  0.7199
 2699SOL    HW219734   2.526   4.235  16.267  1.0325 -2.8137  0.5384
 2700SOL     OW19735   1.404   1.119  17.292 -0.2659 -0.5363 -0.3165
 2700SOL    HW119736   1.387   1.156  17.205  1.0776 -1.9248 -1.1698
 2700SOL    HW219737   1.418   1.201  17.340 -1.8219 -0.8647  0.6794
 2701SOL     OW19738   2.515   0.067   5.641  0.0376 -0.0888  0.1229
 2701SOL    HW119739   2.485   0.132   5.577  0.8819  1.0863  0.9269
 2701SOL    HW219740   2.439   0.033   5.688 -0.5642  0.6218 -0.3378
 2702SOL     OW19741   4.290   1.428   3.880  0.3176  0.3712  0.6046
 2702SOL    HW119742   4.240   1.435   3.962 -0.9551  0.0364 -0.1373
 2702SOL    HW219743   4.311   1.520   3.871  3.5264 -0.5459 -1.0861
 2703SOL     OW19744   4.166   0.780   4.352 -0.0182 -0.1671  0.1025
 2703SOL    HW119745   4.074   0.754   4.340  0.3739 -1.8635  0.8796
 2703SOL    HW219746   4.206   0.767   4.266 -0.2304 -2.3777  0.3409
 2704SOL     OW19747   1.640   2.959   5.192 -0.4271  0.0084 -0.1833
 2704SOL    HW119748   1.547   2.976   5.176 -0.7336  0.5359  2.2050
 2704SOL    HW219749   1.653   3.017   5.267  2.0812  0.8599 -1.2652
 2705SOL     OW19750   4.649   3.805   4.985  0.0167  0.2222  0.4399
 2705SOL    HW119751   4.667   3.726   4.933  0.1895 -0.1760  1.1066
 2705SOL    HW219752   4.604   3.857   4.919 -0.6628 -0.1005  0.6550
 2706SOL     OW19753   1.770   1.214   9.068 -0.0230  0.4344 -0.1634
 2706SOL    HW119754   1.682   1.184   9.047 -0.4871 -0.8724  3.5949
 2706SOL    HW219755   1.781   1.141   9.128  0.3876 -0.4815 -1.3503
 2707SOL     OW19756   3.680   0.508  13.933 -0.2196  0.2993  0.1102
 2707SOL    HW119757   3.594   0.547  13.943  1.8179  4.8504  0.2052
 2707SOL    HW219758   3.688   0.455  14.012  1.8326  1.9528  1.0365
 2708SOL     OW19759   3.718   4.428   2.701 -0.1396  0.1192 -0.2761
 2708SOL    HW119760   3.786   4.370   2.667 -0.3652  0.6777 -1.6717
 2708SOL    HW219761   3.655   4.376   2.751  1.4019 -1.4889  0.0099
 2709SOL     OW19762   1.650   2.528   7.309  0.0080  0.4580 -0.0546
 2709SOL    HW119763   1.650   2.541   7.215  2.9078  1.5083  0.1052
 2709SOL    HW219764   1.729   2.475   7.319 -0.1312  0.7651  2.6878
 2710SOL     OW19765   4.683   2.299  16.753  0.2087  0.4656  0.8893
 2710SOL    HW119766   0.011   2.249  16.705 -0.4911 -1.0962  1.5527
 2710SOL    HW219767   4.640   2.228  16.802  0.7311 -1.0880 -0.9106
 2711SOL     OW19768   3.805   0.770   3.035 -0.1322 -0.1760 -0.5551
 2711SOL    HW119769   3.723   0.810   3.063  1.2295  1.5663  0.8708
 2711SOL    HW219770   3.810   0.794   2.942  0.2535 -2.0324 -1.0143
 2712SOL     OW19771   3.808   2.400   7.288 -0.3437 -0.1359 -0.0152
 2712SOL    HW119772   3.869   2.384   7.216 -0.9615  1.3654 -0.8831
 2712SOL    HW219773   3.779   2.483   7.250  2.1202  0.3356 -0.8436
 2713SOL     OW19774   2.296   2.182   5.403  0.6727  0.7224 -0.1749
 2713SOL    HW119775   2.293   2.149   5.314  1.8078  0.1088  0.0167
 2713SOL    HW219776   2.379   2.229   5.412  1.6797 -1.3146  1.0601
 2714SOL     OW19777   1.143   3.969  14.578 -0.1033  0.1155  0.1986
 2714SOL    HW119778   1.138   3.893  14.519 -0.4480  1.7518 -1.8875
 2714SOL    HW219779   1.095   3.939  14.655 -0.8304  1.7189  0.3781
 2715SOL     OW19780   2.773   4.538   7.459  0.4589 -0.0124 -0.2888
 2715SOL    HW119781   2.763   4.633   7.467  0.0545 -0.0505 -0.3602
 2715SOL    HW219782   2.729   4.518   7.377 -0.9227  2.0154 -0.0255
 2716SOL     OW19783   3.622   2.464   5.540 -0.0989  0.3624  0.1328
 2716SOL    HW119784   3.699   2.448   5.485 -1.1874 -1.1922 -0.9351
 2716SOL    HW219785   3.614   2.559   5.538  0.4625  0.3796 -0.9645
 2717SOL     OW19786   1.215   3.531   6.211 -0.0171  0.1182 -0.1391
 2717SOL    HW119787   1.230   3.495   6.298 -3.8861  1.9352  1.2557
 2717SOL    HW219788   1.121   3.516   6.204 -0.0038  0.3923 -0.8984
 2718SOL     OW19789   1.145   1.620   7.792  0.2865 -0.2141 -0.1089
 2718SOL    HW119790   1.157   1.615   7.887 -0.3925  3.0836  0.1495
 2718SOL    HW219791   1.078   1.552   7.781 -1.2001  1.0863  0.8326
 2719SOL     OW19792   0.749   4.247  16.009 -0.2738 -0.6614  0.1827
 2719SOL    HW119793   0.715   4.271  16.095  0.9645 -1.2262  0.8279
 2719SOL    HW219794   0.695   4.172  15.986 -0.3309 -0.6977  0.4308
 2720SOL     OW19795   4.544   2.983   7.545  0.3563 -0.0093 -0.0329
 2720SOL    HW119796   4.609   3.030   7.494  1.0233 -0.7645  0.1204
 2720SOL    HW219797   4.529   2.908   7.486  0.0467  0.7279 -0.9011
 2721SOL     OW19798   1.356   1.986   7.366  0.4159  0.0178  0.0324
 2721SOL    HW119799   1.301   1.914   7.399  0.6460  0.8221  2.2165
 2721SOL    HW219800   1.294   2.058   7.373  0.3476 -0.2209  2.1431
 2722SOL     OW19801   2.527   2.477   7.870 -0.2293  0.2584 -0.4056
 2722SOL    HW119802   2.617   2.487   7.901 -0.4144 -1.9966  0.9382
 2722SOL    HW219803   2.497   2.424   7.945 -1.8971  1.0401 -0.5308
 2723SOL     OW19804   1.549   2.005   4.861  0.1446 -0.2345 -0.7847
 2723SOL    HW119805   1.552   2.014   4.765  0.1558 -0.9436 -0.8450
 2723SOL    HW219806   1.485   2.076   4.873  1.6967  1.0292 -0.0967
 2724SOL     OW19807   0.670   2.446   4.332  0.3424  0.1528  0.3844
 2724SOL    HW119808   0.591   2.401   4.303  0.8702  1.5227 -3.1206
 2724SOL    HW219809   0.728   2.417   4.262 -1.9859  0.1166 -1.5163
 2725SOL     OW19810   0.504   0.273   8.084 -0.4640  0.2377 -0.0681
 2725SOL    HW119811   0.417   0.237   8.065  0.1027 -0.1986 -1.8235
 2725SOL    HW219812   0.516   0.268   8.179 -0.9713  2.5849  0.1147
 2726SOL     OW19813   0.111   4.634   4.491  0.2975  0.4742  0.0053
 2726SOL    HW119814   0.015   4.633   4.493  0.2666 -0.8941 -2.5745
 2726SOL    HW219815   0.120   4.620   4.586  1.4073 -0.0670 -0.1798
 2727SOL     OW19816   1.803   0.255   6.843  0.0694  0.4003  0.6700
 2727SOL    HW119817   1.867   0.202   6.795 -1.3144 -0.3182 -0.3578
 2727SOL    HW219818   1.753   0.278   6.765 -0.0202  5.1455  2.1413
 2728SOL     OW19819   2.623   2.043   2.899  0.6638  0.0372 -0.0896
 2728SOL    HW119820   2.635   2.127   2.854 -0.4924  0.3552  0.1768
 2728SOL    HW219821   2.687   2.055   2.969  0.6249  1.1421 -0.2319
 2729SOL     OW19822   0.619   0.260   8.941 -0.3645 -0.2869  0.3419
 2729SOL    HW119823   0.710   0.280   8.960 -0.0507 -0.2090 -1.2129
 2729SOL    HW219824   0.620   0.228   8.850 -0.7304 -0.5929  0.4429
 2730SOL     OW19825   3.905   0.424   5.199 -0.0951  0.2132  0.4423
 2730SOL    HW119826   3.996   0.451   5.186  0.2018 -1.0683 -0.0712
 2730SOL    HW219827   3.929   0.332   5.205  0.5807  0.5123  2.5042
 2731SOL     OW19828   2.126   4.447   4.935 -0.3505 -0.3874  0.1243
 2731SOL    HW119829   2.065   4.464   4.863  1.0583 -0.5033 -1.1144
 2731SOL    HW219830   2.202   4.497   4.906 -1.4761  0.7794 -0.7754
 2732SOL     OW19831   1.015   1.438   8.057  0.1204 -0.3224  0.2684
 2732SOL    HW119832   1.026   1.343   8.050 -1.1128 -0.5590  1.7492
 2732SOL    HW219833   0.935   1.453   8.007  0.5067  0.1041 -0.2233
 2733SOL     OW19834   0.411   2.661   5.717 -0.1772 -0.6071 -0.5333
 2733SOL    HW119835   0.491   2.675   5.768 -1.2686 -0.6535  1.2189
 2733SOL    HW219836   0.361   2.602   5.774 -1.5553  1.7292  0.6585
 2734SOL     OW19837   4.507   0.490  15.146  0.2436  0.0175 -0.2200
 2734SOL    HW119838   4.435   0.433  15.119  0.8072  0.2884 -2.2513
 2734SOL    HW219839   4.493   0.478  15.240  0.6101 -2.0559 -0.4324
 2735SOL     OW19840   1.089   0.599   4.460  0.5431  0.4413 -0.3338
 2735SOL    HW119841   1.061   0.666   4.397  0.8658  1.5546  0.6981
 2735SOL    HW219842   1.023   0.535   4.434  0.2827 -0.3007  2.1123
 2736SOL     OW19843   0.975   1.807   8.941 -0.2465 -0.3589  0.5649
 2736SOL    HW119844   0.999   1.787   8.851  0.8325 -2.4896  1.3311
 2736SOL    HW219845   1.017   1.892   8.958  2.1001 -1.5502  0.7480
 2737SOL     OW19846   3.704   0.451   7.708  0.4741  0.3698 -0.2767
 2737SOL    HW119847   3.758   0.386   7.663  1.6088  1.3524 -0.3551
 2737SOL    HW219848   3.617   0.412   7.701 -0.5457  2.0229  2.8450
 2738SOL     OW19849   0.076   3.111   8.425  0.0382 -0.7201 -0.0589
 2738SOL    HW119850   0.112   3.193   8.392  1.4197 -0.4671  2.0673
 2738SOL    HW219851   0.141   3.085   8.490  1.1951 -1.1173 -1.3787
 2739SOL     OW19852   0.109   0.194   5.039  0.0534  0.0838  0.5928
 2739SOL    HW119853   0.061   0.201   5.121 -0.4333  2.6081  0.0668
 2739SOL    HW219854   0.128   0.100   5.034  1.4004  0.3146  1.1399
 2740SOL     OW19855   1.709   3.937   2.967  0.6626 -0.6434 -0.2910
 2740SOL    HW119856   1.675   3.923   2.878  1.4735  1.4356 -0.9482
 2740SOL    HW219857   1.793   3.893   2.953  0.8563 -0.5098  0.4908
 2741SOL     OW19858   1.544   1.336  12.820 -0.0192  0.7689 -0.6669
 2741SOL    HW119859   1.546   1.346  12.725  0.7898  0.3814 -0.6995
 2741SOL    HW219860   1.638   1.325  12.834 -0.3199 -0.7864  0.1725
 2742SOL     OW19861   4.523   1.407   7.382 -0.3086  0.2611  0.0035
 2742SOL    HW119862   4.523   1.497   7.415 -1.3558 -0.1355  1.0629
 2742SOL    HW219863   4.614   1.378   7.386  0.1929  1.7167 -0.5597
 2743SOL     OW19864   3.543   3.051   2.216 -0.2577  0.2334  0.4160
 2743SOL    HW119865   3.553   2.985   2.284 -2.3553  0.7618  1.2206
 2743SOL    HW219866   3.546   2.998   2.137  1.5693 -0.8592  1.2038
 2744SOL     OW19867   3.840   2.027   6.743 -0.2861 -0.7754 -0.7525
 2744SOL    HW119868   3.775   2.025   6.673  1.4268 -3.8214 -2.2648
 2744SOL    HW219869   3.787   1.998   6.817 -1.3186 -0.9411 -1.5735
 2745SOL     OW19870   1.315   3.980   5.380 -0.3301  0.0034  0.4794
 2745SOL    HW119871   1.301   4.073   5.362  3.5833  0.3680 -0.7226
 2745SOL    HW219872   1.298   3.949   5.292  2.0466  0.8719 -0.2762
 2746SOL     OW19873   0.896   4.209   7.218 -0.0513 -0.8864 -0.0963
 2746SOL    HW119874   0.813   4.251   7.198  0.3362  0.7437  1.7280
 2746SOL    HW219875   0.876   4.115   7.215 -0.6828 -0.7744  0.6995
 2747SOL     OW19876   0.185   1.158   3.497 -0.2153 -0.0611 -0.1811
 2747SOL    HW119877   0.137   1.193   3.572  0.1381 -2.7024  1.2974
 2747SOL    HW219878   0.258   1.109   3.536  0.3711  0.0838 -1.0819
 2748SOL     OW19879   2.978   4.542   8.396  0.1542 -0.5800 -0.4194
 2748SOL    HW119880   3.044   4.474   8.410 -0.2511 -0.6347  1.3063
 2748SOL    HW219881   2.934   4.551   8.481 -0.3767 -0.7235 -0.6824
 2749SOL     OW19882   1.925   1.807   8.187  0.3712  0.3651  0.2345
 2749SOL    HW119883   1.851   1.867   8.199  0.2024  0.0567  0.7296
 2749SOL    HW219884   1.989   1.871   8.158  0.4390 -0.0803 -0.6080
 2750SOL     OW19885   4.208   3.067   5.613  0.1832  0.5753  0.1175
 2750SOL    HW119886   4.130   3.078   5.669 -0.5180 -1.6230 -0.4421
 2750SOL    HW219887   4.261   3.009   5.668 -0.0021  0.5906  0.3145
 2751SOL     OW19888   3.882   2.460   5.011  0.1324  0.1514  0.2831
 2751SOL    HW119889   3.862   2.553   5.020  0.5650  0.5672 -2.7840
 2751SOL    HW219890   3.935   2.437   5.087  1.6508 -1.1165 -1.1509
 2752SOL     OW19891   1.577   1.043   7.442 -0.2287  0.0072  0.3290
 2752SOL    HW119892   1.589   0.948   7.443 -0.4222 -0.0253 -0.3355
 2752SOL    HW219893   1.483   1.028   7.438 -0.0707 -0.6236 -1.4996
 2753SOL     OW19894   3.060   1.244   7.943 -0.3796 -0.1398 -0.3283
 2753SOL    HW119895   3.061   1.160   7.898 -1.4963  0.1442 -0.8896
 2753SOL    HW219896   3.131   1.287   7.895  0.0900 -1.1785 -0.5599
 2754SOL     OW19897   2.610   1.636   1.384  0.3385  0.2493 -0.5688
 2754SOL    HW119898   2.669   1.581   1.332  2.5491  0.6791  1.4460
 2754SOL    HW219899   2.586   1.575   1.454  0.8532 -0.7248 -1.2408
 2755SOL     OW19900   0.082   4.298   2.438  0.7374  0.5577 -0.0757
 2755SOL    HW119901   0.073   4.366   2.505  0.4199 -0.7015  1.1551
 2755SOL    HW219902   0.146   4.339   2.380  0.7231  1.8059  0.7767
 2756SOL     OW19903   4.217   0.394   7.362  0.3183 -0.6754  0.0778
 2756SOL    HW119904   4.256   0.481   7.370 -2.8533  1.2367 -5.1911
 2756SOL    HW219905   4.138   0.407   7.416  0.9409 -1.4704  1.1812
 2757SOL     OW19906   1.423   2.243   7.653 -0.2458 -0.3051  0.1256
 2757SOL    HW119907   1.491   2.305   7.628 -0.0721 -0.5197  0.0632
 2757SOL    HW219908   1.429   2.190   7.574 -1.1444 -1.6608  0.9736
 2758SOL     OW19909   4.236   2.236  12.049 -0.1412  0.0632  0.4951
 2758SOL    HW119910   4.142   2.249  12.047 -0.3521 -1.7414 -1.3545
 2758SOL    HW219911   4.262   2.246  11.958 -0.2475 -0.4134  0.4126
 2759SOL     OW19912   0.624   0.145   2.827 -0.3621 -0.1128 -0.3097
 2759SOL    HW119913   0.622   0.226   2.775 -0.3872 -0.2205 -0.4747
 2759SOL    HW219914   0.571   0.179   2.899 -2.0548 -1.3214 -0.9897
 2760SOL     OW19915   1.542   4.284  11.343  0.1494  0.7514 -0.3721
 2760SOL    HW119916   1.496   4.341  11.405  3.0927  3.1534 -0.4173
 2760SOL    HW219917   1.487   4.302  11.267 -0.0236 -1.6743 -0.8306
 2761SOL     OW19918   1.911   4.270   7.049 -0.0183 -0.1745 -0.4686
 2761SOL    HW119919   1.994   4.284   7.002  0.3523  0.8272  0.5056
 2761SOL    HW219920   1.937   4.226   7.130 -0.7012 -1.4052 -0.9121
 2762SOL     OW19921   2.712   1.068   7.886 -0.2141 -0.2276 -0.0836
 2762SOL    HW119922   2.808   1.076   7.885 -0.2392 -0.3959 -2.9525
 2762SOL    HW219923   2.709   0.972   7.889  1.6645 -0.3249 -1.0501
 2763SOL     OW19924   2.927   0.928   5.320 -0.3490  0.0384  0.5302
 2763SOL    HW119925   2.853   0.875   5.348  0.1840 -1.0618 -0.1512
 2763SOL    HW219926   3.005   0.876   5.341  0.2584  0.1476 -1.4191
 2764SOL     OW19927   4.734   4.078   2.587  0.2381 -0.1193  0.1315
 2764SOL    HW119928   0.077   4.028   2.579  0.9331  1.0908 -0.3079
 2764SOL    HW219929   0.022   4.164   2.556 -0.5445 -0.6594 -2.0423
 2765SOL     OW19930   3.825   0.619   3.859  0.0362 -0.2836  0.1582
 2765SOL    HW119931   3.867   0.692   3.814 -0.2856 -0.8907 -1.1296
 2765SOL    HW219932   3.765   0.663   3.921 -0.6112  0.0956 -0.7395
 2766SOL     OW19933   3.475   3.483  16.542  0.0784 -0.5085  0.6573
 2766SOL    HW119934   3.451   3.391  16.549  0.2717 -0.8235 -2.8649
 2766SOL    HW219935   3.481   3.505  16.635  0.7534 -0.1425  0.5235
 2767SOL     OW19936   2.096   2.531   1.797 -0.6567 -0.4011 -0.2180
 2767SOL    HW119937   2.040   2.534   1.719 -0.8609 -1.5622 -0.1105
 2767SOL    HW219938   2.032   2.484   1.849  0.2979 -0.2949  1.0535
 2768SOL     OW19939   1.620   0.043   3.758 -0.1819  0.5502 -0.2055
 2768SOL    HW119940   1.553   0.079   3.700 -0.7694  1.9604  1.3644
 2768SOL    HW219941   1.619   4.688   3.736 -0.6518  0.2869  0.9445
 2769SOL     OW19942   3.056   2.007   5.233  0.2932  0.0844 -0.1324
 2769SOL    HW119943   3.102   1.980   5.153  0.4013  0.8555 -0.3297
 2769SOL    HW219944   3.134   2.038   5.278 -0.1137 -0.1204  0.7069
 2770SOL     OW19945   1.875   4.289  17.364  0.2903 -0.0510  0.2286
 2770SOL    HW119946   1.905   4.228  17.431  1.7978 -1.5286 -1.8324
 2770SOL    HW219947   1.932   4.262  17.292  0.5410 -2.0203  1.1731
 2771SOL     OW19948   0.020   3.799   0.901  0.1441  0.6152 -0.5287
 2771SOL    HW119949   4.676   3.795   0.853 -0.6392  0.5241  0.8212
 2771SOL    HW219950   0.012   3.880   0.952  2.0012 -1.6329  3.3416
 2772SOL     OW19951   3.170   1.124   0.072  0.0116 -0.0867 -0.4029
 2772SOL    HW119952   3.151   1.168   0.155 -0.2511 -1.5515  0.3163
 2772SOL    HW219953   3.258   1.095   0.096 -0.3214  0.1232  1.0590
 2773SOL     OW19954   0.808   2.246   7.444 -0.0108  0.4995 -0.3970
 2773SOL    HW119955   0.873   2.188   7.405 -1.0732 -0.3758 -0.8984
 2773SOL    HW219956   0.800   2.197   7.526  0.5131 -0.5741 -0.9823
 2774SOL     OW19957   2.217   2.923   8.815  0.4688 -0.2740 -0.2392
 2774SOL    HW119958   2.264   2.950   8.894  0.5208  0.9784 -0.7031
 2774SOL    HW219959   2.147   2.987   8.805  0.1722 -0.7536 -1.2083
 2775SOL     OW19960   3.182   1.244  15.517  0.0109 -0.6424 -0.4558
 2775SOL    HW119961   3.202   1.225  15.426  1.4147 -2.1213  0.1579
 2775SOL    HW219962   3.272   1.254  15.550  0.2818  0.2390 -1.4358
 2776SOL     OW19963   0.309   3.651   1.033 -0.6309 -0.2817  0.6187
 2776SOL    HW119964   0.291   3.708   1.108 -0.7335 -1.9941  1.8854
 2776SOL    HW219965   0.390   3.692   1.003 -1.1782 -0.7755 -1.5415
 2777SOL     OW19966   4.654   2.183  13.218 -0.1697 -0.4856  0.2340
 2777SOL    HW119967   4.612   2.101  13.242 -1.1253  0.6919  2.6171
 2777SOL    HW219968   4.706   2.188  13.299 -0.0986 -0.8820  0.2120
 2778SOL     OW19969   3.671   3.966   3.078 -0.2820  0.0050 -0.4800
 2778SOL    HW119970   3.583   3.931   3.087 -1.1732  2.1837 -0.9726
 2778SOL    HW219971   3.653   4.015   2.998  3.0244  0.3668 -1.0282
 2779SOL     OW19972   0.126   1.882   0.904  0.0276  0.6240 -0.0655
 2779SOL    HW119973   0.144   1.930   0.984 -0.1927  0.3984  0.1199
 2779SOL    HW219974   0.064   1.813   0.929  1.2618  0.1983  1.8291
 2780SOL     OW19975   3.456   1.817   4.003 -0.0026 -0.3077  0.0428
 2780SOL    HW119976   3.362   1.823   4.020  0.4034  1.6075  1.5097
 2780SOL    HW219977   3.486   1.752   4.067  1.0709  1.4980  1.3421
 2781SOL     OW19978   4.738   0.935   9.427  0.4945 -0.0913 -0.3823
 2781SOL    HW119979   0.092   0.945   9.451  0.7754 -0.4259 -1.3590
 2781SOL    HW219980   4.721   1.030   9.425 -0.3411 -0.1766  1.7500
 2782SOL     OW19981   0.380   2.213   7.351  0.6110 -0.0680  0.5508
 2782SOL    HW119982   0.444   2.243   7.415  0.5765 -1.4944  1.2699
 2782SOL    HW219983   0.305   2.272   7.358  1.1738  0.7789 -0.5909
 2783SOL     OW19984   1.315   0.906  17.384  0.0253 -0.3042  0.2159
 2783SOL    HW119985   1.358   0.918  17.469  1.6345 -5.2816  0.1269
 2783SOL    HW219986   1.357   0.977  17.335  0.0311 -0.2194  0.3440
 2784SOL     OW19987   4.134   1.011   6.331  0.1745  0.5154  0.1693
 2784SOL    HW119988   4.134   1.014   6.235  1.2141 -1.6240  0.0952
 2784SOL    HW219989   4.217   0.970   6.352 -0.0318 -0.0658 -0.1574
 2785SOL     OW19990   1.066   2.260  16.077  0.3045 -0.5265  0.0337
 2785SOL    HW119991   1.062   2.191  16.012  1.5138 -1.2138  0.6931
 2785SOL    HW219992   0.971   2.270  16.090  0.3029  0.1306 -0.5008
 2786SOL     OW19993   3.396   0.107  14.902 -0.7195 -0.0427  0.0684
 2786SOL    HW119994   3.341   0.186  14.896  0.2968  0.5193 -1.8059
 2786SOL    HW219995   3.419   0.092  14.811 -0.4620 -1.0213  0.2996
 2787SOL     OW19996   2.371   1.779   3.086  0.1163 -0.8531  0.4021
 2787SOL    HW119997   2.416   1.812   3.008  0.2693 -0.9238  0.4605
 2787SOL    HW219998   2.376   1.852   3.148  0.7931  0.5523 -1.3136
 2788SOL     OW19999   0.578   2.126   6.385  0.0898 -0.1996  0.0170
 2788SOL    HW120000   0.513   2.148   6.319  0.2934  0.5477  0.0558
 2788SOL    HW220001   0.606   2.038   6.361  0.8859 -0.3388  1.3989
 2789SOL     OW20002   2.263   3.773  13.004  0.1881  0.2839  0.3060
 2789SOL    HW120003   2.202   3.829  12.957 -0.5413  0.2969  1.2906
 2789SOL    HW220004   2.245   3.691  12.958  0.2809  1.2421 -1.4627
 2790SOL     OW20005   1.424   1.235   3.562  0.0447  0.1743  0.2200
 2790SOL    HW120006   1.478   1.181   3.504  0.0291 -0.2025  0.5531
 2790SOL    HW220007   1.440   1.193   3.647 -0.1136  0.8402  0.5759
 2791SOL     OW20008   3.654   0.637   9.960 -0.0731 -0.2283  0.2204
 2791SOL    HW120009   3.744   0.641   9.994 -0.2140  4.7666  0.0696
 2791SOL    HW220010   3.675   0.646   9.867 -0.2748  0.5464  0.2468
 2792SOL     OW20011   2.959   2.113   8.796 -0.2965  0.4766 -0.1127
 2792SOL    HW120012   2.917   2.091   8.712 -1.4289 -0.7676  0.7883
 2792SOL    HW220013   3.028   2.047   8.801  0.6533  1.3731 -1.3663
 2793SOL     OW20014   2.185   1.470   8.627  0.3980 -0.3921 -0.0024
 2793SOL    HW120015   2.157   1.420   8.704 -1.8445  0.4765 -0.2695
 2793SOL    HW220016   2.145   1.419   8.557 -0.3789  1.2203 -0.7038
 2794SOL     OW20017   2.335   4.266   2.945  0.0818  0.2545 -0.1251
 2794SOL    HW120018   2.418   4.278   2.898  0.9129  0.7385  1.4359
 2794SOL    HW220019   2.373   4.247   3.031  0.6277  1.3069 -0.1305
 2795SOL     OW20020   0.419   2.025   9.617  0.1179 -0.0486  0.3416
 2795SOL    HW120021   0.338   2.055   9.578 -0.0457  0.2901  0.9474
 2795SOL    HW220022   0.485   2.083   9.579 -0.0805 -0.1505 -0.1525
 2796SOL     OW20023   0.554   3.838   3.380  0.3837 -0.3875  0.5666
 2796SOL    HW120024   0.605   3.915   3.355  0.4158 -0.1580  1.3429
 2796SOL    HW220025   0.525   3.799   3.297  3.1389 -1.2177 -0.0101
 2797SOL     OW20026   3.865   1.343   9.101  0.1037  0.1432 -0.0413
 2797SOL    HW120027   3.784   1.382   9.134  0.7985  2.0447 -0.6126
 2797SOL    HW220028   3.902   1.308   9.183 -1.1040  2.0926  1.3308
 2798SOL     OW20029   4.623   2.623   5.932  0.3602  0.5027 -0.1427
 2798SOL    HW120030   4.672   2.591   6.007 -0.5091 -1.7774 -0.5702
 2798SOL    HW220031   4.562   2.552   5.915  0.3129  0.2866  0.9546
 2799SOL     OW20032   1.310   0.425   6.915  0.1551  0.0150 -0.3799
 2799SOL    HW120033   1.350   0.512   6.921  0.2082 -0.2947  3.6193
 2799SOL    HW220034   1.391   0.377   6.900 -0.2649 -0.6378 -0.5188
 2800SOL     OW20035   4.500   3.632   4.133 -0.3757 -0.5152 -1.0689
 2800SOL    HW120036   4.595   3.639   4.141 -0.8034  0.0850  3.3466
 2800SOL    HW220037   4.480   3.631   4.226  0.9580 -0.0080 -0.7805
 2801SOL     OW20038   0.634   4.176   2.074 -0.0243  0.2074 -0.0073
 2801SOL    HW120039   0.656   4.268   2.084 -0.2329  0.1558  0.8783
 2801SOL    HW220040   0.540   4.172   2.092  0.1528 -1.0681  0.6616
 2802SOL     OW20041   1.041   1.431   4.666  0.1938 -0.2010 -0.0328
 2802SOL    HW120042   0.965   1.412   4.720 -1.0670 -0.6744 -1.9604
 2802SOL    HW220043   1.107   1.399   4.728 -0.1411 -0.5778  0.1286
 2803SOL     OW20044   3.366   0.731  17.591  0.2449 -0.0351 -0.0997
 2803SOL    HW120045   3.297   0.665  17.582 -0.3521  0.8364 -1.9515
 2803SOL    HW220046   3.309   0.808  17.603 -0.1441 -0.5533  1.3576
 2804SOL     OW20047   2.944   1.959   7.463  0.3565 -0.2543  1.1131
 2804SOL    HW120048   2.943   1.967   7.367  0.7609 -0.7820  1.0646
 2804SOL    HW220049   2.899   2.040   7.487 -0.1942  0.3012 -1.8044
 2805SOL     OW20050   0.192   3.606   2.324  0.2874 -0.0280 -0.6747
 2805SOL    HW120051   0.229   3.546   2.260  1.7536 -1.0425  1.1399
 2805SOL    HW220052   0.233   3.564   2.400 -2.4624 -1.5220 -0.0284
 2806SOL     OW20053   1.048   4.550  15.342  0.1574 -0.2729  0.0361
 2806SOL    HW120054   0.979   4.611  15.369  1.8994  2.0489 -0.8729
 2806SOL    HW220055   1.002   4.496  15.277  0.8382  0.5198 -1.0945
 2807SOL     OW20056   2.548   0.370   1.639  0.1636 -0.0883  0.2261
 2807SOL    HW120057   2.578   0.446   1.590  0.8296 -0.3406  0.2414
 2807SOL    HW220058   2.504   0.408   1.714  0.1134  0.2470  0.0267
 2808SOL     OW20059   3.283   2.892   6.666  0.3388 -0.7586  0.6267
 2808SOL    HW120060   3.219   2.962   6.679  0.6043 -0.4407  0.2413
 2808SOL    HW220061   3.218   2.831   6.633 -0.3274 -0.7472  1.9157
 2809SOL     OW20062   3.166   3.636   2.385 -0.1278 -0.7028 -0.0187
 2809SOL    HW120063   3.104   3.696   2.427  0.1328 -0.9502  0.7009
 2809SOL    HW220064   3.148   3.554   2.432 -0.3098  0.9930  2.8661
 2810SOL     OW20065   2.839   3.912   4.771  0.4291  0.1016  0.1388
 2810SOL    HW120066   2.800   3.907   4.859  0.6334 -1.1129  0.1542
 2810SOL    HW220067   2.796   3.991   4.738  1.7890  0.6352 -0.3566
 2811SOL     OW20068   2.914   1.922   3.086  0.2048 -0.8088 -0.4885
 2811SOL    HW120069   2.835   1.869   3.095 -2.0831  2.7818  0.8009
 2811SOL    HW220070   2.987   1.865   3.108  1.5634  1.9360  2.0172
 2812SOL     OW20071   3.634   0.648  17.571  0.4639  0.0859 -0.2645
 2812SOL    HW120072   3.675   0.727  17.605 -2.2307  1.2808  0.1479
 2812SOL    HW220073   3.543   0.658  17.596  0.4278  1.2613 -0.8808
 2813SOL     OW20074   2.454   0.017   6.865  0.2933  0.3390 -0.4682
 2813SOL    HW120075   2.441   4.663   6.841 -0.1605 -0.4404  2.8058
 2813SOL    HW220076   2.482   0.012   6.956  1.8523  0.4950 -0.9412
 2814SOL     OW20077   2.844   3.379   4.278  0.1023  0.1266  0.2589
 2814SOL    HW120078   2.798   3.392   4.361 -3.0538 -2.0222 -1.1484
 2814SOL    HW220079   2.847   3.284   4.269  0.7540  0.1460  0.2334
 2815SOL     OW20080   2.677   0.911   9.006 -0.5942  0.2435 -0.3308
 2815SOL    HW120081   2.631   0.850   9.063  0.6853 -2.3568 -2.0977
 2815SOL    HW220082   2.724   0.846   8.953 -0.5703  1.1704 -1.4437
 2816SOL     OW20083   2.513   3.890  10.882  0.4793 -0.2278  0.5802
 2816SOL    HW120084   2.584   3.839  10.921  1.1554  0.3164  0.0553
 2816SOL    HW220085   2.467   3.894  10.966 -1.0142  0.6189 -0.2791
 2817SOL     OW20086   0.898   1.746  15.967 -0.3761  0.1245  0.7201
 2817SOL    HW120087   0.976   1.693  15.956  0.7042  1.8378  0.1753
 2817SOL    HW220088   0.913   1.800  15.889 -0.5492 -0.3283  0.3753
 2818SOL     OW20089   3.843   0.168   6.301 -0.8216  0.4403  0.2355
 2818SOL    HW120090   3.764   0.180   6.353 -0.9169 -1.1971  0.4512
 2818SOL    HW220091   3.898   0.111   6.354 -2.2093  0.4262  1.6419
 2819SOL     OW20092   2.551   1.023   2.884  0.4344  0.4571  0.0256
 2819SOL    HW120093   2.492   1.011   2.810  0.1880  0.6269  0.1931
 2819SOL    HW220094   2.632   1.005   2.836  0.3903 -1.5821  0.7230
 2820SOL     OW20095   0.152   1.359  15.411  0.1632 -0.0323  0.3787
 2820SOL    HW120096   0.172   1.368  15.504  1.2796 -1.1575  0.2494
 2820SOL    HW220097   0.222   1.410  15.371 -0.9114  2.3888  1.5923
 2821SOL     OW20098   3.331   3.902   5.469 -0.3148  0.2125  0.5219
 2821SOL    HW120099   3.397   3.910   5.400 -1.2848 -0.8278 -0.5267
 2821SOL    HW220100   3.385   3.852   5.531 -0.8032 -0.7348  0.1737
 2822SOL     OW20101   2.508   2.400   6.725  0.4780  0.5203 -0.3135
 2822SOL    HW120102   2.413   2.397   6.731  0.4298  0.0367 -1.3091
 2822SOL    HW220103   2.527   2.314   6.688  1.5765  1.2920 -1.5581
 2823SOL     OW20104   0.093   1.044   9.139  0.2580 -0.2489 -0.2837
 2823SOL    HW120105   0.052   0.957   9.138 -0.9281  0.3142  0.0731
 2823SOL    HW220106   0.029   1.105   9.174  0.4405 -0.2821  0.1089
 2824SOL     OW20107   3.797   1.032   7.804  0.2715  0.3726  0.1673
 2824SOL    HW120108   3.854   0.993   7.870  1.8140  1.1324 -0.7073
 2824SOL    HW220109   3.857   1.062   7.735 -0.0570 -0.5312 -0.5211
 2825SOL     OW20110   0.880   0.220   6.657  0.7950 -0.0457  0.1665
 2825SOL    HW120111   0.957   0.261   6.697 -0.5585  2.3888  0.2771
 2825SOL    HW220112   0.843   0.172   6.731  0.0393  0.1735 -0.0613
 2826SOL     OW20113   3.776   2.237   2.640 -0.1263 -0.4664  0.3942
 2826SOL    HW120114   3.801   2.319   2.597  1.7621  0.5420  3.4644
 2826SOL    HW220115   3.816   2.170   2.584  1.5545  0.3329  0.6394
 2827SOL     OW20116   3.422   3.296   0.577  0.3081 -0.0700 -0.1291
 2827SOL    HW120117   3.495   3.270   0.633  1.6462  1.9835 -0.9239
 2827SOL    HW220118   3.460   3.379   0.549  0.5021 -0.8473 -2.1220
 2828SOL     OW20119   0.911   3.619  13.033  0.0765 -0.2028 -0.0454
 2828SOL    HW120120   0.945   3.555  12.970 -0.0004  0.5024 -0.8083
 2828SOL    HW220121   0.846   3.568  13.082  0.1629 -0.8672 -0.6262
 2829SOL     OW20122   1.118   4.184   8.901  0.4417 -0.1860 -0.6912
 2829SOL    HW120123   1.028   4.210   8.924  0.5814 -0.7944  0.5270
 2829SOL    HW220124   1.105   4.091   8.883 -0.1768 -0.3715  0.7330
 2830SOL     OW20125   4.067   1.032   0.444 -0.5284  0.0768  0.1427
 2830SOL    HW120126   4.050   1.125   0.463  1.4479  0.2027  1.2317
 2830SOL    HW220127   4.148   1.034   0.393 -0.5065  2.7757  0.2970
 2831SOL     OW20128   4.164   1.142   9.130 -0.0184  0.3510 -0.0368
 2831SOL    HW120129   4.093   1.138   9.195  0.0442  2.0451  0.1356
 2831SOL    HW220130   4.137   1.066   9.078  0.9049 -0.0590  0.0805
 2832SOL     OW20131   2.531   4.036  10.613 -0.8349  0.2841 -0.2116
 2832SOL    HW120132   2.613   4.016  10.657 -1.2126  0.3117  0.5135
 2832SOL    HW220133   2.558   4.088  10.537 -0.2662 -0.9834 -0.8746
 2833SOL     OW20134   1.437   0.664   6.879  0.1052  1.0663  0.7384
 2833SOL    HW120135   1.373   0.729   6.910 -1.5433  0.6605 -1.7874
 2833SOL    HW220136   1.515   0.710   6.909  1.4606 -1.7136  1.4335
 2834SOL     OW20137   0.894   3.986  10.306 -0.3051 -0.2343  0.3589
 2834SOL    HW120138   0.833   3.920  10.275  0.6427 -0.7934 -0.3358
 2834SOL    HW220139   0.909   4.037  10.226 -0.9974 -2.2299 -1.0295
 2835SOL     OW20140   4.268   1.653   6.486 -0.4272  0.2457  0.1653
 2835SOL    HW120141   4.221   1.573   6.510  2.5712 -1.4882  0.3458
 2835SOL    HW220142   4.279   1.697   6.570  0.4343 -0.2289  0.3003
 2836SOL     OW20143   2.172   4.377   7.758 -0.0739 -0.7111 -0.5515
 2836SOL    HW120144   2.158   4.426   7.839  1.8067 -0.8693 -0.1361
 2836SOL    HW220145   2.085   4.346   7.733 -1.2708  0.9285  1.5879
 2837SOL     OW20146   0.068   4.622   3.892 -0.0909 -0.7347  0.1089
 2837SOL    HW120147   0.099   4.708   3.864  1.1777 -1.7405 -1.5504
 2837SOL    HW220148   4.723   4.639   3.937  0.1429 -1.2450  0.7417
 2838SOL     OW20149   3.423   3.414   2.064 -0.1929  0.3772 -0.3263
 2838SOL    HW120150   3.381   3.484   2.014  1.8021  1.1205 -0.9977
 2838SOL    HW220151   3.454   3.352   1.998  1.0407  1.6570 -0.9482
 2839SOL     OW20152   2.330   2.646  10.500 -0.6524 -0.3344 -0.2855
 2839SOL    HW120153   2.280   2.574  10.463  0.4235 -0.4353 -1.5530
 2839SOL    HW220154   2.402   2.650  10.437  0.8685  1.7201  1.5555
 2840SOL     OW20155   3.209   3.387   5.260 -0.7697 -0.1456 -0.1912
 2840SOL    HW120156   3.202   3.480   5.240  1.1136 -0.1005 -0.5968
 2840SOL    HW220157   3.248   3.352   5.180 -0.8261  1.5230 -0.9431
 2841SOL     OW20158   3.229   2.823   7.270 -0.4275  0.2276  0.6457
 2841SOL    HW120159   3.201   2.813   7.361 -1.7748  2.3757  0.4691
 2841SOL    HW220160   3.161   2.881   7.235 -0.2929  0.6693  1.1173
 2842SOL     OW20161   0.340   4.137   9.140 -0.1530 -0.3313 -0.3664
 2842SOL    HW120162   0.373   4.204   9.080 -2.7649  1.5901  0.3296
 2842SOL    HW220163   0.417   4.088   9.167 -0.0687 -0.7620 -1.3856
 2843SOL     OW20164   3.015   0.398   2.706  0.3046  0.0774  0.0372
 2843SOL    HW120165   2.997   0.484   2.744  0.0931  0.6246 -1.2932
 2843SOL    HW220166   3.016   0.412   2.611 -2.5751  0.6102  0.1117
 2844SOL     OW20167   3.609   0.057   6.414  0.1890 -0.5620  0.2871
 2844SOL    HW120168   3.601   4.702   6.394  2.5588 -0.3009 -1.7617
 2844SOL    HW220169   3.526   0.091   6.380 -0.9317 -3.1436  0.3661
 2845SOL     OW20170   3.423   0.727  16.506  0.5081  0.1285 -0.0038
 2845SOL    HW120171   3.498   0.715  16.448 -0.2884 -1.1757 -0.7700
 2845SOL    HW220172   3.418   0.638  16.541  1.4461 -0.0046 -0.2118
 2846SOL     OW20173   3.842   4.189  13.669 -0.6641 -0.9642  0.1349
 2846SOL    HW120174   3.761   4.237  13.651  1.0193  1.8905  0.1141
 2846SOL    HW220175   3.859   4.141  13.588 -0.6185 -0.3745 -0.2122
 2847SOL     OW20176   3.048   0.412   5.891  0.1658 -0.2478 -0.3189
 2847SOL    HW120177   3.064   0.501   5.924  2.1713 -0.9817  0.6479
 2847SOL    HW220178   2.976   0.382   5.947  0.5138 -0.2742  0.1084
 2848SOL     OW20179   1.414   0.785  10.546  0.1826  0.2403  0.6845
 2848SOL    HW120180   1.471   0.744  10.611  1.0568 -1.1781 -0.9925
 2848SOL    HW220181   1.410   0.718  10.477  1.8565  1.8816 -1.0178
 2849SOL     OW20182   0.399   3.405   8.130  0.1152 -1.0627 -0.3218
 2849SOL    HW120183   0.350   3.360   8.198  0.7978  0.6153  1.2996
 2849SOL    HW220184   0.476   3.423   8.184  1.5522 -1.8569 -2.1242
 2850SOL     OW20185   1.272   0.872   8.668  0.9394 -0.2910 -0.8307
 2850SOL    HW120186   1.206   0.914   8.722 -1.8347 -1.5404 -3.2019
 2850SOL    HW220187   1.302   0.794   8.714  1.5149 -0.1446 -0.9554
 2851SOL     OW20188   4.247   1.942   9.615 -0.1008  0.3696  0.2689
 2851SOL    HW120189   4.328   1.902   9.647  1.5024  1.8333 -1.9428
 2851SOL    HW220190   4.244   1.901   9.529 -2.5228  1.9721 -0.4048
 2852SOL     OW20191   2.425   1.165  11.356  0.3810  0.5131 -0.1494
 2852SOL    HW120192   2.372   1.224  11.409 -1.2040  0.2136 -1.3883
 2852SOL    HW220193   2.461   1.100  11.416 -0.8878  0.6755  0.7944
 2853SOL     OW20194   2.498   4.071  12.796  0.7903  0.5369  0.1738
 2853SOL    HW120195   2.528   4.142  12.740  0.7795 -1.5111 -2.4440
 2853SOL    HW220196   2.490   3.990  12.746  2.3193  0.2189  0.4591
 2854SOL     OW20197   0.888   3.469  15.417 -0.2944  0.1738  0.0829
 2854SOL    HW120198   0.948   3.466  15.342  0.0557 -2.0663  0.4503
 2854SOL    HW220199   0.941   3.425  15.483  0.3097  0.7863  0.0077
 2855SOL     OW20200   1.044   0.010   6.977  0.4501 -0.0624  0.0665
 2855SOL    HW120201   0.995   0.091   6.959 -2.7031 -1.5517  1.9363
 2855SOL    HW220202   1.004   4.683   6.920  3.3347 -1.5134 -0.2826
 2856SOL     OW20203   1.668   0.394   3.978 -0.0527  1.0447  0.4492
 2856SOL    HW120204   1.592   0.453   3.978 -1.0428 -0.2205  1.3450
 2856SOL    HW220205   1.735   0.459   3.999  1.0118 -0.4039  1.5532
 2857SOL     OW20206   0.351   0.605   6.905 -0.1861 -0.2944  0.8468
 2857SOL    HW120207   0.364   0.636   6.815  0.2280 -1.1995  0.6015
 2857SOL    HW220208   0.428   0.650   6.941 -0.5799  2.2177 -1.3812
 2858SOL     OW20209   0.320   0.863  13.615  0.7586 -0.5205  0.3214
 2858SOL    HW120210   0.358   0.950  13.629 -0.2382 -0.3182  1.7608
 2858SOL    HW220211   0.302   0.870  13.521  1.0736 -1.4527  0.1929
 2859SOL     OW20212   4.265   4.569   5.761  0.5425  0.5662  0.1830
 2859SOL    HW120213   4.268   4.567   5.666 -0.1140  1.7441  0.1436
 2859SOL    HW220214   4.332   4.505   5.787 -0.5621 -0.2229  1.1283
 2860SOL     OW20215   2.468   4.227  14.486  0.0443  0.4742 -0.2727
 2860SOL    HW120216   2.457   4.168  14.561  1.9844  1.4840  0.7934
 2860SOL    HW220217   2.522   4.292  14.532  2.4032  0.5229 -3.1498
 2861SOL     OW20218   4.277   3.308  11.606 -0.1850  0.4089 -0.0867
 2861SOL    HW120219   4.358   3.312  11.657  0.8001 -0.7741 -1.5614
 2861SOL    HW220220   4.286   3.218  11.575 -0.9108  0.2916  0.0326
 2862SOL     OW20221   1.444   3.465  15.207 -0.0780 -0.0196 -0.1428
 2862SOL    HW120222   1.460   3.371  15.201  0.9431  0.2011 -0.7970
 2862SOL    HW220223   1.478   3.488  15.121 -1.0373  0.7083 -0.3299
 2863SOL     OW20224   3.784   3.217   1.982  0.2682  0.4785 -0.2178
 2863SOL    HW120225   3.833   3.233   1.901  1.6140  0.8656  0.6806
 2863SOL    HW220226   3.763   3.304   2.014  1.0360  0.0489  1.4640
 2864SOL     OW20227   4.405   1.880   7.248  0.0267 -0.1322 -0.4860
 2864SOL    HW120228   4.379   1.789   7.238  2.5527 -0.8344 -0.6222
 2864SOL    HW220229   4.488   1.879   7.200  0.4770 -1.3460  0.3430
 2865SOL     OW20230   4.476   0.914  14.570 -0.1901 -0.1553  0.3650
 2865SOL    HW120231   4.443   0.826  14.554 -1.0485  0.2108  0.1449
 2865SOL    HW220232   4.569   0.911  14.547  0.1439  1.4398  1.4552
 2866SOL     OW20233   1.539   0.139  12.482 -0.1326  0.3338 -0.0750
 2866SOL    HW120234   1.557   0.185  12.565  3.5834 -1.1861 -0.0319
 2866SOL    HW220235   1.607   0.177  12.426 -0.0572  0.8987  0.3967
 2867SOL     OW20236   2.463   2.156   6.072  0.8128 -0.3023 -0.3750
 2867SOL    HW120237   2.480   2.064   6.093 -0.6775 -0.6662 -0.7966
 2867SOL    HW220238   2.453   2.195   6.158  2.7178  2.4562 -1.4001
 2868SOL     OW20239   1.751   4.660  10.291 -0.3916  0.2407  0.1943
 2868SOL    HW120240   1.826   4.719  10.299 -2.4010  2.8742 -0.0634
 2868SOL    HW220241   1.774   4.588  10.233 -2.7609 -1.0470  0.8270
 2869SOL     OW20242   0.169   2.773   2.002  0.9071 -0.0973  0.2336
 2869SOL    HW120243   0.255   2.766   2.042  1.2015  0.5061 -0.2901
 2869SOL    HW220244   0.186   2.861   1.968  0.9569  0.3119  1.3124
 2870SOL     OW20245   0.194   3.078   3.899  0.1549  0.5666 -0.5440
 2870SOL    HW120246   0.289   3.066   3.900 -0.0539 -0.9376  0.2255
 2870SOL    HW220247   0.172   3.117   3.814  1.4536 -0.9979 -1.6072
 2871SOL     OW20248   0.404   0.043   7.419 -0.4324  0.5090 -0.4504
 2871SOL    HW120249   0.461   0.091   7.359 -2.0294  1.1886 -1.4544
 2871SOL    HW220250   0.429   0.077   7.505  0.3944 -0.1092 -0.4530
 2872SOL     OW20251   0.407   2.932   6.547  0.5567  0.3785 -0.2089
 2872SOL    HW120252   0.467   3.006   6.540 -0.5697  1.2174 -1.0715
 2872SOL    HW220253   0.475   2.865   6.542  1.6600  1.5022 -0.3467
 2873SOL     OW20254   3.867   0.994   5.527 -0.1906 -0.2331 -0.3339
 2873SOL    HW120255   3.840   0.960   5.442  1.3454 -2.2531 -0.0277
 2873SOL    HW220256   3.928   0.925   5.555 -1.4444 -0.8262  0.9214
 2874SOL     OW20257   2.110   2.970   4.898 -0.1187  0.4810  0.0543
 2874SOL    HW120258   2.203   2.950   4.911 -0.8947 -2.9299  0.2688
 2874SOL    HW220259   2.081   2.961   4.988 -1.5746  0.9402 -0.3766
 2875SOL     OW20260   0.495   4.493   3.266  0.0137 -0.5466 -0.3522
 2875SOL    HW120261   0.566   4.430   3.257  0.7016  0.4877 -2.1173
 2875SOL    HW220262   0.416   4.443   3.244 -0.7465  0.3271  0.4452
 2876SOL     OW20263   2.625   4.178  14.895 -0.1597  0.2106 -0.2149
 2876SOL    HW120264   2.700   4.201  14.841 -0.0902 -0.1662 -0.2784
 2876SOL    HW220265   2.613   4.264  14.934  0.9382 -0.3424  1.3457
 2877SOL     OW20266   1.557   3.696   1.793 -0.2350  0.0279 -0.3184
 2877SOL    HW120267   1.581   3.766   1.733  1.0495  0.7726  1.0796
 2877SOL    HW220268   1.548   3.755   1.868 -0.3206  0.5796 -0.7689
 2878SOL     OW20269   0.882   3.492   1.830 -0.0581 -0.2905 -0.2115
 2878SOL    HW120270   0.864   3.585   1.831  0.7441 -0.1522  0.7459
 2878SOL    HW220271   0.947   3.496   1.759  0.0194  2.7575  0.0421
 2879SOL     OW20272   2.564   3.643  12.122 -0.1342 -0.0181  0.6279
 2879SOL    HW120273   2.637   3.613  12.176 -0.1039 -0.3257  0.4163
 2879SOL    HW220274   2.579   3.572  12.059 -1.0728  1.2295 -1.0026
 2880SOL     OW20275   1.180   1.401   0.996 -0.4855  0.1140  0.1686
 2880SOL    HW120276   1.256   1.376   0.943 -0.5664  0.9278 -0.3318
 2880SOL    HW220277   1.110   1.418   0.933 -0.1354  1.9316  0.2645
 2881SOL     OW20278   4.558   3.942   6.699 -0.2887 -0.1923 -0.3644
 2881SOL    HW120279   4.577   4.030   6.666 -0.4261  0.4263  1.2066
 2881SOL    HW220280   4.508   3.968   6.776 -0.2676  0.4150 -0.5561
 2882SOL     OW20281   3.730   0.073   8.157  0.2051 -0.2724 -0.4905
 2882SOL    HW120282   3.685   4.728   8.163 -1.4069  0.5856 -0.6968
 2882SOL    HW220283   3.696   0.113   8.237 -0.7731  0.5384 -1.3096
 2883SOL     OW20284   4.598   2.792   8.107 -0.3496 -0.5345 -0.0290
 2883SOL    HW120285   4.637   2.706   8.122  2.3974  0.4067 -1.7160
 2883SOL    HW220286   4.626   2.826   8.192 -3.3274 -0.3239  0.8862
 2884SOL     OW20287   3.057   4.316   8.085  0.2596  0.1998 -0.0150
 2884SOL    HW120288   2.970   4.355   8.082  0.6389  1.0581  0.2465
 2884SOL    HW220289   3.114   4.391   8.102 -0.9185  0.7080  1.6746
 2885SOL     OW20290   1.291   0.455   3.167 -0.0097 -0.5666 -0.1071
 2885SOL    HW120291   1.307   0.527   3.229  1.2629 -2.0433  1.2689
 2885SOL    HW220292   1.376   0.416   3.150  0.3046  0.0749 -0.0009
 2886SOL     OW20293   3.410   3.701  11.952  0.3444 -0.0566  0.1878
 2886SOL    HW120294   3.376   3.708  11.862  1.3498 -1.5234 -0.3064
 2886SOL    HW220295   3.458   3.619  11.939 -0.3323 -0.2057 -1.4381
 2887SOL     OW20296   4.472   0.292  16.077  0.1728 -0.4310 -0.7441
 2887SOL    HW120297   4.403   0.283  16.011 -0.5033 -0.7560  0.0020
 2887SOL    HW220298   4.475   0.208  16.122  0.7432  0.0310  0.0895
 2888SOL     OW20299   0.435   3.573  11.545  0.6742 -0.1321 -0.3868
 2888SOL    HW120300   0.367   3.640  11.553 -0.5604 -1.2103 -1.9264
 2888SOL    HW220301   0.402   3.527  11.622  0.6902 -0.5337 -0.6224
 2889SOL     OW20302   1.560   3.800   4.600 -0.3406 -0.1343 -0.4877
 2889SOL    HW120303   1.562   3.805   4.696  2.0214  1.9651 -0.6434
 2889SOL    HW220304   1.529   3.883   4.564 -2.0750 -0.8958 -0.7512
 2890SOL     OW20305   0.658   3.585   8.106  0.3264  0.1488  0.2636
 2890SOL    HW120306   0.693   3.628   8.184  0.9368 -1.1848  0.7266
 2890SOL    HW220307   0.681   3.495   8.127 -0.0016 -0.0140 -0.0826
 2891SOL     OW20308   3.783   4.049   7.931  0.8302 -0.0135 -0.1364
 2891SOL    HW120309   3.717   3.979   7.928 -2.2452  2.7107  2.4405
 2891SOL    HW220310   3.756   4.100   7.855 -0.3165 -1.2613 -0.5730
 2892SOL     OW20311   3.701   4.131   4.448 -0.0719 -0.0798  0.1914
 2892SOL    HW120312   3.680   4.224   4.439  0.5804  0.0072 -0.4072
 2892SOL    HW220313   3.637   4.100   4.512 -1.6637 -0.2785 -1.5341
 2893SOL     OW20314   2.601   1.471   7.644 -0.6139 -0.1076 -0.1813
 2893SOL    HW120315   2.556   1.423   7.575  1.4595 -1.3242 -0.6952
 2893SOL    HW220316   2.594   1.416   7.722 -3.3089 -0.4779 -0.7015
 2894SOL     OW20317   3.871   1.425   5.565  0.3188 -0.0749 -0.0008
 2894SOL    HW120318   3.899   1.515   5.579  0.3095  0.0359 -0.6666
 2894SOL    HW220319   3.785   1.445   5.528  0.1350  1.0954  1.0782
 2895SOL     OW20320   1.376   4.382   0.037  0.0403 -0.4467  0.0876
 2895SOL    HW120321   1.341   4.324  17.720 -1.4651 -0.4883  0.8877
 2895SOL    HW220322   1.468   4.379   0.011  0.4160 -0.3632  1.3739
 2896SOL     OW20323   1.415   1.091  15.760  0.2196 -0.1347 -0.3040
 2896SOL    HW120324   1.458   1.136  15.688 -0.1301 -1.6271 -1.4417
 2896SOL    HW220325   1.416   1.001  15.728  0.4852  0.5100 -2.0913
 2897SOL     OW20326   0.133   0.658  10.538  0.2173  0.3648  0.4324
 2897SOL    HW120327   0.139   0.621  10.449  0.4457  1.6820 -0.0947
 2897SOL    HW220328   0.139   0.575  10.585 -0.2686 -2.0145 -3.6337
 2898SOL     OW20329   1.376   0.180   4.558 -0.0506  1.0217 -0.2590
 2898SOL    HW120330   1.363   0.261   4.608 -3.7956  0.7176 -0.7120
 2898SOL    HW220331   1.302   0.184   4.497 -1.2560 -1.2954  1.0695
 2899SOL     OW20332   0.785   0.891   3.875 -0.1119 -0.2951  0.4688
 2899SOL    HW120333   0.710   0.851   3.833  0.4910 -2.2165  1.2210
 2899SOL    HW220334   0.837   0.816   3.904  2.3033  0.3552 -2.1647
 2900SOL     OW20335   3.952   1.406  13.677  0.0193  0.2002  0.0542
 2900SOL    HW120336   3.862   1.410  13.644  1.0360  0.6380 -2.7331
 2900SOL    HW220337   3.946   1.387  13.770 -1.4238  0.0202 -0.0774
 2901SOL     OW20338   4.324   3.731   6.760 -0.3355  0.0783  0.7608
 2901SOL    HW120339   4.313   3.748   6.854  1.7792 -0.0665  1.0313
 2901SOL    HW220340   4.404   3.678   6.757  0.1224  0.7951  0.1542
 2902SOL     OW20341   4.135   4.135   5.945  0.5677 -0.5493 -0.0132
 2902SOL    HW120342   4.141   4.229   5.964  1.5079 -1.0305  2.0758
 2902SOL    HW220343   4.199   4.096   6.004  0.9961  0.6249  0.3082
 2903SOL     OW20344   2.003   4.149   7.263 -0.7904  0.1390  0.1618
 2903SOL    HW120345   1.964   4.117   7.344 -1.5642 -1.9901 -1.0456
 2903SOL    HW220346   2.091   4.174   7.290 -0.1944 -1.5460 -0.1801
 2904SOL     OW20347   2.551   1.401   6.179 -0.0164 -0.2886 -0.7279
 2904SOL    HW120348   2.502   1.339   6.234  0.3629 -0.0427 -0.1081
 2904SOL    HW220349   2.599   1.343   6.120 -1.8130 -2.3430 -0.1505
 2905SOL     OW20350   3.357   2.591   4.561  0.1639 -0.2481  0.2550
 2905SOL    HW120351   3.429   2.634   4.515  0.5265 -0.9883  0.1397
 2905SOL    HW220352   3.328   2.529   4.495 -0.2099 -0.8427  0.9771
 2906SOL     OW20353   0.587   3.430   0.182  0.2573 -0.6399  0.1263
 2906SOL    HW120354   0.604   3.350   0.232 -0.1366 -0.5191  0.4493
 2906SOL    HW220355   0.544   3.396   0.104 -0.3538 -1.8744  0.9923
 2907SOL     OW20356   1.876   2.634  11.290 -0.4785 -0.5016 -0.2810
 2907SOL    HW120357   1.863   2.726  11.266 -1.9003 -0.6390 -0.0694
 2907SOL    HW220358   1.826   2.640  11.372 -1.1882 -1.7397 -0.6280
 2908SOL     OW20359   0.979   4.385   9.921  0.4157  0.2089 -0.1880
 2908SOL    HW120360   0.990   4.388   9.826 -0.9527  1.5092 -0.3043
 2908SOL    HW220361   0.898   4.434   9.934  1.3445  1.6793  0.0676
 2909SOL     OW20362   1.963   1.366  15.958  0.2041 -0.1356 -0.2511
 2909SOL    HW120363   1.936   1.447  15.915  5.7260  0.9422 -1.7369
 2909SOL    HW220364   1.883   1.339  16.003  0.2770  2.0544  1.1753
 2910SOL     OW20365   0.451   3.593   6.291  0.1488  0.1586 -0.7107
 2910SOL    HW120366   0.437   3.676   6.246  1.4187  0.5135 -0.4528
 2910SOL    HW220367   0.483   3.550   6.212  1.1461  0.3774 -0.4237
 2911SOL     OW20368   4.665   1.747   2.396  0.4246  0.0795  0.1333
 2911SOL    HW120369   4.621   1.663   2.390 -0.2732  0.4522  0.0008
 2911SOL    HW220370   0.000   1.726   2.339  0.0509  0.2358 -0.4109
 2912SOL     OW20371   3.658   0.201   3.150 -0.4088  0.0297 -0.3244
 2912SOL    HW120372   3.715   0.250   3.091  1.4627 -1.4905  0.2445
 2912SOL    HW220373   3.721   0.175   3.217 -0.3620  0.4108 -0.2187
 2913SOL     OW20374   3.865   2.039   6.379  0.3381  0.1041 -0.4371
 2913SOL    HW120375   3.875   2.124   6.421 -1.1280 -0.2149  0.5536
 2913SOL    HW220376   3.806   2.079   6.316  1.4370  2.3145 -0.0670
 2914SOL     OW20377   3.587   3.808  12.482 -0.5278 -0.5515 -0.0078
 2914SOL    HW120378   3.578   3.794  12.576  0.8984 -0.7339  0.1021
 2914SOL    HW220379   3.617   3.724  12.448 -2.3302 -0.4512 -1.8552
 2915SOL     OW20380   4.023   1.314   9.863  0.3331 -0.8248  0.2511
 2915SOL    HW120381   4.054   1.288   9.776 -2.1753  0.5068 -1.0065
 2915SOL    HW220382   3.928   1.321   9.858  0.4116 -0.6046 -0.9246
 2916SOL     OW20383   1.384   1.178   7.639 -0.4959 -0.5713 -0.6015
 2916SOL    HW120384   1.381   1.272   7.654 -1.8909 -0.8877  1.0850
 2916SOL    HW220385   1.353   1.160   7.728  3.1322 -0.8428  0.5938
 2917SOL     OW20386   1.074   3.621   4.089 -1.0276 -0.1278  0.2778
 2917SOL    HW120387   1.066   3.697   4.147  0.8491  1.3096 -1.3195
 2917SOL    HW220388   0.987   3.584   4.099 -0.4303 -1.4926  0.4884
 2918SOL     OW20389   3.415   4.509   6.498  0.0866 -0.1913  0.1709
 2918SOL    HW120390   3.361   4.453   6.442 -0.4832  0.1188  0.4125
 2918SOL    HW220391   3.489   4.520   6.438  1.6611  0.0803  2.1655
 2919SOL     OW20392   2.276   2.950   3.450  0.5600 -0.0774 -0.2411
 2919SOL    HW120393   2.276   2.880   3.515 -0.8925  1.8263  1.8000
 2919SOL    HW220394   2.226   3.027   3.479  0.7555 -0.2655  0.6000
 2920SOL     OW20395   4.602   4.123   9.454 -0.8467  0.2569  0.2519
 2920SOL    HW120396   4.582   4.160   9.368 -1.6413  0.0792  0.3572
 2920SOL    HW220397   4.693   4.101   9.434 -0.5379  0.6816  1.1957
 2921SOL     OW20398   0.599   0.404   0.378 -0.1119 -0.1430 -0.2175
 2921SOL    HW120399   0.676   0.403   0.322  0.4525  0.6554  0.5543
 2921SOL    HW220400   0.602   0.496   0.405 -0.3581  0.1636 -1.2513
 2922SOL     OW20401   3.461   3.288   9.013  0.0445  0.0892  0.6663
 2922SOL    HW120402   3.372   3.267   8.985  0.6451 -0.6165 -0.7402
 2922SOL    HW220403   3.467   3.213   9.073 -1.8184 -1.1978 -0.7737
 2923SOL     OW20404   1.643   2.975  15.562 -0.0170  0.3228  0.0136
 2923SOL    HW120405   1.592   2.908  15.518  2.5546 -0.9565 -1.0440
 2923SOL    HW220406   1.718   2.979  15.502 -0.2811 -1.4076 -0.4104
 2924SOL     OW20407   0.308   3.740   4.081  0.2350  0.7887 -0.2742
 2924SOL    HW120408   0.337   3.831   4.075 -0.7675  1.1515  0.3553
 2924SOL    HW220409   0.248   3.751   4.155  1.7319 -1.0751  1.2044
 2925SOL     OW20410   1.201   2.821  14.288  0.0938 -0.2174  0.0823
 2925SOL    HW120411   1.230   2.796  14.201 -1.9387  0.6021 -0.8284
 2925SOL    HW220412   1.202   2.916  14.283 -1.7298 -0.3825 -3.2217
 2926SOL     OW20413   4.258   0.879   3.711  0.4385 -0.7424 -0.0925
 2926SOL    HW120414   4.251   0.918   3.798  0.1592 -3.0359  0.9241
 2926SOL    HW220415   4.332   0.927   3.673 -1.0182  1.6772  0.1323
 2927SOL     OW20416   0.687   2.053   7.036 -0.0604 -0.4778  0.3554
 2927SOL    HW120417   0.610   2.009   7.072  0.1316  1.2156  2.8316
 2927SOL    HW220418   0.702   2.122   7.100 -0.4566 -0.2162  0.1651
 2928SOL     OW20419   2.635   4.695   4.221  0.6327 -0.2950 -0.1373
 2928SOL    HW120420   2.557   4.673   4.272 -0.4404  0.9318 -1.2627
 2928SOL    HW220421   2.681   0.019   4.277  0.0611 -0.7809  0.8667
 2929SOL     OW20422   1.563   3.016  13.539  0.6203 -0.0294  0.3147
 2929SOL    HW120423   1.641   3.030  13.593  0.1290  1.6636  0.5650
 2929SOL    HW220424   1.598   2.948  13.482 -0.0961  0.7374 -1.0192
 2930SOL     OW20425   0.683   3.027   6.500  0.4183 -0.9972 -0.4796
 2930SOL    HW120426   0.740   2.967   6.549 -1.6212 -0.9014  1.9660
 2930SOL    HW220427   0.660   3.097   6.561 -1.5537 -1.6305 -0.5230
 2931SOL     OW20428   4.224   1.926   9.283  0.1646 -0.4774 -0.0152
 2931SOL    HW120429   4.272   2.009   9.283  2.3983 -1.7563 -0.9561
 2931SOL    HW220430   4.262   1.876   9.211 -0.1707  2.0181 -1.9434
 2932SOL     OW20431   3.408   1.941   6.494  0.5063 -0.6553 -0.0184
 2932SOL    HW120432   3.438   2.030   6.477  2.0751 -1.3064 -0.6566
 2932SOL    HW220433   3.441   1.899   6.415  0.0827 -1.1244  0.0534
 2933SOL     OW20434   1.793   4.163  11.362 -0.0226 -0.1748  0.6448
 2933SOL    HW120435   1.782   4.097  11.430  1.5183 -1.1933 -0.0854
 2933SOL    HW220436   1.712   4.212  11.375  0.0451  0.2310 -0.4728
 2934SOL     OW20437   3.114   2.658   4.674  0.4791  0.0241 -0.5609
 2934SOL    HW120438   3.197   2.657   4.626  0.9418 -0.8245  0.2521
 2934SOL    HW220439   3.042   2.653   4.612  0.0542 -0.3758 -0.0276
 2935SOL     OW20440   0.423   1.335   6.231 -0.1590 -0.0147  0.3094
 2935SOL    HW120441   0.356   1.287   6.184  1.0855 -2.9523  1.5603
 2935SOL    HW220442   0.373   1.413   6.259  3.8404  3.0381 -1.0633
 2936SOL     OW20443   1.844   2.116  15.532 -0.3845 -0.1567 -0.2810
 2936SOL    HW120444   1.808   2.181  15.593 -1.5678 -1.1752  0.0979
 2936SOL    HW220445   1.936   2.143  15.530 -0.2049 -1.0291 -2.8692
 2937SOL     OW20446   4.518   0.749   1.766  0.3515  0.6443 -0.2219
 2937SOL    HW120447   4.475   0.716   1.845 -0.8154 -1.1028 -1.6150
 2937SOL    HW220448   4.599   0.774   1.812  0.8622  0.7632 -1.1935
 2938SOL     OW20449   0.251   0.796   5.516  0.1568 -0.4469 -0.2486
 2938SOL    HW120450   0.284   0.764   5.432 -3.4385 -0.9231 -1.5021
 2938SOL    HW220451   0.158   0.786   5.496 -0.4065  2.7948  0.7682
 2939SOL     OW20452   0.171   4.016   1.015 -0.7251 -0.4906 -0.2205
 2939SOL    HW120453   0.187   4.040   0.923  0.6455  1.5484  0.5644
 2939SOL    HW220454   0.204   3.927   1.007 -1.0030 -0.5643 -0.5886
 2940SOL     OW20455   2.943   0.171   0.587 -0.6517 -0.0600  0.3058
 2940SOL    HW120456   2.929   0.191   0.494 -0.9063  0.0215  0.3637
 2940SOL    HW220457   2.907   0.248   0.629  0.6333  1.2173 -0.9496
 2941SOL     OW20458   3.971   3.032   6.819 -0.3662 -0.2545  0.3716
 2941SOL    HW120459   4.055   2.998   6.790  0.0463  1.4258 -0.3943
 2941SOL    HW220460   3.969   3.009   6.911  0.5696 -1.0395  0.1933
 2942SOL     OW20461   0.760   1.795   6.510  0.1575  0.1391  0.1060
 2942SOL    HW120462   0.712   1.822   6.432  0.9378 -0.7922 -0.6818
 2942SOL    HW220463   0.844   1.765   6.476  1.1184  1.2373  1.5083
 2943SOL     OW20464   3.210   2.927   2.158  0.2145 -0.2160 -0.3583
 2943SOL    HW120465   3.149   2.992   2.193  0.7963 -0.2919  0.8007
 2943SOL    HW220466   3.252   2.885   2.234  0.1843  0.5621  0.0934
 2944SOL     OW20467   1.643   4.678   7.123  0.2585  0.0127  0.0252
 2944SOL    HW120468   1.603   4.619   7.059 -0.7942  0.6313  0.1001
 2944SOL    HW220469   1.694   4.616   7.173  1.5461 -0.5463 -1.9856
 2945SOL     OW20470   4.549   2.319   3.451 -0.3131 -0.5138  0.4255
 2945SOL    HW120471   4.479   2.318   3.517  0.5581 -0.6093  1.3560
 2945SOL    HW220472   4.505   2.369   3.383 -2.2285  0.4473  2.3638
 2946SOL     OW20473   3.461   0.594  17.224  0.0106  0.6220 -0.0146
 2946SOL    HW120474   3.420   0.551  17.299  0.6473 -0.9524 -0.5779
 2946SOL    HW220475   3.383   0.592  17.167  0.3328 -0.4739 -0.4119
 2947SOL     OW20476   1.497   0.045  12.075 -0.6352 -0.1245 -0.0948
 2947SOL    HW120477   1.513   4.727  12.151  0.5838 -0.7975 -0.8634
 2947SOL    HW220478   1.566   0.014  12.018  0.2080 -0.0952  0.9068
 2948SOL     OW20479   2.219   2.409   3.548  0.4988  0.2862  0.6355
 2948SOL    HW120480   2.176   2.494   3.558 -2.1966 -1.0949  0.8853
 2948SOL    HW220481   2.160   2.371   3.483  2.7141  0.2276 -1.3383
 2949SOL     OW20482   4.001   2.037   4.640  0.0558  0.3904 -0.5317
 2949SOL    HW120483   4.051   2.062   4.562  0.7340 -0.8877 -0.5121
 2949SOL    HW220484   4.007   2.112   4.699 -1.7175  0.3669 -0.3273
 2950SOL     OW20485   0.334   0.482   8.803 -0.3792 -0.7734  0.5234
 2950SOL    HW120486   0.403   0.515   8.860 -0.6295 -0.5307  0.6912
 2950SOL    HW220487   0.284   0.558   8.772 -0.6365 -0.7529  0.9805
 2951SOL     OW20488   0.277   4.139   7.294  0.7869  0.2525 -0.4380
 2951SOL    HW120489   0.269   4.132   7.389 -1.1761 -1.3985 -0.7245
 2951SOL    HW220490   0.359   4.092   7.279  1.3975  1.2492 -0.2567
 2952SOL     OW20491   0.190   3.215   3.673 -0.1518  0.1752  0.2569
 2952SOL    HW120492   0.210   3.273   3.599 -1.2071  2.9610  2.1452
 2952SOL    HW220493   0.147   3.143   3.627  3.6702 -1.3399 -0.9642
 2953SOL     OW20494   3.760   2.042   4.220  0.2292  0.1110 -0.4954
 2953SOL    HW120495   3.778   2.135   4.225 -1.4181  0.3495  0.9313
 2953SOL    HW220496   3.759   2.016   4.312 -0.3432 -2.3480 -1.1769
 2954SOL     OW20497   3.651   4.621   2.533 -0.2939 -0.7325  0.1284
 2954SOL    HW120498   3.681   4.553   2.594 -1.3432 -0.0702  1.3783
 2954SOL    HW220499   3.670   4.703   2.580 -1.1083  0.4444 -1.5911
 2955SOL     OW20500   1.561   1.809   6.723  0.2953  0.4356  0.3276
 2955SOL    HW120501   1.657   1.812   6.729  0.3206  1.7111 -0.6068
 2955SOL    HW220502   1.531   1.870   6.790 -0.9486  0.6593 -0.4292
 2956SOL     OW20503   4.029   3.144  11.906 -0.7264 -0.0985 -0.1101
 2956SOL    HW120504   4.067   3.067  11.863 -0.5412  0.6232 -1.2251
 2956SOL    HW220505   4.000   3.202  11.836 -0.3956  0.9609  0.6268
 2957SOL     OW20506   4.512   2.441  14.724  0.6343 -0.1027  0.4247
 2957SOL    HW120507   4.587   2.494  14.698  2.4998 -2.0704  1.8441
 2957SOL    HW220508   4.451   2.473  14.657  0.4549 -2.0189 -0.3218
 2958SOL     OW20509   3.856   1.207  10.964  0.4141  0.1615  0.3238
 2958SOL    HW120510   3.796   1.240  11.031  0.1069 -0.9979  0.6296
 2958SOL    HW220511   3.940   1.253  10.969  0.6542 -0.3233  0.8850
 2959SOL     OW20512   1.276   0.621   8.134 -0.3680  0.3368 -0.1656
 2959SOL    HW120513   1.306   0.590   8.048 -0.8231 -0.2096 -0.1308
 2959SOL    HW220514   1.204   0.683   8.119  1.9408  2.5733 -1.9652
 2960SOL     OW20515   3.099   2.062   2.187  0.2660 -0.6989  0.0526
 2960SOL    HW120516   3.145   1.993   2.139 -0.0330 -1.3847  0.7602
 2960SOL    HW220517   3.113   2.136   2.128  1.7466 -1.6882 -0.8310
 2961SOL     OW20518   1.814   1.837   5.580 -0.2029 -0.2936 -0.1856
 2961SOL    HW120519   1.845   1.746   5.576 -1.4505 -0.8686  2.7285
 2961SOL    HW220520   1.724   1.803   5.582 -0.4395  0.3661  0.2190
 2962SOL     OW20521   3.089   1.981  12.821 -0.5053 -0.2794 -0.3737
 2962SOL    HW120522   3.180   1.965  12.846  0.1898  0.3030 -2.5810
 2962SOL    HW220523   3.112   1.997  12.730 -1.0820  0.6000 -0.3666
 2963SOL     OW20524   0.376   1.648   2.108 -0.0446 -0.3553 -0.4791
 2963SOL    HW120525   0.285   1.639   2.137 -0.1373  1.9633 -0.0057
 2963SOL    HW220526   0.383   1.744   2.103 -1.3616 -0.2020  0.4909
 2964SOL     OW20527   0.639   4.209   8.263 -0.6657  0.2043  0.1097
 2964SOL    HW120528   0.578   4.150   8.218  1.0138  1.0594 -3.2447
 2964SOL    HW220529   0.579   4.244   8.329 -0.5058  1.3329 -0.3439
 2965SOL     OW20530   3.905   2.266   7.643  0.1947  0.1070 -0.0086
 2965SOL    HW120531   3.914   2.337   7.706  1.4291 -1.8302  1.9806
 2965SOL    HW220532   3.960   2.201   7.686 -1.2542 -0.8051  0.4884
 2966SOL     OW20533   2.563   3.291   9.128  0.1065  0.3868 -0.1928
 2966SOL    HW120534   2.574   3.320   9.037  0.7589 -1.1516 -0.5977
 2966SOL    HW220535   2.496   3.349   9.164 -0.8596  1.4541 -3.7283
 2967SOL     OW20536   0.863   3.774   1.891  0.0529  0.3836  0.2679
 2967SOL    HW120537   0.938   3.807   1.841 -2.1369  1.6418 -2.2223
 2967SOL    HW220538   0.843   3.852   1.943 -0.0024  2.4087 -2.7317
 2968SOL     OW20539   2.006   1.706   4.130  0.2573 -0.0226 -0.2966
 2968SOL    HW120540   1.934   1.652   4.162  0.2079 -1.1970 -2.3896
 2968SOL    HW220541   2.085   1.656   4.154  1.0454  1.5291  0.3535
 2969SOL     OW20542   1.482   1.409  15.811  0.0098  0.0107 -0.2868
 2969SOL    HW120543   1.400   1.422  15.763  0.6828 -1.8513 -1.9632
 2969SOL    HW220544   1.519   1.345  15.750 -2.8432  0.7711 -2.7728
 2970SOL     OW20545   1.086   4.633  12.752  0.6397 -0.1441 -0.0292
 2970SOL    HW120546   1.051   4.545  12.738  1.0989  0.2412 -3.6312
 2970SOL    HW220547   1.179   4.620  12.733  0.1990 -2.5274 -0.5411
 2971SOL     OW20548   3.736   4.205   1.842 -0.0092  0.2807  0.0874
 2971SOL    HW120549   3.764   4.292   1.814  1.0062 -0.5559 -1.5191
 2971SOL    HW220550   3.823   4.165   1.840 -0.2508 -0.2484  0.0606
 2972SOL     OW20551   1.707   2.738   9.651  0.3161  0.3798 -0.1207
 2972SOL    HW120552   1.706   2.730   9.747 -1.4031 -0.5076 -0.2221
 2972SOL    HW220553   1.729   2.831   9.644  0.3737  0.5463  2.0430
 2973SOL     OW20554   3.156   4.395   4.368  0.1427 -0.0015  0.2711
 2973SOL    HW120555   3.109   4.468   4.327 -0.1620 -1.3657 -1.8018
 2973SOL    HW220556   3.085   4.353   4.418  0.5652 -2.5389 -1.2705
 2974SOL     OW20557   3.297   4.070   6.392 -0.1029  0.3285 -0.0151
 2974SOL    HW120558   3.303   4.148   6.337 -3.0356  0.4774 -0.1248
 2974SOL    HW220559   3.222   4.075   6.451  1.2548  1.5049  1.5880
 2975SOL     OW20560   2.196   4.056   2.486 -0.4905  0.5519 -0.2392
 2975SOL    HW120561   2.248   4.023   2.559 -0.8998  1.8433  0.6542
 2975SOL    HW220562   2.262   4.064   2.418 -2.0186 -1.9167 -1.9712
 2976SOL     OW20563   0.248   2.273   0.241 -0.0413 -0.0188 -0.8931
 2976SOL    HW120564   0.318   2.319   0.287  0.2924  0.0238 -1.4361
 2976SOL    HW220565   0.173   2.322   0.273  0.4522 -0.4654  0.9158
 2977SOL     OW20566   1.884   4.582   7.586 -0.3749  0.0697 -0.6923
 2977SOL    HW120567   1.904   4.545   7.672 -0.8649  1.5317  0.0357
 2977SOL    HW220568   1.826   4.516   7.548 -0.4740 -0.3190  0.1218
 2978SOL     OW20569   2.372   2.109  16.470 -0.1757  0.9733  0.5616
 2978SOL    HW120570   2.338   2.022  16.492  0.7301  1.0621  2.3417
 2978SOL    HW220571   2.461   2.087  16.441 -0.8771  0.0209 -0.8727
 2979SOL     OW20572   0.052   0.718   1.843 -0.1467  0.1778 -0.2509
 2979SOL    HW120573   0.071   0.630   1.874 -0.8097 -0.4537 -1.6663
 2979SOL    HW220574   0.128   0.757   1.800  0.9413 -1.8351 -0.1474
 2980SOL     OW20575   0.876   3.140   3.232 -0.2426 -0.3360  0.1465
 2980SOL    HW120576   0.924   3.180   3.305  0.1724 -1.8245  0.6839
 2980SOL    HW220577   0.871   3.049   3.259 -0.3662 -1.2446 -2.9032
 2981SOL     OW20578   2.377   2.817   7.199  0.3732 -0.9519 -0.3625
 2981SOL    HW120579   2.383   2.870   7.279 -0.1274 -0.5662 -0.5831
 2981SOL    HW220580   2.433   2.871   7.145 -0.9795  0.1542 -0.6588
 2982SOL     OW20581   4.217   4.514   3.971  0.4201  0.0700 -0.2231
 2982SOL    HW120582   4.163   4.534   3.894 -0.4682  1.1894  0.7049
 2982SOL    HW220583   4.169   4.443   4.013 -1.4027  1.1215 -0.5348
 2983SOL     OW20584   0.499   3.184   3.074 -0.5467 -0.2551 -0.2269
 2983SOL    HW120585   0.578   3.238   3.071 -1.5634  1.2774  0.6482
 2983SOL    HW220586   0.486   3.185   3.169 -1.1274 -3.0237 -0.2972
 2984SOL     OW20587   2.095   1.386   8.066 -0.4034 -0.1879  0.4281
 2984SOL    HW120588   2.041   1.407   8.142  1.0420  0.4634  1.2734
 2984SOL    HW220589   2.118   1.293   8.072 -1.6745 -0.4094  1.6724
 2985SOL     OW20590   0.617   0.317   5.615  0.0642  0.3360 -0.1459
 2985SOL    HW120591   0.672   0.391   5.641 -0.8979  1.0405 -0.1230
 2985SOL    HW220592   0.651   0.303   5.527 -2.8955 -1.8145 -0.9315
 2986SOL     OW20593   2.949   1.850   4.402 -0.0180  0.2602  0.3146
 2986SOL    HW120594   2.992   1.932   4.426 -1.2510  0.0371  3.3402
 2986SOL    HW220595   2.956   1.805   4.487  0.6362 -1.6611 -0.7401
 2987SOL     OW20596   3.968   0.136   5.211  0.2755 -0.2526 -0.6797
 2987SOL    HW120597   3.993   0.122   5.302 -0.6849  2.2202 -0.0327
 2987SOL    HW220598   4.039   0.089   5.167 -1.3279 -0.8029 -2.6940
 2988SOL     OW20599   3.752   2.306   8.929  0.1355  0.5080  0.2282
 2988SOL    HW120600   3.827   2.355   8.965 -1.6739  0.3450  4.2119
 2988SOL    HW220601   3.775   2.313   8.836 -0.0358  0.0967  0.1592
 2989SOL     OW20602   0.370   3.031   8.170  0.1700  0.3254 -0.1615
 2989SOL    HW120603   0.374   2.936   8.159 -0.3288 -0.1498  3.7731
 2989SOL    HW220604   0.278   3.058   8.164 -0.0008 -0.5684 -1.5199
 2990SOL     OW20605   1.496   4.323   3.738  0.2889  0.0822 -0.2322
 2990SOL    HW120606   1.542   4.240   3.740  0.6525  0.2770 -0.6187
 2990SOL    HW220607   1.505   4.343   3.831 -0.1845  1.2807 -0.4418
 2991SOL     OW20608   2.063   1.516   3.763 -0.0859  0.5048  0.0129
 2991SOL    HW120609   2.106   1.596   3.793  0.0738 -0.4920  2.4496
 2991SOL    HW220610   2.128   1.467   3.714 -0.2613 -2.4810  2.7963
 2992SOL     OW20611   4.332   1.691   8.125  0.5305  0.4501 -0.2387
 2992SOL    HW120612   4.413   1.642   8.115  1.6791  2.6588 -1.7731
 2992SOL    HW220613   4.348   1.757   8.058  1.6913 -1.4843 -1.8656
 2993SOL     OW20614   0.506   2.312   2.192  0.6064  0.0327 -0.3933
 2993SOL    HW120615   0.602   2.314   2.189  0.6917 -1.5631  0.9050
 2993SOL    HW220616   0.486   2.380   2.256 -0.8464  0.7072 -1.5851
 2994SOL     OW20617   3.414   3.605   0.964 -0.1414  0.8966 -0.0909
 2994SOL    HW120618   3.468   3.601   1.042  0.0974 -0.3482 -0.3272
 2994SOL    HW220619   3.423   3.699   0.946 -0.5061  0.7311 -1.1719
 2995SOL     OW20620   2.434   4.713   4.460  0.0824  1.1657 -0.1943
 2995SOL    HW120621   2.512   4.730   4.512  1.1615 -1.0784 -1.0676
 2995SOL    HW220622   2.393   0.061   4.463 -2.0941  0.1491 -0.4041
 2996SOL     OW20623   4.305   4.343   6.560  0.0606  0.6878  0.0394
 2996SOL    HW120624   4.309   4.436   6.585 -1.5708  1.1559 -1.4155
 2996SOL    HW220625   4.378   4.349   6.499  1.1725 -1.5465  1.1853
 2997SOL     OW20626   0.156   1.037   1.123 -0.5511 -0.1683  0.2839
 2997SOL    HW120627   0.133   1.032   1.216  1.4811  0.1771  0.7962
 2997SOL    HW220628   0.221   0.968   1.125 -1.9522 -1.5055 -0.1401
 2998SOL     OW20629   4.004   3.030   6.203 -0.1612  0.3535  0.2565
 2998SOL    HW120630   4.057   3.099   6.244  0.1308 -0.2690  0.9297
 2998SOL    HW220631   3.920   3.045   6.246 -1.4853 -1.8125 -1.5954
 2999SOL     OW20632   1.278   1.726   7.480 -0.9234  0.0273  0.1296
 2999SOL    HW120633   1.244   1.802   7.526 -1.4406 -1.4698  2.2606
 2999SOL    HW220634   1.364   1.713   7.520 -0.6986  0.2590 -0.2856
 3000SOL     OW20635   0.844   4.229   8.972 -0.1962 -0.0534  0.2814
 3000SOL    HW120636   0.823   4.292   9.041 -0.9552  1.2333 -1.1598
 3000SOL    HW220637   0.808   4.266   8.892 -0.3568  2.4992  1.5276
 3001SOL     OW20638   4.235   0.501  14.396 -0.1320  0.6470 -0.2141
 3001SOL    HW120639   4.156   0.510  14.341 -0.0902 -1.3467 -0.5862
 3001SOL    HW220640   4.250   0.414  14.360  0.6256  1.7856 -2.6796
 3002SOL     OW20641   3.558   3.246  15.796 -0.0700 -0.2893  0.6187
 3002SOL    HW120642   3.622   3.289  15.853 -0.5016  0.4685  0.5196
 3002SOL    HW220643   3.549   3.315  15.730  1.1735 -1.8992 -1.2261
 3003SOL     OW20644   1.816   0.379  17.566  0.4673  0.4614 -0.2772
 3003SOL    HW120645   1.734   0.409  17.606  0.4071  0.2654 -0.2536
 3003SOL    HW220646   1.800   0.285  17.560  1.6575  0.2637 -0.3713
 3004SOL     OW20647   4.503   3.179  11.702  0.0316 -0.7536  0.1175
 3004SOL    HW120648   4.478   3.100  11.749  1.3437 -0.1732  1.7648
 3004SOL    HW220649   4.581   3.148  11.657  0.4663 -2.7575  2.2821
 3005SOL     OW20650   3.832   3.869   1.954  0.9814  0.4067 -0.1161
 3005SOL    HW120651   3.771   3.831   1.890  0.9934  1.1227 -0.5487
 3005SOL    HW220652   3.866   3.941   1.902  0.3827 -1.4163 -3.0498
 3006SOL     OW20653   3.730   4.367  15.615  0.6868 -0.2820 -0.0432
 3006SOL    HW120654   3.707   4.451  15.656  0.9190 -0.0170 -0.4603
 3006SOL    HW220655   3.813   4.352  15.661 -0.6923 -4.8520  0.9414
 3007SOL     OW20656   4.120   2.046  12.607  0.3377 -0.5980  0.1299
 3007SOL    HW120657   4.106   2.140  12.596 -0.8677 -0.8585 -0.5257
 3007SOL    HW220658   4.098   2.025  12.516  1.1980  0.7613 -0.4026
 3008SOL     OW20659   3.120   1.041  10.824 -0.6047 -0.2800 -0.3011
 3008SOL    HW120660   3.031   1.013  10.803 -1.7401  0.0637  3.9561
 3008SOL    HW220661   3.174   1.041  10.745  0.4024 -1.5214  0.3833
 3009SOL     OW20662   3.988   0.570   7.297  0.3394  0.2976 -0.0727
 3009SOL    HW120663   3.988   0.530   7.384 -0.9199  0.3329 -0.0495
 3009SOL    HW220664   3.945   0.503   7.242 -2.0013 -0.9822  3.2901
 3010SOL     OW20665   3.083   2.459  12.094  0.1043  0.1522  0.0346
 3010SOL    HW120666   3.140   2.386  12.120 -0.0988 -0.4338 -1.1607
 3010SOL    HW220667   3.030   2.415  12.028 -0.8474  0.5201  0.5514
 3011SOL     OW20668   0.857   2.866   2.806  0.0554 -0.0011 -0.0994
 3011SOL    HW120669   0.842   2.874   2.900 -0.3990  1.0484 -0.2540
 3011SOL    HW220670   0.787   2.810   2.773 -0.7019  0.5359  0.5940
 3012SOL     OW20671   2.337   1.467  14.787  0.0515  0.6839  0.2584
 3012SOL    HW120672   2.374   1.521  14.717  0.2768 -0.2418 -0.3256
 3012SOL    HW220673   2.338   1.533  14.857 -0.1817 -2.0238  2.8151
 3013SOL     OW20674   2.684   1.953  17.364  0.0583 -0.7171 -0.3917
 3013SOL    HW120675   2.638   1.905  17.294 -0.8649 -1.7098  0.8997
 3013SOL    HW220676   2.743   2.008  17.311 -0.4767  1.9620  1.8375
 3014SOL     OW20677   2.802   3.401   0.102 -0.1091  0.0328  0.4577
 3014SOL    HW120678   2.812   3.312   0.134 -1.2381 -0.1908  0.1890
 3014SOL    HW220679   2.707   3.416   0.100 -0.6532 -3.5894  0.6891
 3015SOL     OW20680   3.935   3.823   7.406 -0.2268 -0.2568 -0.4017
 3015SOL    HW120681   3.887   3.821   7.488  0.3606  0.8748 -0.0358
 3015SOL    HW220682   3.924   3.737   7.365 -0.5077 -1.6237  2.5862
 3016SOL     OW20683   2.820   3.359   9.032 -0.9001 -0.3829  0.3742
 3016SOL    HW120684   2.820   3.405   8.948  2.6683  0.1800  0.7054
 3016SOL    HW220685   2.730   3.365   9.065 -0.8527 -1.7813  0.7339
 3017SOL     OW20686   2.385   4.237  15.327  0.5567 -0.2639  0.1007
 3017SOL    HW120687   2.460   4.188  15.360 -0.7563 -0.9019  2.1136
 3017SOL    HW220688   2.353   4.179  15.259  1.8837 -1.7809  0.7830
 3018SOL     OW20689   3.278   1.460   7.604  0.4729 -0.2725  0.3750
 3018SOL    HW120690   3.252   1.376   7.641 -0.1918 -0.0826  0.3407
 3018SOL    HW220691   3.364   1.445   7.566 -0.1830 -0.7920 -0.8893
 3019SOL     OW20692   1.918   4.642   8.790 -0.2926 -0.2875 -0.2562
 3019SOL    HW120693   1.902   4.721   8.738 -0.2480  0.9567  1.6563
 3019SOL    HW220694   1.848   4.654   8.854  0.4354 -1.0703  0.6722
 3020SOL     OW20695   2.218   0.583  16.516 -0.1787  0.0727 -0.2447
 3020SOL    HW120696   2.284   0.602  16.584  0.3787 -1.9142 -0.2007
 3020SOL    HW220697   2.144   0.549  16.566 -0.4649 -0.0396 -0.7495
 3021SOL     OW20698   0.188   4.394   8.491  0.6205 -0.0277  0.4069
 3021SOL    HW120699   0.195   4.309   8.534 -0.7742 -0.1994  0.2776
 3021SOL    HW220700   0.115   4.434   8.537 -0.1717  0.1258 -0.9716
 3022SOL     OW20701   3.320   2.830   9.145  0.4596  0.6425  0.4735
 3022SOL    HW120702   3.408   2.834   9.181  1.0152  1.6568 -0.9994
 3022SOL    HW220703   3.309   2.736   9.157 -1.7307  0.9744  1.1327
 3023SOL     OW20704   3.736   0.890  13.155  0.4021 -0.4765 -0.0113
 3023SOL    HW120705   3.706   0.875  13.245  0.6223 -0.9856 -0.0230
 3023SOL    HW220706   3.787   0.971  13.160  2.0488 -1.5667  0.8476
 3024SOL     OW20707   2.985   4.494   1.873  0.1496 -0.2361 -0.1400
 3024SOL    HW120708   3.039   4.544   1.933  0.8394 -1.5042  0.2876
 3024SOL    HW220709   2.932   4.450   1.940 -3.4694 -0.4589 -3.1393
 3025SOL     OW20710   3.796   1.392  12.395 -0.3241  0.2070  0.1330
 3025SOL    HW120711   3.780   1.445  12.473 -2.0386  0.3939 -0.3615
 3025SOL    HW220712   3.875   1.428  12.354 -0.5304  0.9157  0.3600
 3026SOL     OW20713   1.870   1.644   3.650 -0.0186 -0.6791 -0.2731
 3026SOL    HW120714   1.794   1.590   3.632 -0.8138  0.4344 -0.2406
 3026SOL    HW220715   1.933   1.579   3.681  1.2351 -0.8546 -3.1378
 3027SOL     OW20716   3.488   0.201   1.850 -0.0720  0.7626  0.4962
 3027SOL    HW120717   3.488   0.254   1.930  0.4352  0.2265  0.8542
 3027SOL    HW220718   3.489   0.115   1.893  0.7500  1.3539  1.6505
 3028SOL     OW20719   2.753   4.714  14.909  0.7625 -0.2304  0.2338
 3028SOL    HW120720   2.775   4.728  15.001  1.3071  1.9722 -0.2226
 3028SOL    HW220721   2.658   4.725  14.907  0.9310  0.9713 -1.7064
 3029SOL     OW20722   0.524   2.416   3.141  0.1461 -0.6728  0.1862
 3029SOL    HW120723   0.574   2.490   3.106 -1.2601  0.3067  0.2214
 3029SOL    HW220724   0.480   2.388   3.061  3.3666  0.4295 -1.9736
 3030SOL     OW20725   2.899   0.771  10.871  0.3119  0.1793 -0.4164
 3030SOL    HW120726   2.943   0.790  10.954  0.4179  0.1397 -0.4634
 3030SOL    HW220727   2.838   0.843  10.853  0.6195  0.5866  0.1522
 3031SOL     OW20728   1.114   0.601   4.757  0.2346 -0.0718 -1.0373
 3031SOL    HW120729   1.118   0.547   4.678  0.2940 -2.3634  0.5253
 3031SOL    HW220730   1.123   0.691   4.725 -1.3049 -0.7180 -3.2580
 3032SOL     OW20731   2.150   2.887   5.369  0.0066 -0.4225 -0.2423
 3032SOL    HW120732   2.236   2.845   5.370  0.7273  1.1045  0.9456
 3032SOL    HW220733   2.169   2.971   5.409 -2.9258  0.2382 -0.2178
 3033SOL     OW20734   2.583   4.282   5.299 -0.2483  0.3120  0.2994
 3033SOL    HW120735   2.639   4.289   5.223 -0.3122 -1.0622  0.1426
 3033SOL    HW220736   2.569   4.188   5.290  2.4635 -0.0080 -0.2490
 3034SOL     OW20737   0.225   3.157  15.134 -0.1423 -0.1216 -0.0799
 3034SOL    HW120738   0.163   3.092  15.165  0.1517 -0.3935 -0.0585
 3034SOL    HW220739   0.203   3.149  15.041 -0.8531 -2.4082  0.3087
 3035SOL     OW20740   3.625   4.305   5.304 -0.5304  0.0054  0.3739
 3035SOL    HW120741   3.606   4.240   5.372 -1.3460  0.8928  0.9919
 3035SOL    HW220742   3.700   4.274   5.253 -1.6806 -1.0131 -0.6837
 3036SOL     OW20743   4.128   3.940   2.662  0.0744 -0.0390  0.0914
 3036SOL    HW120744   4.049   3.993   2.653 -0.8325 -1.3528  0.2609
 3036SOL    HW220745   4.111   3.884   2.738  0.4145 -0.8654 -0.4410
 3037SOL     OW20746   3.335   0.183  16.863  0.2588 -0.3136 -0.5180
 3037SOL    HW120747   3.342   0.272  16.897 -3.0070  0.2179 -1.2355
 3037SOL    HW220748   3.360   0.132  16.940  0.4060  0.6121  0.0378
 3038SOL     OW20749   3.120   3.503  12.091 -0.0722 -0.8405  0.2715
 3038SOL    HW120750   3.064   3.558  12.036 -0.3179  0.7908  2.1815
 3038SOL    HW220751   3.191   3.566  12.100 -0.2483 -0.7004  0.6592
 3039SOL     OW20752   3.608   1.319   9.539  0.2959 -0.0817 -0.6652
 3039SOL    HW120753   3.516   1.318   9.566  1.0914  0.2782  2.0994
 3039SOL    HW220754   3.607   1.378   9.464 -0.4200 -1.6362 -1.8710
 3040SOL     OW20755   4.400   2.309   3.674 -0.4436 -0.3172  0.0264
 3040SOL    HW120756   4.455   2.335   3.748  0.2830 -1.0249 -0.2562
 3040SOL    HW220757   4.313   2.323   3.710  0.0575 -1.4078  1.6595
 3041SOL     OW20758   2.058   2.734  14.488 -0.1401 -0.4678 -0.4088
 3041SOL    HW120759   2.004   2.778  14.423  0.2309 -1.8985 -1.6910
 3041SOL    HW220760   2.025   2.768  14.571  1.0399  1.2511 -0.6371
 3042SOL     OW20761   0.851   0.098   0.897 -0.5643 -0.3293 -0.6465
 3042SOL    HW120762   0.941   0.095   0.931 -0.4561  2.6314 -0.6132
 3042SOL    HW220763   0.807   0.062   0.975 -3.8873  0.3478 -2.2108
 3043SOL     OW20764   0.056   1.306   3.701 -0.0434  0.1159 -0.3782
 3043SOL    HW120765   4.716   1.289   3.753  0.5499 -1.9414 -0.1567
 3043SOL    HW220766   0.025   1.378   3.647  0.9280 -1.1878 -2.6595
 3044SOL     OW20767   3.296   0.292   5.598  0.3134  0.3624  0.2089
 3044SOL    HW120768   3.217   0.278   5.651  0.4388 -0.6259  0.1332
 3044SOL    HW220769   3.284   0.383   5.570 -1.7970 -0.0095 -0.0937
 3045SOL     OW20770   0.236   0.929  17.035 -0.2521  0.5081  0.0156
 3045SOL    HW120771   0.188   1.011  17.021 -1.9451 -0.2064  1.5717
 3045SOL    HW220772   0.303   0.952  17.099 -0.2013  1.6233 -0.4347
 3046SOL     OW20773   1.027   0.182   5.025 -0.0713 -0.0829  0.0828
 3046SOL    HW120774   1.030   0.184   4.930 -0.9584  3.2099  0.1444
 3046SOL    HW220775   1.098   0.123   5.050  1.4532  0.1867 -3.7284
 3047SOL     OW20776   1.658   2.343  16.872 -0.0379  0.0019 -0.2884
 3047SOL    HW120777   1.671   2.432  16.837 -2.0899  0.6771  0.6669
 3047SOL    HW220778   1.562   2.346  16.871 -0.0677 -1.1710 -0.5430
 3048SOL     OW20779   4.116   3.572   4.082 -0.0721 -0.0454 -0.1237
 3048SOL    HW120780   4.127   3.663   4.108 -0.4208 -0.0410  0.0105
 3048SOL    HW220781   4.103   3.585   3.988  0.0251  1.4610  0.0818
 3049SOL     OW20782   4.314   2.156   4.099  0.1556 -0.3920 -0.0441
 3049SOL    HW120783   4.377   2.185   4.165  0.4792 -0.5656 -0.2769
 3049SOL    HW220784   4.374   2.110   4.040  1.5040  1.3479 -0.0260
 3050SOL     OW20785   1.187   0.433   4.211 -0.1773  0.0843  0.2110
 3050SOL    HW120786   1.164   0.415   4.119 -2.2078  2.7043  0.2329
 3050SOL    HW220787   1.239   0.512   4.200 -0.2114  0.1281  0.3783
 3051SOL     OW20788   2.129   3.968   8.691  0.1074  0.7702  0.0138
 3051SOL    HW120789   2.094   4.056   8.705 -1.1366  0.1695  0.6903
 3051SOL    HW220790   2.076   3.914   8.750  3.0744 -0.4614  1.5161
 3052SOL     OW20791   2.767   4.693  13.705 -0.0006 -0.7212 -0.2063
 3052SOL    HW120792   2.738   0.043  13.728 -1.0527 -1.0215 -0.3937
 3052SOL    HW220793   2.783   4.654  13.791 -1.1494 -0.0880  0.2944
 3053SOL     OW20794   0.704   2.443   1.564 -0.3975  0.1035  0.2920
 3053SOL    HW120795   0.794   2.439   1.598 -0.7802 -0.4200  1.2390
 3053SOL    HW220796   0.716   2.507   1.494  1.4480  0.9262  1.3415
 3054SOL     OW20797   3.198   1.008   7.046  0.0381  0.1242  0.5470
 3054SOL    HW120798   3.249   0.935   7.080  0.8018 -0.4632 -1.8535
 3054SOL    HW220799   3.245   1.037   6.968 -3.1186 -0.4222 -1.5682
 3055SOL     OW20800   1.949   2.200   6.774 -0.0095 -0.1603 -0.4841
 3055SOL    HW120801   1.916   2.285   6.746  1.3696  0.7637  0.6534
 3055SOL    HW220802   1.874   2.159   6.818 -0.1521  0.0912 -0.4967
 3056SOL     OW20803   4.226   4.419  17.521  0.6262 -0.3960  0.0887
 3056SOL    HW120804   4.136   4.426  17.553  0.6215  2.5648 -0.6147
 3056SOL    HW220805   4.225   4.330  17.486  2.6007 -0.4474  0.1526
 3057SOL     OW20806   3.768   1.664  11.847 -0.3215 -0.1528 -0.1496
 3057SOL    HW120807   3.742   1.584  11.894 -0.0237 -0.1906 -0.0495
 3057SOL    HW220808   3.786   1.621  11.764 -2.3089  1.8265 -1.6119
 3058SOL     OW20809   1.136   3.486  14.038  0.0832 -0.1011 -0.1964
 3058SOL    HW120810   1.107   3.397  14.061 -1.3055  0.1480 -0.9306
 3058SOL    HW220811   1.072   3.496  13.967  0.9339 -0.7369 -1.0570
 3059SOL     OW20812   0.337   4.531   8.136 -0.1169 -0.1812 -0.9568
 3059SOL    HW120813   0.377   4.555   8.220 -1.8126  1.3687 -0.5912
 3059SOL    HW220814   0.248   4.522   8.171 -0.9402  0.6265 -2.8611
 3060SOL     OW20815   1.263   2.853   7.389 -0.1840 -0.2506 -0.1161
 3060SOL    HW120816   1.349   2.887   7.365 -0.7630  0.8106 -0.6959
 3060SOL    HW220817   1.262   2.774   7.336 -0.8971 -1.1673  1.2478
 3061SOL     OW20818   4.170   4.639   4.692 -0.4230  0.2856  0.1352
 3061SOL    HW120819   4.208   4.626   4.605 -1.5930 -1.0621 -0.1659
 3061SOL    HW220820   4.198   4.725   4.724  1.1679 -0.6770  1.3072
 3062SOL     OW20821   0.414   3.707   2.566  0.3881 -0.0656 -0.2287
 3062SOL    HW120822   0.485   3.730   2.625  1.6399 -0.2362 -1.6705
 3062SOL    HW220823   0.400   3.615   2.589  0.6252  0.2099  1.0187
 3063SOL     OW20824   2.380   2.100   4.862 -0.0326 -0.2743 -0.3595
 3063SOL    HW120825   2.305   2.098   4.802 -1.6124 -0.1261  1.6019
 3063SOL    HW220826   2.432   2.029   4.825 -2.8002 -1.2040 -2.5217
 3064SOL     OW20827   4.390   2.953   2.869 -0.7704  0.1996 -0.5276
 3064SOL    HW120828   4.440   3.013   2.924 -1.8944  0.0260  0.6947
 3064SOL    HW220829   4.350   3.022   2.815  1.0633  2.5345  1.0806
 3065SOL     OW20830   0.654   4.023   9.722 -0.3073 -0.3652 -0.5256
 3065SOL    HW120831   0.663   4.116   9.740  1.9546 -0.5737 -0.6890
 3065SOL    HW220832   0.619   4.022   9.633  2.3914 -2.0858 -1.5687
 3066SOL     OW20833   2.470   2.137   0.633  0.2199 -0.0984  0.3376
 3066SOL    HW120834   2.556   2.180   0.638 -0.6526  1.8006 -1.0717
 3066SOL    HW220835   2.402   2.202   0.650 -1.6022 -2.2726  1.3641
 3067SOL     OW20836   2.366   1.014   2.339  0.4225 -0.6260 -0.2373
 3067SOL    HW120837   2.355   0.931   2.385 -0.0624 -2.5379 -3.8110
 3067SOL    HW220838   2.319   1.083   2.386  1.5169 -0.5453  0.7259
 3068SOL     OW20839   4.164   2.781  11.347 -0.1860 -0.0707  0.0563
 3068SOL    HW120840   4.239   2.725  11.326  1.0481  1.5280  0.1707
 3068SOL    HW220841   4.176   2.834  11.267 -0.4346 -1.1906 -0.7181
 3069SOL     OW20842   2.519   2.398  13.019 -0.2258 -0.3774 -0.0431
 3069SOL    HW120843   2.561   2.484  13.018 -0.1830 -0.3905  0.7516
 3069SOL    HW220844   2.595   2.340  13.010 -0.1392 -0.6890  2.8008
 3070SOL     OW20845   2.792   3.158   3.580  0.6409  0.0402  0.2050
 3070SOL    HW120846   2.856   3.119   3.520  1.3480  1.8236 -0.1894
 3070SOL    HW220847   2.860   3.206   3.626  1.3805  0.9997 -1.8713
 3071SOL     OW20848   3.118   2.017   7.670  0.0110 -0.5823  0.0284
 3071SOL    HW120849   3.057   1.982   7.606 -2.0359  1.0044  1.1326
 3071SOL    HW220850   3.187   2.030   7.605 -0.3924 -1.1647 -0.5063
 3072SOL     OW20851   2.763   0.784   3.130  0.2575 -0.6736 -0.0664
 3072SOL    HW120852   2.722   0.830   3.057  1.4000 -1.0943 -0.9693
 3072SOL    HW220853   2.849   0.757   3.096  1.0264  1.8113 -0.1009
 3073SOL     OW20854   2.712   2.638   2.963 -0.1171 -0.1670 -0.0367
 3073SOL    HW120855   2.659   2.711   2.997  0.5858  0.8594 -1.1133
 3073SOL    HW220856   2.715   2.664   2.871 -1.1817  2.2809  0.6101
 3074SOL     OW20857   0.353   4.077   6.924 -0.2590  0.3084 -0.1679
 3074SOL    HW120858   0.425   4.064   6.986 -0.3741  1.6189  0.2349
 3074SOL    HW220859   0.354   3.998   6.871 -0.3752  0.2023 -0.0125
 3075SOL     OW20860   2.352   3.078  10.568 -0.1748 -0.2375  0.6006
 3075SOL    HW120861   2.306   3.127  10.499 -1.6696 -1.0467  1.0251
 3075SOL    HW220862   2.444   3.090  10.543  0.8815 -3.8501  2.8003
 3076SOL     OW20863   0.893   1.992   1.729  0.1102 -0.3535  0.1637
 3076SOL    HW120864   0.877   1.915   1.784  1.3333 -0.0400  0.9561
 3076SOL    HW220865   0.815   1.986   1.674 -0.5010  2.3697  0.7299
 3077SOL     OW20866   3.784   4.561   7.701 -0.3711 -0.3606  0.4922
 3077SOL    HW120867   3.764   4.654   7.689 -0.7176 -0.4192  0.6125
 3077SOL    HW220868   3.866   4.559   7.651 -0.5633 -0.9080  0.1991
 3078SOL     OW20869   4.371   1.183  12.765 -0.7307 -0.0804 -0.2261
 3078SOL    HW120870   4.419   1.235  12.701 -0.8734  1.4017  0.8786
 3078SOL    HW220871   4.414   1.098  12.750  1.2356  1.2426 -1.9575
 3079SOL     OW20872   0.015   4.553   4.791 -0.1134 -0.4911 -0.2431
 3079SOL    HW120873   0.015   4.646   4.767  1.5080 -0.2621  0.6126
 3079SOL    HW220874   4.689   4.518   4.729  0.0823  1.1374 -1.3646
 3080SOL     OW20875   3.070   1.998  16.886 -0.1606  0.6624 -0.3754
 3080SOL    HW120876   3.119   1.934  16.835  1.3454  0.0633  1.8341
 3080SOL    HW220877   2.984   1.978  16.850  1.4136 -0.7738 -3.3214
 3081SOL     OW20878   0.108   3.827   3.408  0.5639 -0.0250  0.1159
 3081SOL    HW120879   0.187   3.792   3.450  0.4352 -0.8523 -0.3458
 3081SOL    HW220880   0.038   3.793   3.464  2.5436  2.3979  4.0787
 3082SOL     OW20881   1.397   3.028   5.852 -0.2524 -0.7215 -0.5423
 3082SOL    HW120882   1.445   2.946   5.843 -0.4244 -0.9837  0.9698
 3082SOL    HW220883   1.330   3.001   5.915 -0.6566  0.0199 -0.6426
 3083SOL     OW20884   2.410   3.433   1.047 -0.7075 -0.4464  0.5589
 3083SOL    HW120885   2.474   3.364   1.062 -0.6819 -0.6009 -0.2786
 3083SOL    HW220886   2.374   3.404   0.963  1.0344  1.0541 -0.7089
 3084SOL     OW20887   1.886   1.315   5.644 -0.0096  0.0674 -0.1734
 3084SOL    HW120888   1.932   1.241   5.604  0.1729  0.2600 -0.3178
 3084SOL    HW220889   1.938   1.393   5.625 -0.7341  0.5973  0.0112
 3085SOL     OW20890   0.726   4.594   3.082  0.0678  0.5412 -0.0473
 3085SOL    HW120891   0.793   4.613   3.015 -1.6940 -0.8984 -2.1969
 3085SOL    HW220892   0.756   4.507   3.107  2.6438  1.1918 -0.8155
 3086SOL     OW20893   3.853   2.253   2.962  0.3319  0.2158  0.3065
 3086SOL    HW120894   3.837   2.201   2.883 -0.4122  0.4151  0.3238
 3086SOL    HW220895   3.890   2.199   3.031  1.1581 -0.5152 -0.7015
 3087SOL     OW20896   2.565   0.510   6.415  0.6123  0.7036 -0.1764
 3087SOL    HW120897   2.521   0.593   6.397  0.1208  1.0207  2.5011
 3087SOL    HW220898   2.631   0.505   6.346  0.2807  3.6526 -0.7464
 3088SOL     OW20899   4.314   3.955   3.458  0.2972  0.2180  0.5676
 3088SOL    HW120900   4.226   3.993   3.453  0.7640  1.3016  0.7129
 3088SOL    HW220901   4.303   3.865   3.490  0.0536 -0.1163 -0.4414
 3089SOL     OW20902   2.426   0.688   5.490  0.5354 -0.5736 -0.8705
 3089SOL    HW120903   2.474   0.632   5.551 -1.5248 -0.4336  0.8804
 3089SOL    HW220904   2.415   0.767   5.542  0.7364 -2.4954  2.0539
 3090SOL     OW20905   3.211   0.145   8.438 -0.3875 -0.1729  0.0594
 3090SOL    HW120906   3.263   0.078   8.394  0.4666 -0.0226  0.8364
 3090SOL    HW220907   3.200   0.221   8.381 -1.6124 -0.3911 -0.0109
 3091SOL     OW20908   3.418   3.563  10.687  0.5079  0.4439 -0.3906
 3091SOL    HW120909   3.467   3.619  10.747  1.1907  2.1390 -2.5246
 3091SOL    HW220910   3.351   3.514  10.736  0.3483  2.7883  1.7514
 3092SOL     OW20911   2.063   0.129   2.769 -0.1817 -0.6683  0.1043
 3092SOL    HW120912   2.014   0.055   2.805 -0.7975 -1.1052 -1.6214
 3092SOL    HW220913   2.012   0.200   2.808  1.5208  1.1673 -1.0378
 3093SOL     OW20914   2.246   1.324  13.388  0.4576  0.8959 -0.7067
 3093SOL    HW120915   2.179   1.340  13.455 -1.2243 -0.7798 -2.0026
 3093SOL    HW220916   2.317   1.315  13.452 -1.3200  1.9541  1.4304
 3094SOL     OW20917   3.019   1.682   5.184 -0.5858  0.0411 -0.8268
 3094SOL    HW120918   3.112   1.660   5.189 -0.4717  1.0770  1.4461
 3094SOL    HW220919   2.984   1.593   5.182 -0.6241  0.0560 -0.8145
 3095SOL     OW20920   3.051   3.895   2.453 -0.1280  0.2467 -0.2450
 3095SOL    HW120921   3.133   3.936   2.480 -0.1773  1.8935 -2.6401
 3095SOL    HW220922   2.999   3.896   2.534 -0.6674 -2.1774 -0.5545
 3096SOL     OW20923   3.686   4.378  15.353  0.4386  0.2403 -0.2645
 3096SOL    HW120924   3.702   4.346  15.441 -0.7778 -0.4070 -0.2797
 3096SOL    HW220925   3.630   4.451  15.380 -2.1606 -1.1821 -1.7661
 3097SOL     OW20926   3.156   1.276   7.104  0.2742  0.2267 -0.0339
 3097SOL    HW120927   3.178   1.183   7.100 -0.0064  0.0274  2.8305
 3097SOL    HW220928   3.103   1.296   7.027  0.9509  0.6743 -0.3782
 3098SOL     OW20929   4.527   1.596   6.080  0.2252 -0.5441 -0.2226
 3098SOL    HW120930   4.489   1.509   6.088 -0.0833 -0.1867  2.1097
 3098SOL    HW220931   4.612   1.585   6.123 -0.7853 -0.4151  1.7688
 3099SOL     OW20932   4.367   2.505   6.607 -0.0923  0.0490 -0.4356
 3099SOL    HW120933   4.362   2.552   6.524 -0.8357  0.6799 -0.0387
 3099SOL    HW220934   4.379   2.415   6.577  1.8266  0.3176 -0.4313
 3100SOL     OW20935   2.311   3.523   6.021 -0.6133 -0.0102  0.1349
 3100SOL    HW120936   2.376   3.498   6.086 -1.0534  0.1064  0.6128
 3100SOL    HW220937   2.245   3.454   6.027 -1.3887  0.8082  1.0230
 3101SOL     OW20938   3.965   3.245   8.677  0.0475  0.0567 -0.3249
 3101SOL    HW120939   3.877   3.216   8.701 -0.0514 -0.2665 -1.0765
 3101SOL    HW220940   4.006   3.159   8.664  1.8672  0.8294  0.2476
 3102SOL     OW20941   0.080   2.076   9.438 -0.0689  0.1387  0.1409
 3102SOL    HW120942   0.135   2.127   9.497 -1.0130  0.1242  1.0307
 3102SOL    HW220943   0.117   1.991   9.462 -1.7178 -0.7951 -0.6007
 3103SOL     OW20944   2.459   4.483   5.116  0.5276  0.4706 -0.2044
 3103SOL    HW120945   2.461   4.561   5.172 -0.8480 -0.0265  0.5230
 3103SOL    HW220946   2.511   4.426   5.172  0.7284  0.3002 -0.5660
 3104SOL     OW20947   0.175   2.600   7.712 -0.0110  0.1743 -0.6286
 3104SOL    HW120948   0.186   2.643   7.628  1.8750  1.0479  0.0571
 3104SOL    HW220949   0.093   2.632   7.749  1.1966 -0.3868  2.5400
 3105SOL     OW20950   3.445   2.023   6.115  0.4862 -0.3294  0.2684
 3105SOL    HW120951   3.402   2.052   6.034  2.2646 -1.3723 -1.0540
 3105SOL    HW220952   3.496   2.102   6.134  2.6739 -1.7391  0.1658
 3106SOL     OW20953   1.742   4.472  12.099 -0.0374  0.4379 -0.7876
 3106SOL    HW120954   1.710   4.492  12.011  0.3125 -1.2256 -1.2997
 3106SOL    HW220955   1.757   4.379  12.081  0.6211  0.2344  0.7996
 3107SOL     OW20956   2.445   1.905  14.767 -0.3201  0.3832 -0.0815
 3107SOL    HW120957   2.506   1.908  14.693  2.5422 -0.2138  2.2271
 3107SOL    HW220958   2.371   1.957  14.736 -0.3691 -0.0609 -0.7144
 3108SOL     OW20959   1.990   0.220  17.271 -0.1334 -0.1253 -0.2441
 3108SOL    HW120960   1.931   0.145  17.267  2.1225 -2.0624  2.5087
 3108SOL    HW220961   1.947   0.301  17.244 -1.3908 -0.8745 -0.4944
 3109SOL     OW20962   4.538   1.300   3.810 -1.0645 -0.1208 -0.3159
 3109SOL    HW120963   4.446   1.317   3.831 -0.7714  0.8863  0.1699
 3109SOL    HW220964   4.545   1.220   3.861 -0.1556  0.0361 -0.1882
 3110SOL     OW20965   2.212   2.071   7.425  0.3200  0.8325 -0.2936
 3110SOL    HW120966   2.273   2.138   7.394  0.9605  0.1540 -0.4942
 3110SOL    HW220967   2.132   2.124   7.428 -0.7164 -0.6482 -1.6816
 3111SOL     OW20968   0.376   0.858  16.801  0.2793 -0.4140 -0.1050
 3111SOL    HW120969   0.301   0.811  16.765 -0.1744  0.4908 -0.3415
 3111SOL    HW220970   0.344   0.889  16.886 -2.5880 -0.2000 -1.2705
 3112SOL     OW20971   1.157   3.684  11.227  0.7210  0.4470  0.7130
 3112SOL    HW120972   1.252   3.678  11.214  0.9891 -0.0367  2.7918
 3112SOL    HW220973   1.134   3.623  11.296  0.2764  0.1018  0.2487
 3113SOL     OW20974   0.457   3.106   3.333  0.4928  0.0686  0.0083
 3113SOL    HW120975   0.456   3.141   3.421 -0.7034 -1.6664  0.6922
 3113SOL    HW220976   0.503   3.024   3.352  0.4539  0.1380  0.3924
 3114SOL     OW20977   3.490   1.873  17.242 -0.4039 -0.3447 -0.1183
 3114SOL    HW120978   3.532   1.944  17.192 -1.0209 -0.5283 -0.9058
 3114SOL    HW220979   3.403   1.881  17.201 -1.2416  4.1385  2.5488
 3115SOL     OW20980   1.723   4.665  14.863  0.0281  0.3602 -0.0943
 3115SOL    HW120981   1.762   0.006  14.824  0.3693 -1.5025 -3.5869
 3115SOL    HW220982   1.706   4.606  14.789  1.7731 -2.1864  1.5463
 3116SOL     OW20983   2.580   2.454   8.988  0.4064  0.7756 -0.2136
 3116SOL    HW120984   2.537   2.401   9.055 -0.8102 -0.3822 -1.9307
 3116SOL    HW220985   2.670   2.457   9.023  1.1135 -0.5732 -1.9299
 3117SOL     OW20986   2.630   4.126  15.989  0.0502  0.3138 -0.1519
 3117SOL    HW120987   2.589   4.189  15.928  0.1105  0.7949  0.3022
 3117SOL    HW220988   2.590   4.053  15.942 -1.3760  0.0337  1.5194
 3118SOL     OW20989   0.716   2.300   6.560 -0.5477 -0.3357 -0.0705
 3118SOL    HW120990   0.706   2.232   6.627 -1.7188  1.3777  1.4773
 3118SOL    HW220991   0.700   2.250   6.480 -0.7362 -0.3550 -0.0213
 3119SOL     OW20992   1.348   3.084   0.548  0.0263 -0.5730  0.7600
 3119SOL    HW120993   1.388   3.088   0.634  0.1780  0.2839  0.6453
 3119SOL    HW220994   1.261   3.049   0.569 -0.4484 -0.0600 -0.3371
 3120SOL     OW20995   4.294   0.892   7.174 -0.0662  0.2689  0.1203
 3120SOL    HW120996   4.221   0.846   7.132 -1.5692  1.1615  1.7527
 3120SOL    HW220997   4.302   0.965   7.113 -1.9266  0.3259 -0.0525
 3121SOL     OW20998   2.718   1.945   8.901  0.9302  0.1718 -0.0330
 3121SOL    HW120999   2.681   2.000   8.832  0.7679 -0.5186 -0.5010
 3121SOL    HW221000   2.650   1.877   8.905  1.1873 -0.1719 -1.4106
 3122SOL     OW21001   2.870   3.199   1.870 -0.0808 -0.1445 -0.1966
 3122SOL    HW121002   2.840   3.136   1.936  1.0710  0.9692  1.4016
 3122SOL    HW221003   2.965   3.191   1.875 -0.0617 -0.6017 -1.5031
 3123SOL     OW21004   3.623   2.712   3.827 -0.1595 -0.1553  0.4354
 3123SOL    HW121005   3.639   2.620   3.806  2.0369  0.1749  0.6694
 3123SOL    HW221006   3.557   2.704   3.896 -0.1108  1.1335  0.6276
 3124SOL     OW21007   1.440   2.553  16.339  0.8540 -0.0241 -0.0318
 3124SOL    HW121008   1.442   2.626  16.402  0.2446  1.2140 -1.4476
 3124SOL    HW221009   1.534   2.545  16.324  1.1205  1.2307  0.9097
 3125SOL     OW21010   4.226   1.313   4.886 -0.7115 -0.5814 -0.3398
 3125SOL    HW121011   4.149   1.262   4.861 -0.3181 -0.2230 -2.2575
 3125SOL    HW221012   4.291   1.259   4.841 -0.8933 -1.1439  0.0705
 3126SOL     OW21013   2.326   3.990   2.697 -0.1645 -0.7067 -0.4720
 3126SOL    HW121014   2.367   4.070   2.731  0.4676 -1.1688 -0.1352
 3126SOL    HW221015   2.352   3.924   2.761  2.6157  2.4301  1.6372
 3127SOL     OW21016   2.579   3.887  17.381  0.4472 -0.2648 -0.2213
 3127SOL    HW121017   2.596   3.796  17.404  1.6794  0.3777  1.4237
 3127SOL    HW221018   2.640   3.899  17.308 -1.6032 -1.1794 -2.0921
 3128SOL     OW21019   1.633   0.611   3.125  0.8082  0.0890  0.2417
 3128SOL    HW121020   1.615   0.691   3.175 -0.5569 -0.3220  0.4087
 3128SOL    HW221021   1.593   0.633   3.041 -1.9225 -1.5515  1.1325
 3129SOL     OW21022   0.720   3.363   7.806 -0.6776  0.6780 -0.5432
 3129SOL    HW121023   0.791   3.302   7.827 -0.2079  1.9397  1.5254
 3129SOL    HW221024   0.705   3.393   7.896 -3.3109  0.6215 -0.9593
 3130SOL     OW21025   4.055   1.164  13.604  0.2012  0.7613 -0.0816
 3130SOL    HW121026   4.143   1.167  13.567  1.0707 -2.0044  1.7387
 3130SOL    HW221027   4.040   1.256  13.625 -2.6184  0.4706 -0.8091
 3131SOL     OW21028   0.484   0.525   6.213  0.4586 -0.5311 -0.2230
 3131SOL    HW121029   0.437   0.602   6.182 -0.4640 -0.0402  2.3567
 3131SOL    HW221030   0.574   0.551   6.232  1.1606 -0.7893 -3.2406
 3132SOL     OW21031   0.189   0.540   6.268 -0.4743  0.6011 -1.2474
 3132SOL    HW121032   0.255   0.522   6.201 -0.4157 -1.6281 -0.6220
 3132SOL    HW221033   0.170   0.628   6.237  1.7401  0.7456 -2.2408
 3133SOL     OW21034   0.159   1.013  14.202  0.1450  0.3113 -0.1309
 3133SOL    HW121035   0.105   1.084  14.168 -1.6462 -1.4486 -1.0135
 3133SOL    HW221036   0.217   1.064  14.259  0.5552 -1.2372  0.8378
 3134SOL     OW21037   0.326   2.004  17.374  0.7151 -0.3613 -0.1599
 3134SOL    HW121038   0.275   2.049  17.441  2.2076 -1.6512  1.8494
 3134SOL    HW221039   0.261   1.977  17.309 -1.7265  1.4230  1.5385
 3135SOL     OW21040   3.589   0.770   4.486 -0.7580  0.1335 -0.4751
 3135SOL    HW121041   3.606   0.839   4.550 -3.0371  0.0071  0.2734
 3135SOL    HW221042   3.604   0.818   4.405 -0.1285  0.0050 -0.4396
 3136SOL     OW21043   3.579   3.220   7.764  0.0830 -0.3770  0.0753
 3136SOL    HW121044   3.596   3.134   7.725  1.6248  0.2033 -0.5225
 3136SOL    HW221045   3.625   3.197   7.845 -1.6946  1.9506  1.7522
 3137SOL     OW21046   2.802   1.604  15.035 -0.0115 -0.4735  0.2931
 3137SOL    HW121047   2.886   1.645  15.015 -0.6277 -0.9298 -3.1805
 3137SOL    HW221048   2.831   1.513  15.048  0.1665 -0.4443  0.1020
 3138SOL     OW21049   0.052   2.120   7.253  0.0756  0.2243  0.1381
 3138SOL    HW121050   0.073   2.193   7.195 -1.4225  0.0543 -0.6309
 3138SOL    HW221051   4.696   2.132   7.261 -0.1967 -0.5713 -1.8191
 3139SOL     OW21052   1.355   1.182   3.831 -0.6028  0.0888 -0.9615
 3139SOL    HW121053   1.277   1.127   3.838  0.4659 -1.1057  1.6772
 3139SOL    HW221054   1.373   1.217   3.918  0.5654 -0.3859 -1.0047
 3140SOL     OW21055   3.967   4.304   7.826  0.2573 -0.7196 -0.4067
 3140SOL    HW121056   3.874   4.303   7.805 -0.0661  0.5092  0.9373
 3140SOL    HW221057   3.994   4.212   7.831  0.8726 -0.4308  1.5384
 3141SOL     OW21058   1.139   4.071  16.662 -0.0572  0.6162 -0.9253
 3141SOL    HW121059   1.198   4.144  16.682 -0.4620  0.3966  1.0100
 3141SOL    HW221060   1.195   3.993  16.659 -0.0288  0.6050  0.1324
 3142SOL     OW21061   4.660   4.191  13.383  0.0474 -0.6188  0.2486
 3142SOL    HW121062   4.694   4.247  13.453 -1.8808  0.2294  0.4941
 3142SOL    HW221063   4.713   4.112  13.389  0.7900 -0.1505  0.0307
 3143SOL     OW21064   3.517   3.781   6.084 -0.2112 -0.2002 -0.3297
 3143SOL    HW121065   3.491   3.784   6.176  0.5079 -1.2681 -0.0852
 3143SOL    HW221066   3.596   3.728   6.099  1.0340  1.1326 -2.1764
 3144SOL     OW21067   3.612   3.805   8.863 -0.0116  0.0682 -0.7652
 3144SOL    HW121068   3.614   3.872   8.932  0.3654 -1.4931  0.7394
 3144SOL    HW221069   3.652   3.860   8.796 -1.1145  0.7373 -0.8834
 3145SOL     OW21070   4.396   3.317   0.139 -0.1425  0.0533  0.7592
 3145SOL    HW121071   4.440   3.307   0.055 -1.9850  0.6181 -0.2708
 3145SOL    HW221072   4.346   3.398   0.129  0.4669  0.3607  0.2326
 3146SOL     OW21073   0.211   3.764  16.608  0.1394 -0.0493  0.1589
 3146SOL    HW121074   0.134   3.798  16.563 -0.4909  2.6621  3.2071
 3146SOL    HW221075   0.186   3.750  16.700 -0.5876  0.0670 -0.0182
 3147SOL     OW21076   0.670   1.441   1.104 -0.9885  0.2879 -0.4391
 3147SOL    HW121077   0.696   1.354   1.133 -0.2173  0.5197 -0.4299
 3147SOL    HW221078   0.749   1.495   1.113 -1.6109  1.2085 -0.5232
 3148SOL     OW21079   0.070   0.566   5.817 -0.0070  0.0329 -0.2319
 3148SOL    HW121080   4.718   0.598   5.805 -0.0725  0.7087  2.0431
 3148SOL    HW221081   0.116   0.650   5.823 -1.6307  0.8942  0.4090
 3149SOL     OW21082   3.426   1.352  13.204 -0.2836  0.1015 -0.2434
 3149SOL    HW121083   3.491   1.419  13.182 -1.3214  0.4585 -2.1570
 3149SOL    HW221084   3.343   1.394  13.182 -0.8109 -0.2297  1.0478
 3150SOL     OW21085   3.814   3.393  15.736  0.2975 -0.0246  0.0712
 3150SOL    HW121086   3.817   3.382  15.831  3.2289  2.5005  0.2479
 3150SOL    HW221087   3.901   3.361  15.712 -0.5714 -1.6037 -0.9920
 3151SOL     OW21088   4.480   2.065   5.798  0.1322 -0.9489 -0.2293
 3151SOL    HW121089   4.566   2.078   5.758 -0.4334  0.2002 -1.0562
 3151SOL    HW221090   4.449   1.986   5.754 -0.6192 -0.4922 -0.5129
 3152SOL     OW21091   2.943   3.888   3.879 -0.0537  0.1692 -0.0700
 3152SOL    HW121092   3.010   3.889   3.948 -0.7572 -3.3827  0.6590
 3152SOL    HW221093   2.875   3.847   3.932 -0.2575 -0.6119 -0.9315
 3153SOL     OW21094   4.662   1.023  11.538  0.5190  0.4378  0.2310
 3153SOL    HW121095   4.568   1.040  11.532  0.4108  0.5471  2.1852
 3153SOL    HW221096   4.660   0.954  11.605 -0.2788  1.0994  0.8869
 3154SOL     OW21097   1.925   3.795   2.488 -0.4942  0.1615 -0.2353
 3154SOL    HW121098   1.932   3.864   2.555  0.9330 -0.6708  0.4696
 3154SOL    HW221099   1.834   3.811   2.463 -1.2145 -2.1892  0.9208
 3155SOL     OW21100   0.359   1.740  10.666  0.1357  0.7777 -0.0806
 3155SOL    HW121101   0.310   1.821  10.675 -0.0634  0.6868 -0.3458
 3155SOL    HW221102   0.364   1.751  10.571  0.1112 -0.8121 -0.2759
 3156SOL     OW21103   2.438   1.969   9.790  0.0980  0.2313  0.0203
 3156SOL    HW121104   2.417   1.933   9.703  0.5863 -1.8332  0.7553
 3156SOL    HW221105   2.393   1.913   9.853 -0.1262  0.6866  0.2615
 3157SOL     OW21106   1.271   2.265   0.925 -0.4181 -0.3388  0.0487
 3157SOL    HW121107   1.322   2.206   0.981 -2.5024 -0.5690  1.7161
 3157SOL    HW221108   1.347   2.281   0.870 -1.3248  0.1346 -1.0606
 3158SOL     OW21109   2.640   2.164  10.389 -0.1134  0.1070 -0.2504
 3158SOL    HW121110   2.611   2.126  10.472  1.3539  0.1620  0.2783
 3158SOL    HW221111   2.573   2.231  10.392 -0.0086  0.2941 -2.5444
 3159SOL     OW21112   3.260   2.543   8.287 -0.1291 -0.2732  0.4711
 3159SOL    HW121113   3.241   2.529   8.194 -3.3537  0.2607  1.0462
 3159SOL    HW221114   3.334   2.485   8.305 -0.4933 -0.2340  2.1128
 3160SOL     OW21115   0.118   0.142   8.926  0.3945 -0.0129 -0.1940
 3160SOL    HW121116   0.067   0.203   8.872 -0.2074 -1.1589 -0.9086
 3160SOL    HW221117   0.200   0.191   8.938 -0.1168  0.9733 -0.6989
 3161SOL     OW21118   3.390   0.179  16.593 -0.0997  0.6752 -0.0892
 3161SOL    HW121119   3.363   0.183  16.684 -0.3252 -1.0537 -0.0889
 3161SOL    HW221120   3.307   0.214  16.560  1.0093  2.5798 -0.9065
 3162SOL     OW21121   0.461   3.877   2.948 -0.3388  0.0068 -0.1033
 3162SOL    HW121122   0.394   3.929   2.904 -1.7475 -1.1131  0.7028
 3162SOL    HW221123   0.480   3.817   2.875 -0.9196  0.8131 -0.9212
 3163SOL     OW21124   0.482   4.416  16.109 -0.6444  0.0967  0.2896
 3163SOL    HW121125   0.542   4.365  16.163  0.2984 -0.1756 -1.0027
 3163SOL    HW221126   0.406   4.428  16.166 -0.4754 -2.8541  1.1451
 3164SOL     OW21127   0.644   3.325   9.285 -0.1330  0.2757  0.1499
 3164SOL    HW121128   0.566   3.269   9.283  1.2545 -1.6547  0.3982
 3164SOL    HW221129   0.675   3.319   9.376  1.9578 -0.5118 -0.6208
 3165SOL     OW21130   1.503   3.232   6.158  0.3040  0.4511  0.4678
 3165SOL    HW121131   1.491   3.300   6.225 -1.6884 -0.6457  1.2223
 3165SOL    HW221132   1.417   3.226   6.117  0.9080 -1.2470 -0.5444
 3166SOL     OW21133   0.662   4.141  17.616  0.2519 -0.2758 -0.2531
 3166SOL    HW121134   0.664   4.178  17.527 -0.8198  0.9186  0.2121
 3166SOL    HW221135   0.716   4.062  17.613  2.6024  1.3233  0.5841
 3167SOL     OW21136   4.410   1.296   9.089 -0.0189  0.1529  0.0757
 3167SOL    HW121137   4.341   1.231   9.103  0.3412 -0.1240  0.5663
 3167SOL    HW221138   4.369   1.361   9.032  1.3140  1.2507  0.3862
 3168SOL     OW21139   2.437   2.049   2.454  0.3190  0.0438  0.2278
 3168SOL    HW121140   2.387   2.046   2.373  1.3187 -0.4940 -0.3693
 3168SOL    HW221141   2.397   1.981   2.507  1.9280 -1.5019 -0.5481
 3169SOL     OW21142   3.245   0.160   0.879 -0.2915 -0.3538  0.3225
 3169SOL    HW121143   3.215   0.101   0.810 -3.1998 -0.1173  1.4051
 3169SOL    HW221144   3.286   0.104   0.945  1.0051 -0.9381 -0.9732
 3170SOL     OW21145   1.506   4.484   7.024  0.6645 -0.0007  0.1370
 3170SOL    HW121146   1.427   4.508   6.975 -0.9810 -0.1154  2.7233
 3170SOL    HW221147   1.461   4.446   7.100  0.3341 -2.4395 -1.2590
 3171SOL     OW21148   4.695   1.426   4.301 -0.1288  0.3724  0.2433
 3171SOL    HW121149   4.638   1.480   4.247 -0.1559 -1.7038 -1.7787
 3171SOL    HW221150   4.678   1.469   4.386 -1.7433  0.3907 -0.0973
 3172SOL     OW21151   4.192   2.999   7.052 -0.4222  0.0740 -0.1323
 3172SOL    HW121152   4.235   3.072   7.007 -0.0447 -0.4019 -0.5332
 3172SOL    HW221153   4.269   2.954   7.086  0.7273  0.4925 -2.2083
 3173SOL     OW21154   3.336   4.442   1.994 -0.1942 -0.2595 -0.4327
 3173SOL    HW121155   3.415   4.473   2.040  1.0063  0.0442 -2.7076
 3173SOL    HW221156   3.290   4.526   1.985 -0.8982 -0.6549 -0.4595
 3174SOL     OW21157   2.985   0.433  10.378  0.7829 -0.3607  0.2760
 3174SOL    HW121158   2.925   0.506  10.391  2.0174  0.7428 -0.2953
 3174SOL    HW221159   2.956   0.409  10.290 -2.4935 -1.2938  1.6262
 3175SOL     OW21160   3.205   0.973   6.599  0.5093 -0.2556  0.6883
 3175SOL    HW121161   3.153   0.914   6.654  1.1744 -1.4126  0.0644
 3175SOL    HW221162   3.237   1.036   6.664 -3.2796  2.9069 -0.4738
 3176SOL     OW21163   1.182   3.207  13.311 -0.4462 -0.6105  0.5869
 3176SOL    HW121164   1.178   3.244  13.222  1.7920 -1.4452  0.1367
 3176SOL    HW221165   1.266   3.163  13.302 -0.4285 -0.7171  1.3304
 3177SOL     OW21166   2.347   0.504   5.939  0.3727  0.4268 -0.1440
 3177SOL    HW121167   2.316   0.478   6.026  1.2888  3.4114  1.0491
 3177SOL    HW221168   2.274   0.462   5.893  0.1682  0.0655  0.5166
 3178SOL     OW21169   3.748   4.521   9.337 -0.0101 -0.0219 -0.4278
 3178SOL    HW121170   3.736   4.585   9.267  0.8846  0.4568 -0.1517
 3178SOL    HW221171   3.746   4.570   9.419  0.4359  1.2824 -1.2024
 3179SOL     OW21172   2.796   4.184   7.440  0.4816  0.2675 -0.8455
 3179SOL    HW121173   2.750   4.100   7.434  0.3153  0.1568  2.1908
 3179SOL    HW221174   2.811   4.208   7.348  0.7156  1.5032 -0.4845
 3180SOL     OW21175   0.315   4.057   5.684 -0.2571 -0.4376  0.1850
 3180SOL    HW121176   0.322   4.083   5.592  1.0061 -0.3996  0.2969
 3180SOL    HW221177   0.293   4.144   5.715  2.4603  0.8637 -1.6157
 3181SOL     OW21178   4.347   2.460  16.420  0.5311 -0.3120 -0.2469
 3181SOL    HW121179   4.428   2.510  16.410  0.2979 -0.8337 -4.7470
 3181SOL    HW221180   4.364   2.435  16.511  2.6224 -2.0693 -1.1115
 3182SOL     OW21181   4.152   2.578   7.537  0.5428  0.3343 -0.2381
 3182SOL    HW121182   4.127   2.580   7.445  0.5627  0.7758 -0.2362
 3182SOL    HW221183   4.155   2.483   7.547 -0.1370 -0.0131 -3.5223
 3183SOL     OW21184   2.301   1.047   4.186 -0.4010  0.0828 -0.0160
 3183SOL    HW121185   2.219   1.096   4.177  0.0964  1.2305  1.9027
 3183SOL    HW221186   2.367   1.107   4.151  0.8502 -1.7925 -0.8998
 3184SOL     OW21187   2.399   0.299   5.522 -0.0024  0.1228  0.1821
 3184SOL    HW121188   2.417   0.374   5.579  2.6547 -0.3456  0.0001
 3184SOL    HW221189   2.304   0.301   5.531  0.1914 -1.1850  2.3220
 3185SOL     OW21190   4.017   2.183  14.202  0.0758  0.6014  0.0456
 3185SOL    HW121191   4.022   2.278  14.188 -0.1468  0.5927 -0.0967
 3185SOL    HW221192   4.010   2.160  14.109  2.9735 -0.1671  0.0186
 3186SOL     OW21193   3.168   1.862   2.754 -0.1335 -0.5932 -0.0109
 3186SOL    HW121194   3.220   1.855   2.834  1.9995 -1.1745 -1.4697
 3186SOL    HW221195   3.224   1.915   2.699 -0.1678  1.4759  1.9466
 3187SOL     OW21196   0.441   0.994  10.669  0.2350  0.3343 -0.0449
 3187SOL    HW121197   0.497   1.059  10.711 -2.7682  1.7627  1.7070
 3187SOL    HW221198   0.457   1.019  10.578  0.2695 -1.0637 -0.4305
 3188SOL     OW21199   4.164   4.327   1.871 -0.3318 -0.2935 -0.4081
 3188SOL    HW121200   4.150   4.381   1.794 -2.4394 -3.0362 -1.9329
 3188SOL    HW221201   4.213   4.385   1.929  0.7461 -0.6822 -0.9230
 3189SOL     OW21202   3.398   3.846   3.815 -0.0716  0.3243 -0.3130
 3189SOL    HW121203   3.384   3.844   3.720 -0.5755  2.8791 -0.2782
 3189SOL    HW221204   3.332   3.910   3.841  0.8006  1.4947 -0.9849
 3190SOL     OW21205   2.918   3.285   3.201  0.0405 -0.0662 -0.2309
 3190SOL    HW121206   2.830   3.246   3.204  0.1691 -0.4294 -1.2412
 3190SOL    HW221207   2.961   3.216   3.252 -0.6720 -0.5420 -0.2651
 3191SOL     OW21208   3.023   2.390  14.332  0.4052 -0.1570 -0.8473
 3191SOL    HW121209   3.107   2.406  14.375  1.5533  1.8791 -3.8805
 3191SOL    HW221210   2.990   2.321  14.390  0.2533 -0.2032 -0.9905
 3192SOL     OW21211   3.444   0.907  17.329 -0.2288  0.8566 -0.1210
 3192SOL    HW121212   3.373   0.942  17.274  0.2132 -1.1304 -1.9327
 3192SOL    HW221213   3.425   0.814  17.341  1.2844  0.6526  0.7099
 3193SOL     OW21214   0.451   3.076   7.609 -0.5180 -0.7023  0.5259
 3193SOL    HW121215   0.451   3.167   7.638 -0.5308 -0.6587  0.3901
 3193SOL    HW221216   0.365   3.055   7.646 -1.6031 -0.4888 -1.8230
 3194SOL     OW21217   0.968   1.112   7.249 -0.1522  0.0802 -0.3104
 3194SOL    HW121218   0.912   1.046   7.209 -0.0687  0.0039 -0.3030
 3194SOL    HW221219   1.040   1.123   7.187 -0.5578  0.5003 -0.7114
 3195SOL     OW21220   1.190   3.417   2.364  0.0344  0.5354 -0.6148
 3195SOL    HW121221   1.170   3.348   2.428  0.4224 -1.6307 -2.8184
 3195SOL    HW221222   1.186   3.495   2.419  2.0778  1.2624 -1.5094
 3196SOL     OW21223   2.266   1.433   9.750 -0.1339 -0.3911  0.1592
 3196SOL    HW121224   2.242   1.468   9.664  1.2179  0.2759  0.0612
 3196SOL    HW221225   2.357   1.406   9.736  0.4689  1.6132  0.2338
 3197SOL     OW21226   3.399   3.048   3.552 -0.2389 -0.5794 -0.8694
 3197SOL    HW121227   3.360   3.015   3.471 -0.9287 -2.0065  0.0414
 3197SOL    HW221228   3.466   2.983   3.571  0.7905  0.6352 -0.3312
 3198SOL     OW21229   0.313   2.190  12.794 -0.2065 -0.1721  0.2172
 3198SOL    HW121230   0.251   2.170  12.864 -0.2548  0.9424  0.4927
 3198SOL    HW221231   0.326   2.100  12.763 -0.0371 -0.0629 -0.0277
 3199SOL     OW21232   0.893   0.873  14.199 -0.1425 -0.2402  0.0494
 3199SOL    HW121233   0.887   0.947  14.260 -1.1466  0.8817 -1.3885
 3199SOL    HW221234   0.812   0.878  14.147 -0.1200  1.2986  0.1738
 3200SOL     OW21235   0.716   4.210   0.441  0.9842  0.1822 -0.2547
 3200SOL    HW121236   0.769   4.245   0.370  0.2836  0.1276 -0.8115
 3200SOL    HW221237   0.781   4.173   0.500 -0.9295 -0.8465  1.2325
 3201SOL     OW21238   4.212   3.575   6.112 -0.1921  0.0143 -0.0350
 3201SOL    HW121239   4.260   3.493   6.105 -0.7312 -0.1375 -1.8996
 3201SOL    HW221240   4.256   3.615   6.187  0.0443  0.5406 -0.4511
 3202SOL     OW21241   0.536   1.935  17.698 -0.4226 -0.0003  0.0998
 3202SOL    HW121242   0.499   2.016  17.734  0.1228  1.0465 -1.6678
 3202SOL    HW221243   0.530   1.945  17.603 -2.4270 -0.7045  0.1626
 3203SOL     OW21244   1.279   2.275   9.487  0.4335  0.3296  0.0401
 3203SOL    HW121245   1.285   2.289   9.581 -2.3244  0.7340  0.1559
 3203SOL    HW221246   1.329   2.193   9.489 -0.1025 -0.0677 -2.4417
 3204SOL     OW21247   2.391   2.989   6.476 -0.0726 -0.0869 -0.6183
 3204SOL    HW121248   2.321   2.929   6.500 -0.6385  0.9546  0.3561
 3204SOL    HW221249   2.362   3.071   6.517 -1.5737 -0.0672 -1.6995
 3205SOL     OW21250   2.080   1.798   2.942  0.4356 -0.3736 -0.4259
 3205SOL    HW121251   2.172   1.812   2.918  0.8201 -1.7009  0.2589
 3205SOL    HW221252   2.080   1.802   3.037 -1.3448 -1.1710 -0.3966
 3206SOL     OW21253   3.454   4.716  15.133  0.5016 -0.7563  0.1532
 3206SOL    HW121254   3.433   4.627  15.106 -0.6135 -0.4995  0.1839
 3206SOL    HW221255   3.432   0.026  15.053 -1.2644 -1.2768  0.3243
 3207SOL     OW21256   1.924   3.216   5.665 -0.2290 -0.2891 -0.2928
 3207SOL    HW121257   1.936   3.309   5.686  0.2010 -0.3160 -0.4257
 3207SOL    HW221258   1.860   3.188   5.730  0.5456  2.4414  1.6605
 3208SOL     OW21259   3.449   2.965   4.520 -0.8018  0.1803 -0.1599
 3208SOL    HW121260   3.491   3.050   4.529  0.8514 -0.5918 -0.6019
 3208SOL    HW221261   3.455   2.926   4.607  0.5650  1.1077  0.1589
 3209SOL     OW21262   1.387   1.879   6.207 -0.0291 -0.3580  0.0790
 3209SOL    HW121263   1.463   1.865   6.150  0.7474 -1.2497  1.3469
 3209SOL    HW221264   1.365   1.970   6.189 -0.0993 -0.4434 -0.2703
 3210SOL     OW21265   2.816   2.164   9.041 -0.0698  0.0126 -0.0147
 3210SOL    HW121266   2.874   2.164   8.965 -0.6798 -2.0421 -0.4779
 3210SOL    HW221267   2.766   2.085   9.024 -0.7580  1.0009 -2.5591
 3211SOL     OW21268   0.138   2.284   1.330  0.2687  0.6886  0.3870
 3211SOL    HW121269   0.210   2.339   1.301  1.6547 -0.6279  1.3387
 3211SOL    HW221270   0.170   2.256   1.416  1.1006  1.6625  0.3877
 3212SOL     OW21271   2.943   3.308   8.426  0.5338  0.0411 -0.2659
 3212SOL    HW121272   2.964   3.347   8.341  0.6308  0.6847  0.0469
 3212SOL    HW221273   2.865   3.259   8.401  0.3247  0.6947 -0.9133
 3213SOL     OW21274   4.677   4.159   8.319  0.0452  0.0704 -0.2925
 3213SOL    HW121275   4.628   4.181   8.399 -1.9956 -1.3129 -1.1561
 3213SOL    HW221276   4.613   4.095   8.286  1.2370  0.2589 -2.9499
 3214SOL     OW21277   2.038   3.459   0.101 -0.2735  0.3911 -0.0360
 3214SOL    HW121278   2.106   3.489   0.041  0.4469  1.0873  1.1216
 3214SOL    HW221279   2.094   3.412   0.163  0.8856  2.1252  0.2443
 3215SOL     OW21280   3.313   1.523   3.772 -0.0557 -0.2039 -0.8423
 3215SOL    HW121281   3.343   1.500   3.684  0.0851 -0.5744 -0.6981
 3215SOL    HW221282   3.362   1.461   3.826  0.4175  1.0834  0.2013
 3216SOL     OW21283   2.928   4.614   2.279 -0.0341 -0.2604  0.0417
 3216SOL    HW121284   2.832   4.616   2.272 -0.1155 -0.7885  1.0493
 3216SOL    HW221285   2.933   4.586   2.370 -0.2306  0.3903  0.2602
 3217SOL     OW21286   1.660   3.310   8.594 -0.3769  0.2427  0.6660
 3217SOL    HW121287   1.671   3.318   8.688 -0.0112 -1.4465  0.7692
 3217SOL    HW221288   1.694   3.222   8.574  0.3065  0.7667 -0.5329
 3218SOL     OW21289   2.047   2.584   6.482 -0.0511 -0.6350  0.4993
 3218SOL    HW121290   2.105   2.522   6.438 -0.0740 -0.1211 -0.2625
 3218SOL    HW221291   1.974   2.585   6.421  0.7012 -0.0089 -0.3967
 3219SOL     OW21292   0.093   0.603  16.829 -0.4438  0.4855 -0.0237
 3219SOL    HW121293   0.140   0.546  16.769 -4.8100 -2.1401 -0.9766
 3219SOL    HW221294   0.093   0.690  16.788 -0.4559  1.0371  1.1366
 3220SOL     OW21295   2.009   1.905  11.630  0.4760 -0.1301 -0.0585
 3220SOL    HW121296   2.035   1.997  11.627  0.8569 -0.1592  2.1264
 3220SOL    HW221297   2.034   1.875  11.718  0.1679  1.7532  0.6577
 3221SOL     OW21298   3.291   3.213   2.221 -0.0601  0.0762  0.2734
 3221SOL    HW121299   3.369   3.226   2.166  1.0321  1.0986  2.0447
 3221SOL    HW221300   3.303   3.133   2.272  0.2818  0.4646  0.8076
 3222SOL     OW21301   3.925   2.236   8.675  0.9229 -0.2920  0.2697
 3222SOL    HW121302   3.991   2.183   8.630  2.6926  3.2763 -1.3396
 3222SOL    HW221303   3.861   2.232   8.604 -1.4288  0.2830  2.3776
 3223SOL     OW21304   3.092   1.938   0.784  0.2234 -0.0611  0.2100
 3223SOL    HW121305   3.169   1.970   0.831  0.4191  0.2251 -0.3068
 3223SOL    HW221306   3.017   1.981   0.826  0.4581  1.3400 -0.8094
 3224SOL     OW21307   0.882   2.989   8.331  0.4619 -0.3473  0.2281
 3224SOL    HW121308   0.789   2.985   8.351  0.4289  0.1174  0.1602
 3224SOL    HW221309   0.870   2.941   8.249 -0.2474 -1.2092  0.8321
 3225SOL     OW21310   4.274   1.456  11.400  0.1216 -0.0274  0.8355
 3225SOL    HW121311   4.183   1.486  11.406  0.1137  0.2274 -0.8099
 3225SOL    HW221312   4.286   1.430  11.492  2.6003  1.2351  0.8465
 3226SOL     OW21313   2.958   1.308   2.215 -0.3953 -0.1819 -0.6608
 3226SOL    HW121314   2.896   1.377   2.191  2.4942  2.8058  0.4181
 3226SOL    HW221315   3.042   1.354   2.211  0.2668 -1.3070  0.1976
 3227SOL     OW21316   2.414   4.560   7.690 -0.6860 -0.4055  0.0554
 3227SOL    HW121317   2.455   4.485   7.648 -0.0453 -0.8682  1.5186
 3227SOL    HW221318   2.327   4.519   7.696 -1.6470  1.3717 -1.8416
 3228SOL     OW21319   1.590   0.748   1.711  0.6636  0.5030  0.5934
 3228SOL    HW121320   1.624   0.764   1.623  0.0894  1.3951  0.5374
 3228SOL    HW221321   1.501   0.781   1.701  1.9982  3.5063 -1.2398
 3229SOL     OW21322   2.290   3.065   5.186  0.3823  0.2649  0.0499
 3229SOL    HW121323   2.207   3.027   5.216  0.4740 -0.1342 -0.2001
 3229SOL    HW221324   2.354   2.995   5.201  1.2331  1.6972  3.0033
 3230SOL     OW21325   0.643   2.080   6.724  0.5657  0.9718  0.3890
 3230SOL    HW121326   0.630   2.050   6.814  0.0007 -0.2895 -0.1094
 3230SOL    HW221327   0.734   2.058   6.704  1.3190  3.5090  1.0223
 3231SOL     OW21328   3.808   2.611   6.058 -0.3282  1.0643  0.1773
 3231SOL    HW121329   3.732   2.649   6.101 -1.9495  0.9645 -2.5611
 3231SOL    HW221330   3.830   2.689   6.008 -0.2110  1.3574  0.6976
 3232SOL     OW21331   3.502   3.785   4.140  0.7588 -0.8465 -0.0599
 3232SOL    HW121332   3.584   3.825   4.111 -1.3810  3.2136 -0.4842
 3232SOL    HW221333   3.433   3.844   4.109 -0.3458 -2.4994 -0.7147
 3233SOL     OW21334   3.039   1.194  12.422 -0.1519  0.0854  0.0907
 3233SOL    HW121335   3.120   1.220  12.379  0.3538 -2.6609 -0.6283
 3233SOL    HW221336   2.987   1.270  12.394 -0.0423  1.2457  3.0057
 3234SOL     OW21337   3.006   1.511  12.504 -0.2775 -0.0806 -0.8209
 3234SOL    HW121338   2.911   1.518  12.517  0.3901  0.9425  3.7322
 3234SOL    HW221339   3.035   1.454  12.575 -0.5973  0.2415 -0.4282
 3235SOL     OW21340   2.579   3.678   2.915  0.4918  0.0157  0.4409
 3235SOL    HW121341   2.557   3.621   2.842 -1.1340 -0.1443  1.0706
 3235SOL    HW221342   2.561   3.769   2.889 -0.6579 -0.7317 -1.3495
 3236SOL     OW21343   1.943   2.941   2.341  0.5136 -0.2179  0.0722
 3236SOL    HW121344   1.929   2.846   2.350  0.2075 -0.1242  0.6160
 3236SOL    HW221345   2.005   2.961   2.411 -1.2912  2.0293  1.0414
 3237SOL     OW21346   4.274   0.674   4.947 -0.2633 -0.0109 -0.6748
 3237SOL    HW121347   4.298   0.734   5.017  1.4382  1.4109 -2.4717
 3237SOL    HW221348   4.178   0.668   4.953 -0.2729  0.2534 -0.5690
 3238SOL     OW21349   0.616   2.711   9.376 -0.6354 -0.6018 -0.0050
 3238SOL    HW121350   0.583   2.740   9.291  1.7373  0.4029 -0.5905
 3238SOL    HW221351   0.711   2.727   9.373 -0.6929  0.0992  1.7681
 3239SOL     OW21352   1.390   1.060   5.276 -0.1403  0.0749 -0.0143
 3239SOL    HW121353   1.457   1.008   5.232 -0.7161 -1.7539  1.2681
 3239SOL    HW221354   1.346   0.984   5.314  3.4598 -1.9520  0.0256
 3240SOL     OW21355   3.745   2.975  17.740  0.5508 -0.0681 -0.0741
 3240SOL    HW121356   3.817   2.950  17.682  0.4888 -1.0454  0.2668
 3240SOL    HW221357   3.676   2.924  17.697  0.2015 -0.7412  1.2432
 3241SOL     OW21358   0.048   0.059   5.641 -0.2287 -0.2614 -0.6436
 3241SOL    HW121359   0.109   4.728   5.666  1.7165 -0.2128 -5.2588
 3241SOL    HW221360   0.100   0.137   5.661 -0.9395  0.0520 -0.0381
 3242SOL     OW21361   0.034   2.901  10.525 -0.9449 -0.3153 -0.4834
 3242SOL    HW121362   0.109   2.953  10.554 -0.7580 -3.0749  4.0985
 3242SOL    HW221363   0.033   2.920  10.432  1.9830 -0.3463 -0.5141
 3243SOL     OW21364   1.399   3.617   2.272 -0.2292  0.4913  0.1298
 3243SOL    HW121365   1.422   3.527   2.247 -1.3766  0.8148 -2.0787
 3243SOL    HW221366   1.304   3.615   2.261 -0.0374 -1.4267 -1.1280
 3244SOL     OW21367   4.613   4.214   7.202  0.0130  0.5263 -0.0258
 3244SOL    HW121368   4.671   4.184   7.132 -1.0641 -0.8266 -0.3202
 3244SOL    HW221369   4.588   4.294   7.155 -1.8360  0.8998  1.5858
 3245SOL     OW21370   3.848   1.615   5.274  0.1262  0.2561 -0.1986
 3245SOL    HW121371   3.776   1.614   5.338  1.4262 -0.9738  1.2337
 3245SOL    HW221372   3.928   1.613   5.325  0.3550 -0.2692 -0.5821
 3246SOL     OW21373   4.278   0.979  10.176  0.3950 -0.4642 -0.0056
 3246SOL    HW121374   4.196   1.025  10.191  0.7113 -1.5051  4.8716
 3246SOL    HW221375   4.305   0.996  10.086  0.9999 -0.4435  0.1777
 3247SOL     OW21376   0.928   0.789   7.454 -0.7270  0.1987  0.2467
 3247SOL    HW121377   0.970   0.740   7.383  0.0246 -0.2976  1.0285
 3247SOL    HW221378   0.839   0.774   7.425 -0.2546  0.8706 -1.5815
 3248SOL     OW21379   4.672   3.749   2.190  0.0812 -0.3888 -0.1662
 3248SOL    HW121380   4.700   3.711   2.106 -0.4655 -1.6068  0.2073
 3248SOL    HW221381   4.596   3.797   2.157 -0.2098 -0.2457  0.7241
 3249SOL     OW21382   2.107   4.620  13.793 -0.4605  0.2929 -0.4200
 3249SOL    HW121383   2.057   4.538  13.798 -0.3034  0.1349 -1.5965
 3249SOL    HW221384   2.162   4.598  13.718 -0.2004 -0.9905  0.1342
 3250SOL     OW21385   4.207   4.500  10.584  0.2220 -0.4126 -0.1390
 3250SOL    HW121386   4.200   4.591  10.558  0.5165  0.1267  1.6422
 3250SOL    HW221387   4.215   4.505  10.679 -0.3008 -1.6953 -0.0284
 3251SOL     OW21388   1.023   1.780   8.659 -0.0250 -0.0353  0.1548
 3251SOL    HW121389   0.938   1.794   8.617 -0.3819 -1.3124  0.4582
 3251SOL    HW221390   1.071   1.834   8.597 -0.5525  0.5935  0.2864
 3252SOL     OW21391   3.221   4.705  11.331  0.6910 -0.5029 -0.1472
 3252SOL    HW121392   3.265   4.712  11.247  2.9175  1.1984  1.1544
 3252SOL    HW221393   3.295   4.695  11.391 -0.0553  1.4036  1.0875
 3253SOL     OW21394   2.507   3.423   5.734  0.0297  0.0279  0.1320
 3253SOL    HW121395   2.570   3.428   5.806 -1.6141 -1.6994  1.7014
 3253SOL    HW221396   2.521   3.508   5.694  0.1658 -1.2490 -2.5189
 3254SOL     OW21397   2.153   0.930   3.443  0.3680  0.0094  0.1350
 3254SOL    HW121398   2.165   0.837   3.465  1.1450 -0.5878 -2.7626
 3254SOL    HW221399   2.076   0.924   3.388 -1.1448  0.9111  2.1615
 3255SOL     OW21400   4.344   0.299   3.155  0.0426 -0.4866 -0.2897
 3255SOL    HW121401   4.370   0.288   3.063 -1.4731  0.4958 -0.8501
 3255SOL    HW221402   4.251   0.275   3.149 -0.0563 -0.7510  2.2073
 3256SOL     OW21403   0.288   1.793  12.435  0.0833 -0.3833  0.0511
 3256SOL    HW121404   0.233   1.753  12.368  0.2847  1.5954 -1.2701
 3256SOL    HW221405   0.310   1.874  12.388 -0.2328  0.6991  1.7535
 3257SOL     OW21406   1.516   2.571   8.799  0.4394  0.0623 -0.0106
 3257SOL    HW121407   1.456   2.615   8.739 -0.5073 -1.2043  0.0061
 3257SOL    HW221408   1.480   2.487   8.825 -0.5844 -0.1518 -2.1654
 3258SOL     OW21409   2.757   3.923   3.652 -0.1504 -0.8479  0.0074
 3258SOL    HW121410   2.679   3.875   3.625 -0.5981  0.0208 -0.2363
 3258SOL    HW221411   2.765   3.909   3.746 -0.0555  0.7003  0.2364
 3259SOL     OW21412   0.917   2.033   3.846 -0.3349  0.1448 -1.4270
 3259SOL    HW121413   1.011   2.022   3.840 -0.3357 -0.2259 -0.6972
 3259SOL    HW221414   0.912   2.116   3.799  0.6831  0.7464 -0.4570
 3260SOL     OW21415   4.535   1.612   9.284 -0.0394 -0.4935 -0.1995
 3260SOL    HW121416   4.529   1.697   9.329 -1.7310 -1.3312  1.1809
 3260SOL    HW221417   4.575   1.647   9.205 -1.1785  0.6840 -0.2631
 3261SOL     OW21418   3.154   4.258  11.968  0.2664  0.0493 -0.1555
 3261SOL    HW121419   3.078   4.309  11.996 -0.7880 -1.6652  0.0759
 3261SOL    HW221420   3.189   4.217  12.048 -0.5985  0.3835  0.3928
 3262SOL     OW21421   0.244   0.498   5.223 -0.3074  0.5563 -0.0824
 3262SOL    HW121422   0.279   0.587   5.233 -1.3331  0.7709  1.5904
 3262SOL    HW221423   0.153   0.517   5.201  0.0009  2.5803  0.3861
 3263SOL     OW21424   3.876   1.292  10.597 -0.0711 -0.4472 -0.3073
 3263SOL    HW121425   3.963   1.255  10.615  0.2516  1.1815  1.5018
 3263SOL    HW221426   3.897   1.384  10.585 -0.5235 -0.3651 -0.4765
 3264SOL     OW21427   3.568   1.256  17.011  0.1876  0.1029  0.3065
 3264SOL    HW121428   3.637   1.303  16.964 -0.7634 -0.0867 -1.2879
 3264SOL    HW221429   3.610   1.185  17.060  0.3389 -0.1896 -0.2383
 3265SOL     OW21430   4.089   4.369   4.141 -0.1053 -0.2917 -0.3198
 3265SOL    HW121431   4.069   4.454   4.178 -0.5842 -0.1671 -0.8596
 3265SOL    HW221432   4.159   4.330   4.193 -0.4447  1.8977  1.7513
 3266SOL     OW21433   1.709   4.451   8.118 -0.1292  0.3784  0.0248
 3266SOL    HW121434   1.772   4.460   8.190  0.4983  0.6849 -0.5617
 3266SOL    HW221435   1.679   4.542   8.121  1.5896  1.0014 -1.5667
 3267SOL     OW21436   1.675   4.389  16.187  0.1838  0.1609 -0.0095
 3267SOL    HW121437   1.694   4.319  16.124 -0.7516  0.4889 -0.6508
 3267SOL    HW221438   1.605   4.434  16.139  1.1005  2.0060  0.3811
 3268SOL     OW21439   3.381   1.500  16.107  0.6354  0.1438 -0.1391
 3268SOL    HW121440   3.365   1.571  16.169 -1.1194 -2.1731  2.0507
 3268SOL    HW221441   3.412   1.433  16.167 -1.2280 -1.5031 -1.0088
 3269SOL     OW21442   0.352   0.201   9.971  0.0009 -0.2910  0.4158
 3269SOL    HW121443   0.334   0.109   9.989 -3.9116  0.6050  1.2345
 3269SOL    HW221444   0.433   0.197   9.921 -0.8002 -0.5358 -0.8511
 3270SOL     OW21445   2.685   1.979   9.333 -0.8377  0.2614  0.2049
 3270SOL    HW121446   2.750   2.047   9.313 -1.9102  1.3242  0.3047
 3270SOL    HW221447   2.733   1.899   9.313  1.0767  1.5530 -0.3474
 3271SOL     OW21448   0.399   4.055   2.629 -0.3857  0.3276 -0.5834
 3271SOL    HW121449   0.343   3.989   2.588 -0.3231  1.2994 -2.2386
 3271SOL    HW221450   0.348   4.069   2.710 -2.8819  1.2374 -2.2998
 3272SOL     OW21451   3.995   3.312  11.704  0.3602 -0.0723  0.6374
 3272SOL    HW121452   3.969   3.277  11.619 -0.5525 -0.4408  1.0656
 3272SOL    HW221453   4.080   3.337  11.670 -1.0132 -1.0747 -3.5214
 3273SOL     OW21454   2.910   1.976   3.756 -0.8524  0.2456  0.4366
 3273SOL    HW121455   2.897   1.895   3.708 -1.5494  1.9057 -2.1789
 3273SOL    HW221456   2.877   2.044   3.697 -2.3713 -0.5846  0.3307
 3274SOL     OW21457   0.898   2.985   1.982 -0.2190 -0.1523  0.0113
 3274SOL    HW121458   0.905   2.896   2.017 -0.7098 -0.2218 -0.0602
 3274SOL    HW221459   0.826   2.966   1.923  1.0994 -0.7703 -1.3805
 3275SOL     OW21460   2.177   0.285  15.602 -0.2305 -0.8073  0.1866
 3275SOL    HW121461   2.186   0.359  15.543  2.2885  1.3043  3.2002
 3275SOL    HW221462   2.132   0.319  15.680 -0.8932 -2.0026  0.3186
 3276SOL     OW21463   1.914   2.060   7.550  0.0266 -0.0249  0.0593
 3276SOL    HW121464   1.877   2.026   7.468  1.0673 -1.4821  0.1950
 3276SOL    HW221465   1.912   1.976   7.595 -1.4897  0.6478  1.2408
 3277SOL     OW21466   4.641   3.166   8.224 -0.3036  0.4517 -0.1414
 3277SOL    HW121467   4.663   3.148   8.315 -0.8305 -2.3400 -0.5558
 3277SOL    HW221468   4.708   3.106   8.189 -0.2650  0.9993 -1.0091
 3278SOL     OW21469   0.352   4.490   7.376 -0.0879  0.4969  0.0373
 3278SOL    HW121470   0.356   4.584   7.394  3.4662  0.1609  0.9961
 3278SOL    HW221471   0.258   4.474   7.383 -0.0874  0.4037 -0.1851
 3279SOL     OW21472   1.074   3.522   7.748  0.9638  0.4584 -0.1598
 3279SOL    HW121473   1.040   3.594   7.801 -0.5998 -0.5458  0.1995
 3279SOL    HW221474   1.113   3.465   7.814  0.1761 -1.3323 -1.2309
 3280SOL     OW21475   1.364   3.231  15.712  0.2020 -0.5796  0.0671
 3280SOL    HW121476   1.441   3.176  15.722  1.4186  1.3668  1.3271
 3280SOL    HW221477   1.331   3.204  15.626 -0.8067 -1.5987  0.7567
 3281SOL     OW21478   1.745   3.880   3.292 -0.4251  0.3900 -0.0237
 3281SOL    HW121479   1.762   3.846   3.204  1.3312  0.9941  0.0865
 3281SOL    HW221480   1.773   3.970   3.282  0.0610  0.3479  0.9538
 3282SOL     OW21481   1.363   0.772  12.809  0.1934  0.5467  0.9319
 3282SOL    HW121482   1.325   0.765  12.897 -1.7303  1.0732  0.1557
 3282SOL    HW221483   1.439   0.822  12.837  1.0165 -0.0109 -0.2971
 3283SOL     OW21484   2.113   1.985   7.130 -0.0924  0.4719 -0.0251
 3283SOL    HW121485   2.192   1.976   7.184  0.3159  0.9714 -0.5474
 3283SOL    HW221486   2.037   1.981   7.189 -0.6579 -1.9305 -0.9167
 3284SOL     OW21487   0.248   0.135  17.231 -0.3458 -0.4102 -0.4187
 3284SOL    HW121488   0.335   0.097  17.217  0.5061  1.4493 -0.2048
 3284SOL    HW221489   0.266   0.229  17.233 -0.0587 -0.4658 -0.3410
 3285SOL     OW21490   0.943   3.562   2.661  0.4487 -0.4370  0.1225
 3285SOL    HW121491   0.874   3.583   2.598  2.6487 -0.7782 -2.3767
 3285SOL    HW221492   1.016   3.603   2.613 -1.4507  0.5991 -1.8843
 3286SOL     OW21493   3.602   1.834   1.666 -0.3123 -0.0610  0.0367
 3286SOL    HW121494   3.561   1.910   1.625  0.4391  0.8170  0.9087
 3286SOL    HW221495   3.690   1.870   1.682 -0.1819 -1.3561  2.1209
 3287SOL     OW21496   2.456   3.537  10.079 -0.2367  0.1465  0.5167
 3287SOL    HW121497   2.468   3.541  10.174  0.3762 -1.9827  0.5406
 3287SOL    HW221498   2.540   3.564  10.042 -1.1301  3.0269  0.6214
 3288SOL     OW21499   3.907   2.808   8.175 -0.6466 -0.3139 -0.5791
 3288SOL    HW121500   3.831   2.863   8.197 -0.3008  0.3873 -1.1244
 3288SOL    HW221501   3.898   2.809   8.080 -0.8970  3.4325 -0.5175
 3289SOL     OW21502   1.977   1.735  11.199  0.0659 -0.1394  0.0300
 3289SOL    HW121503   1.984   1.827  11.226  2.5633 -0.6233  1.0386
 3289SOL    HW221504   1.980   1.752  11.105  0.6701 -2.1296 -0.3078
 3290SOL     OW21505   1.424   4.306   0.570 -0.7844 -0.3777  0.2098
 3290SOL    HW121506   1.472   4.324   0.490  1.1008 -1.7910  1.0268
 3290SOL    HW221507   1.357   4.260   0.520  0.2686  1.7156 -3.1256
 3291SOL     OW21508   2.128   2.358   7.424  0.7679 -0.8087 -0.2618
 3291SOL    HW121509   2.032   2.363   7.423  0.7106 -1.5777  1.1342
 3291SOL    HW221510   2.148   2.445   7.389  0.9197 -0.9079 -0.4196
 3292SOL     OW21511   0.920   3.932   7.275 -0.0609 -0.3924  0.2842
 3292SOL    HW121512   0.890   3.951   7.364  1.4765  0.2734  0.6626
 3292SOL    HW221513   1.015   3.926   7.272  0.1873  3.1984  1.1022
 3293SOL     OW21514   2.093   0.786   2.734 -0.0655 -0.1902 -0.1263
 3293SOL    HW121515   2.010   0.755   2.770 -0.1156 -1.4766 -1.3468
 3293SOL    HW221516   2.139   0.703   2.727  0.5182  0.2264 -1.2894
 3294SOL     OW21517   4.390   4.064   8.809  0.0911 -0.3503  0.0160
 3294SOL    HW121518   4.469   4.010   8.809  0.6658  0.4829 -1.2369
 3294SOL    HW221519   4.327   4.007   8.853  3.2184 -2.5707  1.5494
 3295SOL     OW21520   0.992   0.162   0.582  0.0828 -0.4671  0.1695
 3295SOL    HW121521   0.972   0.068   0.591  1.3372 -0.7780 -0.3635
 3295SOL    HW221522   0.909   0.208   0.592  0.1167 -0.3433 -0.1526
 3296SOL     OW21523   2.858   0.443  13.110 -0.4056  0.9277  0.1737
 3296SOL    HW121524   2.900   0.462  13.026 -1.4835  2.5891  0.0119
 3296SOL    HW221525   2.770   0.420  13.081 -1.1944  1.5034  2.0728
 3297SOL     OW21526   4.451   0.598   3.036 -0.7209  0.4814 -0.3879
 3297SOL    HW121527   4.412   0.642   3.111 -0.3547  1.0198 -0.5199
 3297SOL    HW221528   4.456   0.664   2.967 -0.4262  2.0623  1.1615
 3298SOL     OW21529   1.109   4.630  16.838 -0.3377 -0.9153 -0.1475
 3298SOL    HW121530   1.195   4.590  16.831 -0.3920 -1.0867  0.1236
 3298SOL    HW221531   1.078   4.599  16.924 -2.5568  0.0576 -0.5959
 3299SOL     OW21532   3.491   1.790   2.308  0.0095 -0.3998  0.5004
 3299SOL    HW121533   3.484   1.763   2.400 -0.3087 -0.6436  0.4004
 3299SOL    HW221534   3.577   1.757   2.283  0.0120 -0.8093  1.0355
 3300SOL     OW21535   1.239   0.673  12.240  0.9112 -0.2153 -0.0384
 3300SOL    HW121536   1.219   0.579  12.249 -0.8013  0.1702  0.0640
 3300SOL    HW221537   1.322   0.678  12.287 -0.5594 -0.1714  2.5337
 3301SOL     OW21538   2.228   2.809   7.782  0.1899 -0.2904  0.1979
 3301SOL    HW121539   2.218   2.747   7.854  1.5330 -0.3108  0.3593
 3301SOL    HW221540   2.208   2.885   7.836 -1.2828 -0.4166 -0.1639
 3302SOL     OW21541   0.798   1.578   2.151  0.1251  0.1388  0.1016
 3302SOL    HW121542   0.869   1.578   2.215 -0.3643 -2.2886  0.6447
 3302SOL    HW221543   0.768   1.669   2.153 -1.0709 -0.2500  0.2006
 3303SOL     OW21544   2.006   2.844   4.663 -0.2484 -0.3424 -0.5522
 3303SOL    HW121545   2.044   2.862   4.748  0.6765 -1.8784 -0.6502
 3303SOL    HW221546   1.978   2.752   4.672  1.5304 -0.9909 -1.6866
 3304SOL     OW21547   1.380   2.318   8.876 -0.0831  0.5086  0.0353
 3304SOL    HW121548   1.344   2.255   8.937 -0.3901 -1.5797 -2.2970
 3304SOL    HW221549   1.424   2.260   8.814  3.0467  3.4271 -0.4970
 3305SOL     OW21550   1.180   0.654   5.610 -0.2651  0.1798 -0.0200
 3305SOL    HW121551   1.185   0.574   5.558  4.2925  0.4729  0.0048
 3305SOL    HW221552   1.226   0.622   5.688  0.6785 -0.7824 -0.9795
 3306SOL     OW21553   2.303   1.729   8.227 -0.2165 -0.1298 -0.4900
 3306SOL    HW121554   2.358   1.732   8.305  0.0834 -3.6556 -0.6000
 3306SOL    HW221555   2.314   1.820   8.197  0.0873 -0.2493 -0.7432
 3307SOL     OW21556   2.901   0.311   2.343 -0.4215 -0.6852 -0.3733
 3307SOL    HW121557   2.837   0.378   2.318  2.3758  2.7642  1.7555
 3307SOL    HW221558   2.862   0.229   2.311 -0.4302 -0.3316 -1.2676
 3308SOL     OW21559   0.231   0.299   3.659  0.3360  0.3663  0.6388
 3308SOL    HW121560   0.171   0.236   3.700  0.2736  0.2123  0.3170
 3308SOL    HW221561   0.259   0.240   3.589  0.7911  0.3294  0.8589
 3309SOL     OW21562   0.730   3.483  17.353  0.4563  0.1541  0.4136
 3309SOL    HW121563   0.758   3.420  17.287  1.5944  1.1011  0.0050
 3309SOL    HW221564   0.673   3.433  17.412 -0.0117  0.6560  0.3811
 3310SOL     OW21565   1.762   4.173  15.065 -0.6377  0.0440 -0.1360
 3310SOL    HW121566   1.710   4.231  15.010 -0.0046  1.8967  1.2169
 3310SOL    HW221567   1.847   4.216  15.063 -0.2338 -0.8442 -1.8319
 3311SOL     OW21568   4.508   2.267   5.237  0.0577 -0.0545  0.1466
 3311SOL    HW121569   4.595   2.243   5.269  0.7245  2.3998  0.1437
 3311SOL    HW221570   4.454   2.190   5.252 -0.4368  0.1567 -0.5675
 3312SOL     OW21571   1.300   2.636   8.624 -0.1291  0.2607 -0.1348
 3312SOL    HW121572   1.252   2.556   8.648 -0.6758  0.4564 -0.5771
 3312SOL    HW221573   1.236   2.704   8.646  0.0521  0.3124  0.2335
 3313SOL     OW21574   3.436   3.780  15.276 -0.0596 -0.6503  0.3893
 3313SOL    HW121575   3.441   3.806  15.368  1.0220 -0.6581  0.3394
 3313SOL    HW221576   3.375   3.707  15.272 -0.5431 -0.0877 -2.9028
 3314SOL     OW21577   2.291   0.177   6.251 -0.3147  0.6484 -0.4436
 3314SOL    HW121578   2.337   0.232   6.314  3.5858  0.1845 -2.8932
 3314SOL    HW221579   2.252   0.117   6.314 -1.2035  1.6846 -0.0010
 3315SOL     OW21580   0.160   1.214   6.162 -0.3424 -0.0496  0.7908
 3315SOL    HW121581   0.115   1.257   6.088 -2.1046  0.2315  2.0257
 3315SOL    HW221582   0.111   1.261   6.230  0.4299  1.9519 -0.0391
 3316SOL     OW21583   4.004   4.086   9.169 -0.6308  0.1756 -0.4565
 3316SOL    HW121584   4.050   4.062   9.249 -1.1994  2.0317  0.4235
 3316SOL    HW221585   3.983   4.175   9.198 -0.6248  0.1294 -0.3117
 3317SOL     OW21586   1.585   2.827   3.481 -0.0705  0.5492 -0.5640
 3317SOL    HW121587   1.673   2.816   3.446  0.1996 -0.2150  0.3690
 3317SOL    HW221588   1.592   2.822   3.577  0.6839  2.7479 -0.5098
 3318SOL     OW21589   0.017   0.939   5.019 -0.1291 -0.2357  0.1433
 3318SOL    HW121590   0.009   0.987   5.101 -1.0024 -1.2711  0.6716
 3318SOL    HW221591   0.107   0.907   5.019 -1.0943 -3.0240 -0.0644
 3319SOL     OW21592   4.617   2.146   0.852  0.0987  0.1264  0.1461
 3319SOL    HW121593   4.533   2.111   0.883  0.6285  1.6125  3.2541
 3319SOL    HW221594   4.603   2.240   0.865 -0.9162 -0.1111  0.8498
 3320SOL     OW21595   2.311   1.230   8.298  0.7089 -0.0094  0.1230
 3320SOL    HW121596   2.316   1.161   8.232  2.7796  0.6305 -0.3842
 3320SOL    HW221597   2.310   1.179   8.379 -0.4364 -0.4766 -0.1870
 3321SOL     OW21598   0.427   2.886   1.730  0.3748 -0.0056 -1.0141
 3321SOL    HW121599   0.367   2.910   1.800  0.8510  0.3511 -0.7181
 3321SOL    HW221600   0.485   2.963   1.722 -0.6984  0.9836  0.7411
 3322SOL     OW21601   3.159   2.400  10.247  0.1692  0.2487 -0.3094
 3322SOL    HW121602   3.068   2.413  10.273 -0.0484 -0.5180 -0.6825
 3322SOL    HW221603   3.168   2.466  10.178  0.3875  0.5825  0.0346
 3323SOL     OW21604   1.673   3.137   5.721  0.3409  0.3500 -0.4345
 3323SOL    HW121605   1.691   3.066   5.659 -3.6949 -1.1215  0.0796
 3323SOL    HW221606   1.577   3.129   5.724  0.2774  0.8522 -1.0577
 3324SOL     OW21607   1.971   1.177   3.543 -0.1367 -0.0270  0.0087
 3324SOL    HW121608   1.969   1.189   3.638  1.4325  0.1279  0.0172
 3324SOL    HW221609   2.063   1.198   3.529  0.0654 -1.1458 -0.3964
 3325SOL     OW21610   1.622   0.130   4.033  0.4223 -0.1530 -0.1928
 3325SOL    HW121611   1.651   0.220   4.023 -0.0872 -0.1202 -1.3839
 3325SOL    HW221612   1.567   0.127   3.955  1.1591  2.7999 -0.7924
 3326SOL     OW21613   2.540   0.891  14.101 -0.0679  0.3853  0.2176
 3326SOL    HW121614   2.488   0.912  14.178 -2.4074 -0.5632 -1.0893
 3326SOL    HW221615   2.489   0.827  14.051  0.6415 -0.8416  1.1036
 3327SOL     OW21616   4.683   3.033  12.104  0.0343  0.3947 -0.0801
 3327SOL    HW121617   4.653   2.960  12.049 -0.8486  1.1278 -0.5720
 3327SOL    HW221618   0.022   2.993  12.144  0.1019 -1.1491 -1.7101
 3328SOL     OW21619   3.055   2.204   8.132  0.2032  0.0177  0.1095
 3328SOL    HW121620   3.066   2.116   8.096  0.7411  0.0222  0.2570
 3328SOL    HW221621   3.125   2.249   8.083 -0.1543  1.9760  1.4194
 3329SOL     OW21622   4.331   1.116   3.498  0.3430 -0.9159  0.0603
 3329SOL    HW121623   4.248   1.093   3.457 -0.6706  4.0152 -0.6494
 3329SOL    HW221624   4.391   1.107   3.424  0.1381  0.5319 -0.2887
 3330SOL     OW21625   0.145   2.457   4.005 -0.3011  0.1680  0.9759
 3330SOL    HW121626   0.234   2.455   4.040  0.4123 -1.7629 -0.9841
 3330SOL    HW221627   0.126   2.550   4.019  0.1246  0.7799 -2.3837
 3331SOL     OW21628   1.423   4.611   0.349 -0.3107  0.3798  0.8418
 3331SOL    HW121629   1.440   4.517   0.350 -1.5670  0.1259 -1.2465
 3331SOL    HW221630   1.501   4.627   0.402  0.4946  0.2714 -0.3081
 3332SOL     OW21631   2.521   1.891   6.096  0.1747 -0.0768 -0.1815
 3332SOL    HW121632   2.561   1.811   6.132  1.9817  1.5378  1.3772
 3332SOL    HW221633   2.568   1.902   6.013 -0.6697 -2.0921 -0.9442
 3333SOL     OW21634   1.126   2.038   8.913 -0.2764  0.7262 -0.1824
 3333SOL    HW121635   1.190   2.060   8.982 -0.4416 -1.8313  0.7936
 3333SOL    HW221636   1.182   2.064   8.840 -0.0050 -0.9627 -0.5709
 3334SOL     OW21637   1.863   2.660   2.656  0.5324 -0.6618  0.6534
 3334SOL    HW121638   1.816   2.737   2.688  0.9986  0.2826 -0.9178
 3334SOL    HW221639   1.924   2.636   2.726  0.0650 -1.7461  0.6778
 3335SOL     OW21640   2.819   4.695   5.113  0.1883  0.3026 -0.1548
 3335SOL    HW121641   2.904   4.660   5.086 -0.3970 -1.5986  0.4551
 3335SOL    HW221642   2.804   4.642   5.191 -0.2641 -0.5308 -0.8170
 3336SOL     OW21643   4.100   4.245   4.855  0.0737 -0.0357  0.1347
 3336SOL    HW121644   4.060   4.218   4.773  0.7664  0.4919 -0.3761
 3336SOL    HW221645   4.035   4.311   4.879 -0.6523 -0.6679 -0.0856
 3337SOL     OW21646   3.953   3.324   3.760 -0.0782  0.1725 -0.1702
 3337SOL    HW121647   3.869   3.304   3.719  0.4870  0.3006 -1.3728
 3337SOL    HW221648   3.948   3.415   3.789 -2.5077 -0.6238  1.8490
 3338SOL     OW21649   2.928   4.005  13.747 -0.6205  0.3673  0.1959
 3338SOL    HW121650   2.914   4.100  13.746 -0.7612  0.3131 -2.2881
 3338SOL    HW221651   2.979   3.986  13.668  0.0015  0.8763  0.4677
 3339SOL     OW21652   3.998   3.973   4.314  0.9145 -0.2315  0.4015
 3339SOL    HW121653   4.045   3.910   4.259 -0.1531  0.6498 -1.4801
 3339SOL    HW221654   3.925   3.923   4.350  0.8969  1.8057  3.2331
 3340SOL     OW21655   1.357   2.985  10.749  0.1968  0.4533  0.2449
 3340SOL    HW121656   1.315   2.952  10.670 -0.6274 -0.0497  0.8963
 3340SOL    HW221657   1.447   2.956  10.732  0.4373  0.3555  1.6521
 3341SOL     OW21658   0.103   4.468   6.296  0.3142 -0.5395 -0.2120
 3341SOL    HW121659   0.139   4.380   6.297  0.8997 -0.2867  0.5524
 3341SOL    HW221660   0.016   4.450   6.329  0.5215  2.7265  2.1020
 3342SOL     OW21661   3.986   0.601   8.905 -0.0007 -0.2626  0.2781
 3342SOL    HW121662   4.007   0.675   8.963  1.6913 -1.6194  1.4349
 3342SOL    HW221663   3.891   0.600   8.909 -0.0755  1.7197 -0.9072
 3343SOL     OW21664   3.562   2.745  15.924  0.3910  0.8183 -0.5953
 3343SOL    HW121665   3.652   2.777  15.919  0.9296 -0.6944 -0.6248
 3343SOL    HW221666   3.521   2.809  15.866  0.2757  1.2417 -0.0435
 3344SOL     OW21667   4.106   0.806   4.701  0.7204  0.4291  0.7535
 3344SOL    HW121668   4.049   0.733   4.675  0.1013  1.5386 -0.9865
 3344SOL    HW221669   4.089   0.820   4.794  0.4941  2.7263  0.3709
 3345SOL     OW21670   2.622   4.249  12.120 -0.4051 -0.2375 -0.2400
 3345SOL    HW121671   2.537   4.289  12.107 -1.1484 -1.2531  1.4532
 3345SOL    HW221672   2.656   4.249  12.031 -0.4413 -1.9096 -0.2706
 3346SOL     OW21673   0.251   1.211   5.123 -0.3120 -0.4670  0.1813
 3346SOL    HW121674   0.218   1.128   5.157  0.6862 -1.0847 -0.3383
 3346SOL    HW221675   0.188   1.279   5.145  0.9872  0.8032  0.0272
 3347SOL     OW21676   2.350   3.218   8.316  0.1389  0.6292  0.3306
 3347SOL    HW121677   2.377   3.223   8.224 -0.4978  0.0474  0.1189
 3347SOL    HW221678   2.330   3.311   8.330 -0.9079  0.1503  1.9898
 3348SOL     OW21679   0.942   2.416  14.302  0.0935  0.3275 -0.1321
 3348SOL    HW121680   0.974   2.468  14.229  0.7976  0.0387 -0.0215
 3348SOL    HW221681   0.919   2.478  14.371 -0.4443 -0.4853  0.4207
 3349SOL     OW21682   3.287   1.484   3.370 -0.3193 -0.1655  0.2945
 3349SOL    HW121683   3.313   1.454   3.457  0.1107 -2.9889 -0.8232
 3349SOL    HW221684   3.269   1.577   3.384  0.4240 -0.6341  4.2702
 3350SOL     OW21685   0.576   1.239   8.471 -0.5325  0.0561  0.2213
 3350SOL    HW121686   0.518   1.314   8.483 -0.1599  0.5760 -1.2547
 3350SOL    HW221687   0.624   1.263   8.392 -3.3825  1.0510 -1.2131
 3351SOL     OW21688   4.311   1.815  11.084 -0.5731  0.6355 -0.5217
 3351SOL    HW121689   4.288   1.723  11.091  0.9116  0.1533 -2.1112
 3351SOL    HW221690   4.395   1.813  11.038 -0.7115 -0.1201 -0.7417
 3352SOL     OW21691   0.589   1.804   4.888  0.0421  0.2490  0.0066
 3352SOL    HW121692   0.656   1.752   4.844 -0.1780  0.8688 -1.0543
 3352SOL    HW221693   0.630   1.817   4.974  1.6655 -2.7769 -0.3390
 3353SOL     OW21694   1.141   4.594   9.173 -0.0288 -0.1258 -0.3276
 3353SOL    HW121695   1.125   4.510   9.215 -1.6514  1.4829  2.3218
 3353SOL    HW221696   1.091   4.581   9.093  2.3342  0.4679 -1.9041
 3354SOL     OW21697   2.070   4.161   1.910 -0.1704 -0.0606 -0.6528
 3354SOL    HW121698   2.100   4.252   1.910  1.0164 -0.4432  1.1822
 3354SOL    HW221699   2.016   4.152   1.832  0.3605 -2.4037 -0.7428
 3355SOL     OW21700   0.665   0.534   2.198  0.6395 -0.0468  0.5143
 3355SOL    HW121701   0.727   0.476   2.154  0.5246  1.0684 -1.0960
 3355SOL    HW221702   0.585   0.501   2.156  1.0035  0.8834 -0.9142
 3356SOL     OW21703   3.052   3.772   3.641  0.0325 -0.2342  0.0677
 3356SOL    HW121704   3.023   3.784   3.731 -0.9418 -1.3446 -0.0959
 3356SOL    HW221705   3.001   3.694   3.619 -0.5715  0.2172 -0.1305
 3357SOL     OW21706   2.595   3.744   3.519 -0.1281 -0.2559  0.3047
 3357SOL    HW121707   2.595   3.665   3.573  1.4289 -0.4128  0.0730
 3357SOL    HW221708   2.632   3.712   3.438 -0.7663 -1.2657  0.4134
 3358SOL     OW21709   4.206   3.485   2.971 -0.5537 -0.6341 -0.0579
 3358SOL    HW121710   4.184   3.442   3.054  2.2901  0.4141  1.2009
 3358SOL    HW221711   4.118   3.476   2.933 -1.6919  0.3126  2.3553
 3359SOL     OW21712   2.658   2.320  13.288 -0.2463  0.2099  0.0516
 3359SOL    HW121713   2.721   2.380  13.328 -1.2470  1.8347 -0.8033
 3359SOL    HW221714   2.611   2.375  13.226  1.5562  1.4363 -0.2292
 3360SOL     OW21715   0.788   0.560   4.649 -0.4014  0.3763  0.5870
 3360SOL    HW121716   0.825   0.501   4.583 -1.3004  0.3875  0.0689
 3360SOL    HW221717   0.805   0.523   4.735  0.8230  2.0707  1.0689
 3361SOL     OW21718   0.623   4.508   1.476  0.0290 -0.3368  0.0897
 3361SOL    HW121719   0.584   4.446   1.538 -2.0307  0.7532 -0.1140
 3361SOL    HW221720   0.705   4.464   1.455 -1.0488 -2.2964 -0.0677
 3362SOL     OW21721   0.504   2.623   1.823 -0.1676 -0.3033 -0.1762
 3362SOL    HW121722   0.570   2.629   1.891 -0.1156 -2.6899 -0.0059
 3362SOL    HW221723   0.498   2.704   1.773  0.8439  0.0898  0.3555
 3363SOL     OW21724   0.921   2.014  13.011 -0.0424 -0.3450 -0.2587
 3363SOL    HW121725   0.868   2.013  13.091 -1.0920  0.4313 -0.9612
 3363SOL    HW221726   0.961   1.927  13.007  1.8415  0.5323 -0.4178
 3364SOL     OW21727   3.578   1.518   9.348  0.9051 -0.0807  0.5938
 3364SOL    HW121728   3.629   1.567   9.284 -2.2527  1.8746 -0.4066
 3364SOL    HW221729   3.530   1.586   9.395  0.8721 -0.0506  0.5168
 3365SOL     OW21730   2.336   4.264  13.130 -0.3579 -0.1084  0.7301
 3365SOL    HW121731   2.412   4.222  13.090  1.4565  1.3660  2.6522
 3365SOL    HW221732   2.358   4.289  13.219 -0.9798 -0.6044  1.0265
 3366SOL     OW21733   0.944   1.412   7.008  0.7155 -0.0380  1.1202
 3366SOL    HW121734   0.870   1.431   6.951  1.3675 -0.0316  0.2825
 3366SOL    HW221735   0.925   1.467   7.084 -0.7212 -1.1686  1.5722
 3367SOL     OW21736   1.957   3.907   8.907  0.1392  0.2301  0.3849
 3367SOL    HW121737   1.873   3.864   8.892 -0.9801  2.9030 -1.0101
 3367SOL    HW221738   1.938   3.987   8.958 -2.1284 -0.7085  1.0436
 3368SOL     OW21739   2.170   4.363   6.474 -0.2601 -0.0520 -0.0509
 3368SOL    HW121740   2.206   4.346   6.386 -1.6233 -2.6615 -0.1022
 3368SOL    HW221741   2.250   4.397   6.514 -0.7364  0.9021  0.0658
 3369SOL     OW21742   4.391   3.283   4.488  0.1990  0.0764  0.4734
 3369SOL    HW121743   4.384   3.266   4.394  1.8102  0.2550  0.3250
 3369SOL    HW221744   4.472   3.235   4.506  0.0607 -0.0813  0.6791
 3370SOL     OW21745   1.271   1.604   3.974  0.1676 -0.2829 -0.4407
 3370SOL    HW121746   1.314   1.667   3.916 -0.1425  0.1170 -0.2370
 3370SOL    HW221747   1.199   1.575   3.917 -0.1932 -0.6592  0.2105
 3371SOL     OW21748   1.274   0.425   0.925  0.5185  0.0383  0.0506
 3371SOL    HW121749   1.295   0.483   0.852  0.2979  1.4849  1.1211
 3371SOL    HW221750   1.201   0.385   0.878  0.4178  1.6698 -1.1805
 3372SOL     OW21751   4.701   4.149  11.733  0.3442 -0.6045 -0.0885
 3372SOL    HW121752   4.667   4.223  11.785  1.6585 -0.5656  0.7159
 3372SOL    HW221753   4.618   4.117  11.699 -0.2251 -0.5370  1.2395
 3373SOL     OW21754   0.551   3.037   2.759  0.0448 -0.2264  0.2614
 3373SOL    HW121755   0.565   3.132   2.761 -0.9340 -0.0921  0.6400
 3373SOL    HW221756   0.504   3.010   2.838 -0.9577  1.7994  0.3493
 3374SOL     OW21757   4.269   4.277   9.589  0.1298  0.1635 -0.1322
 3374SOL    HW121758   4.294   4.186   9.572 -1.5076 -0.1152 -1.0696
 3374SOL    HW221759   4.336   4.308   9.650 -0.1358  0.8974 -0.2181
 3375SOL     OW21760   1.048   2.155  14.226  0.7998 -0.8185  0.5434
 3375SOL    HW121761   1.128   2.208  14.226 -0.5530  1.2622  1.4648
 3375SOL    HW221762   0.989   2.201  14.287  0.1578 -2.1742  0.9274
 3376SOL     OW21763   4.647   0.978  12.920  0.5768 -0.1594 -0.3416
 3376SOL    HW121764   4.573   0.933  12.878 -0.5293  1.5513 -0.1999
 3376SOL    HW221765   4.716   0.972  12.855  1.0411  0.4096  0.1043
 3377SOL     OW21766   1.653   3.631   5.929 -0.5261 -0.3448  0.2753
 3377SOL    HW121767   1.731   3.582   5.954  0.9725  2.7581  1.5389
 3377SOL    HW221768   1.617   3.651   6.015 -1.1224 -1.8282  0.3716
 3378SOL     OW21769   2.546   1.413   2.879  0.2371 -0.0011  0.2297
 3378SOL    HW121770   2.610   1.375   2.939 -1.8393 -0.3506  2.2126
 3378SOL    HW221771   2.555   1.365   2.797 -1.6713  1.0984 -0.6307
 3379SOL     OW21772   1.117   1.081   8.367  0.2859  0.0303  0.4183
 3379SOL    HW121773   1.051   1.136   8.324  0.4680  0.3209  0.5108
 3379SOL    HW221774   1.057   1.025   8.416 -2.1011  1.0482 -1.3467
 3380SOL     OW21775   2.874   2.959   4.326  0.2301  0.2856 -0.5947
 3380SOL    HW121776   2.840   2.888   4.272  1.5133 -2.0186  1.6306
 3380SOL    HW221777   2.794   3.011   4.319  0.7241  0.8423 -1.9978
 3381SOL     OW21778   4.095   4.363  16.199 -0.0163  0.1464  0.4069
 3381SOL    HW121779   4.136   4.276  16.199 -0.7079 -0.1782  0.6780
 3381SOL    HW221780   4.068   4.374  16.108 -3.4220  2.5568  1.7184
 3382SOL     OW21781   4.477   1.958   3.050 -0.0272 -0.6581  0.6910
 3382SOL    HW121782   4.492   2.049   3.024  0.8627 -1.0027 -0.0029
 3382SOL    HW221783   4.566   1.923   3.052  0.3477  0.2322 -0.3984
 3383SOL     OW21784   0.976   0.583  17.675  0.2906 -0.1712  0.2436
 3383SOL    HW121785   1.034   0.640  17.624  1.2588  0.2232  1.7976
 3383SOL    HW221786   0.913   0.550  17.611 -0.8195 -0.6980  1.6131
 3384SOL     OW21787   4.078   4.727   8.248  0.0458  0.7302  0.3712
 3384SOL    HW121788   4.121   4.723   8.163 -1.9420  2.3893 -0.7294
 3384SOL    HW221789   3.985   4.714   8.229  0.0523  1.2283  0.0032
 3385SOL     OW21790   4.234   0.049  12.103 -0.1831  0.1008 -0.1459
 3385SOL    HW121791   4.260   0.078  12.190 -1.0674  0.6065 -0.0540
 3385SOL    HW221792   4.203   0.133  12.070 -1.4855 -0.6804 -0.9197
 3386SOL     OW21793   4.454   3.602  16.283 -0.1101  0.2573  0.0655
 3386SOL    HW121794   4.398   3.566  16.214  0.7399 -0.7723 -0.0788
 3386SOL    HW221795   4.447   3.527  16.341 -0.2592 -0.7680 -1.2922
 3387SOL     OW21796   0.929   1.246   8.273 -0.3032 -0.2386 -0.4239
 3387SOL    HW121797   0.972   1.331   8.275 -1.2771  0.2377  0.0476
 3387SOL    HW221798   0.843   1.267   8.238 -0.1673 -0.1625 -0.7173
 3388SOL     OW21799   0.851   1.799   1.919  0.0399 -0.0111  0.2212
 3388SOL    HW121800   0.787   1.827   1.984  0.5042  0.1056  0.6330
 3388SOL    HW221801   0.814   1.711   1.914 -0.6026  0.3277 -0.8338
 3389SOL     OW21802   3.920   0.430   2.444  0.1683 -0.4932  0.0358
 3389SOL    HW121803   3.884   0.502   2.496  0.1519 -0.1728 -0.4211
 3389SOL    HW221804   3.925   0.356   2.504 -1.5964  0.9237  1.9217
 3390SOL     OW21805   3.573   1.807   4.464 -0.0309  0.3097 -0.8733
 3390SOL    HW121806   3.549   1.866   4.392 -1.1108  1.0485  0.0897
 3390SOL    HW221807   3.654   1.842   4.501  0.7024 -0.8641 -1.3652
 3391SOL     OW21808   1.596   3.206  14.169 -0.1716  0.1460  0.7019
 3391SOL    HW121809   1.541   3.243  14.101 -0.5806 -0.7585  0.5409
 3391SOL    HW221810   1.660   3.276  14.181 -1.0078  0.8365  1.0595
 3392SOL     OW21811   2.871   1.609  17.545 -0.8079 -0.4018  0.4403
 3392SOL    HW121812   2.789   1.574  17.509 -1.9742  0.7988  1.9290
 3392SOL    HW221813   2.926   1.604  17.467  0.4588  0.9568  1.2392
 3393SOL     OW21814   3.511   4.139   2.028  0.2793 -0.6811 -0.4194
 3393SOL    HW121815   3.570   4.140   1.953  0.5877  1.2927 -0.1504
 3393SOL    HW221816   3.572   4.123   2.100 -1.7562 -2.0311  1.0104
 3394SOL     OW21817   4.143   4.407   1.598 -0.1977 -0.0081 -0.2010
 3394SOL    HW121818   4.198   4.368   1.531 -1.9480  0.6399 -2.0443
 3394SOL    HW221819   4.175   4.497   1.592 -1.5391  0.6517  2.6416
 3395SOL     OW21820   1.769   0.787   1.467  0.0918 -0.1500  0.3543
 3395SOL    HW121821   1.804   0.758   1.383 -1.1077  0.3833 -0.3301
 3395SOL    HW221822   1.855   0.804   1.505  0.6151 -1.4053 -0.2678
 3396SOL     OW21823   3.052   3.187   3.704 -0.1621  0.4289  0.2058
 3396SOL    HW121824   3.066   3.094   3.686 -3.6209 -0.2532  1.1085
 3396SOL    HW221825   3.113   3.194   3.777  0.2667  0.7254 -0.1720
 3397SOL     OW21826   1.931   2.408   2.505  0.0010  0.5145  0.3560
 3397SOL    HW121827   1.868   2.468   2.543 -0.3715 -2.0667  3.7953
 3397SOL    HW221828   1.983   2.476   2.461 -1.2289  0.1859 -1.6207
 3398SOL     OW21829   2.293   1.725   8.680  0.0675  0.7945 -0.8500
 3398SOL    HW121830   2.240   1.646   8.675  2.5896 -0.9657  0.2806
 3398SOL    HW221831   2.378   1.682   8.686 -0.5191  0.0198  1.6735
 3399SOL     OW21832   3.197   0.338   1.987 -0.3145 -0.3125 -0.4159
 3399SOL    HW121833   3.243   0.258   2.010  0.9579  0.7021  0.5738
 3399SOL    HW221834   3.247   0.373   1.913 -2.8876 -0.5630 -2.2795
 3400SOL     OW21835   0.692   3.486  11.725  0.2972  0.4949 -0.3308
 3400SOL    HW121836   0.707   3.579  11.743 -0.2139  0.5856 -0.3654
 3400SOL    HW221837   0.633   3.489  11.650  0.6590  2.7103 -0.5300
 3401SOL     OW21838   0.040   2.927   8.708  0.3219  0.1891 -0.4069
 3401SOL    HW121839   0.002   2.845   8.676  2.3886 -0.9489  0.0375
 3401SOL    HW221840   4.700   2.971   8.741  0.5553 -0.3079  0.8425
 3402SOL     OW21841   1.142   1.921   4.086  0.3068  0.4798  0.7986
 3402SOL    HW121842   1.157   1.946   3.995 -1.3256  0.5883  0.5587
 3402SOL    HW221843   1.077   1.851   4.079  0.1296  0.5702  1.5378
 3403SOL     OW21844   4.674   3.599   1.224 -0.7119 -0.1744  0.0620
 3403SOL    HW121845   4.636   3.686   1.208 -1.8447 -0.3506  1.7989
 3403SOL    HW221846   4.688   3.606   1.319  1.7465  1.2864 -0.4169
 3404SOL     OW21847   1.164   2.237  11.414 -0.1366  0.0673 -0.2674
 3404SOL    HW121848   1.180   2.265  11.504  0.5943  1.2161 -0.7632
 3404SOL    HW221849   1.189   2.145  11.423  1.7724  0.4152 -2.0088
 3405SOL     OW21850   0.969   0.239  15.121  0.0816  0.1350 -0.5840
 3405SOL    HW121851   1.047   0.271  15.076  1.0504 -0.7869  0.4162
 3405SOL    HW221852   0.916   0.236  15.042 -0.4089 -0.5500 -0.2285
 3406SOL     OW21853   4.475   0.445  10.655 -0.2686 -0.3725 -0.0094
 3406SOL    HW121854   4.450   0.495  10.577 -0.7064  1.6505  1.4345
 3406SOL    HW221855   4.562   0.482  10.670 -0.4985  0.1170  0.1338
 3407SOL     OW21856   3.994   1.501   8.889 -0.5995  0.3791 -0.0183
 3407SOL    HW121857   3.970   1.455   8.970  2.3661 -1.1096  0.0182
 3407SOL    HW221858   3.977   1.435   8.822 -1.8493 -0.2556  0.9313
 3408SOL     OW21859   4.478   4.444   3.959 -0.1358 -0.4856  0.1102
 3408SOL    HW121860   4.403   4.501   3.975 -0.0804  0.1709 -1.9699
 3408SOL    HW221861   4.548   4.509   3.961  1.3889 -2.0720 -1.9797
 3409SOL     OW21862   0.212   2.194   9.215  0.8111 -0.1614  0.2490
 3409SOL    HW121863   0.189   2.148   9.296 -0.7423  0.9174  0.4215
 3409SOL    HW221864   0.204   2.115   9.161  1.5348  0.8256 -1.2898
 3410SOL     OW21865   3.020   4.545   7.114 -0.5397 -0.1762 -0.0923
 3410SOL    HW121866   2.994   4.474   7.054 -2.1160  1.4815 -1.3680
 3410SOL    HW221867   3.107   4.517   7.142  0.3792  2.6363 -0.1939
 3411SOL     OW21868   0.405   0.595   1.635  0.2578 -0.1284 -0.2357
 3411SOL    HW121869   0.500   0.592   1.618  0.5101 -0.8598  1.3734
 3411SOL    HW221870   0.376   0.538   1.563 -1.4117  1.2394 -0.6451
 3412SOL     OW21871   3.659   2.537   2.366  0.2180  0.1783 -0.2359
 3412SOL    HW121872   3.679   2.609   2.425 -1.0151 -0.8583  1.4321
 3412SOL    HW221873   3.613   2.580   2.294  1.9684  0.4403 -1.1961
 3413SOL     OW21874   4.623   1.942   7.789  0.2738 -0.7400  0.5327
 3413SOL    HW121875   4.696   1.895   7.749  0.0739  0.7236 -1.5422
 3413SOL    HW221876   4.647   2.034   7.804 -0.1730 -0.6916  0.9530
 3414SOL     OW21877   0.166   4.636   2.349 -0.3372 -0.1009  0.0852
 3414SOL    HW121878   0.251   4.592   2.357  0.3823  1.5436  1.4014
 3414SOL    HW221879   0.141   4.642   2.441  1.1268  0.7254  0.4176
 3415SOL     OW21880   1.666   1.107   5.090  0.6268  0.8257  0.3599
 3415SOL    HW121881   1.624   1.171   5.033  1.2506  0.7803 -0.1560
 3415SOL    HW221882   1.756   1.112   5.055  0.9463 -1.0075  0.9275
 3416SOL     OW21883   1.924   0.643  16.997 -0.3688  0.0394 -0.3039
 3416SOL    HW121884   1.828   0.642  16.999 -0.3883  3.6302 -0.3746
 3416SOL    HW221885   1.950   0.631  17.088 -1.2465  3.3573  0.3788
 3417SOL     OW21886   0.724   2.963   8.916  0.2943  0.3843 -1.2662
 3417SOL    HW121887   0.813   2.940   8.943  0.8592  2.1398 -1.6134
 3417SOL    HW221888   0.708   3.018   8.993 -0.3347  0.0324 -1.1479
 3418SOL     OW21889   2.959   3.412  17.574 -0.1521 -0.2860 -0.2178
 3418SOL    HW121890   3.026   3.476  17.597 -2.1449  1.5843  0.4289
 3418SOL    HW221891   2.924   3.395  17.662 -0.2787  1.8501  0.1535
 3419SOL     OW21892   0.302   4.406   7.895  0.2590  0.3425  0.0587
 3419SOL    HW121893   0.330   4.430   7.984 -0.8065  2.3604 -0.1631
 3419SOL    HW221894   0.307   4.491   7.852  2.3716  0.4948  0.5935
 3420SOL     OW21895   1.299   1.290  13.622  0.5966  0.3221 -0.1158
 3420SOL    HW121896   1.204   1.304  13.629  0.9395  2.4756  0.2260
 3420SOL    HW221897   1.294   1.200  13.592  0.0851  0.3124  0.0010
 3421SOL     OW21898   3.462   1.757  15.854  0.4508  0.0147 -0.2622
 3421SOL    HW121899   3.543   1.786  15.896  0.4723 -0.4469  0.0039
 3421SOL    HW221900   3.415   1.839  15.836  1.3084  0.6516  0.3763
 3422SOL     OW21901   3.713   3.645  12.125 -0.0457 -0.0684 -0.0443
 3422SOL    HW121902   3.696   3.614  12.213  0.4650  0.5206  0.2578
 3422SOL    HW221903   3.682   3.570  12.075 -0.5085  0.5909 -0.7505
 3423SOL     OW21904   3.503   0.805  12.766  0.0633 -0.0439  0.4044
 3423SOL    HW121905   3.581   0.860  12.762 -0.0761  0.4170  4.3087
 3423SOL    HW221906   3.433   0.857  12.805  1.4174  1.4130  0.8631
 3424SOL     OW21907   2.596   2.177   3.533 -0.2212 -0.5146 -1.1639
 3424SOL    HW121908   2.645   2.152   3.454  0.4364 -1.8495 -0.3349
 3424SOL    HW221909   2.522   2.219   3.489  0.0946 -1.4097 -2.5340
 3425SOL     OW21910   3.230   1.380   2.235  0.4704  0.1950 -0.1915
 3425SOL    HW121911   3.214   1.302   2.288 -0.3055 -0.0648 -0.8195
 3425SOL    HW221912   3.223   1.445   2.305 -1.1402 -2.2287  1.8616
 3426SOL     OW21913   4.615   3.233   6.752  0.1508  0.1887 -0.3408
 3426SOL    HW121914   4.608   3.147   6.710 -1.1748 -0.6501  1.5892
 3426SOL    HW221915   4.659   3.280   6.682 -2.0899  1.4611 -0.8883
 3427SOL     OW21916   0.965   3.267   8.345 -0.5987 -0.2684  0.3552
 3427SOL    HW121917   0.964   3.171   8.345  0.0649 -0.2784  0.2288
 3427SOL    HW221918   1.025   3.301   8.278  0.4038 -0.8318  0.9621
 3428SOL     OW21919   3.696   0.941   8.746  0.2576 -0.0453 -0.1110
 3428SOL    HW121920   3.740   0.986   8.674  1.6651 -1.3509 -0.0711
 3428SOL    HW221921   3.617   0.994   8.755 -0.2866 -0.6402 -1.3794
 3429SOL     OW21922   2.431   4.055  14.694  0.1936  0.2450 -0.6235
 3429SOL    HW121923   2.489   4.079  14.766 -1.4433 -0.1749  0.8287
 3429SOL    HW221924   2.440   3.960  14.688 -0.9506  0.2053 -1.8338
 3430SOL     OW21925   3.572   1.924   3.060 -0.0466 -0.5664  0.3337
 3430SOL    HW121926   3.648   1.969   3.098 -0.1912  0.6175 -0.7567
 3430SOL    HW221927   3.529   1.994   3.011 -0.2452 -0.1844  1.0619
 3431SOL     OW21928   2.952   4.255   4.491  0.4942 -0.0870 -0.4173
 3431SOL    HW121929   2.884   4.299   4.440 -0.1172 -0.2276  0.2581
 3431SOL    HW221930   2.944   4.168   4.453  1.4669 -0.4851  0.2997
 3432SOL     OW21931   3.390   4.729   8.808 -0.4070 -0.3818 -0.6093
 3432SOL    HW121932   3.401   4.733   8.713  2.0172  0.0858 -0.3066
 3432SOL    HW221933   3.319   4.666   8.820 -0.7279 -0.2276 -1.6220
 3433SOL     OW21934   4.309   4.567   3.640  0.5098  0.4332  0.6873
 3433SOL    HW121935   4.223   4.604   3.658 -0.3034 -1.2367  0.1428
 3433SOL    HW221936   4.305   4.488   3.694 -0.0312 -0.8347 -1.2389
 3434SOL     OW21937   3.097   0.593   7.730 -0.8881 -0.1968  0.2168
 3434SOL    HW121938   3.111   0.688   7.739 -1.6027  0.1233 -2.0867
 3434SOL    HW221939   3.084   0.579   7.636 -2.8880 -1.6516  0.7177
 3435SOL     OW21940   0.095   4.616   2.078 -0.1020  0.2908 -0.3214
 3435SOL    HW121941   0.113   4.612   2.172  0.5661  0.3961 -0.4438
 3435SOL    HW221942   0.182   4.600   2.040 -0.5446 -1.9368 -0.4023
 3436SOL     OW21943   4.339   2.096  12.769  0.0969 -0.3215  0.1555
 3436SOL    HW121944   4.255   2.095  12.722  0.9422 -1.1199 -1.3372
 3436SOL    HW221945   4.365   2.004  12.761  2.5021  0.3111  0.9429
 3437SOL     OW21946   0.371   0.147   0.286 -0.3041 -0.0718  0.0296
 3437SOL    HW121947   0.466   0.148   0.270 -0.2508  0.4510  0.4038
 3437SOL    HW221948   0.367   0.134   0.380 -0.2012 -2.3193 -0.2638
 3438SOL     OW21949   2.547   0.942  11.464 -0.4618  0.3586 -0.6831
 3438SOL    HW121950   2.502   0.871  11.419  1.0671 -0.7208 -0.4691
 3438SOL    HW221951   2.560   0.912  11.554 -0.6883 -0.7672 -1.0263
 3439SOL     OW21952   3.529   4.070   2.875  0.6014  0.5256 -0.5552
 3439SOL    HW121953   3.457   4.015   2.905  2.3921 -0.6506  1.5992
 3439SOL    HW221954   3.522   4.054   2.781  0.2546  0.3326 -0.4966
 3440SOL     OW21955   3.863   1.963   0.331 -0.1063 -0.5034 -0.3025
 3440SOL    HW121956   3.840   1.939   0.421  1.7785  0.8329  0.5352
 3440SOL    HW221957   3.805   1.897   0.293 -0.3366 -1.4906  1.7449
 3441SOL     OW21958   4.611   0.014   6.696  0.0815  0.0275 -0.0433
 3441SOL    HW121959   4.639   0.099   6.660 -0.8956 -0.8765 -2.9368
 3441SOL    HW221960   4.693   4.718   6.730 -0.9821 -2.7366 -0.3190
 3442SOL     OW21961   2.636   0.372   1.313 -0.0274  0.0035 -0.0130
 3442SOL    HW121962   2.600   0.447   1.361 -0.9165 -0.5481  0.1760
 3442SOL    HW221963   2.728   0.395   1.300  0.5877 -1.3161  2.0600
 3443SOL     OW21964   0.206   3.999   2.863  0.9423 -0.2056  0.0455
 3443SOL    HW121965   0.182   4.091   2.874  2.2716  0.4197 -2.2432
 3443SOL    HW221966   0.123   3.951   2.865  0.6954  0.2325  0.4414
 3444SOL     OW21967   4.235   1.475   8.564  0.0949 -0.0629 -0.5519
 3444SOL    HW121968   4.313   1.435   8.525  0.6865 -0.1022  0.6638
 3444SOL    HW221969   4.241   1.563   8.526  0.1934 -0.0935 -0.6082
 3445SOL     OW21970   3.402   4.224   8.353  0.4383 -0.4263  0.6232
 3445SOL    HW121971   3.475   4.163   8.346  1.8565  1.4502 -0.7707
 3445SOL    HW221972   3.333   4.171   8.394 -0.8322  0.9358  0.2595
 3446SOL     OW21973   3.831   3.035   0.359  0.0721 -0.9483  0.6058
 3446SOL    HW121974   3.814   3.036   0.454 -2.1727 -3.5364  0.2283
 3446SOL    HW221975   3.748   3.018   0.315 -0.7292  1.6850  1.0965
 3447SOL     OW21976   1.908   2.579  10.716  0.4158 -0.1631 -0.2774
 3447SOL    HW121977   1.817   2.577  10.746  1.1602  2.4198  2.1391
 3447SOL    HW221978   1.916   2.488  10.686 -3.0871 -0.3701 -0.6326
 3448SOL     OW21979   3.857   2.325   4.219 -0.3000 -0.1594  0.1078
 3448SOL    HW121980   3.823   2.376   4.293  1.2686  1.3062 -0.1844
 3448SOL    HW221981   3.879   2.403   4.168 -1.6396 -1.0759 -1.8795
 3449SOL     OW21982   2.189   0.852  17.615 -0.4276 -0.5722 -0.1322
 3449SOL    HW121983   2.241   0.784  17.571 -0.5620 -0.8450  0.1328
 3449SOL    HW221984   2.257   0.916  17.635  0.9986 -1.9415 -0.5979
 3450SOL     OW21985   4.445   2.953   2.383 -0.1254  0.3485 -0.1714
 3450SOL    HW121986   4.468   3.028   2.436 -1.0672  0.9328 -0.5839
 3450SOL    HW221987   4.502   2.967   2.307 -0.4357  0.5677 -0.3627
 3451SOL     OW21988   0.884   4.288   0.250 -0.0927  0.5956 -0.2228
 3451SOL    HW121989   0.858   4.380   0.261 -1.6253  0.2721 -1.1428
 3451SOL    HW221990   0.973   4.299   0.217  0.0147  0.2008 -0.0616
 3452SOL     OW21991   3.184   3.942   7.075 -0.0663  0.3716  0.0472
 3452SOL    HW121992   3.202   3.848   7.068 -1.4335  0.2407 -1.4333
 3452SOL    HW221993   3.215   3.973   6.990 -0.1149  1.4450  0.4167
 3453SOL     OW21994   3.101   3.102   6.696  0.0731  0.5893  0.1994
 3453SOL    HW121995   3.016   3.065   6.672 -0.9678  0.1733  4.5969
 3453SOL    HW221996   3.109   3.182   6.644  1.3214  0.3235 -0.0272
 3454SOL     OW21997   1.891   2.836  15.700  0.0430 -0.6517  0.1152
 3454SOL    HW121998   1.884   2.870  15.611 -1.5959 -2.7288 -0.5611
 3454SOL    HW221999   1.898   2.918  15.748  0.0160 -1.8326  2.1253
 3455SOL     OW22000   0.897   3.918   5.433 -0.3246 -0.3792 -0.0139
 3455SOL    HW122001   0.923   3.833   5.469 -1.5583  0.1834  2.1946
 3455SOL    HW222002   0.959   3.985   5.462 -0.0496  0.0370 -1.5398
 3456SOL     OW22003   4.415   1.890   7.965 -0.3374  0.0600 -0.3052
 3456SOL    HW122004   4.342   1.931   7.918  0.7402  0.6788 -1.4253
 3456SOL    HW222005   4.486   1.913   7.906 -1.3074 -0.3381 -1.6266
 3457SOL     OW22006   1.940   2.804   8.049  0.1389 -0.3186  0.5535
 3457SOL    HW122007   1.960   2.808   8.142  1.4783 -0.7061  0.2935
 3457SOL    HW222008   2.022   2.775   8.008 -0.0213 -0.4986  0.3567
 3458SOL     OW22009   3.113   1.551   8.357  0.0901 -0.2413 -0.4020
 3458SOL    HW122010   3.195   1.587   8.322  0.1914  0.8733  0.9622
 3458SOL    HW222011   3.123   1.469   8.308 -4.5442 -0.3545 -1.1005
 3459SOL     OW22012   1.684   0.779   7.459  0.1737  0.1999  0.2490
 3459SOL    HW122013   1.625   0.716   7.417  0.8631  0.0550 -0.5180
 3459SOL    HW222014   1.758   0.722   7.480  0.3256 -0.0599 -0.9844
 3460SOL     OW22015   2.138   3.703  12.083 -0.1733  0.5354  0.5881
 3460SOL    HW122016   2.217   3.756  12.081 -0.9985  1.6819 -1.4193
 3460SOL    HW222017   2.071   3.743  12.028  0.6117  1.8010  0.5441
 3461SOL     OW22018   0.057   0.145   3.796  0.0033  0.6816  0.0390
 3461SOL    HW122019   4.705   0.128   3.769 -0.4116  0.4123  1.5572
 3461SOL    HW222020   0.032   0.224   3.843 -0.5732  1.8674 -2.2989
 3462SOL     OW22021   1.277   4.421   3.600 -0.2675 -0.2374 -0.0925
 3462SOL    HW122022   1.222   4.344   3.587  2.2149 -2.0187 -0.1161
 3462SOL    HW222023   1.351   4.381   3.646  1.1116  1.6591 -0.6513
 3463SOL     OW22024   4.033   3.451   8.480 -0.5176  0.3842  0.1102
 3463SOL    HW122025   4.050   3.403   8.561  0.3691  0.8143  0.1851
 3463SOL    HW222026   3.952   3.418   8.441 -0.2788  2.0396 -1.7687
 3464SOL     OW22027   0.085   2.118  15.286 -0.2519  0.7844 -0.0221
 3464SOL    HW122028   0.162   2.175  15.278 -0.3825  1.2576  2.0785
 3464SOL    HW222029   0.049   2.116  15.197 -0.2828  0.5818 -0.0054
 3465SOL     OW22030   0.911   0.517   6.822  0.0827 -0.0161 -0.5459
 3465SOL    HW122031   0.954   0.574   6.886 -1.0394  1.2228 -0.9114
 3465SOL    HW222032   0.961   0.436   6.833  1.4355  1.2849  2.8626
 3466SOL     OW22033   2.174   0.542   4.332 -0.4016 -0.5319  0.2184
 3466SOL    HW122034   2.118   0.518   4.258  0.5958  1.1654 -1.0754
 3466SOL    HW222035   2.129   0.496   4.403 -2.0668 -1.6998 -1.5749
 3467SOL     OW22036   2.465   3.784   5.117 -0.0509 -0.1597  0.1223
 3467SOL    HW122037   2.494   3.726   5.188  1.8383  1.6142  0.8211
 3467SOL    HW222038   2.371   3.769   5.117  0.1429 -1.3759 -1.3109
 3468SOL     OW22039   1.056   2.524  12.483  0.8002 -0.9375 -0.7227
 3468SOL    HW122040   1.010   2.457  12.534 -1.3504  1.7865  0.9748
 3468SOL    HW222041   0.985   2.559  12.430  1.0385  0.3956 -0.1720
 3469SOL     OW22042   2.241   3.534  17.693  0.6381 -0.3215 -0.1409
 3469SOL    HW122043   2.311   3.594  17.718  1.7860 -1.7071 -0.0356
 3469SOL    HW222044   2.286   3.450  17.692  1.7219  0.2459  3.4405
 3470SOL     OW22045   3.359   3.548   5.993 -0.1251 -0.5105 -0.5191
 3470SOL    HW122046   3.360   3.559   5.898  0.8043  1.3603 -0.3033
 3470SOL    HW222047   3.427   3.614   6.007  0.3634 -0.3752 -3.6081
 3471SOL     OW22048   3.626   4.224   2.324 -0.4886 -0.2682 -0.6048
 3471SOL    HW122049   3.692   4.294   2.325  1.2878 -2.0035  2.4809
 3471SOL    HW222050   3.674   4.146   2.295  1.5332  0.2684  1.3472
 3472SOL     OW22051   4.175   4.170   5.679 -0.1769  0.2597  0.3109
 3472SOL    HW122052   4.262   4.131   5.679 -0.4143 -0.2763  0.6212
 3472SOL    HW222053   4.153   4.153   5.771 -1.7502  1.6240  0.1924
 3473SOL     OW22054   3.394   1.252  11.735  0.4532 -0.1915  0.0844
 3473SOL    HW122055   3.440   1.176  11.771  0.6155 -1.1242 -2.0764
 3473SOL    HW222056   3.350   1.282  11.814  1.1981 -1.2917  0.9077
 3474SOL     OW22057   3.434   1.044   2.771 -0.1663  0.1031 -0.0606
 3474SOL    HW122058   3.398   1.011   2.689 -0.8639 -0.7387  0.5822
 3474SOL    HW222059   3.378   1.022   2.845 -1.5134 -2.4710 -1.8498
 3475SOL     OW22060   3.373   2.091   4.530 -0.3126  0.6596  0.1777
 3475SOL    HW122061   3.390   2.046   4.448  0.2925  0.9833  0.1258
 3475SOL    HW222062   3.380   2.027   4.601 -0.4619  1.0612  0.5557
 3476SOL     OW22063   1.556   2.594  13.315  0.2078 -0.1516  0.3337
 3476SOL    HW122064   1.479   2.590  13.372 -0.4615  1.8747 -0.4260
 3476SOL    HW222065   1.504   2.594  13.235 -0.2914 -3.9747  0.6718
 3477SOL     OW22066   3.600   2.731   5.551  0.2575 -0.0993 -0.3837
 3477SOL    HW122067   3.531   2.796   5.539  1.7140  1.3571 -0.8847
 3477SOL    HW222068   3.603   2.721   5.646  0.0053  0.2506 -0.3409
 3478SOL     OW22069   4.474   1.974  13.259 -0.1305 -0.0549 -0.5036
 3478SOL    HW122070   4.438   2.025  13.332 -0.2539  0.1253 -0.6929
 3478SOL    HW222071   4.444   1.885  13.279  1.7657 -0.6063 -0.0671
 3479SOL     OW22072   1.167   4.037   2.825 -0.4450 -0.3545  0.0210
 3479SOL    HW122073   1.181   4.048   2.920 -3.2152  0.9141  0.2878
 3479SOL    HW222074   1.085   4.086   2.816 -0.0647  0.2239 -0.3097
 3480SOL     OW22075   2.930   2.904   5.040  0.0654 -1.0435 -0.2665
 3480SOL    HW122076   2.975   2.876   4.960  4.1667  1.9508  0.9909
 3480SOL    HW222077   2.989   2.966   5.082 -1.3733  0.1160  0.0489
 3481SOL     OW22078   3.766   4.680   5.443 -0.1339  0.5859  0.4870
 3481SOL    HW122079   3.763   4.649   5.533  1.2064 -1.2684 -0.1105
 3481SOL    HW222080   3.768   4.594   5.401 -2.4572  1.0179 -0.4876
 3482SOL     OW22081   3.062   4.257   7.562  0.2888  0.1690 -0.2989
 3482SOL    HW122082   3.021   4.338   7.594 -3.0099 -1.6361  0.0517
 3482SOL    HW222083   2.993   4.221   7.506  0.0733 -1.6633  1.1535
 3483SOL     OW22084   3.538   3.949   0.273 -0.7101  0.3398  0.3778
 3483SOL    HW122085   3.537   4.000   0.192 -0.4843  1.7066  1.2304
 3483SOL    HW222086   3.560   4.020   0.334 -3.1355  0.6938  0.8796
 3484SOL     OW22087   2.432   4.067   0.046  0.2899  0.5736  0.1886
 3484SOL    HW122088   2.499   4.105  17.740  1.2381 -1.8339 -0.2956
 3484SOL    HW222089   2.393   4.014  17.727  1.4927 -0.7257  0.5022
 3485SOL     OW22090   2.040   4.029   4.670  0.1638  0.5826  0.0843
 3485SOL    HW122091   2.068   4.088   4.741  1.8786 -0.6444  0.4314
 3485SOL    HW222092   1.948   4.022   4.693 -0.2335 -1.3835 -2.2093
 3486SOL     OW22093   3.982   3.115   5.754  0.0953 -0.1456 -0.2541
 3486SOL    HW122094   3.933   3.189   5.717 -1.6581 -0.7477  0.8654
 3486SOL    HW222095   3.927   3.038   5.738 -0.2882  0.6028 -2.4640
 3487SOL     OW22096   3.392   2.346   5.416  0.1171  0.1426  0.5348
 3487SOL    HW122097   3.316   2.379   5.464  0.0488  2.6785 -1.3701
 3487SOL    HW222098   3.464   2.397   5.452  1.1619 -0.3316 -0.8500
 3488SOL     OW22099   1.525   2.932   3.964  0.4737  0.0411 -0.1496
 3488SOL    HW122100   1.492   2.914   4.052 -1.1093  0.2986 -0.6936
 3488SOL    HW222101   1.593   2.994   3.989  0.1744  0.1625  0.3682
 3489SOL     OW22102   4.375   0.142   9.675 -0.3943  0.1180 -0.1594
 3489SOL    HW122103   4.389   0.194   9.596  0.9998  0.2377  0.1788
 3489SOL    HW222104   4.379   0.205   9.747  1.1844  0.9093 -0.9615
 3490SOL     OW22105   1.984   1.318   6.430  0.1252  0.0980  0.1203
 3490SOL    HW122106   1.922   1.295   6.499 -1.1769  1.5703 -0.5516
 3490SOL    HW222107   2.063   1.270   6.455  1.1138  1.7575  0.2164
 3491SOL     OW22108   0.554   3.575   0.420  0.6648  0.0806  0.3865
 3491SOL    HW122109   0.540   3.522   0.342  0.3779 -1.2689  1.3540
 3491SOL    HW222110   0.514   3.511   0.479 -0.9192 -0.3894 -1.2253
 3492SOL     OW22111   3.800   2.040   3.203  0.3008  0.3011  0.3103
 3492SOL    HW122112   3.872   1.996   3.157  1.3663 -0.1138  2.3647
 3492SOL    HW222113   3.844   2.052   3.287  1.7277 -1.3994 -0.1891
 3493SOL     OW22114   2.145   0.534  17.274 -0.5342  0.4735 -0.0917
 3493SOL    HW122115   2.061   0.491  17.292  0.0140 -0.1978  0.8739
 3493SOL    HW222116   2.171   0.568  17.360 -0.2733  0.0530 -0.0078
 3494SOL     OW22117   1.925   2.900   1.626 -0.6419 -0.4378 -0.1763
 3494SOL    HW122118   2.012   2.859   1.627 -0.6211 -0.3535  1.3292
 3494SOL    HW222119   1.917   2.931   1.717 -0.5591  0.3487 -0.4353
 3495SOL     OW22120   3.526   1.111   5.225 -0.2739  0.3804 -0.5910
 3495SOL    HW122121   3.517   1.189   5.170  0.5664 -0.5795 -2.1154
 3495SOL    HW222122   3.543   1.045   5.157  0.5623 -0.6187  0.5992
 3496SOL     OW22123   3.475   4.183  12.797 -0.0952  0.3796  0.0204
 3496SOL    HW122124   3.476   4.124  12.872  0.2962  1.0818  0.5691
 3496SOL    HW222125   3.567   4.167  12.776 -0.1911  1.0255 -0.8909
 3497SOL     OW22126   1.638   0.281  15.581  0.1750 -0.1461  0.0155
 3497SOL    HW122127   1.596   0.232  15.652  1.7225  1.9436  2.3954
 3497SOL    HW222128   1.709   0.337  15.611  0.8707 -1.7640  1.4579
 3498SOL     OW22129   3.434   0.402   3.586  0.0726  0.3873 -0.1392
 3498SOL    HW122130   3.374   0.351   3.531 -1.5077  1.3503  0.7071
 3498SOL    HW222131   3.377   0.478   3.578  0.9103  0.7617 -2.6001
 3499SOL     OW22132   3.320   1.430   4.919 -0.0014 -0.0012  0.3006
 3499SOL    HW122133   3.338   1.487   4.994 -0.9965 -0.0702  0.5856
 3499SOL    HW222134   3.228   1.408   4.929 -0.2619  0.5232 -0.8858
 3500SOL     OW22135   4.608   4.371  10.417  0.2397  0.0736  0.0601
 3500SOL    HW122136   4.517   4.355  10.440 -0.3427  0.9026 -1.6862
 3500SOL    HW222137   4.589   4.389  10.325 -0.7573 -1.8563 -0.1066
 3501SOL     OW22138   4.436   2.489  12.436 -0.5016 -0.5636 -0.4066
 3501SOL    HW122139   4.439   2.433  12.359 -1.9636 -0.2896 -0.6520
 3501SOL    HW222140   4.395   2.427  12.497  0.8568  0.8343  1.9492
 3502SOL     OW22141   3.645   3.188   4.203  0.3602 -0.7622  0.3265
 3502SOL    HW122142   3.685   3.156   4.122  0.0272  2.0103 -0.9541
 3502SOL    HW222143   3.565   3.218   4.161 -0.4300 -0.8614  1.7605
 3503SOL     OW22144   3.431   0.953   3.782  0.6718  0.3564 -0.1620
 3503SOL    HW122145   3.516   0.931   3.820 -0.2048 -1.8503  0.5134
 3503SOL    HW222146   3.386   0.984   3.861 -3.4971 -0.7837 -2.0957
 3504SOL     OW22147   3.645   3.290   7.091  0.0920 -0.4708  0.3301
 3504SOL    HW122148   3.620   3.347   7.163 -1.1523 -0.4472 -0.1145
 3504SOL    HW222149   3.633   3.207   7.137 -0.4569 -0.9592 -0.6978
 3505SOL     OW22150   3.137   3.896   5.264  0.3796 -0.5380 -0.4992
 3505SOL    HW122151   3.189   3.920   5.187  0.6452  1.9056  0.4584
 3505SOL    HW222152   3.213   3.884   5.320 -1.3787 -2.2425  1.5551
 3506SOL     OW22153   1.170   0.134  17.539 -0.2280  0.0122  0.5447
 3506SOL    HW122154   1.153   0.046  17.506 -2.2333  0.1608  1.1673
 3506SOL    HW222155   1.254   0.151  17.496  0.3117 -1.3645  1.0614
 3507SOL     OW22156   4.041   3.107  16.340  0.1849 -0.3960 -0.5179
 3507SOL    HW122157   4.071   3.063  16.261 -2.7185  1.1690 -2.5190
 3507SOL    HW222158   3.960   3.058  16.357  0.4467 -0.7309 -0.2461
 3508SOL     OW22159   1.907   3.428   0.434  0.2790 -0.2958 -0.0795
 3508SOL    HW122160   1.979   3.467   0.483 -0.3423 -0.8760  1.2928
 3508SOL    HW222161   1.891   3.497   0.369 -0.2621 -0.7521 -0.4300
 3509SOL     OW22162   3.769   0.561   3.191 -0.3103  0.7815 -0.5663
 3509SOL    HW122163   3.777   0.632   3.129  0.7732  0.2953 -0.9751
 3509SOL    HW222164   3.684   0.574   3.234 -0.4379 -1.4528 -0.1352
 3510SOL     OW22165   2.097   4.327  16.888  0.9358 -0.3471 -0.2806
 3510SOL    HW122166   2.146   4.379  16.825 -0.5168 -1.0608 -2.0106
 3510SOL    HW222167   2.049   4.273  16.825  0.5736 -1.3917  0.8853
 3511SOL     OW22168   2.055   2.158   6.543  0.2272 -0.5717  0.1336
 3511SOL    HW122169   2.039   2.183   6.634  3.1845 -2.1155  1.0814
 3511SOL    HW222170   1.976   2.106   6.525  0.6656 -0.5478 -1.8166
 3512SOL     OW22171   0.685   4.650   3.966 -0.1020  0.1691 -0.2438
 3512SOL    HW122172   0.667   4.565   4.007 -0.2050  0.8361  1.0837
 3512SOL    HW222173   0.781   4.651   3.961  0.1152 -0.1136  3.4288
 3513SOL     OW22174   1.890   3.200   9.413  0.0491  0.3902 -0.2521
 3513SOL    HW122175   1.906   3.141   9.340 -1.8797 -0.4670  0.0271
 3513SOL    HW222176   1.912   3.287   9.380 -0.3952  0.0807 -1.3653
 3514SOL     OW22177   3.825   0.404  13.483  0.1787  0.5315 -0.2727
 3514SOL    HW122178   3.738   0.417  13.522  0.5855 -0.1198  0.8546
 3514SOL    HW222179   3.859   0.490  13.459 -0.1112  0.2483 -1.6450
 3515SOL     OW22180   4.073   3.362  16.267 -0.5347 -0.4704 -0.7608
 3515SOL    HW122181   4.046   3.271  16.284  0.3399 -0.8592 -1.4064
 3515SOL    HW222182   4.030   3.377  16.183  1.5288 -0.7030 -1.8746
 3516SOL     OW22183   3.080   3.352   9.139 -0.4130  0.5415 -0.0542
 3516SOL    HW122184   3.002   3.345   9.085 -1.5073 -0.7119  1.6893
 3516SOL    HW222185   3.140   3.291   9.097  3.0622  2.2944  2.3364
 3517SOL     OW22186   2.087   3.640   0.846  0.7372  0.0217 -0.0345
 3517SOL    HW122187   2.140   3.648   0.926 -0.9397 -0.0938  1.0887
 3517SOL    HW222188   2.070   3.546   0.856  1.6960 -0.0861  0.7060
 3518SOL     OW22189   1.268   1.388   8.560  0.2253  0.2503  0.4191
 3518SOL    HW122190   1.192   1.378   8.617  1.4066 -1.1827  1.7450
 3518SOL    HW222191   1.344   1.377   8.618  1.5998  1.3795 -1.1765
 3519SOL     OW22192   4.203   1.026  10.797  0.3976 -0.1348 -0.0822
 3519SOL    HW122193   4.279   0.981  10.760  0.8802 -0.1809  0.9703
 3519SOL    HW222194   4.194   1.096  10.733  0.3190 -1.8226 -1.9112
 3520SOL     OW22195   1.436   2.131   6.109 -0.9903  0.3676 -0.7533
 3520SOL    HW122196   1.420   2.208   6.053 -0.7835  0.0028 -1.3141
 3520SOL    HW222197   1.508   2.144   6.170  0.3132 -1.0777 -1.9777
 3521SOL     OW22198   1.765   3.650   9.140  0.4505  0.1414  0.5333
 3521SOL    HW122199   1.729   3.699   9.214  0.8928  1.7626 -0.3225
 3521SOL    HW222200   1.746   3.713   9.070  0.3004  0.9781  1.3195
 3522SOL     OW22201   0.711   3.817   5.720  0.0087  0.0257  0.0318
 3522SOL    HW122202   0.658   3.738   5.709  1.2449 -0.7251 -0.6157
 3522SOL    HW222203   0.702   3.868   5.639 -1.6720  0.4273  0.4717
 3523SOL     OW22204   3.614   1.112   4.290 -0.2309  0.0155  0.3350
 3523SOL    HW122205   3.532   1.162   4.284  0.9679  2.0441  0.8251
 3523SOL    HW222206   3.677   1.183   4.303 -1.7062  1.0953  1.6315
 3524SOL     OW22207   3.875   1.538   6.657  0.3218 -0.0706 -0.3303
 3524SOL    HW122208   3.841   1.625   6.638  0.7274 -0.0578 -1.0146
 3524SOL    HW222209   3.792   1.496   6.680  1.1643 -0.6987  1.5448
 3525SOL     OW22210   1.419   4.600   7.458  0.6636  0.3283  0.5418
 3525SOL    HW122211   1.442   4.693   7.455  1.5990 -0.0093 -2.7678
 3525SOL    HW222212   1.416   4.590   7.553  1.0288 -2.0614  0.3133
 3526SOL     OW22213   2.337   3.715   7.525 -0.1025  0.3353 -0.4154
 3526SOL    HW122214   2.368   3.739   7.612  0.0879 -0.1747 -0.3368
 3526SOL    HW222215   2.404   3.657   7.489  2.3191  2.4055  0.7784
 3527SOL     OW22216   3.542   4.320   2.942  0.0708  0.4713 -0.4091
 3527SOL    HW122217   3.539   4.234   2.901 -0.6314  0.1467  0.3249
 3527SOL    HW222218   3.450   4.339   2.958  0.0128  0.9263 -1.2499
 3528SOL     OW22219   2.119   1.252   7.434 -0.2876  0.3163 -0.4086
 3528SOL    HW122220   2.151   1.300   7.510  1.1897 -1.5922  0.1688
 3528SOL    HW222221   2.067   1.321   7.393  1.1998  0.8931 -1.3221
 3529SOL     OW22222   3.731   3.282   2.323 -0.5184 -0.2271 -0.5507
 3529SOL    HW122223   3.760   3.207   2.271  1.9711  0.6891 -0.4828
 3529SOL    HW222224   3.639   3.266   2.341 -0.5045  0.2949 -0.0188
 3530SOL     OW22225   1.210   4.704  12.263 -0.2710 -0.1709 -0.0000
 3530SOL    HW122226   1.305   4.694  12.267 -0.1017  1.8490  1.0508
 3530SOL    HW222227   1.174   4.616  12.265  0.7895 -0.6103 -0.6731
 3531SOL     OW22228   4.067   4.071   3.478 -0.6627  0.2377 -0.2881
 3531SOL    HW122229   4.016   4.063   3.397 -0.6075 -0.7424 -0.2176
 3531SOL    HW222230   4.084   4.165   3.486  1.5309 -0.3339  1.6536
 3532SOL     OW22231   4.273   2.788   2.099  0.6036 -0.3485 -0.4981
 3532SOL    HW122232   4.343   2.751   2.045  2.1900  1.1566  0.5632
 3532SOL    HW222233   4.298   2.880   2.090  1.1935 -0.4702 -0.1282
 3533SOL     OW22234   4.180   3.448   4.889 -0.6458  0.1134  0.6664
 3533SOL    HW122235   4.095   3.419   4.856 -1.1198 -0.7763  2.6628
 3533SOL    HW222236   4.164   3.422   4.979 -3.0564  1.2814  0.5605
 3534SOL     OW22237   3.339   2.376   7.085 -0.1573  0.2142  0.6929
 3534SOL    HW122238   3.410   2.427   7.047 -2.0737  1.1803 -1.5306
 3534SOL    HW222239   3.290   2.443   7.134 -0.3500  1.7047 -1.5652
 3535SOL     OW22240   3.160   0.730   2.032 -0.1997 -0.5096  0.0051
 3535SOL    HW122241   3.076   0.729   2.076 -1.2063 -2.8811 -1.9517
 3535SOL    HW222242   3.173   0.635   2.035  0.4483 -0.4239 -0.0709
 3536SOL     OW22243   3.119   2.855   1.720 -0.2837  0.2820  0.1557
 3536SOL    HW122244   3.048   2.899   1.673  0.6397 -0.9226 -2.3802
 3536SOL    HW222245   3.146   2.926   1.778 -0.2854  0.2887  0.1481
 3537SOL     OW22246   0.503   4.001  11.698 -0.4942 -0.0651  0.8203
 3537SOL    HW122247   0.541   4.087  11.718  1.0114 -1.0678  2.1936
 3537SOL    HW222248   0.410   4.027  11.701 -0.1719  1.6319 -2.8991
 3538SOL     OW22249   3.325   1.815   7.363  0.2858  0.1251 -0.1006
 3538SOL    HW122250   3.360   1.800   7.451  1.6643 -0.7576 -0.8149
 3538SOL    HW222251   3.290   1.730   7.337  0.7346  0.2218 -1.0094
 3539SOL     OW22252   1.951   1.138   5.057  0.6758 -0.0703  0.1363
 3539SOL    HW122253   2.018   1.102   5.000  1.3744  2.0461 -0.3956
 3539SOL    HW222254   1.998   1.176   5.131 -2.1388  1.0442  1.3615
 3540SOL     OW22255   4.114   0.839   5.733  0.2402  0.3371 -0.4920
 3540SOL    HW122256   4.136   0.751   5.702  2.1240  0.4381  0.5210
 3540SOL    HW222257   4.025   0.827   5.765  0.6452 -3.4549 -0.7672
 3541SOL     OW22258   2.118   1.383  14.616 -0.0641  0.2468  0.3616
 3541SOL    HW122259   2.160   1.423  14.540 -1.3330  1.0613  0.1019
 3541SOL    HW222260   2.119   1.451  14.684  0.2084  0.2256  0.3813
 3542SOL     OW22261   4.209   4.467   0.330 -0.7684  0.9447 -0.1393
 3542SOL    HW122262   4.138   4.525   0.302 -1.3873  0.6542  0.8161
 3542SOL    HW222263   4.212   4.403   0.259  0.6028  2.9418 -1.8541
 3543SOL     OW22264   3.607   1.526   4.520 -0.0069 -0.3864 -0.1287
 3543SOL    HW122265   3.620   1.616   4.489 -1.6478 -0.4101 -0.8670
 3543SOL    HW222266   3.595   1.542   4.614  2.5488  1.8664 -0.1908
 3544SOL     OW22267   2.407   3.597  16.868  0.0989 -0.0643 -0.3059
 3544SOL    HW122268   2.385   3.562  16.954 -1.7881  1.5869 -0.1138
 3544SOL    HW222269   2.502   3.610  16.879  0.2615 -0.6285 -1.0895
 3545SOL     OW22270   1.438   3.609   7.824  0.3367  0.2373 -0.0297
 3545SOL    HW122271   1.417   3.694   7.862 -1.8417 -2.2833  4.5637
 3545SOL    HW222272   1.456   3.626   7.732 -0.7362  0.7008 -0.1616
 3546SOL     OW22273   0.844   4.413   5.071 -0.2003  0.1285  0.1777
 3546SOL    HW122274   0.926   4.455   5.094  0.0163  0.3890 -1.0811
 3546SOL    HW222275   0.782   4.484   5.055  0.2128  0.5918  0.6356
 3547SOL     OW22276   0.154   1.937   6.272 -0.2658  0.0266 -0.0445
 3547SOL    HW122277   0.063   1.956   6.296 -1.0380 -3.6317  0.0670
 3547SOL    HW222278   0.157   1.855   6.222  1.4540  0.3450 -0.4696
 3548SOL     OW22279   3.073   4.625   8.885 -0.9541  0.3830 -0.1188
 3548SOL    HW122280   3.039   4.652   8.970 -0.3594 -0.6430  0.4436
 3548SOL    HW222281   3.004   4.661   8.828  0.2950  0.6422 -1.4611
 3549SOL     OW22282   3.317   0.959   2.548 -0.0977 -0.1342  0.3918
 3549SOL    HW122283   3.376   0.888   2.524 -1.5458 -1.4641  0.7869
 3549SOL    HW222284   3.252   0.941   2.479 -0.3203  1.0942  0.2850
 3550SOL     OW22285   4.308   1.709   8.408  0.2729 -0.2769 -0.4519
 3550SOL    HW122286   4.401   1.732   8.408  0.1918  0.0469  0.8665
 3550SOL    HW222287   4.305   1.716   8.313 -1.0555 -1.5824 -0.4925
 3551SOL     OW22288   1.197   1.104  10.180 -0.4989 -0.0884  0.1319
 3551SOL    HW122289   1.292   1.102  10.177 -0.6118  0.6371 -4.0608
 3551SOL    HW222290   1.177   1.119  10.272 -0.8163  0.9493 -0.1056
 3552SOL     OW22291   1.150   3.743   3.047 -1.1184  0.0306 -0.0982
 3552SOL    HW122292   1.167   3.833   3.072  1.1494 -0.8702  1.5483
 3552SOL    HW222293   1.056   3.744   3.030 -1.5844 -0.0282  2.4696
 3553SOL     OW22294   3.549   0.890  10.837  0.4619  0.5757  0.4186
 3553SOL    HW122295   3.515   0.952  10.901  0.0884 -0.9968  1.7347
 3553SOL    HW222296   3.473   0.841  10.807  0.2102  1.6972 -0.7368
 3554SOL     OW22297   2.869   0.764   6.469 -0.1403  0.0542  0.0434
 3554SOL    HW122298   2.876   0.692   6.532 -5.7930 -0.2356  0.3934
 3554SOL    HW222299   2.794   0.727   6.422  1.4185 -1.4950 -1.2211
 3555SOL     OW22300   4.097   0.391   4.184  0.1656 -0.0771  0.0402
 3555SOL    HW122301   4.014   0.396   4.136 -0.7347 -0.1289  1.5802
 3555SOL    HW222302   4.068   0.360   4.270 -1.9784 -0.1713 -0.7041
 3556SOL     OW22303   4.311   0.285   9.118  0.0535  0.3737  0.6798
 3556SOL    HW122304   4.238   0.234   9.152 -0.2236  0.5404  0.3359
 3556SOL    HW222305   4.298   0.363   9.172  0.0880  0.6727  0.2560
 3557SOL     OW22306   4.677   0.958   3.723  0.0045  0.2810 -0.2444
 3557SOL    HW122307   4.622   1.003   3.787 -0.6894  1.9716 -2.0114
 3557SOL    HW222308   4.652   0.867   3.740 -0.5103  0.3850 -0.4385
 3558SOL     OW22309   2.882   3.477   2.407  0.2204 -0.0816 -0.0418
 3558SOL    HW122310   2.922   3.459   2.492  0.5246 -1.2492 -0.4309
 3558SOL    HW222311   2.944   3.432   2.348 -0.4297 -0.5012 -0.4070
 3559SOL     OW22312   3.985   1.649   6.897 -0.3020  0.0289  0.4308
 3559SOL    HW122313   3.961   1.594   6.822  2.4020 -0.2997 -0.1742
 3559SOL    HW222314   4.064   1.694   6.868  0.1462 -1.4165 -0.5614
 3560SOL     OW22315   3.250   3.645  16.110 -0.1543 -0.2804 -0.1567
 3560SOL    HW122316   3.245   3.602  16.196  0.0259  0.1684  0.0786
 3560SOL    HW222317   3.226   3.737  16.116  0.2259 -0.1889 -0.0397
 3561SOL     OW22318   1.338   1.443   6.651 -0.4099 -0.6605 -0.4698
 3561SOL    HW122319   1.304   1.369   6.602 -5.0274  0.9464  0.3397
 3561SOL    HW222320   1.274   1.454   6.722 -0.4982 -0.9544 -0.5038
 3562SOL     OW22321   3.508   4.602  15.404  0.0153 -0.1141  0.5262
 3562SOL    HW122322   3.470   4.645  15.481 -1.4634 -0.3096 -0.0947
 3562SOL    HW222323   3.442   4.625  15.338 -0.8996 -0.1527  1.4189
 3563SOL     OW22324   0.009   4.009   1.391 -0.0769  0.5877 -0.2821
 3563SOL    HW122325   4.704   4.077   1.442  0.5896 -0.5347  1.7637
 3563SOL    HW222326   4.683   3.973   1.329  0.0590  0.0724 -0.1250
 3564SOL     OW22327   1.537   0.629   3.941 -0.0792  0.1061  0.1628
 3564SOL    HW122328   1.509   0.665   3.857 -0.8058 -0.9357 -0.0457
 3564SOL    HW222329   1.556   0.712   3.984 -0.2172 -0.4864  1.3588
 3565SOL     OW22330   0.078   3.088  16.609 -0.2383  0.2788  0.5484
 3565SOL    HW122331   0.087   3.163  16.551  1.4174 -0.7029 -0.4727
 3565SOL    HW222332   0.034   3.128  16.684 -0.1816 -3.4160  2.5538
 3566SOL     OW22333   2.172   4.728   7.537 -0.5242 -0.3868  0.1658
 3566SOL    HW122334   2.126   0.039   7.604  0.4258 -2.0305  2.0101
 3566SOL    HW222335   2.105   4.660   7.531 -0.2605 -0.5782 -0.6615
 3567SOL     OW22336   3.907   1.780   4.976 -0.0543 -0.5491  0.2218
 3567SOL    HW122337   3.970   1.724   5.022 -0.9155 -1.4015  0.3586
 3567SOL    HW222338   3.931   1.759   4.885 -0.4057  0.7462 -0.1609
 3568SOL     OW22339   1.179   3.308  15.321  0.2093 -0.2946 -0.0447
 3568SOL    HW122340   1.114   3.315  15.392  0.6390  0.8044  0.2326
 3568SOL    HW222341   1.252   3.360  15.353 -0.9793  0.5556  1.3233
 3569SOL     OW22342   3.374   0.016   8.257  0.5609 -0.6107  0.1766
 3569SOL    HW122343   3.444   4.702   8.218  0.5803 -0.2504 -0.2705
 3569SOL    HW222344   3.430   0.062   8.319 -0.8027  1.9090 -0.4367
 3570SOL     OW22345   1.787   2.226  17.589  0.3091 -0.2989 -0.5773
 3570SOL    HW122346   1.847   2.165  17.632  1.0134  0.9826  0.2639
 3570SOL    HW222347   1.825   2.252  17.505  1.4438 -0.7908 -0.2209
 3571SOL     OW22348   2.636   3.177   3.190  0.0932  0.1055  0.7315
 3571SOL    HW122349   2.600   3.156   3.276 -1.5205 -1.7834 -0.4053
 3571SOL    HW222350   2.560   3.157   3.135 -0.1880 -0.3192  1.2793
 3572SOL     OW22351   0.050   0.428  12.469 -0.4516  0.1434  0.4864
 3572SOL    HW122352   4.726   0.377  12.417  0.2658  1.7032 -1.9394
 3572SOL    HW222353   0.132   0.410  12.422 -1.1459 -1.1233 -0.2340
 3573SOL     OW22354   1.638   3.053  12.625  0.5101 -0.2109  0.1481
 3573SOL    HW122355   1.616   3.098  12.706 -2.3001 -1.1183 -0.1091
 3573SOL    HW222356   1.655   3.115  12.555  0.2418 -0.6314 -0.2944
 3574SOL     OW22357   3.196   1.011   4.352  0.2892  0.4338  0.2020
 3574SOL    HW122358   3.215   1.040   4.263  1.2053  0.5405  0.4383
 3574SOL    HW222359   3.104   1.037   4.357 -0.0573 -0.5150 -1.5051
 3575SOL     OW22360   3.304   4.722   6.650  0.7332  0.0612  0.0368
 3575SOL    HW122361   3.364   0.057   6.661  0.2603  0.2815  1.1509
 3575SOL    HW222362   3.347   4.653   6.599  0.0951 -0.5958  0.3752
 3576SOL     OW22363   1.822   1.580   3.197  0.0575  0.3159  0.7423
 3576SOL    HW122364   1.896   1.640   3.210 -0.0269  0.7132 -0.5884
 3576SOL    HW222365   1.771   1.629   3.133 -1.0018 -2.9921 -0.9261
 3577SOL     OW22366   1.586   0.653  13.862  0.0967 -0.0266 -0.4676
 3577SOL    HW122367   1.509   0.615  13.905 -2.9147  1.9495 -4.1476
 3577SOL    HW222368   1.559   0.656  13.771 -0.9525 -1.5749 -0.2079
 3578SOL     OW22369   3.603   0.731   0.205  0.2941 -0.2085 -0.0342
 3578SOL    HW122370   3.673   0.791   0.179  0.3013 -0.3656 -0.3875
 3578SOL    HW222371   3.632   0.653   0.157  2.0472  0.7256 -0.5097
 3579SOL     OW22372   1.957   0.541   5.065 -0.2698  0.0954  0.0259
 3579SOL    HW122373   1.992   0.458   5.096  1.6248  0.9050  0.0605
 3579SOL    HW222374   2.036   0.589   5.039 -1.2120  2.1131  0.8918
 3580SOL     OW22375   0.395   3.176   6.044 -0.0461  0.2844 -0.1504
 3580SOL    HW122376   0.300   3.160   6.041  0.4887 -3.3405  3.0426
 3580SOL    HW222377   0.405   3.256   5.993 -1.6401 -0.2323 -1.2950
 3581SOL     OW22378   3.229   0.183  12.336 -0.8681  0.6490 -0.3712
 3581SOL    HW122379   3.227   0.257  12.397  0.5442  1.0206 -0.7744
 3581SOL    HW222380   3.159   0.131  12.375  0.3336 -0.9671 -0.3783
 3582SOL     OW22381   0.522   1.063   4.408 -0.5963 -0.3542 -0.1243
 3582SOL    HW122382   0.578   1.002   4.359  0.7566  0.3846  0.4935
 3582SOL    HW222383   0.437   1.022   4.394 -1.1297  0.6624  0.1487
 3583SOL     OW22384   0.983   2.048   6.257 -0.3655 -0.2648 -0.2358
 3583SOL    HW122385   0.906   2.084   6.301  0.5454 -1.6570  2.5246
 3583SOL    HW222386   1.039   2.125   6.241  1.6601 -1.7055 -0.1042
 3584SOL     OW22387   2.533   4.445   8.949 -0.1900  0.1858 -0.2808
 3584SOL    HW122388   2.469   4.472   8.883 -0.5110  1.1147  0.4095
 3584SOL    HW222389   2.614   4.411   8.910  0.7640 -0.0614  1.9241
 3585SOL     OW22390   1.143   1.734   5.716  0.6056  0.7319  0.0126
 3585SOL    HW122391   1.219   1.762   5.768  0.4669  0.4680  0.3543
 3585SOL    HW222392   1.090   1.680   5.774 -2.1984  0.4993 -2.7387
 3586SOL     OW22393   4.143   3.860   7.679  0.6866 -0.1680 -0.6583
 3586SOL    HW122394   4.064   3.809   7.697 -0.9750  1.9178 -1.8632
 3586SOL    HW222395   4.159   3.858   7.584 -2.1681 -1.7200 -1.0996
 3587SOL     OW22396   3.573   0.682   7.701 -0.4642 -0.2701  0.3921
 3587SOL    HW122397   3.485   0.691   7.665 -1.4908  1.1901  3.2836
 3587SOL    HW222398   3.604   0.604   7.654 -0.8357  0.2399 -0.6890
 3588SOL     OW22399   0.227   3.381   3.044 -0.0291  0.0153  0.0683
 3588SOL    HW122400   0.162   3.321   3.008  0.6611 -1.0814  0.6586
 3588SOL    HW222401   0.284   3.328   3.099  2.7318 -0.3460 -3.1711
 3589SOL     OW22402   1.260   0.424  12.600 -0.1982  0.4452 -0.0433
 3589SOL    HW122403   1.344   0.460  12.572  0.5204 -0.4400  1.0311
 3589SOL    HW222404   1.283   0.392  12.687  1.3593 -0.0665 -0.6635
 3590SOL     OW22405   4.619   4.520  13.383  0.5538 -0.6440 -0.1107
 3590SOL    HW122406   4.573   4.454  13.332 -0.3076  1.1244 -1.6582
 3590SOL    HW222407   4.696   4.527  13.327  0.5116  2.2661  0.1963
 3591SOL     OW22408   3.462   2.974  15.773 -0.5506  0.1125  0.5052
 3591SOL    HW122409   3.497   3.063  15.768 -0.1124  0.0536  2.2311
 3591SOL    HW222410   3.475   2.936  15.686  0.5315  0.4515  0.5174
 3592SOL     OW22411   1.430   0.779   3.341  0.2294  0.0665  0.2808
 3592SOL    HW122412   1.503   0.810   3.394 -1.7638  0.9703  2.4914
 3592SOL    HW222413   1.360   0.837   3.372  0.4230 -0.3824  1.5795
 3593SOL     OW22414   0.860   3.066   2.600 -0.2114  0.1118  0.0567
 3593SOL    HW122415   0.791   3.007   2.567 -2.0302  0.3096  3.5640
 3593SOL    HW222416   0.865   3.037   2.691 -0.6972  1.4555  0.5007
 3594SOL     OW22417   2.456   2.526  15.109 -0.7684 -0.7625  0.1188
 3594SOL    HW122418   2.386   2.462  15.119 -0.3072 -0.8579  2.7713
 3594SOL    HW222419   2.490   2.496  15.024  0.4203  0.2490  0.2374
 3595SOL     OW22420   3.549   2.657   4.377 -0.3016  0.2213  0.0495
 3595SOL    HW122421   3.586   2.743   4.356  0.1885 -0.1563 -0.6234
 3595SOL    HW222422   3.540   2.610   4.294 -0.5272  1.6704 -0.7531
 3596SOL     OW22423   0.013   2.790  17.277 -0.4693 -0.1831 -0.4173
 3596SOL    HW122424   4.702   2.728  17.331  0.4170 -0.1370  0.4310
 3596SOL    HW222425   0.104   2.760  17.285  1.8974  5.6111 -5.5587
 3597SOL     OW22426   4.243   1.294  10.297  0.2151  0.4408  0.2066
 3597SOL    HW122427   4.170   1.314  10.239  0.1817 -2.5122 -0.7326
 3597SOL    HW222428   4.303   1.298  10.223 -0.8974 -3.0861 -0.8662
 3598SOL     OW22429   3.301   4.353   5.119  0.3555  0.1411 -0.2442
 3598SOL    HW122430   3.242   4.423   5.090 -0.8354 -1.1330 -0.9014
 3598SOL    HW222431   3.298   4.352   5.215 -2.8789  0.7023 -0.3409
 3599SOL     OW22432   4.646   0.571   2.455  1.0011 -0.1462 -0.3405
 3599SOL    HW122433   4.654   0.607   2.544 -1.8930  0.1196 -0.1958
 3599SOL    HW222434   4.611   0.484   2.475  2.7298 -0.4439  1.4339
 3600SOL     OW22435   0.518   0.821  12.841 -0.3465  0.1250  0.1077
 3600SOL    HW122436   0.520   0.725  12.846  1.3914  0.1776  0.4572
 3600SOL    HW222437   0.563   0.828  12.925 -0.3287  1.6395 -0.0322
 3601SOL     OW22438   2.327   1.194   3.062 -0.8400 -0.2224  0.6602
 3601SOL    HW122439   2.411   1.224   3.096 -1.7636 -1.2764  3.8440
 3601SOL    HW222440   2.288   1.277   3.034 -0.6276 -0.5323 -0.5715
 3602SOL     OW22441   4.695   3.994  15.967  0.2177  0.0254 -0.3005
 3602SOL    HW122442   4.710   3.910  15.924 -0.6146 -0.1944 -0.1563
 3602SOL    HW222443   0.010   4.057  15.918  0.1352 -1.0873 -1.8051
 3603SOL     OW22444   3.390   4.372   3.221  0.0114  0.3283  0.3739
 3603SOL    HW122445   3.333   4.419   3.282 -1.5015 -0.1959 -0.6393
 3603SOL    HW222446   3.321   4.337   3.165  1.2993 -3.4566  1.1613
 3604SOL     OW22447   1.073   2.411  11.161 -0.1998  0.0236  0.4361
 3604SOL    HW122448   0.984   2.435  11.187 -0.7802 -1.5801 -0.0422
 3604SOL    HW222449   1.087   2.316  11.164  0.5225  0.1046 -0.2468
 3605SOL     OW22450   0.480   1.528   9.034 -0.6082  0.1107  0.0163
 3605SOL    HW122451   0.541   1.553   9.102  0.1454 -0.9314 -0.2826
 3605SOL    HW222452   0.510   1.585   8.962  0.6606  0.3675  0.7490
 3606SOL     OW22453   0.335   0.877   7.030  0.0435 -0.3848  0.4200
 3606SOL    HW122454   0.248   0.849   7.000 -0.8899  3.7556 -0.8226
 3606SOL    HW222455   0.326   0.972   7.024  1.8575 -0.4598 -3.1747
 3607SOL     OW22456   1.091   4.346  12.603 -0.8422 -0.4953 -0.3529
 3607SOL    HW122457   1.072   4.341  12.697 -2.2801 -2.9191 -0.7728
 3607SOL    HW222458   1.005   4.359  12.562 -0.8615 -1.1211 -0.5078
 3608SOL     OW22459   3.129   1.307   8.229  0.1218 -0.1784  0.2792
 3608SOL    HW122460   3.201   1.267   8.180 -0.8229 -1.2464 -0.2333
 3608SOL    HW222461   3.064   1.302   8.159 -0.6703 -0.1099  1.0145
 3609SOL     OW22462   0.334   1.821   5.182  0.1024  0.6322  0.3003
 3609SOL    HW122463   0.335   1.914   5.207  4.0341  0.7601 -0.2712
 3609SOL    HW222464   0.343   1.830   5.087  3.3684  2.5414  0.7615
 3610SOL     OW22465   2.519   3.958   2.923 -0.0383  1.1039  0.1055
 3610SOL    HW122466   2.611   3.973   2.947  0.2661  0.4626 -0.6809
 3610SOL    HW222467   2.479   4.040   2.951  0.1414  0.5199  2.1171
 3611SOL     OW22468   4.387   1.228   5.464  0.0905  0.1597 -0.3003
 3611SOL    HW122469   4.294   1.230   5.444 -0.2429  1.6530  1.3877
 3611SOL    HW222470   4.387   1.172   5.542  3.3189  0.2221 -0.2572
 3612SOL     OW22471   3.956   2.855  16.277  0.2195  0.1534 -0.0045
 3612SOL    HW122472   4.049   2.851  16.255 -0.1265 -1.2711 -1.1729
 3612SOL    HW222473   3.958   2.783  16.340  0.5786  1.7834  1.8555
 3613SOL     OW22474   2.185   1.690   6.608  0.0854 -0.1473  0.4898
 3613SOL    HW122475   2.155   1.765   6.659  2.5553  0.7580  0.6046
 3613SOL    HW222476   2.116   1.631   6.639  1.4430 -0.5676  2.6964
 3614SOL     OW22477   2.749   4.313  11.881 -0.0627  0.2370  0.4264
 3614SOL    HW122478   2.762   4.404  11.908  0.8077  1.2177 -3.3059
 3614SOL    HW222479   2.775   4.328  11.790 -1.1144  2.9653  0.5920
 3615SOL     OW22480   3.932   3.186   7.677 -0.3309  0.1052 -0.0573
 3615SOL    HW122481   3.868   3.229   7.733 -0.4080 -3.5484  2.7307
 3615SOL    HW222482   3.982   3.145   7.748 -1.3624 -0.4791  0.3269
 3616SOL     OW22483   1.368   3.943   1.560 -0.4168 -0.2760 -0.6751
 3616SOL    HW122484   1.328   3.929   1.646 -0.5822  1.8628 -0.3901
 3616SOL    HW222485   1.334   4.031   1.543 -0.6640 -0.1061  0.6432
 3617SOL     OW22486   2.678   0.130   7.628  0.4371  0.7044 -0.2059
 3617SOL    HW122487   2.598   0.095   7.590  1.1195 -1.9650  0.8161
 3617SOL    HW222488   2.661   0.116   7.721 -1.8595 -1.7004 -1.0040
 3618SOL     OW22489   3.073   3.545  14.545  0.1332 -0.5415 -0.0686
 3618SOL    HW122490   3.073   3.560  14.450 -0.3372  1.2073  0.2041
 3618SOL    HW222491   3.029   3.461  14.560 -0.5873  0.2381  2.1445
 3619SOL     OW22492   1.647   4.540   3.647  0.9225  0.0447 -0.1111
 3619SOL    HW122493   1.589   4.466   3.666  1.0123  0.1426  0.5406
 3619SOL    HW222494   1.732   4.495   3.642  0.3886 -0.8764 -1.0576
 3620SOL     OW22495   3.671   3.264  17.696  0.5128  0.5366  0.2461
 3620SOL    HW122496   3.748   3.257   0.002 -1.1951 -1.0245  2.3487
 3620SOL    HW222497   3.621   3.188  17.727  0.0825  0.7063 -0.0270
 3621SOL     OW22498   0.016   4.474   3.656  0.4032  0.5808 -0.2106
 3621SOL    HW122499   0.032   4.380   3.653 -0.2834  0.3828  2.1759
 3621SOL    HW222500   0.056   4.489   3.742  2.0554  1.3729 -1.1268
 3622SOL     OW22501   1.445   0.301   0.063 -0.0728 -0.5263 -0.6027
 3622SOL    HW122502   1.482   0.389   0.054 -2.1142  0.6435  2.4559
 3622SOL    HW222503   1.442   0.277  17.721  2.1602  1.3309 -1.1794
 3623SOL     OW22504   1.010   1.628   2.348  0.0458 -0.1724 -0.1498
 3623SOL    HW122505   0.996   1.628   2.443 -1.9902 -0.5542 -0.4560
 3623SOL    HW222506   1.085   1.572   2.327  0.7680  1.5010 -2.1521
 3624SOL     OW22507   4.267   0.413   6.775  0.0849  0.5377  0.0976
 3624SOL    HW122508   4.248   0.473   6.847 -1.7043 -1.1439  1.0100
 3624SOL    HW222509   4.217   0.333   6.791  0.0327  0.1175 -2.1003
 3625SOL     OW22510   1.600   1.148   3.312  0.4527  0.6073  0.6852
 3625SOL    HW122511   1.626   1.240   3.323  0.0600  0.8369 -0.2519
 3625SOL    HW222512   1.679   1.105   3.344 -0.0780 -1.1315 -0.3644
 3626SOL     OW22513   0.844   3.744   1.104  0.2272 -0.2586  0.6731
 3626SOL    HW122514   0.916   3.804   1.086  0.3750 -0.0199  2.0884
 3626SOL    HW222515   0.788   3.784   1.037 -1.6067 -0.4316  2.1200
 3627SOL     OW22516   0.852   4.245   3.637  0.3477 -0.0701 -0.1024
 3627SOL    HW122517   0.819   4.297   3.564  0.4493 -0.2368 -0.2691
 3627SOL    HW222518   0.773   4.215   3.682 -0.3806 -0.4122 -1.5785
 3628SOL     OW22519   1.117   2.204   4.742 -0.1088  0.0410 -0.1238
 3628SOL    HW122520   1.168   2.140   4.691 -0.3430  0.4810 -0.9107
 3628SOL    HW222521   1.081   2.140   4.803  0.3994  1.0805  1.2498
 3629SOL     OW22522   4.109   1.981   1.631 -0.3518 -0.6853  0.2089
 3629SOL    HW122523   4.204   1.979   1.640 -0.3999 -0.7166  0.7454
 3629SOL    HW222524   4.098   2.033   1.551  1.2631 -0.7326 -0.0337
 3630SOL     OW22525   1.804   3.458  14.087  0.1522  0.5081  0.0446
 3630SOL    HW122526   1.838   3.505  14.011 -1.3640 -1.5458 -1.9052
 3630SOL    HW222527   1.864   3.395  14.127 -0.4755  0.3951  0.8164
 3631SOL     OW22528   4.402   0.991  16.539  0.2854  0.6691 -0.1795
 3631SOL    HW122529   4.353   0.954  16.466  0.8950 -2.3022  0.8813
 3631SOL    HW222530   4.344   1.065  16.560  0.6099  1.5934 -2.6616
 3632SOL     OW22531   1.618   4.181   9.138  0.3103 -0.3760  0.9548
 3632SOL    HW122532   1.616   4.128   9.058 -0.2351  0.6944  0.2410
 3632SOL    HW222533   1.658   4.259   9.098  1.4610 -1.5304 -0.1519
 3633SOL     OW22534   3.965   1.875  17.684 -0.0452 -0.3032  0.1650
 3633SOL    HW122535   4.046   1.866  17.735 -0.6168 -1.5551  0.8585
 3633SOL    HW222536   3.997   1.930  17.612  0.5943 -0.0403  0.6547
 3634SOL     OW22537   3.567   3.515   0.502 -0.1121  0.7899 -0.0607
 3634SOL    HW122538   3.521   3.575   0.560  0.5237  0.6176  0.6356
 3634SOL    HW222539   3.648   3.564   0.489  0.6221 -1.0197 -2.3769
 3635SOL     OW22540   0.979   3.921   8.858 -0.5269 -0.1607  0.5204
 3635SOL    HW122541   0.895   3.928   8.904 -0.7286 -1.0444  0.2726
 3635SOL    HW222542   1.025   3.854   8.908  1.7605 -1.7753 -3.7514
 3636SOL     OW22543   1.160   3.402   3.643  0.1172 -0.4262  0.0233
 3636SOL    HW122544   1.176   3.491   3.612 -1.5588  0.1530  0.8324
 3636SOL    HW222545   1.232   3.380   3.702 -0.4889 -0.2277  0.8315
 3637SOL     OW22546   4.295   0.940   8.747 -0.2754  0.1759 -0.4465
 3637SOL    HW122547   4.345   0.875   8.699 -1.8480 -1.9514  0.8184
 3637SOL    HW222548   4.359   0.969   8.812  1.5367 -0.7996 -1.8065
 3638SOL     OW22549   2.862   0.625   3.573  0.2343  0.5450 -0.1765
 3638SOL    HW122550   2.860   0.532   3.552 -0.6546  0.4459  0.3710
 3638SOL    HW222551   2.808   0.664   3.504  0.9902  1.6373 -0.1495
 3639SOL     OW22552   3.798   1.052  14.693 -0.1951  0.0562  0.5579
 3639SOL    HW122553   3.844   1.033  14.775  1.9181  0.2468 -0.5869
 3639SOL    HW222554   3.881   1.071  14.650 -0.0684 -1.7037 -0.0018
 3640SOL     OW22555   1.113   0.266   6.820  0.0930 -0.3427 -0.3550
 3640SOL    HW122556   1.187   0.324   6.836 -0.5036  0.2576  0.2209
 3640SOL    HW222557   1.162   0.196   6.777 -2.3009 -3.5709  2.1044
 3641SOL     OW22558   3.004   2.982   7.273  0.3330  0.3875  0.7088
 3641SOL    HW122559   3.026   3.038   7.199 -0.5500  1.4145  1.2164
 3641SOL    HW222560   3.047   3.023   7.349  2.3690 -3.4582  1.6484
 3642SOL     OW22561   1.419   0.635   5.199 -0.0423  0.1605  0.0355
 3642SOL    HW122562   1.453   0.723   5.182  1.0508 -0.4939 -1.2688
 3642SOL    HW222563   1.501   0.587   5.213 -0.0285  0.1106 -0.2144
 3643SOL     OW22564   1.277   0.414   6.571 -0.6777 -0.7376  0.7751
 3643SOL    HW122565   1.283   0.329   6.526 -0.3102 -0.0649 -0.4584
 3643SOL    HW222566   1.261   0.477   6.500  1.4611 -0.7438  0.2946
 3644SOL     OW22567   1.584   3.122   7.739  0.4696 -0.0117 -0.2981
 3644SOL    HW122568   1.596   3.097   7.831  0.2370  0.2564 -0.1934
 3644SOL    HW222569   1.523   3.196   7.742  0.7041  0.0171  3.3352
 3645SOL     OW22570   2.391   3.754   8.993  0.2267 -0.0202  0.2639
 3645SOL    HW122571   2.301   3.737   8.966  0.1327  0.6647  0.1572
 3645SOL    HW222572   2.414   3.690   9.061  2.9699 -1.1746 -1.7515
 3646SOL     OW22573   4.309   3.449   1.999 -0.6152 -0.2600  0.2395
 3646SOL    HW122574   4.397   3.413   2.011 -0.5972 -0.2721  0.0592
 3646SOL    HW222575   4.293   3.440   2.093  1.4849 -0.3922  0.5876
 3647SOL     OW22576   2.181   4.502  17.293 -0.3627  0.1049  0.0271
 3647SOL    HW122577   2.132   4.486  17.374  0.1720  0.5537  0.4328
 3647SOL    HW222578   2.118   4.516  17.222 -0.0895  1.8864  0.1546
 3648SOL     OW22579   3.457   0.507   2.443 -0.6700  0.2753  0.2749
 3648SOL    HW122580   3.404   0.579   2.478 -0.1509  0.1890  1.2326
 3648SOL    HW222581   3.464   0.531   2.351  0.0180  2.2838  0.8372
 3649SOL     OW22582   4.042   4.335   6.434  0.0325  0.0104 -0.1426
 3649SOL    HW122583   3.984   4.395   6.480  0.8848  1.0491 -0.4019
 3649SOL    HW222584   4.108   4.329   6.503  1.7073  2.6194 -1.4668
 3650SOL     OW22585   4.654   0.131   4.206 -0.0005  0.5884  0.2506
 3650SOL    HW122586   4.603   0.205   4.238 -0.5481  0.7012 -0.8823
 3650SOL    HW222587   4.719   0.173   4.150 -0.6404 -0.2762 -1.1343
 3651SOL     OW22588   4.516   1.716   2.118  0.6332 -0.0676 -0.4764
 3651SOL    HW122589   4.602   1.736   2.080  0.4470 -1.9464 -1.9002
 3651SOL    HW222590   4.482   1.667   2.043 -0.4573  1.2872 -0.8509
 3652SOL     OW22591   1.145   0.298   6.329  0.3471 -0.2833 -0.1612
 3652SOL    HW122592   1.195   0.266   6.254  3.5633  0.3820  1.6929
 3652SOL    HW222593   1.085   0.226   6.347 -1.4836  1.1359 -0.6154
 3653SOL     OW22594   1.041   0.974  13.372 -0.3041  0.2437  0.3042
 3653SOL    HW122595   1.034   0.962  13.277 -0.3686 -1.3658  0.5018
 3653SOL    HW222596   1.032   1.069  13.373  2.7721  0.5619  0.1907
 3654SOL     OW22597   2.913   4.465   7.679  0.1121 -0.0936 -0.5664
 3654SOL    HW122598   2.881   4.499   7.595  1.4827 -0.0855 -1.0807
 3654SOL    HW222599   2.840   4.426   7.726  0.5513  0.7220  0.7759
 3655SOL     OW22600   0.068   1.247   7.306  0.7559 -0.0801  0.1639
 3655SOL    HW122601   0.108   1.209   7.384  1.8756 -1.8608 -1.3016
 3655SOL    HW222602   0.108   1.332   7.288  2.0758 -0.8695 -0.6341
 3656SOL     OW22603   2.985   1.013   7.793 -0.1292  0.4611 -0.6401
 3656SOL    HW122604   3.002   1.053   7.708  1.6801  1.4424  0.1856
 3656SOL    HW222605   3.053   0.946   7.795 -0.7472 -0.2010 -1.5083
 3657SOL     OW22606   3.045   0.874  17.044 -0.2010 -0.8967 -0.7967
 3657SOL    HW122607   2.950   0.884  17.048  0.1327  2.2263 -0.7401
 3657SOL    HW222608   3.058   0.875  16.949 -0.5585 -1.6940 -0.8554
 3658SOL     OW22609   1.189   0.126   8.790 -0.7068  0.3899 -0.0034
 3658SOL    HW122610   1.197   0.106   8.883  2.4419 -0.9052 -0.5686
 3658SOL    HW222611   1.168   0.040   8.754  0.6721  0.5337 -1.1202
 3659SOL     OW22612   2.957   0.076   4.263 -0.3444  0.4054  0.0720
 3659SOL    HW122613   2.914   0.156   4.234  0.1338  0.4888 -0.4063
 3659SOL    HW222614   3.017   0.099   4.334  0.8637  0.6052 -1.0243
 3660SOL     OW22615   4.478   3.891   2.058 -0.4691  0.5061 -0.7037
 3660SOL    HW122616   4.444   3.976   2.028 -0.7603  0.4443 -0.5466
 3660SOL    HW222617   4.421   3.831   2.010  1.1701 -1.6209  0.0352
 3661SOL     OW22618   2.639   4.694   8.448  0.0209 -0.6491 -0.6930
 3661SOL    HW122619   2.610   4.611   8.485 -0.8409  0.0523  0.2280
 3661SOL    HW222620   2.572   0.010   8.491  0.4108  0.1122 -1.0529
 3662SOL     OW22621   4.107   2.551   2.516 -0.3609 -0.2803 -0.1015
 3662SOL    HW122622   4.082   2.560   2.608  0.1097 -0.7882  0.0718
 3662SOL    HW222623   4.167   2.625   2.509  0.8588 -1.4097 -1.4366
 3663SOL     OW22624   3.751   1.288   2.029 -0.4914 -0.2323 -0.2392
 3663SOL    HW122625   3.833   1.316   1.988  0.6797  0.4966  2.6194
 3663SOL    HW222626   3.741   1.209   1.976 -0.1151  1.3920 -2.7386
 3664SOL     OW22627   4.550   3.472   5.608  0.0249  0.0230  0.7017
 3664SOL    HW122628   4.577   3.502   5.521  0.0020 -0.9181  0.3800
 3664SOL    HW222629   4.490   3.403   5.580 -2.2180  1.4882  1.8505
 3665SOL     OW22630   3.549   1.030  17.573 -0.2389 -0.4266 -0.4681
 3665SOL    HW122631   3.519   0.998  17.488 -1.2928  1.1062 -0.6792
 3665SOL    HW222632   3.585   1.111  17.538 -2.5455  1.6077  1.8578
 3666SOL     OW22633   2.885   1.645  14.074 -0.0942  0.3689  0.6300
 3666SOL    HW122634   2.832   1.572  14.104  2.8695 -1.3567  1.6160
 3666SOL    HW222635   2.837   1.717  14.116  0.2495  0.8877  0.1321
 3667SOL     OW22636   3.577   0.603   5.011 -0.3316 -0.4047 -0.1584
 3667SOL    HW122637   3.616   0.586   5.097 -4.4123 -4.6361  0.8693
 3667SOL    HW222638   3.567   0.516   4.973 -0.6119 -0.2610 -0.4108
 3668SOL     OW22639   3.585   0.374   6.760  0.5462  0.2628  0.4672
 3668SOL    HW122640   3.510   0.430   6.740  0.6681  0.5816  0.8980
 3668SOL    HW222641   3.635   0.430   6.819  2.1584  0.6971 -1.2906
 3669SOL     OW22642   0.728   1.490   7.622  0.0379  0.7352  0.3222
 3669SOL    HW122643   0.740   1.531   7.536 -1.7311  2.8510  1.0767
 3669SOL    HW222644   0.641   1.449   7.618 -0.9728  2.8645  0.3587
 3670SOL     OW22645   2.276   1.616   1.484 -0.0937  0.1685  0.0364
 3670SOL    HW122646   2.347   1.653   1.537 -0.5412 -1.0806  1.5184
 3670SOL    HW222647   2.260   1.683   1.417 -1.6297 -0.1846  0.0535
 3671SOL     OW22648   1.454   2.734   2.905 -1.0348 -0.9012  0.5804
 3671SOL    HW122649   1.537   2.734   2.954 -0.1364  0.0644 -0.9252
 3671SOL    HW222650   1.387   2.740   2.973  1.3734  0.3454  2.8889
 3672SOL     OW22651   4.595   1.863   6.464  0.5898 -0.0216 -1.1763
 3672SOL    HW122652   4.603   1.932   6.398  2.3921  0.2674 -0.6579
 3672SOL    HW222653   4.531   1.805   6.423  0.8558 -0.5846 -0.8071
 3673SOL     OW22654   2.395   3.962   0.281 -0.1490  0.2673 -0.0908
 3673SOL    HW122655   2.410   4.013   0.201  1.4011  0.2345  0.1797
 3673SOL    HW222656   2.301   3.967   0.298 -0.0632 -0.2912  0.5587
 3674SOL     OW22657   4.622   3.445  14.967  0.1363 -0.2691  0.6780
 3674SOL    HW122658   4.670   3.471  14.889 -0.4278  0.6496  0.6322
 3674SOL    HW222659   4.641   3.351  14.966 -0.9292 -0.4621 -1.6035
 3675SOL     OW22660   3.490   1.792   6.277 -0.3095 -0.0341 -0.0450
 3675SOL    HW122661   3.520   1.863   6.220 -3.2777  1.6306  0.4529
 3675SOL    HW222662   3.402   1.771   6.245 -0.2870  1.3150 -0.9867
 3676SOL     OW22663   1.930   2.030  17.700  0.1739 -0.3445  0.3022
 3676SOL    HW122664   1.917   1.936  17.712  1.5630 -0.6631 -0.8255
 3676SOL    HW222665   1.987   2.062   0.020  1.9545 -1.2682 -0.7232
 3677SOL     OW22666   1.250   2.203  16.356  0.1535 -0.3032 -0.3458
 3677SOL    HW122667   1.241   2.132  16.419 -0.7243 -1.5680 -1.9136
 3677SOL    HW222668   1.160   2.235  16.363 -0.1460 -0.8105 -2.0719
 3678SOL     OW22669   0.552   4.172   8.671  0.3320  0.0588  0.1317
 3678SOL    HW122670   0.485   4.105   8.683 -0.4428  0.7727 -0.2328
 3678SOL    HW222671   0.530   4.191   8.580  0.2783  1.1796  0.3747
 3679SOL     OW22672   4.374   2.723  17.633 -0.2140  0.4628 -0.1002
 3679SOL    HW122673   4.388   2.652  17.696  1.6847 -0.5654 -1.6808
 3679SOL    HW222674   4.314   2.780  17.683  1.3251 -0.3485  2.6953
 3680SOL     OW22675   0.279   0.309   2.820 -0.0533  0.0328 -0.6480
 3680SOL    HW122676   0.211   0.307   2.753 -0.4184 -2.6530 -0.2227
 3680SOL    HW222677   0.353   0.351   2.775 -0.0357 -1.7376 -2.2551
 3681SOL     OW22678   2.168   2.923   6.023  0.4819 -0.1459  0.1822
 3681SOL    HW122679   2.225   2.980   6.075  0.3268  0.9052 -0.8089
 3681SOL    HW222680   2.223   2.901   5.948 -1.8737 -2.2328 -0.9504
 3682SOL     OW22681   1.465   2.541   3.566  0.4965  0.0569  0.0493
 3682SOL    HW122682   1.431   2.472   3.509 -1.7373  1.7863 -0.7212
 3682SOL    HW222683   1.420   2.509   3.643  0.5767  0.2836  0.1913
 3683SOL     OW22684   1.235   2.321   3.998 -0.5329  0.1682  0.3333
 3683SOL    HW122685   1.166   2.325   4.064  0.4165  0.7288  1.2994
 3683SOL    HW222686   1.280   2.238   4.014 -0.4954  0.2048  0.4170
 3684SOL     OW22687   1.481   2.147   5.726 -0.7239  0.2302  0.7917
 3684SOL    HW122688   1.576   2.135   5.726 -0.7489  0.0355  1.1380
 3684SOL    HW222689   1.465   2.167   5.819 -1.9692 -0.0586  0.6287
 3685SOL     OW22690   0.288   2.415  11.713  0.4501 -0.2417  0.3517
 3685SOL    HW122691   0.217   2.422  11.777  0.2447 -2.5262  0.3905
 3685SOL    HW222692   0.358   2.365  11.756  0.1064 -1.1936 -0.1898
 3686SOL     OW22693   1.613   2.492   7.977 -0.0407 -0.8564 -0.7243
 3686SOL    HW122694   1.690   2.458   7.931 -1.0846 -1.5797 -1.9593
 3686SOL    HW222695   1.560   2.412   7.976 -0.6072 -0.4862  0.4521
 3687SOL     OW22696   1.626   2.844   7.403  0.4328  0.5344  0.0146
 3687SOL    HW122697   1.678   2.821   7.479 -1.5266 -0.6454  0.9952
 3687SOL    HW222698   1.704   2.831   7.350 -0.6374 -0.8539 -1.2359
 3688SOL     OW22699   2.363   0.208   2.679  0.8267 -0.4871 -0.2697
 3688SOL    HW122700   2.294   0.179   2.739  0.4010  0.9187 -0.1016
 3688SOL    HW222701   2.399   0.120   2.666  1.2289 -0.3163 -0.3090
 3689SOL     OW22702   0.944   0.357   8.366  0.3685 -0.0239 -0.0579
 3689SOL    HW122703   0.943   0.453   8.363 -2.2415 -0.0461 -0.1041
 3689SOL    HW222704   1.022   0.338   8.314  0.3181  0.2354 -0.2303
 3690SOL     OW22705   0.631   1.145  10.746 -0.2282  0.3442 -0.1136
 3690SOL    HW122706   0.676   1.129  10.830 -1.3261 -1.0474  0.1991
 3690SOL    HW222707   0.672   1.226  10.715  0.8933 -1.0230 -2.1448
 3691SOL     OW22708   2.784   1.783   3.979 -0.0574  0.1462 -0.2691
 3691SOL    HW122709   2.774   1.878   3.992 -0.8271 -0.2356  2.0025
 3691SOL    HW222710   2.767   1.750   4.067  0.9822  1.2643  0.3702
 3692SOL     OW22711   0.970   2.890   9.255 -0.4931 -0.1071  0.0577
 3692SOL    HW122712   0.934   2.815   9.303  3.0346 -0.5102  2.0323
 3692SOL    HW222713   1.032   2.933   9.314 -1.8167 -1.1291  2.1986
 3693SOL     OW22714   4.200   0.618   7.035  0.1626 -0.1752  0.5747
 3693SOL    HW122715   4.116   0.644   7.072 -0.5660 -2.6114  0.6321
 3693SOL    HW222716   4.187   0.524   7.043 -0.9917  0.0165  0.8198
 3694SOL     OW22717   1.062   3.601  13.340  0.2308 -0.1427 -0.2152
 3694SOL    HW122718   1.092   3.657  13.411 -1.7850 -0.0515  0.5507
 3694SOL    HW222719   1.136   3.557  13.297  0.5788  0.9425 -0.7213
 3695SOL     OW22720   1.023   2.225   1.020  0.4311 -0.0251  0.1655
 3695SOL    HW122721   1.110   2.233   0.979  1.2900  1.8670  2.3410
 3695SOL    HW222722   1.017   2.143   1.067 -1.5023 -0.2071 -0.3914
 3696SOL     OW22723   1.952   0.154  12.451 -0.4051  0.2554  0.0189
 3696SOL    HW122724   1.989   0.212  12.518 -2.4396  0.7649  0.7152
 3696SOL    HW222725   2.019   0.086  12.442  0.9250  1.3302  1.6265
 3697SOL     OW22726   3.322   2.813   2.372  0.1096 -0.1388 -0.2644
 3697SOL    HW122727   3.405   2.786   2.333 -0.1892 -2.2273  0.5709
 3697SOL    HW222728   3.272   2.734   2.388 -1.1767  0.3630 -1.7906
 3698SOL     OW22729   0.936   0.976   8.562  0.0207 -0.0170 -0.1913
 3698SOL    HW122730   0.880   1.027   8.621 -0.3701  1.1947 -1.5987
 3698SOL    HW222731   0.872   0.958   8.493 -1.6998 -0.2127  1.4491
 3699SOL     OW22732   1.235   3.459   3.012  0.1296 -0.4812  0.0349
 3699SOL    HW122733   1.207   3.542   3.052  1.9658  0.4091 -0.5423
 3699SOL    HW222734   1.161   3.405   3.040  1.8179 -1.1689  3.2378
 3700SOL     OW22735   4.721   3.372   2.414  0.0895 -0.5632  0.5392
 3700SOL    HW122736   4.656   3.416   2.359 -0.1569  0.5072  1.6885
 3700SOL    HW222737   4.730   3.441   2.480  0.1158 -0.8066  0.7865
 3701SOL     OW22738   4.497   1.184   7.487 -0.1453  0.3908  0.6274
 3701SOL    HW122739   4.506   1.123   7.414 -1.8820 -0.3470  1.0165
 3701SOL    HW222740   4.497   1.268   7.441  1.7895 -0.2662 -0.5921
 3702SOL     OW22741   2.188   2.564  15.433 -0.4101  0.5345  0.5846
 3702SOL    HW122742   2.182   2.660  15.432  1.6645  0.5822 -3.7279
 3702SOL    HW222743   2.233   2.550  15.516  0.7436  2.5321  0.3044
 3703SOL     OW22744   1.016   3.181   6.821  0.2410  0.3718 -0.3966
 3703SOL    HW122745   0.991   3.265   6.783 -1.5481 -0.8061 -1.7799
 3703SOL    HW222746   1.011   3.213   6.911  0.4462  1.1299 -0.6488
 3704SOL     OW22747   2.411   4.623   1.899 -0.3717 -0.0534  0.0421
 3704SOL    HW122748   2.505   4.608   1.892 -0.1348  2.6020 -2.7767
 3704SOL    HW222749   2.396   4.717   1.884 -2.1173 -0.0104  2.0250
 3705SOL     OW22750   0.288   2.491   5.285  0.0028  0.0893 -0.2019
 3705SOL    HW122751   0.265   2.538   5.365  2.2128  1.1481 -0.1910
 3705SOL    HW222752   0.380   2.516   5.282 -0.2905  1.1994 -0.2206
 3706SOL     OW22753   4.625   1.957  10.582  0.4198  0.3789 -0.6842
 3706SOL    HW122754   4.572   1.949  10.503 -2.8179  0.6666  1.4525
 3706SOL    HW222755   4.588   2.032  10.627 -1.1180 -0.8955  0.1810
 3707SOL     OW22756   2.982   0.182  11.773  0.4418  0.2205  0.4551
 3707SOL    HW122757   3.013   0.267  11.800  0.5325  0.2442  0.2774
 3707SOL    HW222758   3.010   0.176  11.681  1.6318 -1.9699  0.9522
 3708SOL     OW22759   4.729   4.389   5.325  0.7796  0.1946  0.5399
 3708SOL    HW122760   4.661   4.377   5.390  0.6904  1.7529  0.7297
 3708SOL    HW222761   0.062   4.398   5.388  1.1453 -1.3756  0.3523
 3709SOL     OW22762   1.937   2.920   5.756 -0.5984 -0.8313  0.4387
 3709SOL    HW122763   1.964   3.012   5.759 -0.5912 -0.7464 -2.0825
 3709SOL    HW222764   1.863   2.924   5.695 -0.6889  0.8276  0.6487
 3710SOL     OW22765   4.102   1.251  12.573  0.5036 -0.0295 -0.0150
 3710SOL    HW122766   4.026   1.283  12.622  0.4769 -0.8212  0.4621
 3710SOL    HW222767   4.173   1.250  12.638  0.4170  0.1886  0.0836
 3711SOL     OW22768   0.655   2.084   5.209  0.4585  0.8740 -0.4927
 3711SOL    HW122769   0.737   2.107   5.253  0.4614 -2.5284  1.2773
 3711SOL    HW222770   0.661   1.990   5.226 -1.5704  1.1706  1.8704
 3712SOL     OW22771   0.264   1.279   6.589 -0.0748  0.0122  0.1053
 3712SOL    HW122772   0.225   1.191   6.589 -0.8919  0.3706  2.3739
 3712SOL    HW222773   0.306   1.290   6.504 -0.5603  1.0561 -0.0022
 3713SOL     OW22774   3.775   3.051   5.930 -0.2047  0.1082 -0.4892
 3713SOL    HW122775   3.805   3.142   5.926 -0.8335  0.2740 -1.4943
 3713SOL    HW222776   3.766   3.057   6.025  0.7810  0.3469 -0.4023
 3714SOL     OW22777   0.509   3.437   3.949  0.1242  0.2146 -0.3164
 3714SOL    HW122778   0.595   3.400   3.931 -0.4956 -1.1941 -0.3559
 3714SOL    HW222779   0.529   3.498   4.020 -1.6233 -0.9557  1.1791
 3715SOL     OW22780   3.070   3.297   3.995 -0.5355 -0.1267 -0.3397
 3715SOL    HW122781   3.026   3.372   4.035  2.4107  1.0507  0.7224
 3715SOL    HW222782   3.146   3.324   3.943  0.0504 -0.1834  0.4867
 3716SOL     OW22783   1.092   3.127   4.217 -0.6001  0.1958  0.4311
 3716SOL    HW122784   1.128   3.211   4.190 -0.3642  0.0451  0.2737
 3716SOL    HW222785   1.143   3.067   4.161  1.8752  0.3952  2.4491
 3717SOL     OW22786   2.654   2.105  13.451 -1.0065 -0.2561 -0.5662
 3717SOL    HW122787   2.658   2.178  13.390  1.6084  0.8530  0.9356
 3717SOL    HW222788   2.646   2.150  13.536  0.7156  1.1700 -1.1754
 3718SOL     OW22789   2.329   3.498   8.369 -0.4394 -0.3429 -0.1216
 3718SOL    HW122790   2.272   3.542   8.432  1.8813  1.9045  0.3597
 3718SOL    HW222791   2.414   3.540   8.366  0.0790 -1.4569 -1.0168
 3719SOL     OW22792   0.610   0.144   6.254 -0.3447  0.0950  0.3756
 3719SOL    HW122793   0.627   0.238   6.252 -0.5068  0.1254  0.4140
 3719SOL    HW222794   0.557   0.147   6.334 -2.0010 -3.4187 -0.5669
 3720SOL     OW22795   3.085   3.520   6.345 -0.2080  0.0675  0.0026
 3720SOL    HW122796   3.101   3.614   6.336  1.4710 -0.1492  0.7124
 3720SOL    HW222797   3.107   3.495   6.255  0.4733  1.2643 -0.1632
 3721SOL     OW22798   1.928   0.084   3.451  0.1019  0.0836  0.6203
 3721SOL    HW122799   1.954   0.176   3.441  1.5632 -0.4318 -0.2743
 3721SOL    HW222800   2.015   0.044   3.446  0.0340 -0.3368  2.8378
 3722SOL     OW22801   4.567   1.032   1.534 -0.0439  0.6556  0.2680
 3722SOL    HW122802   4.505   1.091   1.493 -0.0845  0.6251  0.2855
 3722SOL    HW222803   4.497   0.974   1.563  2.1513 -2.1110  0.1362
 3723SOL     OW22804   3.278   1.305   1.460  0.3516 -0.2853  0.1875
 3723SOL    HW122805   3.337   1.274   1.391 -0.9369 -0.2785 -0.9211
 3723SOL    HW222806   3.322   1.386   1.486 -0.4946  0.7316 -1.4856
 3724SOL     OW22807   3.027   3.830  14.536  0.3726  0.7179 -0.4390
 3724SOL    HW122808   3.096   3.764  14.527 -0.6583 -0.4021 -0.2164
 3724SOL    HW222809   3.044   3.872  14.452  1.4708 -3.9079 -2.5519
 3725SOL     OW22810   0.202   3.617   6.687  0.0956  0.2605  0.0381
 3725SOL    HW122811   0.225   3.546   6.747  1.0807  0.7743  0.2713
 3725SOL    HW222812   0.260   3.595   6.614  0.9635  1.7647  0.2581
 3726SOL     OW22813   0.806   2.052   8.778 -0.1551 -0.1488 -0.4074
 3726SOL    HW122814   0.890   2.008   8.791 -1.0195 -2.2553 -1.7993
 3726SOL    HW222815   0.769   2.027   8.862  0.7633 -0.4989 -0.1084
 3727SOL     OW22816   3.999   2.659  15.947 -0.3126 -0.1055  0.3045
 3727SOL    HW122817   3.918   2.617  15.918 -2.6984  2.3161  3.4627
 3727SOL    HW222818   3.956   2.741  15.969 -0.4256  0.5947 -2.5901
 3728SOL     OW22819   2.206   3.507   7.001 -0.0167  0.3826  0.7060
 3728SOL    HW122820   2.219   3.414   6.984 -0.0971  0.2013  1.6563
 3728SOL    HW222821   2.118   3.530   6.970  0.4214 -0.2517 -1.0095
 3729SOL     OW22822   3.319   0.869  13.535  0.3656 -0.0414  0.6857
 3729SOL    HW122823   3.344   0.904  13.621 -0.1487  0.3776  0.6656
 3729SOL    HW222824   3.316   0.949  13.483  0.6340 -0.7653 -0.4526
 3730SOL     OW22825   1.353   4.663   1.366  0.2536 -0.2009 -0.7385
 3730SOL    HW122826   1.390   4.611   1.294  1.2125  1.0242 -1.1182
 3730SOL    HW222827   1.350   0.014   1.333 -2.4309  0.2428  0.7018
 3731SOL     OW22828   2.497   1.014  15.946  0.0706  0.1874 -0.3822
 3731SOL    HW122829   2.529   1.103  15.956  0.2840  0.2678 -1.7318
 3731SOL    HW222830   2.537   0.979  16.025 -0.0892  0.7302 -0.0640
 3732SOL     OW22831   0.490   0.373   8.616  0.1216 -0.1105 -0.5018
 3732SOL    HW122832   0.556   0.429   8.575 -0.2619 -0.7338 -1.9745
 3732SOL    HW222833   0.446   0.432   8.676 -0.1591  0.0861 -0.8974
 3733SOL     OW22834   1.959   2.448  15.541  0.0156 -0.0006 -0.7104
 3733SOL    HW122835   2.003   2.515  15.488  1.0786  0.0320  0.2138
 3733SOL    HW222836   1.875   2.487  15.565  0.9919  1.7722 -0.1848
 3734SOL     OW22837   4.570   4.619   5.937  0.1032  0.0281  0.1046
 3734SOL    HW122838   4.496   4.675   5.911  1.5024  1.6009 -0.5046
 3734SOL    HW222839   4.647   4.674   5.953 -0.9958  1.8993 -0.9044
 3735SOL     OW22840   2.575   3.193  14.220  0.0173  0.0480 -0.2482
 3735SOL    HW122841   2.616   3.141  14.290  0.4481 -1.9710 -1.9974
 3735SOL    HW222842   2.612   3.168  14.136 -0.7056 -1.1255 -0.2110
 3736SOL     OW22843   1.249   3.463  16.414 -0.7705 -0.1426 -0.0275
 3736SOL    HW122844   1.298   3.417  16.345 -0.5203 -1.2163  0.8704
 3736SOL    HW222845   1.178   3.500  16.362 -0.7548 -1.2434 -0.8418
 3737SOL     OW22846   1.432   1.807   9.420 -0.4243  0.1689  0.2958
 3737SOL    HW122847   1.524   1.834   9.417 -0.0272 -1.2301  0.0100
 3737SOL    HW222848   1.418   1.764   9.335  1.1441  0.9285 -0.3466
 3738SOL     OW22849   0.223   0.417   7.569  0.5273  0.0832  0.2719
 3738SOL    HW122850   0.282   0.407   7.644  1.2010 -0.8183 -0.3847
 3738SOL    HW222851   0.276   0.412   7.489 -1.7404 -2.3927 -1.0682
 3739SOL     OW22852   2.590   3.732  14.267  0.1111 -0.0669  0.4366
 3739SOL    HW122853   2.607   3.825  14.251 -0.3256 -0.1227 -0.3599
 3739SOL    HW222854   2.595   3.721  14.362  2.0439 -0.3703  0.2923
 3740SOL     OW22855   3.806   1.098   3.106  0.3022 -0.4726  0.1182
 3740SOL    HW122856   3.882   1.124   3.054  1.1180 -1.9103  0.5634
 3740SOL    HW222857   3.841   1.030   3.164  1.2201 -0.7382 -0.7424
 3741SOL     OW22858   1.870   2.002   7.230 -0.6371  0.0728 -0.3118
 3741SOL    HW122859   1.796   2.039   7.279 -0.2454 -0.4450  0.6852
 3741SOL    HW222860   1.836   1.943   7.163 -2.2636  0.2018  0.4048
 3742SOL     OW22861   1.905   1.935   4.216  0.6584  0.2368  0.3694
 3742SOL    HW122862   1.950   1.855   4.191 -1.1281 -1.0216  1.1488
 3742SOL    HW222863   1.943   2.001   4.158 -0.0323 -1.0488 -1.5242
 3743SOL     OW22864   1.470   2.918  16.046 -0.2034  0.2060  0.2363
 3743SOL    HW122865   1.414   2.842  16.061 -0.7224  0.6794  0.6789
 3743SOL    HW222866   1.557   2.878  16.045  1.0261  2.8576  0.9820
 3744SOL     OW22867   2.544   2.131   7.883 -0.3400 -0.5998  0.0845
 3744SOL    HW122868   2.626   2.084   7.870 -0.2135 -0.8755  1.7961
 3744SOL    HW222869   2.505   2.144   7.797 -1.3249 -1.1730  0.4372
 3745SOL     OW22870   1.686   4.252  13.692  0.1597 -0.3043  0.0342
 3745SOL    HW122871   1.698   4.336  13.648 -1.3065 -0.2331 -0.2349
 3745SOL    HW222872   1.660   4.277  13.780 -2.1021 -1.7172 -0.2453
 3746SOL     OW22873   3.212   3.376   4.978 -0.1639  0.2744  0.5902
 3746SOL    HW122874   3.304   3.379   4.952 -0.2956  1.1241  0.1982
 3746SOL    HW222875   3.164   3.369   4.896  0.5471 -2.6357  0.4564
 3747SOL     OW22876   2.759   4.285   5.090  0.4151  0.4308  0.0611
 3747SOL    HW122877   2.798   4.354   5.037 -0.4278 -1.3020 -2.8137
 3747SOL    HW222878   2.836   4.261   5.141  1.6742  1.2354 -1.5012
 3748SOL     OW22879   1.230   0.035  15.005  0.6344  0.4998 -0.6413
 3748SOL    HW122880   1.287   4.698  14.988  2.5628  1.5271  1.2793
 3748SOL    HW222881   1.245   0.043  15.099 -2.9758 -1.1429  0.0714
 3749SOL     OW22882   3.937   0.692   6.854  0.5038 -0.6920  0.6372
 3749SOL    HW122883   3.852   0.723   6.821  0.5822 -1.1716 -0.0264
 3749SOL    HW222884   3.926   0.602   6.823 -0.6641 -0.2902 -0.1302
 3750SOL     OW22885   4.505   0.126   2.095  0.2770  0.1412 -0.1623
 3750SOL    HW122886   4.463   0.122   2.009  0.7109 -0.0023 -0.3701
 3750SOL    HW222887   4.475   0.209   2.132  1.2531  0.2611  0.3390
 3751SOL     OW22888   3.762   3.466   2.537 -0.4795 -0.0440 -0.1912
 3751SOL    HW122889   3.688   3.464   2.598  0.3103  1.5090  0.8165
 3751SOL    HW222890   3.749   3.390   2.480  0.0667  0.8933 -1.5609
 3752SOL     OW22891   3.982   0.651   4.896 -0.2926 -0.2239  0.4190
 3752SOL    HW122892   3.906   0.702   4.924  0.4349  0.3504  1.3264
 3752SOL    HW222893   3.937   0.568   4.880 -1.1223 -0.0645  1.9857
 3753SOL     OW22894   3.532   3.259   8.167 -0.6983  0.1151 -0.0666
 3753SOL    HW122895   3.579   3.216   8.238 -0.7147  1.7072  0.9100
 3753SOL    HW222896   3.612   3.279   8.118 -0.3977  1.0725  0.8084
 3754SOL     OW22897   4.551   2.045   9.431 -0.1330 -0.4822 -0.1685
 3754SOL    HW122898   4.643   2.049   9.403 -0.1749 -0.3711 -0.2893
 3754SOL    HW222899   4.533   2.132   9.467  0.5489 -0.2737 -0.3168
 3755SOL     OW22900   1.899   3.223   4.322 -0.3413  0.3111 -0.3195
 3755SOL    HW122901   1.804   3.214   4.315 -0.3893 -0.1257  0.9453
 3755SOL    HW222902   1.913   3.245   4.414 -2.3310  1.1300 -0.2163
 3756SOL     OW22903   0.543   1.997   7.267 -0.0037  0.1391  0.5683
 3756SOL    HW122904   0.478   2.066   7.284  1.5775  2.4717 -2.9081
 3756SOL    HW222905   0.481   1.928   7.243  1.2683 -0.8721  0.1865
 3757SOL     OW22906   2.392   0.118   6.542  0.0328  0.0527 -0.2916
 3757SOL    HW122907   2.402   0.115   6.637  0.0182  1.2475 -0.2570
 3757SOL    HW222908   2.345   0.201   6.539 -0.2628 -0.1475 -1.1325
 3758SOL     OW22909   0.074   3.622  10.384 -0.2427 -0.3643 -0.1289
 3758SOL    HW122910   4.720   3.643  10.369 -0.0534 -0.6422 -1.6567
 3758SOL    HW222911   0.101   3.631  10.292  1.9411  0.4239  0.6041
 3759SOL     OW22912   3.460   1.275  12.683  0.1368  0.5167 -0.0094
 3759SOL    HW122913   3.396   1.217  12.725 -1.1667  0.0940 -2.5601
 3759SOL    HW222914   3.461   1.341  12.752  0.8327  0.0488  0.4258
 3760SOL     OW22915   4.044   3.717  13.448  0.3022  0.4061 -0.0867
 3760SOL    HW122916   3.993   3.636  13.449  1.1762 -0.1190  2.5451
 3760SOL    HW222917   4.077   3.704  13.359  2.6853  0.7714  0.7638
 3761SOL     OW22918   0.310   4.440  15.404  0.2496 -0.2988  0.4063
 3761SOL    HW122919   0.403   4.456  15.385 -0.4172  2.5878 -0.4511
 3761SOL    HW222920   0.313   4.413  15.495 -1.2759 -1.9715 -0.0318
 3762SOL     OW22921   1.673   3.208   7.194  0.3436 -0.0166 -0.1289
 3762SOL    HW122922   1.637   3.172   7.275  0.1694 -0.5457 -0.4426
 3762SOL    HW222923   1.745   3.262   7.226 -2.8606  3.4276  1.3032
 3763SOL     OW22924   4.284   4.233   2.493 -0.0909 -0.6392 -0.0659
 3763SOL    HW122925   4.359   4.178   2.474 -0.5145 -1.2139 -0.0556
 3763SOL    HW222926   4.281   4.225   2.588  1.8220  1.3340  0.1603
 3764SOL     OW22927   0.473   1.197   7.790  0.0888  0.1517  0.3210
 3764SOL    HW122928   0.440   1.247   7.715 -2.5255  0.1266  1.4504
 3764SOL    HW222929   0.402   1.134   7.804  0.9402 -0.9591 -0.3468
 3765SOL     OW22930   3.497   4.603   1.588  0.5535 -0.2425  0.5589
 3765SOL    HW122931   3.530   4.515   1.606 -0.4015 -0.6202  0.4588
 3765SOL    HW222932   3.450   4.592   1.506  1.6454  2.5839 -0.4727
 3766SOL     OW22933   2.890   2.144  15.675 -0.8071  0.2448 -0.1746
 3766SOL    HW122934   2.867   2.123  15.584  0.8085  2.7846 -1.1664
 3766SOL    HW222935   2.979   2.179  15.671 -0.9412  0.3639 -2.0002
 3767SOL     OW22936   3.911   0.002   2.848  0.2313  0.1407 -0.1487
 3767SOL    HW122937   3.869   0.083   2.879 -2.0765 -1.0897 -0.0823
 3767SOL    HW222938   3.845   4.679   2.881  0.0101  0.6032  0.2741
 3768SOL     OW22939   1.789   2.599   3.281  0.2338 -0.4590  0.3376
 3768SOL    HW122940   1.700   2.589   3.247  0.3114  3.9370 -1.1410
 3768SOL    HW222941   1.781   2.559   3.368  2.5145  1.0111  1.2215
 3769SOL     OW22942   0.093   2.409   6.583  0.2757  0.2085 -0.6769
 3769SOL    HW122943   0.102   2.487   6.638  0.8043 -0.8817  0.7710
 3769SOL    HW222944   0.172   2.405   6.529  0.2354  2.0358 -0.8815
 3770SOL     OW22945   3.873   3.155   4.355 -0.7287  0.2925  0.0694
 3770SOL    HW122946   3.798   3.186   4.304 -0.6271 -1.1287 -0.9472
 3770SOL    HW222947   3.925   3.106   4.290 -0.9804  0.6386 -0.3949
 3771SOL     OW22948   2.113   2.961   6.941 -0.2627  0.1731  0.4173
 3771SOL    HW122949   2.107   2.954   6.846  0.2089  0.0266  0.3976
 3771SOL    HW222950   2.052   2.894   6.972  0.1999 -0.3568  0.1694
 3772SOL     OW22951   2.196   3.778   3.723  0.7502  0.1223  0.0902
 3772SOL    HW122952   2.197   3.683   3.715  3.1617  0.1826 -0.3134
 3772SOL    HW222953   2.127   3.805   3.663  0.0539 -1.2926  0.2659
 3773SOL     OW22954   3.316   0.049   4.961 -0.3737 -0.2194  0.1201
 3773SOL    HW122955   3.310   4.702   4.918  1.0055  0.3117 -1.1225
 3773SOL    HW222956   3.390   0.040   5.021 -0.6379 -1.3766  0.2748
 3774SOL     OW22957   4.433   2.307  12.246  0.2077  0.4134  0.3429
 3774SOL    HW122958   4.431   2.232  12.304 -3.7550  0.4019  0.1644
 3774SOL    HW222959   4.367   2.282  12.181  0.1901  0.4907  0.3307
 3775SOL     OW22960   2.476   1.594   2.696  0.3999 -0.1522  0.0567
 3775SOL    HW122961   2.530   1.665   2.731 -1.2661  1.4398 -0.6272
 3775SOL    HW222962   2.491   1.522   2.757  0.4916 -0.0547  0.1514
 3776SOL     OW22963   1.920   2.370   3.482  0.5817  0.3923 -0.3007
 3776SOL    HW122964   1.870   2.441   3.524 -0.6589  0.1975 -1.4476
 3776SOL    HW222965   1.966   2.427   3.420  0.9087  2.0611  1.4786
 3777SOL     OW22966   3.877   1.779   6.514 -0.5729  0.1525 -0.5108
 3777SOL    HW122967   3.894   1.842   6.445  0.3981  0.2417 -0.1954
 3777SOL    HW222968   3.817   1.723   6.464 -1.9863  1.5206 -0.3240
 3778SOL     OW22969   1.391   2.385  16.807 -0.5566  0.5234  0.0246
 3778SOL    HW122970   1.318   2.333  16.841 -0.4469 -0.1505 -0.7513
 3778SOL    HW222971   1.355   2.473  16.815  0.3663  1.0066 -1.1804
 3779SOL     OW22972   2.972   1.537   3.387 -0.1819  0.5986  0.3622
 3779SOL    HW122973   2.900   1.481   3.416 -0.5838  1.7104  1.5555
 3779SOL    HW222974   2.988   1.513   3.296 -0.0126  0.8714  0.3186
 3780SOL     OW22975   2.674   2.677   2.033  0.4212 -0.2196 -1.0220
 3780SOL    HW122976   2.730   2.749   2.006 -3.0992  2.2942 -1.5958
 3780SOL    HW222977   2.705   2.621   1.962  0.4870 -0.1120 -1.0777
 3781SOL     OW22978   4.480   2.528   8.899 -0.1528  0.2413 -0.7560
 3781SOL    HW122979   4.523   2.549   8.982 -0.9574  2.1220 -0.8110
 3781SOL    HW222980   4.491   2.433   8.890  0.7781  0.2187  0.6557
 3782SOL     OW22981   3.200   1.606   8.756  0.3633 -0.0766 -0.5964
 3782SOL    HW122982   3.185   1.533   8.695 -0.7772  0.0417 -0.4625
 3782SOL    HW222983   3.291   1.620   8.733  0.7941  1.1697  1.8527
 3783SOL     OW22984   4.735   1.029  17.314 -0.1656 -0.0760 -0.3243
 3783SOL    HW122985   4.650   1.069  17.330 -0.8966 -2.0462  0.5977
 3783SOL    HW222986   4.706   0.944  17.284  0.0766 -0.8766  1.6768
 3784SOL     OW22987   1.480   4.239   4.537  0.4834  0.2884  0.5129
 3784SOL    HW122988   1.502   4.301   4.468 -1.2474 -0.8088 -1.0326
 3784SOL    HW222989   1.508   4.289   4.614  0.0597  1.6976 -0.2482
 3785SOL     OW22990   2.563   1.911   4.755 -0.4626  0.1056 -0.0949
 3785SOL    HW122991   2.555   1.947   4.667  0.1156 -0.7254 -0.4896
 3785SOL    HW222992   2.626   1.840   4.741 -1.8206 -1.4188  1.4473
 3786SOL     OW22993   1.090   3.920   7.578 -0.1507  0.0654  0.0626
 3786SOL    HW122994   1.108   3.835   7.539  1.1240 -0.3297  1.5110
 3786SOL    HW222995   0.995   3.928   7.570 -0.1053 -0.7488 -1.1613
 3787SOL     OW22996   3.772   1.415  11.999 -0.2219  0.1386  0.5099
 3787SOL    HW122997   3.748   1.339  11.946  0.0072  0.9919 -0.8287
 3787SOL    HW222998   3.863   1.393  12.019  0.3063  1.5432 -0.3306
 3788SOL     OW22999   1.250   0.200  16.597  0.3422 -0.3544  0.3444
 3788SOL    HW123000   1.337   0.240  16.594  0.1708  0.0012  0.0713
 3788SOL    HW223001   1.190   0.273  16.581  0.0844 -0.1646  2.1678
 3789SOL     OW23002   3.605   1.111   1.599 -0.3840  0.0492  0.7268
 3789SOL    HW123003   3.513   1.085   1.608 -0.9090  1.0725 -1.6598
 3789SOL    HW223004   3.630   1.077   1.513  0.6366  0.8914  0.6862
 3790SOL     OW23005   4.360   3.213   3.170 -0.1889 -0.0392  0.1747
 3790SOL    HW123006   4.387   3.228   3.261 -0.2986 -2.4838  0.6172
 3790SOL    HW223007   4.434   3.158   3.143 -0.3752 -0.4337  0.4695
 3791SOL     OW23008   0.841   4.072   5.834 -0.2950  0.6081 -0.3433
 3791SOL    HW123009   0.866   4.076   5.926 -1.1771  3.3282 -0.2382
 3791SOL    HW223010   0.827   3.978   5.826  0.6085  0.3514  1.0644
 3792SOL     OW23011   2.660   1.657   6.172 -0.4453  0.3863 -0.1172
 3792SOL    HW123012   2.611   1.576   6.156 -2.1579  1.3014  0.5122
 3792SOL    HW223013   2.705   1.639   6.254  1.6626  0.6336 -1.2194
 3793SOL     OW23014   3.517   1.056   3.537  0.6037  0.0912  0.2498
 3793SOL    HW123015   3.611   1.063   3.525  0.6092 -2.7098 -1.2608
 3793SOL    HW223016   3.490   1.012   3.617  0.3552  0.8804  0.6054
 3794SOL     OW23017   1.300   2.841   3.105 -0.1891 -0.0282 -0.1795
 3794SOL    HW123018   1.231   2.903   3.082 -0.1139 -0.0825 -0.5403
 3794SOL    HW223019   1.355   2.894   3.163 -1.4863  2.4214 -1.1847
 3795SOL     OW23020   0.512   1.712   6.052  0.2733 -0.4228 -0.0648
 3795SOL    HW123021   0.423   1.695   6.083 -0.5372  1.1824 -1.5245
 3795SOL    HW223022   0.515   1.654   5.975 -0.9497 -1.0112  0.3397
 3796SOL     OW23023   0.143   3.388   0.645 -0.2663  0.0856 -0.5173
 3796SOL    HW123024   0.107   3.451   0.707 -1.4673 -1.0684 -0.0350
 3796SOL    HW223025   0.068   3.359   0.593  0.0127 -0.5757 -0.5574
 3797SOL     OW23026   3.691   0.536   0.066  0.1872  0.1277 -0.0553
 3797SOL    HW123027   3.680   0.586  17.736  1.3120 -1.7625 -1.3597
 3797SOL    HW223028   3.652   0.454   0.037  2.3424 -0.3275 -1.6454
 3798SOL     OW23029   1.166   1.007   1.309 -0.0413  0.3315  0.0606
 3798SOL    HW123030   1.247   1.058   1.316  0.0589  0.1955 -0.1306
 3798SOL    HW223031   1.193   0.929   1.262  2.0111  1.9240 -1.4322
 3799SOL     OW23032   4.601   3.853   9.911 -0.0854 -0.0797 -0.2652
 3799SOL    HW123033   4.612   3.945   9.887 -0.4783  0.0525  0.0540
 3799SOL    HW223034   4.609   3.865  10.006  0.6150  0.6985 -0.4256
 3800SOL     OW23035   0.021   3.551   0.833 -0.0129  0.3227  0.1333
 3800SOL    HW123036   4.712   3.528   0.913 -0.5398  1.3854  0.1332
 3800SOL    HW223037   0.062   3.629   0.871 -2.0062  1.4655 -0.0795
 3801SOL     OW23038   1.552   3.799  13.458  0.5284  0.1000  0.1845
 3801SOL    HW123039   1.620   3.865  13.470 -0.1624  1.0622 -1.1900
 3801SOL    HW223040   1.546   3.768  13.549  2.3239  1.3447  0.7250
 3802SOL     OW23041   1.314   4.096   7.060 -0.0414  0.0572  0.1365
 3802SOL    HW123042   1.333   4.161   6.992 -0.9649  0.1779 -0.0055
 3802SOL    HW223043   1.265   4.145   7.127  0.7000  0.2136  0.5746
 3803SOL     OW23044   4.503   4.556   7.924 -0.2741 -0.4306  0.1525
 3803SOL    HW123045   4.430   4.617   7.911 -1.3098 -1.5314  0.7442
 3803SOL    HW223046   4.466   4.468   7.937 -0.1759 -0.2378  1.7413
 3804SOL     OW23047   2.124   0.444  14.376 -0.9393  0.7519  0.2211
 3804SOL    HW123048   2.077   0.473  14.455 -1.1223  2.5507 -0.5474
 3804SOL    HW223049   2.048   0.451  14.318 -0.6245  0.6570 -0.2031
 3805SOL     OW23050   1.588   0.209   8.793 -0.2113 -0.2079 -0.5894
 3805SOL    HW123051   1.658   0.160   8.836  0.4880  0.8145 -0.5815
 3805SOL    HW223052   1.585   0.160   8.711 -3.1056  0.9373 -1.1716
 3806SOL     OW23053   0.984   2.175   9.346  0.2132  0.2051 -0.5912
 3806SOL    HW123054   1.049   2.105   9.342  0.1713  0.2771 -2.7899
 3806SOL    HW223055   0.989   2.204   9.437 -0.9988 -0.8256 -0.2094
 3807SOL     OW23056   0.603   3.323  10.624  0.0367 -0.1568  0.3802
 3807SOL    HW123057   0.599   3.403  10.678  0.4218 -1.6321  2.6091
 3807SOL    HW223058   0.680   3.336  10.568  1.6389  0.4526  2.7234
 3808SOL     OW23059   0.998   3.650   8.202  0.4546  0.4513 -0.2283
 3808SOL    HW123060   1.020   3.731   8.248  1.9710  0.6038 -1.2089
 3808SOL    HW223061   1.057   3.584   8.237  0.0508 -0.0886 -0.5591
 3809SOL     OW23062   1.061   1.318  16.633  0.6950  0.2106 -0.1519
 3809SOL    HW123063   1.063   1.391  16.571  0.0068  0.5977  0.2837
 3809SOL    HW223064   0.978   1.328  16.679  0.9202  1.1290  0.0694
 3810SOL     OW23065   2.485   1.510  11.161 -0.0059  0.0212 -0.4095
 3810SOL    HW123066   2.402   1.516  11.113  1.3982 -1.8317 -3.0551
 3810SOL    HW223067   2.457   1.504  11.252 -0.4154 -1.8764 -0.6634
 3811SOL     OW23068   0.563   3.694   5.186  0.3121 -0.3754 -0.8405
 3811SOL    HW123069   0.515   3.763   5.230  2.6753  0.6745  0.0770
 3811SOL    HW223070   0.603   3.649   5.261 -0.1005  1.6377  0.5790
 3812SOL     OW23071   1.972   4.493  11.111 -0.7353  0.0228  0.2007
 3812SOL    HW123072   1.880   4.516  11.124 -1.1013 -2.0688  1.3355
 3812SOL    HW223073   1.982   4.426  11.179  1.5046  0.2967  0.1220
 3813SOL     OW23074   3.314   3.131   3.792 -0.4920  0.2599 -0.6041
 3813SOL    HW123075   3.349   3.100   3.709  0.2430 -2.0205  0.5495
 3813SOL    HW223076   3.315   3.226   3.784  0.8314  0.3842  1.0527
 3814SOL     OW23077   4.435   0.043   3.250  0.3494 -0.9238 -0.0269
 3814SOL    HW123078   4.345   0.012   3.238  0.3335 -0.3993 -1.2554
 3814SOL    HW223079   4.435   0.128   3.205 -1.2012 -0.3278  1.0960
 3815SOL     OW23080   0.340   1.812   7.260 -0.4140  0.0232 -0.1029
 3815SOL    HW123081   0.310   1.768   7.181 -1.4127  1.3581 -0.4667
 3815SOL    HW223082   0.262   1.858   7.290 -0.3793 -1.6965  2.6454
 3816SOL     OW23083   3.913   3.775   9.471  0.3487 -0.5569  0.6185
 3816SOL    HW123084   3.922   3.841   9.539  0.4236 -0.3262  0.3854
 3816SOL    HW223085   3.836   3.815   9.432  0.8434  0.5559  0.7962
 3817SOL     OW23086   4.675   1.324   3.218  0.1797 -0.0274  0.9072
 3817SOL    HW123087   0.012   1.352   3.270  0.0407  1.8677  0.0633
 3817SOL    HW223088   4.691   1.354   3.128 -0.4776  0.1760  0.8518
 3818SOL     OW23089   1.099   0.049  14.205  1.0726  0.4947 -0.1320
 3818SOL    HW123090   1.097   0.085  14.293 -0.7657  0.2230 -0.0551
 3818SOL    HW223091   1.188   0.018  14.191  0.7454  0.1929 -1.6183
 3819SOL     OW23092   1.640   2.944  14.208 -0.6893  0.0669 -0.6667
 3819SOL    HW123093   1.617   3.034  14.185 -1.6554  0.5834  2.3056
 3819SOL    HW223094   1.610   2.935  14.299 -0.5677 -0.2096 -0.6530
 3820SOL     OW23095   3.901   0.746  15.958  0.3931 -0.2079  0.3456
 3820SOL    HW123096   3.957   0.823  15.949 -1.9224  1.3091 -1.0573
 3820SOL    HW223097   3.908   0.721  15.866 -0.1407  2.5678 -0.4614
 3821SOL     OW23098   1.842   4.205  12.148 -0.0289  0.7331  0.5274
 3821SOL    HW123099   1.868   4.113  12.152  0.8066  0.9582  0.2993
 3821SOL    HW223100   1.816   4.210  12.056 -2.3653  0.1651  1.1605
 3822SOL     OW23101   4.272   1.823  13.048  0.1175 -0.3320 -0.1253
 3822SOL    HW123102   4.243   1.795  13.135  0.1996  0.3447  0.1263
 3822SOL    HW223103   4.316   1.742  13.024  2.5757  0.7470  0.7022
 3823SOL     OW23104   3.814   4.208   5.880 -0.0316  0.1020 -0.2565
 3823SOL    HW123105   3.876   4.239   5.946  0.6951  0.0683 -0.9181
 3823SOL    HW223106   3.871   4.225   5.805 -1.0773 -1.7942 -1.4953
 3824SOL     OW23107   0.092   4.387   8.775  0.1459  0.3339  0.2809
 3824SOL    HW123108   0.028   4.391   8.703  0.1878  1.8914  0.3315
 3824SOL    HW223109   0.124   4.477   8.774 -0.4290  0.5352  0.1149
 3825SOL     OW23110   3.264   1.698   7.770  0.0701  0.6018  0.3465
 3825SOL    HW123111   3.230   1.621   7.726 -1.4195  0.2759  2.0902
 3825SOL    HW223112   3.334   1.718   7.707  2.1527 -0.6097  2.2516
 3826SOL     OW23113   0.232   1.615   5.017 -0.6659  0.8729  0.0650
 3826SOL    HW123114   0.313   1.603   4.967 -0.2558 -0.2617  1.0127
 3826SOL    HW223115   0.261   1.662   5.095 -1.9014 -0.9899  1.6647
 3827SOL     OW23116   4.464   0.761   8.609 -0.1769 -0.1472 -0.2265
 3827SOL    HW123117   4.461   0.740   8.516  1.7062  1.1479 -0.5748
 3827SOL    HW223118   4.558   0.773   8.624 -0.1939  0.7551 -0.8203
 3828SOL     OW23119   0.661   0.797   2.259 -0.6529  0.3142  0.0382
 3828SOL    HW123120   0.661   0.701   2.248  0.7028  0.2917  0.2874
 3828SOL    HW223121   0.707   0.828   2.182 -0.5361  0.0795  0.0119
 3829SOL     OW23122   2.606   1.403   3.271 -0.2381  0.0945  0.2109
 3829SOL    HW123123   2.587   1.494   3.248 -1.8998 -0.2052  0.4125
 3829SOL    HW223124   2.591   1.354   3.190  1.3549  1.0080 -0.6491
 3830SOL     OW23125   3.462   4.263   9.602  0.1793  0.7079 -0.5271
 3830SOL    HW123126   3.549   4.230   9.578 -0.0770 -1.2623  1.2930
 3830SOL    HW223127   3.485   4.310   9.682 -1.1250  1.6592 -0.7145
 3831SOL     OW23128   0.184   2.083   5.225 -0.3868  0.4766  0.2270
 3831SOL    HW123129   0.133   2.003   5.225 -1.6257  1.2474  1.9198
 3831SOL    HW223130   0.172   2.107   5.133  0.6279  1.0168  0.2305
 3832SOL     OW23131   1.721   2.656   1.975  0.1577  0.1746 -0.0495
 3832SOL    HW123132   1.675   2.711   2.038 -2.7238  0.7688 -2.6938
 3832SOL    HW223133   1.811   2.682   1.996  0.0224  2.0968 -1.8362
 3833SOL     OW23134   3.367   3.470   4.574  0.0580 -0.0408  0.6323
 3833SOL    HW123135   3.287   3.431   4.608  0.1893  0.1760  1.1877
 3833SOL    HW223136   3.352   3.555   4.616 -1.1788 -1.4543  3.0007
 3834SOL     OW23137   3.303   2.960   3.315 -0.0740  0.1134  0.8851
 3834SOL    HW123138   3.277   2.868   3.320  0.1055 -0.0156 -0.5907
 3834SOL    HW223139   3.313   2.972   3.221 -1.3526 -2.5141  0.4219
 3835SOL     OW23140   3.069   0.665   5.397  0.0517 -0.1482  0.1027
 3835SOL    HW123141   3.154   0.670   5.354 -1.2038 -0.8015 -2.4762
 3835SOL    HW223142   3.043   0.575   5.379 -0.1021 -0.1730  0.4597
 3836SOL     OW23143   0.010   1.302   6.385 -0.3275 -0.2916  0.7266
 3836SOL    HW123144   0.002   1.290   6.480  0.5660 -2.4523  0.5309
 3836SOL    HW223145   4.696   1.227   6.355  0.7093 -1.1759  1.0925
 3837SOL     OW23146   3.883   1.869   3.638  0.0715 -0.1751 -0.4890
 3837SOL    HW123147   3.891   1.918   3.720 -0.9008 -2.6854  1.1305
 3837SOL    HW223148   3.891   1.776   3.660 -0.0745  0.0385  0.4685
 3838SOL     OW23149   2.111   0.047   1.873 -0.4115 -0.4977  0.4825
 3838SOL    HW123150   2.063   0.105   1.813 -0.8279  1.2356  2.5096
 3838SOL    HW223151   2.183   0.105   1.896  2.1915 -2.3874 -2.9060
 3839SOL     OW23152   1.780   1.639  12.946  0.4017 -0.3814 -0.4326
 3839SOL    HW123153   1.737   1.677  12.869 -1.1029  1.5959  1.3993
 3839SOL    HW223154   1.772   1.549  12.915  1.2975  0.4161 -3.0256
 3840SOL     OW23155   3.750   1.278  15.497 -0.6968 -0.0555  0.5852
 3840SOL    HW123156   3.740   1.252  15.589  2.7947  0.4187  1.0954
 3840SOL    HW223157   3.834   1.238  15.478 -0.9457 -0.0722 -0.4555
 3841SOL     OW23158   0.700   0.496   7.477 -0.4497  0.3243 -0.2439
 3841SOL    HW123159   0.741   0.456   7.400 -1.6242  0.3580 -0.8808
 3841SOL    HW223160   0.611   0.513   7.449 -1.2758 -2.0503  0.9825
 3842SOL     OW23161   2.907   2.709   8.606 -0.4179  0.5310  0.5474
 3842SOL    HW123162   2.837   2.644   8.606  1.4625 -1.4737 -0.6229
 3842SOL    HW223163   2.979   2.663   8.562  1.3245  2.4973  1.3270
 3843SOL     OW23164   1.142   0.914   0.873  0.4089  0.3553 -0.0594
 3843SOL    HW123165   1.070   0.976   0.889 -1.3512 -1.5407 -0.6688
 3843SOL    HW223166   1.114   0.864   0.796  0.4484  1.4930 -0.8348
 3844SOL     OW23167   3.087   0.030  12.914 -0.3241 -0.3673  0.0416
 3844SOL    HW123168   3.176   0.004  12.891  0.5056  0.2073  2.5913
 3844SOL    HW223169   3.094   0.067  13.002  0.8795 -0.9519  0.1896
 3845SOL     OW23170   4.213   2.904   7.350 -0.7033  0.0572  0.4269
 3845SOL    HW123171   4.200   2.859   7.266  0.6222 -0.0386  0.2742
 3845SOL    HW223172   4.124   2.915   7.384  0.4174 -0.4836  3.5083
 3846SOL     OW23173   0.538   4.369   9.939  0.3975  0.2706  0.1040
 3846SOL    HW123174   0.568   4.355   9.849 -0.1301 -0.9830  0.1269
 3846SOL    HW223175   0.445   4.380   9.920  0.5557  1.0347 -0.2004
 3847SOL     OW23176   3.907   3.737   2.793 -0.1919 -0.1124 -0.3312
 3847SOL    HW123177   3.851   3.799   2.747  0.8683  1.0942 -0.0069
 3847SOL    HW223178   3.864   3.737   2.878  0.3878  1.0773 -0.0363
 3848SOL     OW23179   3.925   0.057   7.975 -0.4713  0.6695  0.0777
 3848SOL    HW123180   3.851   0.065   7.915 -0.4783  2.6679  0.3564
 3848SOL    HW223181   3.887   0.101   8.051 -2.5649 -1.2775  0.1454
 3849SOL     OW23182   0.314   0.353   1.793  0.1766  0.0359  0.2077
 3849SOL    HW123183   0.374   0.414   1.750  2.4245 -0.8776  2.0598
 3849SOL    HW223184   0.271   0.419   1.848 -1.8967 -0.6799 -0.5849
 3850SOL     OW23185   0.462   1.727  12.055  0.1442 -0.1276 -0.1928
 3850SOL    HW123186   0.482   1.759  12.143  0.1878  0.3259 -0.3685
 3850SOL    HW223187   0.446   1.634  12.072 -1.2331  0.0488 -0.5285
 3851SOL     OW23188   0.551   3.295   8.945  0.5835  0.3395  0.1621
 3851SOL    HW123189   0.637   3.284   8.985  1.2889  0.5252 -1.2970
 3851SOL    HW223190   0.561   3.389   8.926 -0.8115  0.3715 -0.4018
 3852SOL     OW23191   4.367   1.615  16.273 -0.2635  0.3666 -0.0749
 3852SOL    HW123192   4.352   1.679  16.203 -1.1097 -0.1234 -0.3416
 3852SOL    HW223193   4.376   1.539  16.217 -0.8160 -0.1128  0.4767
 3853SOL     OW23194   0.102   2.698   6.650 -0.0056 -0.5429 -0.3474
 3853SOL    HW123195   0.027   2.708   6.709  1.8104  0.6104  1.7813
 3853SOL    HW223196   0.060   2.700   6.565 -2.6479  1.0023  1.0245
 3854SOL     OW23197   1.982   2.760   9.444 -0.1317 -0.1568  0.4166
 3854SOL    HW123198   2.065   2.808   9.435 -0.5212  0.6985  1.3668
 3854SOL    HW223199   1.964   2.724   9.357  0.5183 -2.5979  1.2914
 3855SOL     OW23200   1.054   2.994   0.942  0.0652 -0.3204  0.1422
 3855SOL    HW123201   1.133   3.001   0.995  0.1640 -0.2342 -0.0157
 3855SOL    HW223202   0.987   2.981   1.009 -0.9930 -1.5661 -1.1554
 3856SOL     OW23203   0.816   2.171  15.432  0.0250 -0.7368  0.3577
 3856SOL    HW123204   0.774   2.214  15.507  2.7674 -2.0533  2.6301
 3856SOL    HW223205   0.873   2.100  15.460  1.0726 -0.7513 -1.7923
 3857SOL     OW23206   1.948   3.000  12.482 -0.1485 -0.0741  0.1561
 3857SOL    HW123207   1.885   2.946  12.529  0.2450 -1.3629 -0.8054
 3857SOL    HW223208   1.927   2.992  12.388 -1.5359 -3.5554  0.7613
 3858SOL     OW23209   1.057   4.245   3.214  0.0693  0.1807 -0.3263
 3858SOL    HW123210   1.061   4.324   3.161  1.5186  1.1745  1.2902
 3858SOL    HW223211   0.964   4.249   3.235  0.2006  0.4939  0.1879
 3859SOL     OW23212   0.117   0.122  11.450 -0.4672  0.2171 -0.3999
 3859SOL    HW123213   0.129   0.116  11.355  3.0038 -1.4987  0.1393
 3859SOL    HW223214   0.150   0.034  11.470  1.4362  1.5169  2.1030
 3860SOL     OW23215   2.030   0.183   8.828 -0.2106  0.0668  0.0882
 3860SOL    HW123216   2.040   0.115   8.895 -0.2529 -1.0743 -1.0582
 3860SOL    HW223217   2.030   0.265   8.876  1.7673  0.4205 -0.5267
 3861SOL     OW23218   0.162   2.622   8.000 -0.5076  0.4741  0.2225
 3861SOL    HW123219   0.230   2.562   7.970 -0.6437 -0.6316  2.1294
 3861SOL    HW223220   0.209   2.681   8.060  0.7879  0.2331 -0.5535
 3862SOL     OW23221   0.371   2.246   5.889  0.2011  0.0456 -0.0418
 3862SOL    HW123222   0.364   2.161   5.847  1.8002  1.1611 -2.5379
 3862SOL    HW223223   0.462   2.238   5.920 -0.9466 -2.2095  2.7628
 3863SOL     OW23224   3.738   4.635   4.363 -0.1644  0.3060  0.0825
 3863SOL    HW123225   3.672   4.672   4.421  0.9117 -0.4153  1.7715
 3863SOL    HW223226   3.766   4.708   4.309 -1.0879  1.8800  1.7287
 3864SOL     OW23227   4.150   4.660   5.117  0.4741 -0.5972  0.1270
 3864SOL    HW123228   4.147   4.726   5.047 -0.2244  2.3102  2.8629
 3864SOL    HW223229   4.184   4.579   5.079  0.6933 -1.3989  2.0334
 3865SOL     OW23230   1.817   4.697   1.135  0.2852  0.3381 -0.2449
 3865SOL    HW123231   1.783   0.047   1.117 -1.9254 -0.6175 -0.8275
 3865SOL    HW223232   1.818   4.657   1.048 -1.2263 -0.5642  0.1573
 3866SOL     OW23233   1.775   4.363   4.468  0.0350 -0.2110  0.4473
 3866SOL    HW123234   1.762   4.457   4.469 -0.8942 -0.3312 -0.5073
 3866SOL    HW223235   1.751   4.350   4.377  1.0333  1.4205 -0.0499
 3867SOL     OW23236   2.962   3.729   5.389 -0.1030  0.0807 -0.3827
 3867SOL    HW123237   2.902   3.718   5.316 -1.1461 -0.2348  0.5202
 3867SOL    HW223238   3.034   3.775   5.346  2.5139 -2.5173  1.2072
 3868SOL     OW23239   3.485   1.399  15.885 -0.1502  0.3375 -0.2155
 3868SOL    HW123240   3.431   1.320  15.878 -0.4672  0.6357 -1.0905
 3868SOL    HW223241   3.454   1.438  15.967  0.0303  3.3324 -1.6033
 3869SOL     OW23242   3.663   4.245   9.015  0.9530  0.7869  0.0750
 3869SOL    HW123243   3.627   4.296   9.087 -0.5935  0.1499 -0.2444
 3869SOL    HW223244   3.610   4.283   8.945  0.6651  0.7047  0.2476
 3870SOL     OW23245   2.029   0.916   0.468  0.1759 -0.1329  0.4873
 3870SOL    HW123246   2.021   1.011   0.468  3.2963  0.1390 -2.1424
 3870SOL    HW223247   2.087   0.905   0.544 -2.2370 -3.3138  1.8748
 3871SOL     OW23248   4.164   3.684   5.268 -0.3714 -0.1739  0.6192
 3871SOL    HW123249   4.222   3.621   5.310  0.2630 -1.1114 -1.7317
 3871SOL    HW223250   4.228   3.748   5.236  0.1139 -1.3631 -0.7709
 3872SOL     OW23251   1.084   4.683   5.512  0.3473  0.2255  0.4700
 3872SOL    HW123252   1.106   4.737   5.588  0.5634  0.9818 -0.1259
 3872SOL    HW223253   1.047   4.606   5.555 -1.6130  0.3623 -0.9713
 3873SOL     OW23254   1.681   4.431   2.240  0.3850  0.0151  0.8226
 3873SOL    HW123255   1.751   4.421   2.304  0.4658 -1.3808  0.5109
 3873SOL    HW223256   1.675   4.527   2.239 -0.4949 -0.0463 -1.1905
 3874SOL     OW23257   2.084   3.029   2.542 -0.5187 -0.0110  0.1906
 3874SOL    HW123258   2.039   3.072   2.615  1.0075 -1.3142  1.8939
 3874SOL    HW223259   2.172   3.061   2.566 -0.5508  0.3179 -0.1323
 3875SOL     OW23260   0.095   3.729  15.846 -0.3876 -0.8400  0.0581
 3875SOL    HW123261   0.115   3.650  15.896  0.7637 -0.3327  0.3984
 3875SOL    HW223262   0.169   3.729  15.786 -0.1290  2.2109  0.3864
 3876SOL     OW23263   2.447   3.894  13.474 -0.4210 -0.2661  0.1398
 3876SOL    HW123264   2.450   3.846  13.391  0.3228 -2.5887  1.4999
 3876SOL    HW223265   2.503   3.968  13.450 -0.7625 -0.7337 -2.1397
 3877SOL     OW23266   2.003   3.134   4.584 -0.0492  0.0037 -0.2857
 3877SOL    HW123267   1.979   3.157   4.674 -0.3447  1.3858 -0.7149
 3877SOL    HW223268   2.007   3.039   4.595 -1.6428 -0.0639 -0.2695
 3878SOL     OW23269   4.080   4.500  10.876 -0.5283 -0.3872  0.5324
 3878SOL    HW123270   3.984   4.496  10.877 -0.5973  1.3683 -0.5353
 3878SOL    HW223271   4.086   4.560  10.950 -0.7883 -1.8284  1.7450
 3879SOL     OW23272   0.081   2.127   8.034  0.1124  0.4804  0.1839
 3879SOL    HW123273   0.139   2.202   8.038  0.5083  0.1792 -0.0064
 3879SOL    HW223274   4.734   2.162   8.006  0.7254  1.6048 -0.2338
 3880SOL     OW23275   1.547   2.493   3.190 -0.5854  0.5574 -0.3229
 3880SOL    HW123276   1.484   2.537   3.247  0.7981  2.4700 -0.2677
 3880SOL    HW223277   1.494   2.430   3.141  1.8451 -1.1148 -0.8090
 3881SOL     OW23278   0.151   1.446   4.617 -0.3439 -0.2513 -0.5514
 3881SOL    HW123279   0.109   1.526   4.647  0.3433 -0.9250  2.1661
 3881SOL    HW223280   0.214   1.427   4.686  0.0097 -1.5725 -1.2331
 3882SOL     OW23281   4.084   1.073   8.826  0.1904 -0.2861 -0.0023
 3882SOL    HW123282   4.065   1.153   8.777 -0.5594  0.3007  1.2682
 3882SOL    HW223283   4.158   1.033   8.780 -0.3820  0.6870 -1.7928
 3883SOL     OW23284   2.242   3.911   1.823  0.7770  0.5300 -0.1392
 3883SOL    HW123285   2.199   3.989   1.859 -2.4690 -1.1243 -0.4386
 3883SOL    HW223286   2.260   3.866   1.906 -1.2470  1.1751  0.6651
 3884SOL     OW23287   2.940   1.341  14.394 -0.4434  0.4426 -0.4353
 3884SOL    HW123288   2.968   1.255  14.361  0.6978  0.4850  0.4267
 3884SOL    HW223289   2.870   1.359  14.331  0.3879 -0.9315 -1.7530
 3885SOL     OW23290   2.657   1.858  14.920 -0.1239  0.6426  0.3397
 3885SOL    HW123291   2.585   1.880  14.861  0.7513  0.4362 -0.7955
 3885SOL    HW223292   2.670   1.764  14.902 -0.5268  1.1073 -2.3970
 3886SOL     OW23293   2.976   1.555   3.089 -0.4016 -0.1572  0.4707
 3886SOL    HW123294   2.890   1.589   3.113 -1.3626 -2.6234  0.5826
 3886SOL    HW223295   3.028   1.631   3.064 -1.4431  1.0814  2.1236
 3887SOL     OW23296   4.539   1.208   4.220  0.2324  0.1588  0.2186
 3887SOL    HW123297   4.451   1.236   4.194 -0.4293 -1.7463  0.3693
 3887SOL    HW223298   4.567   1.280   4.277 -0.4537  0.4768  0.1526
 3888SOL     OW23299   0.868   4.169   4.973  0.3490 -0.0822 -0.1003
 3888SOL    HW123300   0.841   4.170   4.881 -0.7323 -0.0917  0.2276
 3888SOL    HW223301   0.859   4.261   4.997 -0.4452 -0.9832  3.0883
 3889SOL     OW23302   0.702   1.115   9.280 -0.0920  0.5329 -0.0834
 3889SOL    HW123303   0.685   1.039   9.224  0.6763 -0.7942  1.4681
 3889SOL    HW223304   0.747   1.068   9.351  0.0099 -0.0277 -0.5183
 3890SOL     OW23305   2.007   2.424  15.821  0.3200 -0.3907 -0.1884
 3890SOL    HW123306   2.003   2.374  15.739 -0.8999  1.1476 -1.0834
 3890SOL    HW223307   2.087   2.476  15.818  0.4064 -0.3205  3.1908
 3891SOL     OW23308   3.243   2.509   5.950  0.0350 -0.0542 -0.1069
 3891SOL    HW123309   3.260   2.480   6.040 -0.8311  0.3737  0.1923
 3891SOL    HW223310   3.195   2.435   5.912 -2.1684  0.7823  1.0732
 3892SOL     OW23311   0.946   1.103   5.313  0.7078  0.2880  0.2115
 3892SOL    HW123312   0.982   1.029   5.265  1.0617  0.5345  0.1007
 3892SOL    HW223313   1.029   1.150   5.315 -0.0038  1.5692 -0.4520
 3893SOL     OW23314   3.565   2.375  16.454 -0.0036  0.1113  0.3130
 3893SOL    HW123315   3.493   2.434  16.477  2.4191  1.5704  4.1305
 3893SOL    HW223316   3.516   2.299  16.421  1.1433 -0.3261 -0.3505
 3894SOL     OW23317   3.041   3.407   2.981  0.1089 -0.0770 -1.0903
 3894SOL    HW123318   2.971   3.466   2.955 -0.1574 -0.4854 -1.2916
 3894SOL    HW223319   3.016   3.370   3.065 -0.5008  1.2741 -0.6712
 3895SOL     OW23320   4.680   4.118   4.643 -0.1768  0.4820  0.0779
 3895SOL    HW123321   4.625   4.041   4.660 -0.7170  1.2087  1.5923
 3895SOL    HW223322   4.646   4.151   4.560  0.5845  0.8295 -0.0897
 3896SOL     OW23323   3.541   1.559   4.771 -0.6278 -0.0014 -0.3294
 3896SOL    HW123324   3.480   1.490   4.799  0.2918 -0.0472  1.5512
 3896SOL    HW223325   3.531   1.626   4.838  1.1837 -0.3501  0.2900
 3897SOL     OW23326   0.661   1.072  12.022 -0.2343  0.8399  0.5707
 3897SOL    HW123327   0.637   1.159  11.989  0.5077  0.2289 -1.6255
 3897SOL    HW223328   0.753   1.067  11.997 -0.0481  1.0833  1.2312
 3898SOL     OW23329   1.550   3.754   1.442  0.1821  0.8483 -0.1952
 3898SOL    HW123330   1.507   3.832   1.476  0.3012  0.5956  0.5387
 3898SOL    HW223331   1.481   3.691   1.463 -0.8012  2.1898  0.5878
 3899SOL     OW23332   3.049   3.534   0.089 -0.2271  0.3595 -0.1716
 3899SOL    HW123333   3.046   3.439   0.099  1.1016  0.3929  0.5946
 3899SOL    HW223334   2.957   3.553   0.108  0.1840  2.2622 -0.1167
 3900SOL     OW23335   2.042   4.190   6.116  0.0180 -0.1983 -0.3716
 3900SOL    HW123336   1.994   4.202   6.198  3.5851 -1.7479  1.9527
 3900SOL    HW223337   1.972   4.212   6.054 -0.0586  0.0306 -0.2051
 3901SOL     OW23338   0.752   4.278  13.074 -0.5010 -0.0005  0.5489
 3901SOL    HW123339   0.658   4.274  13.057 -0.3788 -0.5924 -0.0045
 3901SOL    HW223340   0.759   4.354  13.133 -2.2976 -2.1642  3.5288
 3902SOL     OW23341   2.799   0.682  15.489 -0.0668 -0.2536  0.1506
 3902SOL    HW123342   2.708   0.700  15.464  0.5774  0.8632 -1.3811
 3902SOL    HW223343   2.810   0.597  15.445 -0.5237 -0.3815  0.2775
 3903SOL     OW23344   2.081   3.443   8.557 -0.0115  0.0332 -0.4396
 3903SOL    HW123345   2.082   3.539   8.566 -1.3583 -0.0637  0.6674
 3903SOL    HW223346   1.991   3.431   8.585  0.9327 -2.0490  1.6872
 3904SOL     OW23347   0.643   0.515   6.809  0.2685  0.1795 -0.0922
 3904SOL    HW123348   0.634   0.608   6.789  0.9942  0.0717 -0.9113
 3904SOL    HW223349   0.738   0.511   6.805  0.2513 -1.3055  0.7442
 3905SOL     OW23350   0.187   1.152   8.558 -0.4936  0.2799 -0.2872
 3905SOL    HW123351   0.095   1.132   8.577 -0.1497  1.3682  2.5173
 3905SOL    HW223352   0.188   1.246   8.538  1.9847  0.5322  1.1088
 3906SOL     OW23353   2.828   2.165  14.200 -0.1439  0.7306  0.5512
 3906SOL    HW123354   2.887   2.105  14.154 -0.0626  0.6399  0.7733
 3906SOL    HW223355   2.877   2.231  14.248  1.3073  0.5449 -0.6492
 3907SOL     OW23356   3.938   1.327   6.940  0.1897  0.3273  0.5418
 3907SOL    HW123357   3.871   1.337   7.007 -1.0108 -0.2648 -0.5573
 3907SOL    HW223358   3.897   1.378   6.870 -0.5493  1.8885  2.1450
 3908SOL     OW23359   3.214   1.381   6.455  0.0371  0.3378  0.0750
 3908SOL    HW123360   3.202   1.344   6.543  2.6188  1.0698  0.7402
 3908SOL    HW223361   3.195   1.474   6.463  0.6842  0.4155  0.7117
 3909SOL     OW23362   2.444   1.331  17.485 -0.7114 -0.5714 -0.1765
 3909SOL    HW123363   2.356   1.355  17.456 -0.4869 -1.1579 -1.3380
 3909SOL    HW223364   2.454   1.249  17.437  2.4447 -0.9207  1.0914
 3910SOL     OW23365   2.031   3.235   8.329  0.3984 -0.5372 -0.1032
 3910SOL    HW123366   2.095   3.299   8.299 -1.8169  1.3716 -0.7208
 3910SOL    HW223367   1.953   3.289   8.338  0.0526 -1.1217  0.3874
 3911SOL     OW23368   3.058   4.327   4.752 -0.0375  0.0601 -0.0810
 3911SOL    HW123369   3.029   4.299   4.664  0.9391 -1.0069 -0.0570
 3911SOL    HW223370   3.091   4.242   4.780 -0.3872 -0.0596 -0.0320
 3912SOL     OW23371   1.774   2.838  12.667 -0.3841 -0.3008 -0.1765
 3912SOL    HW123372   1.732   2.924  12.656  1.5816  0.9982  2.1905
 3912SOL    HW223373   1.811   2.853  12.754  0.4682 -0.6628 -0.4734
 3913SOL     OW23374   0.688   3.985   4.580 -0.3901  0.2688  0.6252
 3913SOL    HW123375   0.732   3.905   4.608  0.0210 -0.4622 -2.1113
 3913SOL    HW223376   0.603   3.971   4.622  0.0484  0.5912  1.6338
 3914SOL     OW23377   3.776   0.681   0.619  0.1603 -0.6588  0.3510
 3914SOL    HW123378   3.805   0.628   0.544 -0.4285 -0.9006  0.2942
 3914SOL    HW223379   3.841   0.751   0.623 -0.8356  0.2292  0.7826
 3915SOL     OW23380   2.133   1.895   8.523  0.6154  0.1507 -0.1136
 3915SOL    HW123381   2.086   1.857   8.596 -0.2545  1.7134  0.1422
 3915SOL    HW223382   2.216   1.848   8.531  0.8013  0.8046  1.6836
 3916SOL     OW23383   1.499   2.856   2.489 -1.2371 -0.4455 -0.0170
 3916SOL    HW123384   1.409   2.880   2.466 -1.0614 -1.5228 -1.8219
 3916SOL    HW223385   1.529   2.943   2.462  0.8700 -1.3328 -0.4923
 3917SOL     OW23386   0.004   1.721   4.183 -0.3387 -0.3736 -0.3677
 3917SOL    HW123387   4.667   1.779   4.188  0.2052  0.2634  0.3408
 3917SOL    HW223388   4.730   1.656   4.253  0.6740  0.6228  0.7288
 3918SOL     OW23389   3.092   1.292  10.967  1.0288 -0.3830 -0.2585
 3918SOL    HW123390   3.137   1.268  11.049 -2.8561  2.2635  2.6005
 3918SOL    HW223391   3.101   1.210  10.917  0.8138  0.5300 -1.7831
 3919SOL     OW23392   4.594   0.181   3.492 -0.0876 -0.5046  0.2467
 3919SOL    HW123393   4.651   0.165   3.417 -1.2518 -1.6300 -0.3812
 3919SOL    HW223394   4.588   0.095   3.532 -2.1919 -0.2117  0.5679
 3920SOL     OW23395   0.326   0.877   4.311 -0.3323 -0.3252  0.7928
 3920SOL    HW123396   0.274   0.926   4.247  1.3574 -1.7016 -1.6503
 3920SOL    HW223397   0.252   0.860   4.369 -1.7423  1.5293 -0.4645
 3921SOL     OW23398   2.529   3.562   0.118  0.5728  0.3279  0.0601
 3921SOL    HW123399   2.573   3.646   0.113  2.8590 -0.9440 -1.0972
 3921SOL    HW223400   2.465   3.581   0.187 -0.7452 -0.2963 -1.0047
 3922SOL     OW23401   2.409   4.705   7.165  0.7306  0.6358 -0.1258
 3922SOL    HW123402   2.328   4.713   7.215  1.3548  1.5886  0.7232
 3922SOL    HW223403   2.405   4.610   7.163 -0.5291  0.6858 -0.0165
 3923SOL     OW23404   0.234   2.266  12.176  0.5926  0.6648  0.2647
 3923SOL    HW123405   0.309   2.272  12.234  1.0054  1.0016 -0.3077
 3923SOL    HW223406   0.174   2.325  12.222 -0.1310 -1.5996  2.2851
 3924SOL     OW23407   1.687   2.636  11.989 -0.1961  0.0696  0.4798
 3924SOL    HW123408   1.690   2.730  11.968 -1.8134 -0.1815 -0.9167
 3924SOL    HW223409   1.706   2.641  12.082 -0.2698 -1.8803  0.5963
 3925SOL     OW23410   0.672   2.724  12.973 -0.6040 -0.3168  0.2370
 3925SOL    HW123411   0.578   2.706  12.971 -0.6739  0.5143 -3.2980
 3925SOL    HW223412   0.711   2.637  12.985  2.0936  0.4698 -2.7798
 3926SOL     OW23413   1.076   1.779   9.507  0.3368  0.0249  0.5916
 3926SOL    HW123414   1.093   1.865   9.469 -2.9013 -0.1388 -1.3039
 3926SOL    HW223415   1.095   1.796   9.599  1.8990 -0.4403  0.3500
 3927SOL     OW23416   4.191   1.738   3.294 -0.1475  0.0366  0.2559
 3927SOL    HW123417   4.233   1.824   3.293  3.1439 -1.6068 -4.4025
 3927SOL    HW223418   4.241   1.696   3.365  1.6435  1.4747 -0.1631
 3928SOL     OW23419   3.614   2.563  13.057 -0.1893  0.0584 -0.3215
 3928SOL    HW123420   3.621   2.514  12.976  0.9240 -0.1757 -0.0874
 3928SOL    HW223421   3.673   2.635  13.038 -3.2404  2.2724 -1.3995
 3929SOL     OW23422   1.823   2.599  12.533  0.0263 -0.1603 -0.1383
 3929SOL    HW123423   1.915   2.625  12.528 -0.1716  0.4307 -0.8227
 3929SOL    HW223424   1.780   2.659  12.594  0.3239 -0.0273 -0.0600
 3930SOL     OW23425   2.884   4.364   3.032  0.4432  0.2071 -0.0735
 3930SOL    HW123426   2.853   4.319   3.111 -2.0052  4.3515  1.3789
 3930SOL    HW223427   2.948   4.420   3.075 -0.0188  0.8546 -0.2179
 3931SOL     OW23428   4.257   1.723   3.801  0.0371  0.2960 -0.1127
 3931SOL    HW123429   4.169   1.699   3.773 -0.5095  1.1580  0.8425
 3931SOL    HW223430   4.306   1.726   3.719 -0.7339  0.5153 -0.5567
 3932SOL     OW23431   3.290   0.648  11.030  0.6784  0.4642 -0.2370
 3932SOL    HW123432   3.295   0.741  11.007  1.7274  1.0209  2.1664
 3932SOL    HW223433   3.208   0.659  11.078  2.1158  1.7907  1.9129
 3933SOL     OW23434   2.781   0.624  12.510  0.2376  0.3847 -0.4257
 3933SOL    HW123435   2.868   0.629  12.470  0.8184 -0.8870  0.6764
 3933SOL    HW223436   2.792   0.572  12.590 -0.1209  1.0162  0.0383
 3934SOL     OW23437   2.364   0.923   2.700  0.2323 -0.1306 -0.5615
 3934SOL    HW123438   2.370   0.869   2.621  0.6455  1.3625 -1.5533
 3934SOL    HW223439   2.271   0.906   2.712  0.0486  0.3071 -1.4095
 3935SOL     OW23440   4.586   1.379   6.912 -0.1630 -0.1181  0.1425
 3935SOL    HW123441   4.542   1.459   6.882  0.4213  0.4132  0.7051
 3935SOL    HW223442   4.545   1.361   6.996 -0.5171 -0.7511 -0.1658
 3936SOL     OW23443   1.359   4.056   4.367 -0.3529  0.1377  0.0670
 3936SOL    HW123444   1.390   4.112   4.296  2.0522 -2.7971 -1.2146
 3936SOL    HW223445   1.405   4.105   4.435  0.0427  0.5236 -0.4874
 3937SOL     OW23446   4.627   2.181  15.488  0.5218  0.0700 -0.1460
 3937SOL    HW123447   4.575   2.220  15.418  0.5810  1.5171  0.6118
 3937SOL    HW223448   4.706   2.162  15.438  2.3459  1.0527  2.3702
 3938SOL     OW23449   3.651   0.862   9.596  0.4810 -0.0916  0.1222
 3938SOL    HW123450   3.600   0.797   9.645 -0.9948 -1.3846 -3.0674
 3938SOL    HW223451   3.664   0.812   9.515  0.3904  0.2087 -0.0793
 3939SOL     OW23452   0.374   4.228   9.490  0.0390  0.4945 -0.0180
 3939SOL    HW123453   0.425   4.307   9.473 -1.2309  1.5351  0.9375
 3939SOL    HW223454   0.444   4.166   9.508 -0.0660  0.2428 -0.4852
 3940SOL     OW23455   0.980   2.323   9.131  0.2300  0.0084  1.0360
 3940SOL    HW123456   0.974   2.267   9.209 -2.2406 -1.6952 -0.3691
 3940SOL    HW223457   0.916   2.295   9.066  0.4156  0.4151  0.6733
 3941SOL     OW23458   0.899   3.500   4.490  0.0464 -0.1564  1.4016
 3941SOL    HW123459   0.927   3.413   4.519 -1.5426 -1.3256 -0.6121
 3941SOL    HW223460   0.986   3.541   4.492 -0.2370  0.4164  1.6496
 3942SOL     OW23461   2.829   3.058   6.652 -0.5356 -0.4674 -0.1101
 3942SOL    HW123462   2.830   3.002   6.574 -0.9585 -0.9786  0.2516
 3942SOL    HW223463   2.752   3.025   6.698 -0.7425 -0.5609 -0.5149
 3943SOL     OW23464   3.787   2.184   8.433  0.3280  0.0261 -0.3462
 3943SOL    HW123465   3.862   2.162   8.377 -0.5188  1.8826 -2.1733
 3943SOL    HW223466   3.714   2.208   8.376  0.9959  0.1206 -1.1531
 3944SOL     OW23467   1.133   3.699   3.545 -0.4745 -0.6290 -0.8404
 3944SOL    HW123468   1.205   3.762   3.534 -1.7779  0.9494 -0.4673
 3944SOL    HW223469   1.125   3.700   3.641  1.2579 -0.2366 -0.7050
 3945SOL     OW23470   3.733   2.140   7.306  0.1885  0.0255 -0.1993
 3945SOL    HW123471   3.764   2.230   7.305  2.1015 -0.6339  0.0211
 3945SOL    HW223472   3.639   2.148   7.321  0.2471  0.8604 -0.3049
 3946SOL     OW23473   0.434   2.930   5.676  0.0615  0.1151  0.4487
 3946SOL    HW123474   0.425   2.836   5.660 -0.9784  0.7420 -2.6495
 3946SOL    HW223475   0.430   2.938   5.772  0.4780 -1.0346  0.5527
 3947SOL     OW23476   1.883   3.902  14.621 -0.8952 -0.1458 -0.1271
 3947SOL    HW123477   1.920   3.968  14.680 -0.7240 -1.9420  1.8001
 3947SOL    HW223478   1.788   3.910  14.632 -0.8734 -1.6232  1.0640
 3948SOL     OW23479   2.275   0.536   3.394  0.1429  0.3035 -0.1618
 3948SOL    HW123480   2.337   0.603   3.364 -2.3729  2.4476 -0.6764
 3948SOL    HW223481   2.211   0.545   3.323  0.4437  1.3416 -0.3134
 3949SOL     OW23482   1.749   4.200  15.977  0.4443 -0.1967 -0.4774
 3949SOL    HW123483   1.744   4.111  15.942  0.6794 -0.5634  0.4412
 3949SOL    HW223484   1.687   4.241  15.916 -0.7821  0.7453  1.4153
 3950SOL     OW23485   3.894   1.732  12.434  0.0013  0.0616  0.2661
 3950SOL    HW123486   3.873   1.706  12.524 -0.3754  0.7409  0.3808
 3950SOL    HW223487   3.828   1.802  12.427 -1.1792 -1.0333  0.4628
 3951SOL     OW23488   4.165   0.837   3.463  0.0302 -0.7085 -0.0034
 3951SOL    HW123489   4.193   0.840   3.554 -0.6002 -0.9453  0.2013
 3951SOL    HW223490   4.172   0.742   3.448  0.1791 -0.9314  1.4723
 3952SOL     OW23491   2.483   0.445   2.612 -0.5182  0.1636 -0.4914
 3952SOL    HW123492   2.482   0.419   2.520  1.1332 -1.6243 -0.0124
 3952SOL    HW223493   2.425   0.376   2.644 -1.7691  1.5226  0.1858
 3953SOL     OW23494   0.318   0.039   4.352  0.7336  0.6539 -0.5754
 3953SOL    HW123495   0.361   0.073   4.431 -1.1173  0.9567  0.3031
 3953SOL    HW223496   0.236   0.002   4.386  0.3665  1.6882 -0.3466
 3954SOL     OW23497   2.731   0.156  11.117 -0.7120 -0.5938  0.3194
 3954SOL    HW123498   2.765   0.120  11.035  0.8042  0.9094  0.2981
 3954SOL    HW223499   2.679   0.223  11.073 -1.1504 -1.3339 -0.3141
 3955SOL     OW23500   3.868   4.456  12.285 -0.3947 -0.3638  0.0633
 3955SOL    HW123501   3.888   4.521  12.353  0.5581  1.2709 -1.7673
 3955SOL    HW223502   3.940   4.458  12.221 -0.8421 -2.6865 -0.5277
 3956SOL     OW23503   0.175   3.887   2.140  0.1985  0.4886  0.3996
 3956SOL    HW123504   0.239   3.838   2.087 -0.4612 -1.4887  1.4081
 3956SOL    HW223505   0.099   3.830   2.154  0.0245  0.8434  0.8833
 3957SOL     OW23506   2.346   3.834  14.069 -0.4172 -0.4743  0.0089
 3957SOL    HW123507   2.292   3.867  14.141 -0.3346  1.8085 -0.9805
 3957SOL    HW223508   2.385   3.917  14.040 -1.1599 -0.2730 -0.4197
 3958SOL     OW23509   2.123   3.925   7.965  0.0860  0.3452  0.5013
 3958SOL    HW123510   2.102   3.831   7.964 -1.7081  0.7661 -2.2789
 3958SOL    HW223511   2.180   3.941   8.040 -0.3501  1.2174  0.6498
 3959SOL     OW23512   4.073   2.597   7.291 -0.2466 -0.3906 -0.1473
 3959SOL    HW123513   3.989   2.590   7.244  0.9219 -0.1044 -2.2586
 3959SOL    HW223514   4.137   2.618   7.223 -1.2896  1.2126 -0.6540
 3960SOL     OW23515   0.530   0.230   7.274  0.3755  0.3322 -0.0691
 3960SOL    HW123516   0.550   0.177   7.197 -0.2835 -0.4675  0.3098
 3960SOL    HW223517   0.618   0.252   7.305  0.6972  0.6571 -1.1950
 3961SOL     OW23518   4.708   1.312  11.285 -0.1243  0.0713 -0.1731
 3961SOL    HW123519   4.727   1.219  11.276 -0.1603 -0.0466  0.8888
 3961SOL    HW223520   4.612   1.314  11.285 -0.0663  3.4281  0.2816
 3962SOL     OW23521   2.772   1.035   6.015 -0.3386 -0.6850  0.6360
 3962SOL    HW123522   2.729   0.970   5.960 -0.4257  0.7714 -0.9843
 3962SOL    HW223523   2.828   0.980   6.071  1.0452 -0.4468 -0.5016
 3963SOL     OW23524   1.089   3.484  11.381 -0.1991 -0.2464  0.5582
 3963SOL    HW123525   0.994   3.477  11.381 -0.3331  1.5756 -4.3927
 3963SOL    HW223526   1.108   3.474  11.474 -0.1738 -2.8179  0.2767
 3964SOL     OW23527   3.273   0.545   0.507  0.0750 -0.2123  0.1870
 3964SOL    HW123528   3.273   0.468   0.565 -3.1054 -0.1225  0.2746
 3964SOL    HW223529   3.354   0.591   0.531 -1.0878  2.3188 -0.8046
 3965SOL     OW23530   2.670   2.326   4.129 -0.3888  0.2579  0.2874
 3965SOL    HW123531   2.638   2.399   4.076 -0.5768 -0.1655 -0.1907
 3965SOL    HW223532   2.723   2.364   4.198 -1.2678  2.2188 -0.1324
 3966SOL     OW23533   0.614   1.047  11.302 -0.6812 -0.1832 -0.0438
 3966SOL    HW123534   0.682   1.049  11.369 -0.3422 -1.2967 -0.3633
 3966SOL    HW223535   0.587   1.139  11.294  1.2224  0.3172 -0.8892
 3967SOL     OW23536   0.403   4.204   3.498  0.5451  0.1868 -0.3376
 3967SOL    HW123537   0.359   4.146   3.435  1.2461 -0.3390 -0.3400
 3967SOL    HW223538   0.370   4.167   3.580  0.2341  0.6616 -0.2462
 3968SOL     OW23539   3.473   1.729  15.440  0.2374  0.4178 -0.1112
 3968SOL    HW123540   3.503   1.663  15.503  1.6046  0.9292 -0.2373
 3968SOL    HW223541   3.432   1.673  15.374 -1.6087  0.1083  1.2812
 3969SOL     OW23542   2.816   2.951   0.895 -0.0021 -0.1254 -0.4427
 3969SOL    HW123543   2.746   3.008   0.863 -1.2525 -2.1542 -1.3018
 3969SOL    HW223544   2.877   2.943   0.822 -1.0121  0.6830 -1.3931
 3970SOL     OW23545   3.417   3.338  12.751 -0.2810  0.4689 -0.2698
 3970SOL    HW123546   3.391   3.429  12.744  1.8065  1.1275  0.4183
 3970SOL    HW223547   3.379   3.305  12.670  2.9127 -0.1240 -1.5514
 3971SOL     OW23548   3.492   1.867   1.917  0.6322 -0.0097  0.1810
 3971SOL    HW123549   3.455   1.783   1.942 -0.2080 -0.0219 -1.1345
 3971SOL    HW223550   3.517   1.849   1.826 -1.6553 -0.8121 -0.2810
 3972SOL     OW23551   0.580   1.680   4.362  0.6443 -0.1645 -0.0420
 3972SOL    HW123552   0.497   1.722   4.385 -0.4774 -0.6116 -3.2927
 3972SOL    HW223553   0.598   1.624   4.437  1.3432 -0.7041 -0.6209
 3973SOL     OW23554   4.345   2.271  13.288 -0.2238 -0.2773 -0.0221
 3973SOL    HW123555   4.347   2.210  13.214 -0.2649 -1.1094  0.6636
 3973SOL    HW223556   4.308   2.341  13.235  2.7745  2.4551  1.5519
 3974SOL     OW23557   3.387   0.848   5.574 -0.2197  0.2501 -0.7034
 3974SOL    HW123558   3.467   0.896   5.595  0.4771  0.2116 -3.2401
 3974SOL    HW223559   3.414   0.763   5.608 -2.2658  0.4974  1.5695
 3975SOL     OW23560   3.506   0.156   3.672 -0.0273 -0.2711  0.2020
 3975SOL    HW123561   3.495   0.247   3.646  0.1971 -0.4401 -0.5063
 3975SOL    HW223562   3.578   0.118   3.621 -1.5395  1.1977 -2.9832
 3976SOL     OW23563   4.717   3.882   3.150  0.4214  0.3642  0.0721
 3976SOL    HW123564   0.019   3.800   3.120 -0.5897 -0.2019  0.2686
 3976SOL    HW223565   4.719   3.874   3.245 -2.1816 -1.3842 -0.0032
 3977SOL     OW23566   4.147   0.125   1.371  0.2285  0.2092  0.1831
 3977SOL    HW123567   4.243   0.129   1.374  0.2648 -1.1464  0.6781
 3977SOL    HW223568   4.132   0.197   1.310  1.8172  0.2570 -0.1671
 3978SOL     OW23569   4.165   2.578   6.805 -0.0960 -0.2499 -0.6941
 3978SOL    HW123570   4.091   2.587   6.744 -1.0897 -0.5755  0.4552
 3978SOL    HW223571   4.228   2.538   6.746 -1.3385 -0.5893 -1.8008
 3979SOL     OW23572   2.650   4.236   1.466 -0.4483  0.1341 -0.2424
 3979SOL    HW123573   2.588   4.309   1.475 -0.6274  0.2048 -1.9916
 3979SOL    HW223574   2.728   4.277   1.502  0.2020  0.3508 -1.8914
 3980SOL     OW23575   2.294   0.614   7.379 -0.4894  0.8358  0.0457
 3980SOL    HW123576   2.350   0.624   7.456  1.3046 -0.9234 -1.0182
 3980SOL    HW223577   2.262   0.524   7.394 -0.6665  0.9174  0.1644
 3981SOL     OW23578   1.681   1.483  11.078 -0.0296 -0.8475 -0.1672
 3981SOL    HW123579   1.682   1.549  11.009 -0.7202 -1.2574 -0.5786
 3981SOL    HW223580   1.629   1.418  11.030  2.2529 -1.5351 -1.6661
 3982SOL     OW23581   0.769   3.041   5.191 -0.2086  0.0619  0.4745
 3982SOL    HW123582   0.718   2.964   5.165 -1.0598  1.5748 -2.3379
 3982SOL    HW223583   0.848   3.036   5.137 -0.4795 -0.0089  0.0878
 3983SOL     OW23584   0.839   1.082  16.904 -0.1357  0.1987 -0.1840
 3983SOL    HW123585   0.867   1.160  16.951 -1.3374  1.4512 -1.5422
 3983SOL    HW223586   0.909   1.022  16.932 -1.2349 -1.2283 -0.4968
 3984SOL     OW23587   2.604   0.176   7.901  0.1895  0.0269  0.3108
 3984SOL    HW123588   2.517   0.140   7.883 -1.1709  4.2447 -1.4677
 3984SOL    HW223589   2.659   0.107   7.938 -0.3638 -2.3908 -3.3295
 3985SOL     OW23590   3.126   3.230  10.524 -0.3317  0.0175  0.0913
 3985SOL    HW123591   3.191   3.179  10.476 -0.1912  0.3363 -0.0572
 3985SOL    HW223592   3.140   3.315  10.482 -0.2942  0.0352  0.1404
 3986SOL     OW23593   1.306   1.352  17.545 -0.2570 -0.1400 -0.0306
 3986SOL    HW123594   1.386   1.368  17.496 -0.3230 -0.4370 -0.2346
 3986SOL    HW223595   1.322   1.402  17.625  2.7978 -2.0692  0.5686
 3987SOL     OW23596   0.340   2.031   8.704 -0.5967  0.5054  0.2543
 3987SOL    HW123597   0.338   1.942   8.740 -0.5601  1.3861  2.4132
 3987SOL    HW223598   0.320   2.010   8.612 -1.4974  0.6485  0.4197
 3988SOL     OW23599   2.786   4.172   8.570  0.3489 -0.3465 -0.1175
 3988SOL    HW123600   2.872   4.185   8.609 -0.0204  1.8962 -0.0675
 3988SOL    HW223601   2.793   4.183   8.475 -2.8469  3.6145  0.0945
 3989SOL     OW23602   3.797   4.660   7.454 -0.1621 -0.1779  0.1151
 3989SOL    HW123603   3.855   4.723   7.413  0.1360 -0.3395  0.2899
 3989SOL    HW223604   3.803   4.585   7.395  1.9126 -0.3541  0.5662
 3990SOL     OW23605   0.322   2.816   8.822 -0.2254 -0.2975  0.0964
 3990SOL    HW123606   0.297   2.908   8.832 -0.4779 -0.4379  0.7459
 3990SOL    HW223607   0.276   2.778   8.747  0.1073  1.4155 -0.9709
 3991SOL     OW23608   1.882   3.071   8.031  0.3870  0.6838  0.2193
 3991SOL    HW123609   1.902   3.080   8.124  0.0644  1.9546  0.1695
 3991SOL    HW223610   1.899   2.978   8.015  4.3020  1.3158  0.5716
 3992SOL     OW23611   1.010   1.146   4.917  0.1785  0.2241  0.2446
 3992SOL    HW123612   0.986   1.084   4.986 -0.5545 -0.2037 -0.4039
 3992SOL    HW223613   1.084   1.105   4.872  0.5485  0.4817  0.6199
 3993SOL     OW23614   2.699   3.225   4.910 -0.2361 -0.2600 -0.7333
 3993SOL    HW123615   2.790   3.198   4.917  0.0168  0.0570 -2.9131
 3993SOL    HW223616   2.695   3.286   4.983 -0.1544  0.2707 -1.1756
 3994SOL     OW23617   1.142   4.547   2.695  0.8594  0.4004 -0.1680
 3994SOL    HW123618   1.209   4.545   2.763  0.6023  0.9889  0.1007
 3994SOL    HW223619   1.120   4.640   2.699 -1.0056  0.0611 -2.4307
 3995SOL     OW23620   2.235   4.266   8.999  0.2133 -0.2883  0.0525
 3995SOL    HW123621   2.296   4.192   9.009 -0.6570 -1.0405 -0.2118
 3995SOL    HW223622   2.153   4.228   9.029 -1.4877  2.0114 -1.6915
 3996SOL     OW23623   1.622   0.048   6.550  0.3394  0.0140  0.1318
 3996SOL    HW123624   1.622   0.141   6.575  1.1309  0.4439 -1.4856
 3996SOL    HW223625   1.685   0.008   6.611  1.9352 -2.1779 -2.9483
 3997SOL     OW23626   1.375   2.308   3.425  0.1025 -0.0647 -0.1992
 3997SOL    HW123627   1.447   2.254   3.391 -0.4403  1.2763 -3.4858
 3997SOL    HW223628   1.334   2.237   3.473 -0.5405  1.0536  0.8823
 3998SOL     OW23629   1.911   3.928   2.077  0.0411 -0.2327  0.6358
 3998SOL    HW123630   1.878   3.986   2.009  0.6100  0.6844  1.1512
 3998SOL    HW223631   1.926   3.993   2.146  0.7104 -0.4121  0.6561
 3999SOL     OW23632   0.624   1.620  12.697 -0.2738  0.1242 -0.3753
 3999SOL    HW123633   0.704   1.667  12.722 -1.4431  1.3610  1.0526
 3999SOL    HW223634   0.645   1.534  12.733 -0.4493  0.7743  1.2740
 4000SOL     OW23635   2.224   3.034   1.764 -0.4972 -0.9236 -0.0111
 4000SOL    HW123636   2.262   3.068   1.683  0.2536  0.4642  0.9265
 4000SOL    HW223637   2.211   2.942   1.740 -0.8886 -0.6034 -1.0342
 4001SOL     OW23638   1.006   2.498  16.697  0.0796  0.5415  0.7589
 4001SOL    HW123639   1.054   2.501  16.614 -2.5276  1.7374 -0.6742
 4001SOL    HW223640   1.074   2.458  16.752 -0.7621 -0.2269  1.2438
 4002SOL     OW23641   3.689   1.253   5.404  0.4763  0.1977 -0.3155
 4002SOL    HW123642   3.706   1.215   5.490 -1.8191 -0.3544 -0.0886
 4002SOL    HW223643   3.620   1.195   5.371 -0.2870  0.2617  1.1400
 4003SOL     OW23644   3.093   0.875   5.932  0.6252  0.5091 -0.2509
 4003SOL    HW123645   3.176   0.899   5.891 -0.4093  2.6095 -1.1111
 4003SOL    HW223646   3.098   0.904   6.023  1.5377  1.3392 -0.5692
 4004SOL     OW23647   4.260   0.959   0.788  0.6751 -0.5638 -0.3681
 4004SOL    HW123648   4.259   0.863   0.788  1.5306 -0.5760 -0.1529
 4004SOL    HW223649   4.342   0.969   0.741 -0.1511 -0.9175 -1.8654
 4005SOL     OW23650   2.663   0.640   2.329  0.9712  0.9768 -0.1368
 4005SOL    HW123651   2.629   0.723   2.296 -2.7088 -0.9623 -1.2020
 4005SOL    HW223652   2.690   0.662   2.418  0.3900  2.7639 -0.4128
 4006SOL     OW23653   3.433   1.525   1.509 -0.6673  0.0244 -0.4748
 4006SOL    HW123654   3.502   1.573   1.463  1.0672 -0.8647  1.1896
 4006SOL    HW223655   3.438   1.529   1.605  1.4693  1.0083 -0.6268
 4007SOL     OW23656   0.954   3.354  13.375  0.5242 -0.0885  1.6398
 4007SOL    HW123657   0.998   3.438  13.364  0.8902 -0.2801  1.6125
 4007SOL    HW223658   1.022   3.286  13.370  0.7440  0.1990  0.6992
 4008SOL     OW23659   4.607   0.180   5.813 -0.0660 -0.0559  0.4574
 4008SOL    HW123660   4.644   0.137   5.736 -0.9047 -0.1126  0.0818
 4008SOL    HW223661   4.673   0.162   5.880  0.0696  2.3761  0.9443
 4009SOL     OW23662   4.528   2.850   8.977  0.3680 -0.4200 -0.1999
 4009SOL    HW123663   4.497   2.777   9.031 -0.1678 -0.3887 -0.4648
 4009SOL    HW223664   4.615   2.857   9.015 -0.1069 -2.2382  1.2064
 4010SOL     OW23665   1.587   4.214   7.314 -0.1046 -0.2689 -0.3672
 4010SOL    HW123666   1.522   4.281   7.291 -3.1783 -2.5117  1.8181
 4010SOL    HW223667   1.612   4.181   7.228  0.9734 -1.6418  0.4845
 4011SOL     OW23668   2.943   0.922   8.602 -0.3759  0.0098 -0.1815
 4011SOL    HW123669   2.884   0.983   8.645  0.9860  1.1907  0.0362
 4011SOL    HW223670   2.999   0.979   8.548  0.2066  0.1861  0.6115
 4012SOL     OW23671   3.007   4.564   4.234 -0.4580 -0.3908 -0.0920
 4012SOL    HW123672   3.014   4.656   4.259  2.2396 -0.2726 -1.2686
 4012SOL    HW223673   2.944   4.569   4.162  0.4886 -0.4115 -0.9204
 4013SOL     OW23674   4.390   1.583   9.971 -0.1303 -0.5226 -0.1085
 4013SOL    HW123675   4.456   1.623  10.026 -1.0364  0.8789 -0.0528
 4013SOL    HW223676   4.447   1.518   9.929 -1.2047 -1.4869 -0.0892
 4014SOL     OW23677   1.872   3.585   8.685 -0.3840  0.2483  0.1281
 4014SOL    HW123678   1.826   3.636   8.618  1.9091  1.1145 -0.7914
 4014SOL    HW223679   1.837   3.625   8.765  0.2251  2.1602 -0.5495
 4015SOL     OW23680   2.306   1.681   9.323 -0.2300 -0.0278  0.1621
 4015SOL    HW123681   2.337   1.627   9.396  2.0727 -0.6061 -1.2462
 4015SOL    HW223682   2.388   1.679   9.273 -0.5875  0.7376 -0.4579
 4016SOL     OW23683   3.387   0.445   1.172 -0.0935 -0.8785  0.3508
 4016SOL    HW123684   3.447   0.382   1.133  0.0794  0.6426 -1.8598
 4016SOL    HW223685   3.350   0.479   1.091  2.4866  1.7399  0.2635
 4017SOL     OW23686   2.981   4.650   7.873  0.0645  0.3816  0.0537
 4017SOL    HW123687   3.074   4.635   7.890  0.7424  3.0094 -1.3226
 4017SOL    HW223688   2.951   4.579   7.816  0.7922 -1.5686  2.0928
 4018SOL     OW23689   0.316   2.132   0.023 -0.0801 -0.0149 -0.2562
 4018SOL    HW123690   0.270   2.198   0.075  0.1531  0.8034 -1.0922
 4018SOL    HW223691   0.289   2.161  17.686  0.2829  0.5200 -0.1907
 4019SOL     OW23692   0.186   4.658   9.688  0.3186  0.4597  0.4508
 4019SOL    HW123693   0.104   4.700   9.714 -0.2511  0.6899 -1.7943
 4019SOL    HW223694   0.168   4.632   9.598  1.7664  1.0206  0.0075
 4020SOL     OW23695   2.242   4.182   2.184 -0.0339 -0.2635  0.6676
 4020SOL    HW123696   2.205   4.174   2.096  1.2687  2.3099 -0.1140
 4020SOL    HW223697   2.165   4.165   2.238 -1.1441 -0.4250 -0.9641
 4021SOL     OW23698   4.318   2.605   6.366 -0.0796 -0.0032  0.3322
 4021SOL    HW123699   4.261   2.538   6.329  1.1063 -1.4998  1.1991
 4021SOL    HW223700   4.256   2.672   6.392 -0.1850  1.4231 -3.6644
 4022SOL     OW23701   2.088   1.550   7.461 -0.2851  0.2587 -0.0102
 4022SOL    HW123702   1.994   1.567   7.458 -0.3394 -0.8649 -3.9426
 4022SOL    HW223703   2.121   1.639   7.474  1.2704 -0.4602  1.0111
 4023SOL     OW23704   4.579   3.761   6.461 -0.3866  0.3302 -0.1323
 4023SOL    HW123705   4.640   3.813   6.408 -2.4741  2.6766 -0.2032
 4023SOL    HW223706   4.568   3.820   6.536  0.4242  0.9087 -0.4735
 4024SOL     OW23707   1.359   1.442   7.719 -0.0415 -0.0912  0.3456
 4024SOL    HW123708   1.284   1.501   7.722  1.1460  1.3168  2.3887
 4024SOL    HW223709   1.415   1.479   7.651  0.5786 -0.0196  0.8962
 4025SOL     OW23710   0.615   1.649   3.972  0.1922 -0.1044 -0.1770
 4025SOL    HW123711   0.624   1.686   4.060 -1.8344 -0.9065  0.3793
 4025SOL    HW223712   0.536   1.597   3.991 -1.5375  2.0947 -1.3291
 4026SOL     OW23713   2.024   0.839   7.641  0.7440  0.0221 -0.0638
 4026SOL    HW123714   1.948   0.879   7.599  2.0824  2.2344 -0.3894
 4026SOL    HW223715   2.090   0.869   7.579  0.6133  0.1338 -0.1501
 4027SOL     OW23716   2.959   1.408   2.856  0.7495  0.0671  0.3112
 4027SOL    HW123717   2.959   1.475   2.924  0.7547  0.6085 -0.2235
 4027SOL    HW223718   2.910   1.338   2.899 -1.5415  1.5686  0.1191
 4028SOL     OW23719   2.450   1.216  13.930  0.5035 -0.3420 -0.2776
 4028SOL    HW123720   2.412   1.186  14.013  0.8179  0.2524  0.0763
 4028SOL    HW223721   2.443   1.134  13.880 -1.1317  0.3011 -1.0903
 4029SOL     OW23722   1.187   2.878   8.700  0.4405  0.0484 -0.1043
 4029SOL    HW123723   1.179   2.932   8.621  0.1444 -0.6483 -0.5504
 4029SOL    HW223724   1.098   2.845   8.713  0.8246 -0.8500  0.2112
 4030SOL     OW23725   0.148   1.880   8.178  0.0870  0.3641 -0.2442
 4030SOL    HW123726   0.223   1.939   8.178  0.2542  0.1466 -0.7804
 4030SOL    HW223727   0.092   1.918   8.110  1.2052  1.3630 -0.5965
 4031SOL     OW23728   4.006   1.070   2.892 -0.5738  0.8699  0.0983
 4031SOL    HW123729   4.026   1.113   2.809 -1.5669  0.6815 -0.2481
 4031SOL    HW223730   4.075   1.098   2.951 -0.6783 -1.6566  1.4414
 4032SOL     OW23731   2.897   0.895   3.666  0.0283  0.0830  0.3204
 4032SOL    HW123732   2.888   0.822   3.605 -0.9585 -1.1739  1.9931
 4032SOL    HW223733   2.859   0.961   3.608  2.6834  1.9646  0.7126
 4033SOL     OW23734   1.714   3.206   5.975  0.0305 -0.0355  0.0718
 4033SOL    HW123735   1.644   3.207   6.040 -1.2143 -1.8313 -1.2615
 4033SOL    HW223736   1.675   3.173   5.894  0.5081 -1.1644  0.3156
 4034SOL     OW23737   4.196   0.395   9.671  0.0167  0.1865 -0.4704
 4034SOL    HW123738   4.289   0.403   9.649 -0.2492 -0.5837 -1.8661
 4034SOL    HW223739   4.165   0.312   9.636 -3.7251  0.6574  1.6854
 4035SOL     OW23740   4.196   2.950   8.136  0.1849 -0.1138 -0.2054
 4035SOL    HW123741   4.122   2.990   8.181 -0.0506  0.2307 -0.8976
 4035SOL    HW223742   4.255   2.947   8.211  0.3311  2.5983 -0.1958
 4036SOL     OW23743   0.707   1.122   8.671 -0.2685 -0.0643 -0.5333
 4036SOL    HW123744   0.671   1.037   8.646 -0.8363 -0.4487  1.6016
 4036SOL    HW223745   0.664   1.184   8.612  0.0899 -0.5113 -1.2496
 4037SOL     OW23746   1.519   0.251  16.597  1.0730 -0.4885 -0.6122
 4037SOL    HW123747   1.599   0.285  16.639  2.1086 -1.6624 -1.6385
 4037SOL    HW223748   1.554   0.162  16.587  0.8344 -0.6860  0.2464
 4038SOL     OW23749   4.681   1.313   9.138 -0.1147 -0.6263  0.3771
 4038SOL    HW123750   4.677   1.400   9.098  1.3733 -0.8134 -0.1719
 4038SOL    HW223751   4.590   1.283   9.136  0.0466 -1.1606  0.8392
 4039SOL     OW23752   1.195   3.373   1.859 -0.4666 -0.2087  0.0311
 4039SOL    HW123753   1.124   3.403   1.916 -1.3313 -1.7707 -0.2327
 4039SOL    HW223754   1.188   3.278   1.869  0.5997 -0.1409  1.6149
 4040SOL     OW23755   4.331   4.398   4.725 -0.8442 -0.3573  0.4440
 4040SOL    HW123756   4.271   4.469   4.699  0.9244  0.6498 -0.8819
 4040SOL    HW223757   4.317   4.401   4.820 -1.1179 -0.2214  0.4015
 4041SOL     OW23758   3.757   4.711   9.125  0.1586 -0.6365 -0.2066
 4041SOL    HW123759   3.698   4.711   9.050 -1.6356 -0.4744  1.2077
 4041SOL    HW223760   3.836   4.738   9.078  0.5142 -0.3028  0.5788
 4042SOL     OW23761   1.943   4.394  15.221  0.4313 -0.1592  0.8601
 4042SOL    HW123762   1.893   4.448  15.161  0.5377 -1.8067 -0.7362
 4042SOL    HW223763   1.878   4.387  15.291 -0.2426 -0.8685  0.1687
 4043SOL     OW23764   2.174   2.672   8.011  0.6452 -0.3481  0.4841
 4043SOL    HW123765   2.204   2.725   8.086 -0.8778 -0.8963  1.4941
 4043SOL    HW223766   2.147   2.588   8.048  1.9257 -0.8293  0.3095
 4044SOL     OW23767   3.805   1.053   8.530 -0.1448 -0.1854  0.0760
 4044SOL    HW123768   3.830   0.970   8.490 -2.6530 -1.2406  0.7038
 4044SOL    HW223769   3.773   1.103   8.455  0.8210  0.9821  0.4372
 4045SOL     OW23770   3.853   3.740   6.121 -0.5660  0.0654 -0.3587
 4045SOL    HW123771   3.832   3.657   6.077 -0.8626 -0.0821  0.0650
 4045SOL    HW223772   3.927   3.768   6.067 -0.6466  0.0718 -0.4660
 4046SOL     OW23773   1.178   1.009   4.487 -0.4080  0.1942 -0.2967
 4046SOL    HW123774   1.086   1.021   4.463 -0.1104 -0.7209 -1.8955
 4046SOL    HW223775   1.223   0.982   4.408 -0.6058  1.7778 -0.9559
 4047SOL     OW23776   3.122   4.261   5.805 -0.4068 -0.6998 -0.0474
 4047SOL    HW123777   3.175   4.196   5.759  2.2894  2.1473 -1.0282
 4047SOL    HW223778   3.160   4.348   5.791 -2.1802  0.5338  2.8975
 4048SOL     OW23779   4.454   1.120   4.902  0.3279  0.4950  0.3488
 4048SOL    HW123780   4.411   1.119   4.987 -1.5449  0.3287 -0.5973
 4048SOL    HW223781   4.493   1.034   4.887 -2.1946 -0.3389 -1.5194
 4049SOL     OW23782   4.118   1.633   5.154  0.4280 -0.2174 -0.5727
 4049SOL    HW123783   4.114   1.705   5.217  1.0170 -1.5681  1.0075
 4049SOL    HW223784   4.151   1.565   5.213  1.2853 -0.6891 -1.6116
 4050SOL     OW23785   2.713   0.810   5.836  0.2252 -0.6257 -0.2381
 4050SOL    HW123786   2.776   0.877   5.811 -2.4497  2.0705  0.3039
 4050SOL    HW223787   2.746   0.741   5.778  0.7220 -0.1114 -0.5551
 4051SOL     OW23788   1.316   2.556   9.434 -0.4879  0.6349  0.8421
 4051SOL    HW123789   1.411   2.566   9.428 -0.5506  0.5389 -0.4807
 4051SOL    HW223790   1.309   2.461   9.437 -2.6891  0.6952 -1.9531
 4052SOL     OW23791   4.222   1.099  12.324 -0.0829  0.0678  0.1666
 4052SOL    HW123792   4.162   1.119  12.396 -1.2442 -0.5520 -0.6231
 4052SOL    HW223793   4.258   1.023  12.371 -2.1056  0.7138  2.7850
 4053SOL     OW23794   0.261   0.235   5.347  0.7773 -0.4631 -0.3197
 4053SOL    HW123795   0.254   0.316   5.298 -0.6610  0.5532  1.5737
 4053SOL    HW223796   0.263   0.275   5.434 -1.0844  2.1142 -1.4624
 4054SOL     OW23797   4.660   0.468   9.103  0.4703  0.0325 -0.4067
 4054SOL    HW123798   4.693   0.430   9.022  0.5992 -0.2452 -0.2214
 4054SOL    HW223799   4.732   0.470   9.165 -1.7341 -0.7332  2.1857
 4055SOL     OW23800   3.928   1.361   3.149  0.3722 -0.4407 -0.4665
 4055SOL    HW123801   3.915   1.444   3.195  1.4314 -1.2676  1.3394
 4055SOL    HW223802   3.989   1.328   3.215 -0.8247 -2.6365 -0.4579
 4056SOL     OW23803   2.498   3.542   9.743  0.0789 -0.1361 -0.1079
 4056SOL    HW123804   2.414   3.570   9.780 -0.3346 -1.4543 -0.0409
 4056SOL    HW223805   2.501   3.449   9.767  0.4852 -0.0442  0.2026
 4057SOL     OW23806   1.948   0.096  10.304 -0.2259  0.3305  0.0147
 4057SOL    HW123807   1.913   0.184  10.296  1.1148  0.8253 -0.5406
 4057SOL    HW223808   2.009   0.102  10.378  1.9949 -0.5076 -1.7360
 4058SOL     OW23809   0.604   3.669   7.608 -0.0927 -0.8822 -0.1403
 4058SOL    HW123810   0.657   3.696   7.683  0.8054 -2.8575 -0.0761
 4058SOL    HW223811   0.520   3.655   7.652  0.5811 -0.7796  1.1793
 4059SOL     OW23812   2.773   2.660  12.826 -0.3572  0.2454  0.3059
 4059SOL    HW123813   2.716   2.680  12.901 -0.0108  0.5039  0.5013
 4059SOL    HW223814   2.859   2.689  12.857 -0.2830 -2.1974  2.3906
 4060SOL     OW23815   2.518   1.785   7.634  0.7121  0.0264 -0.2724
 4060SOL    HW123816   2.543   1.697   7.606 -0.0354  0.1567 -1.3350
 4060SOL    HW223817   2.545   1.782   7.726  1.5617 -0.1213 -0.5279
 4061SOL     OW23818   1.691   2.968  10.960  0.2699 -0.7124 -0.3208
 4061SOL    HW123819   1.766   2.911  10.947  0.6793 -0.5752  1.5336
 4061SOL    HW223820   1.687   3.004  10.871  1.4788 -1.3319 -0.6178
 4062SOL     OW23821   3.542   4.587   4.726 -0.0110  0.3209  0.7999
 4062SOL    HW123822   3.511   4.562   4.813 -1.0979  3.7626  1.3957
 4062SOL    HW223823   3.630   4.549   4.719 -0.6960 -1.3724  1.2403
 4063SOL     OW23824   3.958   4.470   4.954 -0.3366  0.3980 -0.0684
 4063SOL    HW123825   3.972   4.510   4.868 -2.0476 -1.0055 -1.0073
 4063SOL    HW223826   3.911   4.542   4.997  1.4917  1.9067 -0.6060
 4064SOL     OW23827   2.913   0.347   8.354 -0.0094  0.2912 -0.0384
 4064SOL    HW123828   2.891   0.301   8.435 -0.1081 -0.3839 -0.4419
 4064SOL    HW223829   2.937   0.435   8.383  1.8356  0.0652 -0.8680
 4065SOL     OW23830   0.838   0.926   8.907 -0.6821  0.0440 -0.7515
 4065SOL    HW123831   0.812   0.992   8.843 -0.6187  1.0395  0.2654
 4065SOL    HW223832   0.932   0.941   8.915 -0.9924  1.8176 -0.6029
 4066SOL     OW23833   1.479   2.900   1.832  0.3256  0.8034 -0.5129
 4066SOL    HW123834   1.442   2.812   1.837  1.4204  0.3984  0.3872
 4066SOL    HW223835   1.437   2.953   1.901  1.5325  1.0525  0.0198
 4067SOL     OW23836   4.439   1.326  12.207  0.5415 -0.1975  0.5056
 4067SOL    HW123837   4.384   1.331  12.285  1.4222  0.1563  1.1090
 4067SOL    HW223838   4.449   1.231  12.193  1.9299  0.1910 -1.1474
 4068SOL     OW23839   3.184   2.606   5.662 -0.5056 -0.6757  0.2999
 4068SOL    HW123840   3.198   2.588   5.755  0.7435  2.2523  0.6770
 4068SOL    HW223841   3.258   2.663   5.641 -1.0279 -0.2568 -0.4382
 4069SOL     OW23842   1.459   4.480   1.902  0.2936  0.3202  0.3129
 4069SOL    HW123843   1.536   4.480   1.958  0.4264 -1.2314  0.1151
 4069SOL    HW223844   1.501   4.483   1.816 -0.3516  0.5787  0.0038
 4070SOL     OW23845   0.673   3.370   4.840  0.3986  0.3190 -0.3454
 4070SOL    HW123846   0.607   3.330   4.784 -1.1004  1.8811  0.2982
 4070SOL    HW223847   0.737   3.300   4.852  0.1713  0.3031  0.7699
 4071SOL     OW23848   3.477   3.318   3.482  0.5061  0.0075 -0.3123
 4071SOL    HW123849   3.447   3.235   3.518  0.0651  0.9367  1.4786
 4071SOL    HW223850   3.422   3.379   3.532 -1.3461 -2.7300  1.0018
 4072SOL     OW23851   3.340   0.452   6.085  0.0510 -0.7494  1.4020
 4072SOL    HW123852   3.417   0.430   6.137  0.6750  2.1910  1.7470
 4072SOL    HW223853   3.365   0.405   6.005  1.2925  1.3996  0.5164
 4073SOL     OW23854   3.148   3.424  11.200 -0.1894 -0.7297 -0.0997
 4073SOL    HW123855   3.156   3.490  11.131 -3.0583  0.3293  0.5677
 4073SOL    HW223856   3.087   3.460  11.264  1.4994 -2.9345  2.7688
 4074SOL     OW23857   0.682   0.120   2.412  0.3042 -0.0006  0.5333
 4074SOL    HW123858   0.698   0.106   2.319 -1.9775 -1.0609  0.3106
 4074SOL    HW223859   0.751   0.177   2.445 -0.3645  0.0964  1.7513
 4075SOL     OW23860   0.616   2.382   1.807 -0.6421  0.0249 -0.4119
 4075SOL    HW123861   0.639   2.380   1.714  2.8915 -2.1465  0.5166
 4075SOL    HW223862   0.553   2.454   1.805  0.4176  0.9816  0.2938
 4076SOL     OW23863   2.223   1.462   7.844  0.5286  0.2921  0.4497
 4076SOL    HW123864   2.302   1.503   7.879  0.8141 -0.0774  0.2370
 4076SOL    HW223865   2.183   1.418   7.919  0.1795 -0.0000  0.0936
 4077SOL     OW23866   4.167   4.652   2.872 -0.2190 -0.2522  0.4186
 4077SOL    HW123867   4.073   4.665   2.883 -0.4236 -1.6544  0.3326
 4077SOL    HW223868   4.178   4.600   2.792  0.6102  2.0032 -0.9121
 4078SOL     OW23869   1.986   4.138   2.269  0.4740 -0.0142  0.0267
 4078SOL    HW123870   1.922   4.202   2.240 -0.3451 -0.3351  1.1396
 4078SOL    HW223871   1.929   4.088   2.327  2.0544  1.8975  3.2233
 4079SOL     OW23872   2.822   4.236   1.822  0.8601  0.7044 -0.1940
 4079SOL    HW123873   2.854   4.258   1.735  1.8684  0.0754  0.0177
 4079SOL    HW223874   2.885   4.171   1.854  0.2831  0.9882  1.5365
 4080SOL     OW23875   4.194   4.292  14.271 -0.5814 -0.0371  0.2347
 4080SOL    HW123876   4.168   4.217  14.325  2.8405 -1.5715 -0.2822
 4080SOL    HW223877   4.227   4.241  14.197 -0.1082  1.6499 -0.7350
 4081SOL     OW23878   3.517   4.202  10.792  0.2694 -0.6127  0.2089
 4081SOL    HW123879   3.604   4.241  10.792  0.1480 -0.3393  0.9546
 4081SOL    HW223880   3.515   4.155  10.875  3.6312 -1.1755 -0.0582
 4082SOL     OW23881   3.764   3.926   5.041  0.1295  0.0270 -0.3505
 4082SOL    HW123882   3.739   3.836   5.020  1.6585 -0.6305  0.6225
 4082SOL    HW223883   3.801   3.916   5.129  2.0652  0.6066 -1.0888
 4083SOL     OW23884   1.280   3.193   0.826 -0.1900  0.6230  0.5540
 4083SOL    HW123885   1.282   3.142   0.907 -0.3163 -1.5739 -0.8352
 4083SOL    HW223886   1.191   3.227   0.841 -0.7185 -0.4999 -0.0175
 4084SOL     OW23887   2.138   1.544   9.530 -0.2534 -0.0522  0.5023
 4084SOL    HW123888   2.146   1.469   9.471 -1.1155  0.0579  0.2499
 4084SOL    HW223889   2.045   1.566   9.526 -0.2269  0.2500  1.5343
 4085SOL     OW23890   1.193   1.957   9.349 -0.8882 -0.4312  0.0768
 4085SOL    HW123891   1.248   1.882   9.368 -2.0525 -1.0366  1.0431
 4085SOL    HW223892   1.192   1.955   9.253  0.1177 -1.3724  0.0889
 4086SOL     OW23893   1.276   3.387   0.360  0.3153 -0.0967  0.1907
 4086SOL    HW123894   1.322   3.361   0.440 -2.5132  2.8263  2.7563
 4086SOL    HW223895   1.265   3.305   0.312  2.1421 -0.1298 -0.1852
 4087SOL     OW23896   1.144   1.747  15.218  0.1521 -0.1837 -0.0928
 4087SOL    HW123897   1.232   1.721  15.246 -0.1920 -1.4231 -0.1848
 4087SOL    HW223898   1.123   1.673  15.161 -0.0382  0.7020 -1.1811
 4088SOL     OW23899   3.060   1.323  11.970 -0.1470 -0.4007  0.1840
 4088SOL    HW123900   3.140   1.374  11.982 -1.7507  2.1329  0.2175
 4088SOL    HW223901   3.010   1.357  12.045  0.7844  0.8290  0.2544
 4089SOL     OW23902   4.645   3.333   5.053  0.1937  0.0295 -0.2534
 4089SOL    HW123903   4.566   3.350   5.002  0.6532  2.5411 -0.0862
 4089SOL    HW223904   4.709   3.320   4.983  1.7876  1.1713  0.9717
 4090SOL     OW23905   2.063   4.075   2.935  0.0633 -0.1982  0.0592
 4090SOL    HW123906   2.126   4.134   2.976  0.2419  0.9821 -1.9108
 4090SOL    HW223907   1.982   4.111   2.972  1.1075 -0.1974  2.3729
 4091SOL     OW23908   1.577   4.582   5.825 -0.0323 -0.0854 -0.5072
 4091SOL    HW123909   1.583   4.488   5.839 -0.8793  0.5762  4.5033
 4091SOL    HW223910   1.632   4.583   5.747  0.6810  1.6969  0.0069
 4092SOL     OW23911   3.869   3.770   8.057  0.6892 -0.2133 -0.1991
 4092SOL    HW123912   3.925   3.695   8.038  0.2331 -0.5144 -0.3619
 4092SOL    HW223913   3.892   3.837   7.993 -1.1541 -0.0735 -0.7226
 4093SOL     OW23914   3.896   1.723   0.622  0.1157 -0.2912 -0.5211
 4093SOL    HW123915   3.846   1.653   0.579  0.9734 -1.3714  0.2459
 4093SOL    HW223916   3.822   1.784   0.622  0.5009  0.1627  1.4062
 4094SOL     OW23917   4.418   2.446   3.253  0.1284  0.3979  0.6715
 4094SOL    HW123918   4.343   2.504   3.238 -1.3885 -1.5226  0.8575
 4094SOL    HW223919   4.423   2.408   3.165  0.7931  0.9049  0.4915
 4095SOL     OW23920   1.930   1.355   9.236 -0.3212 -0.7517 -0.0653
 4095SOL    HW123921   1.882   1.296   9.178  0.3792 -0.4850 -0.9238
 4095SOL    HW223922   1.864   1.372   9.304 -2.0480 -1.4613 -1.5744
 4096SOL     OW23923   1.550   0.204   4.808  0.0700  0.4391 -0.2793
 4096SOL    HW123924   1.542   0.205   4.904  0.3288  0.8430 -0.2618
 4096SOL    HW223925   1.460   0.223   4.780 -0.2570 -0.4389  0.1886
 4097SOL     OW23926   1.301   0.212   8.441  0.3514  0.0886 -0.1616
 4097SOL    HW123927   1.269   0.263   8.366  1.0632  0.5672 -0.1467
 4097SOL    HW223928   1.320   0.291   8.492 -0.9287 -0.1847  0.7458
 4098SOL     OW23929   3.272   3.468   2.844 -0.3799  0.3993 -0.1767
 4098SOL    HW123930   3.198   3.436   2.895 -1.4963 -1.1172 -2.7249
 4098SOL    HW223931   3.340   3.410   2.877 -0.5371  1.1065  1.3678
 4099SOL     OW23932   0.765   1.222   3.011  0.8506 -0.1348  0.7918
 4099SOL    HW123933   0.679   1.191   3.040  0.7328 -0.8125 -0.2759
 4099SOL    HW223934   0.784   1.150   2.952 -3.5954 -0.7194  0.0480
 4100SOL     OW23935   0.062   2.451  11.861  0.2194 -0.0956 -0.0695
 4100SOL    HW123936   4.738   2.379  11.859  1.8654 -1.5620  1.6702
 4100SOL    HW223937   0.030   2.506  11.932  0.3165 -2.0080  1.4378
 4101SOL     OW23938   4.270   2.712   2.892  0.1708 -0.0703  0.0559
 4101SOL    HW123939   4.284   2.804   2.913  1.4318 -0.4632  0.9955
 4101SOL    HW223940   4.340   2.706   2.826 -0.0116 -0.8743 -0.0705
 4102SOL     OW23941   1.544   0.336   3.145  0.0303  0.3385  0.0614
 4102SOL    HW123942   1.580   0.265   3.093  3.2128 -0.5036  3.4244
 4102SOL    HW223943   1.609   0.405   3.147 -0.3683  0.7298 -0.7239
 4103SOL     OW23944   4.241   0.471   5.825  0.2906 -0.3023 -0.2218
 4103SOL    HW123945   4.306   0.429   5.769  0.3605  1.6744 -1.6201
 4103SOL    HW223946   4.285   0.452   5.908  1.1818  2.4902 -0.0678
 4104SOL     OW23947   0.179   3.006   7.710 -0.6298  0.2610  0.0298
 4104SOL    HW123948   0.156   2.957   7.632 -1.3086  3.4872 -1.8128
 4104SOL    HW223949   0.228   2.939   7.758  0.1486  0.2500 -0.7856
 4105SOL     OW23950   1.183   3.395   8.665  0.1485 -0.5089 -0.3737
 4105SOL    HW123951   1.242   3.465   8.692 -1.5037  0.5118  0.6378
 4105SOL    HW223952   1.101   3.424   8.707  0.7002  2.9494 -1.6455
 4106SOL     OW23953   1.221   2.857   2.486  0.0719  0.2679  0.9046
 4106SOL    HW123954   1.146   2.910   2.460 -1.2376 -1.1699  1.7228
 4106SOL    HW223955   1.184   2.776   2.449  0.2738 -0.4946  2.3848
 4107SOL     OW23956   1.179   0.353   8.220  0.1050  0.4074  0.3997
 4107SOL    HW123957   1.182   0.323   8.129 -1.6814 -0.7746  0.7174
 4107SOL    HW223958   1.212   0.442   8.214  0.6021  0.3372  2.0789
 4108SOL     OW23959   2.086   2.946   6.310  0.1684  0.2012  0.5049
 4108SOL    HW123960   2.098   2.860   6.349 -0.3709  0.9370  2.2979
 4108SOL    HW223961   2.101   2.937   6.216  1.0215  1.0616  0.5485
 4109SOL     OW23962   4.060   1.529   7.510  0.0835  0.0698 -0.3764
 4109SOL    HW123963   4.058   1.466   7.582  1.5438 -1.2062 -1.4549
 4109SOL    HW223964   3.968   1.516   7.486 -0.6289  0.7418  1.9762
 4110SOL     OW23965   4.328   1.554  11.163 -0.1469  0.0085  0.3905
 4110SOL    HW123966   4.312   1.553  11.257 -1.4037  0.0250  0.1780
 4110SOL    HW223967   4.300   1.465  11.140 -0.9106  0.2629  0.3398
 4111SOL     OW23968   0.895   2.909   5.620 -0.0245 -0.1388  0.4407
 4111SOL    HW123969   0.830   2.849   5.585  0.3280 -1.1481  1.5167
 4111SOL    HW223970   0.855   2.927   5.705  0.3865  0.6491  0.4686
 4112SOL     OW23971   4.736   1.525   6.217  0.0193 -0.0471 -0.4719
 4112SOL    HW123972   0.032   1.580   6.288 -3.0994 -1.4252  2.1287
 4112SOL    HW223973   4.728   1.444   6.269  1.3289 -1.6888 -2.8238
 4113SOL     OW23974   0.101   0.247   3.009 -0.2999  0.1985  1.0089
 4113SOL    HW123975   0.182   0.271   2.963 -1.0201 -1.0221 -0.9061
 4113SOL    HW223976   0.065   0.195   2.937  0.7292  1.9876 -0.8181
 4114SOL     OW23977   1.992   3.066   3.508 -1.1055  0.8872  0.4088
 4114SOL    HW123978   1.897   3.078   3.501 -1.2644 -0.9314 -0.5599
 4114SOL    HW223979   2.006   3.019   3.590 -2.1086  1.3155  0.8288
 4115SOL     OW23980   0.248   4.546   1.601  0.1465  0.0348 -0.8741
 4115SOL    HW123981   0.329   4.516   1.642 -0.2773  2.3534  1.7073
 4115SOL    HW223982   0.243   4.475   1.536 -1.5923  1.4262 -2.2706
 4116SOL     OW23983   4.004   1.570   3.687 -0.5921  0.0937  0.0298
 4116SOL    HW123984   3.926   1.515   3.702 -1.0295  1.8413  4.1691
 4116SOL    HW223985   4.060   1.517   3.631 -1.2343  0.0374 -0.5594
 4117SOL     OW23986   2.128   3.387  17.327  0.8077  0.2480  0.0508
 4117SOL    HW123987   2.059   3.431  17.377  0.1725 -0.9481  0.2360
 4117SOL    HW223988   2.101   3.411  17.239  2.6282 -0.4512 -0.7004
 4118SOL     OW23989   2.766   0.119  10.855 -0.1039  0.3198  0.0875
 4118SOL    HW123990   2.735   0.199  10.812 -1.5683 -0.4389 -0.2867
 4118SOL    HW223991   2.724   0.058  10.794  1.7420 -1.1270  0.2888
 4119SOL     OW23992   4.076   2.173   4.312  0.1183 -0.1115  1.0471
 4119SOL    HW123993   3.994   2.214   4.341  0.6326  0.6373  1.4661
 4119SOL    HW223994   4.139   2.245   4.317  1.7182 -1.4351 -0.0238
 4120SOL     OW23995   2.412   4.473  15.215 -0.5832  0.1633 -0.1170
 4120SOL    HW123996   2.418   4.405  15.282  0.9361  1.2739  0.8700
 4120SOL    HW223997   2.320   4.495  15.224 -0.4883  0.5913 -0.2203
 4121SOL     OW23998   2.554   2.401   3.058  0.0544  0.1298  0.1368
 4121SOL    HW123999   2.570   2.378   2.967 -0.3790  1.7127 -0.3424
 4121SOL    HW224000   2.647   2.421   3.074 -0.0815 -0.0164  1.1234
 4122SOL     OW24001   4.649   4.414   8.578  0.2578 -0.3370  0.2238
 4122SOL    HW124002   4.627   4.475   8.508  0.1756 -0.5770  0.0394
 4122SOL    HW224003   4.578   4.351   8.565 -0.6350  1.1465 -2.1588
 4123SOL     OW24004   1.258   1.457   2.906  0.4523  0.4748  0.3151
 4123SOL    HW124005   1.225   1.375   2.870  4.7339 -1.0818 -0.1471
 4123SOL    HW224006   1.182   1.489   2.955  1.3037  1.0594  1.2612
 4124SOL     OW24007   4.223   2.492  15.974 -0.0689 -0.2799  0.2857
 4124SOL    HW124008   4.132   2.515  15.995 -0.3240 -0.2757 -0.8335
 4124SOL    HW224009   4.236   2.563  15.911  0.8311  0.0426  0.8402
 4125SOL     OW24010   3.362   0.288  10.917 -0.8488  0.0426  0.6918
 4125SOL    HW124011   3.283   0.285  10.970 -0.8531 -1.5912  0.5956
 4125SOL    HW224012   3.413   0.361  10.953 -0.9867  0.0532  0.8640
 4126SOL     OW24013   2.747   1.002   4.465  0.4045  0.1445 -0.7688
 4126SOL    HW124014   2.733   0.979   4.557 -2.5015  2.1477 -0.7305
 4126SOL    HW224015   2.695   0.939   4.414  1.1417 -1.1387  0.0679
 4127SOL     OW24016   3.390   0.166   6.310  0.3116 -0.0548  0.1946
 4127SOL    HW124017   3.439   0.245   6.287  0.7314 -0.3633  0.0338
 4127SOL    HW224018   3.301   0.200   6.306 -0.3380 -1.7893 -0.1783
 4128SOL     OW24019   3.540   2.987   6.388 -0.4720 -0.6645 -0.1844
 4128SOL    HW124020   3.561   2.979   6.481 -2.4929  1.8850  0.5153
 4128SOL    HW224021   3.475   3.058   6.389  0.7373  0.4411  0.1401
 4129SOL     OW24022   2.106   2.711   5.684  0.3748 -0.2648  0.3779
 4129SOL    HW124023   2.177   2.774   5.684 -0.7350  0.9874 -0.4098
 4129SOL    HW224024   2.042   2.773   5.719  1.2312  1.7299 -1.6525
 4130SOL     OW24025   2.593   1.035   3.580  0.0993  0.5217 -0.2902
 4130SOL    HW124026   2.567   1.044   3.488 -0.4811  2.3638  0.0584
 4130SOL    HW224027   2.664   1.099   3.589  1.4890 -0.8649 -1.5436
 4131SOL     OW24028   4.318   3.197   7.417  0.0015 -0.1062  0.3699
 4131SOL    HW124029   4.354   3.180   7.504  0.6203  1.0028  0.3301
 4131SOL    HW224030   4.348   3.119   7.369  0.9249  0.3158  0.2472
 4132SOL     OW24031   2.974   4.013   2.797 -0.2620  0.1548 -0.2192
 4132SOL    HW124032   3.057   4.008   2.843 -1.5831 -2.8809  1.8006
 4132SOL    HW224033   2.966   4.105   2.772  0.2199  0.4300  0.6687
 4133SOL     OW24034   3.212   3.454  10.854 -0.4544 -0.5154 -0.2402
 4133SOL    HW124035   3.206   3.500  10.938  1.0548 -2.0181  0.7127
 4133SOL    HW224036   3.130   3.476  10.811 -0.9232  0.0428  0.9384
 4134SOL     OW24037   3.448   3.122  11.312  0.3399  0.6496  0.1094
 4134SOL    HW124038   3.354   3.108  11.306  0.4592  0.4126 -1.3075
 4134SOL    HW224039   3.481   3.061  11.246 -1.5104 -0.2683  0.0297
 4135SOL     OW24040   0.669   1.614   5.689 -0.1874 -0.5908 -0.3115
 4135SOL    HW124041   0.593   1.600   5.746  0.2878 -1.0920  0.2046
 4135SOL    HW224042   0.741   1.583   5.745  0.5803  1.9437  0.0779
 4136SOL     OW24043   1.577   1.859  12.259 -0.4178  0.0281  0.3133
 4136SOL    HW124044   1.518   1.934  12.251 -1.2609 -0.4587  1.9588
 4136SOL    HW224045   1.660   1.886  12.218  1.4829 -1.4648  3.1556
 4137SOL     OW24046   3.552   4.478   6.757 -0.1551 -0.0246  0.4936
 4137SOL    HW124047   3.495   4.479   6.680  1.3938 -0.5183 -0.6646
 4137SOL    HW224048   3.588   4.390   6.742  0.9383  0.6732 -0.9955
 4138SOL     OW24049   2.505   2.124  15.612  0.2108 -0.0032  0.2875
 4138SOL    HW124050   2.544   2.070  15.680 -0.6218 -1.9890 -0.8196
 4138SOL    HW224051   2.554   2.092  15.537  0.6975  1.2228  0.0788
 4139SOL     OW24052   0.712   1.059   5.173 -0.5053 -0.1283  0.6579
 4139SOL    HW124053   0.705   1.120   5.100  0.4908  1.8617  2.2395
 4139SOL    HW224054   0.792   1.083   5.219  0.4988 -1.6357 -0.3256
 4140SOL     OW24055   1.275   0.184   3.840  0.1589 -0.0066  0.2822
 4140SOL    HW124056   1.328   0.174   3.761  1.9727 -2.3573  1.8245
 4140SOL    HW224057   1.187   0.196   3.804 -0.7140 -1.5101  1.9348
 4141SOL     OW24058   3.503   1.964  11.014  0.4250 -0.5882 -0.9831
 4141SOL    HW124059   3.475   1.876  11.039  3.5507 -1.5169 -0.7348
 4141SOL    HW224060   3.530   2.001  11.097 -2.0412  0.7735 -0.7977
 4142SOL     OW24061   0.359   1.042   2.810 -0.1079 -0.0260 -0.0459
 4142SOL    HW124062   0.296   1.114   2.803 -0.2450 -0.0451  0.9359
 4142SOL    HW224063   0.331   1.002   2.892 -2.0031 -1.3221 -1.3205
 4143SOL     OW24064   3.697   3.585  12.409  0.1455 -0.0023  0.4714
 4143SOL    HW124065   3.700   3.490  12.424 -1.1189 -0.1735 -0.3386
 4143SOL    HW224066   3.786   3.604  12.438 -0.5183  0.6012  2.0848
 4144SOL     OW24067   0.311   3.392   2.172  0.5125  0.6689 -0.0458
 4144SOL    HW124068   0.405   3.387   2.155  0.8178  4.1548  0.5751
 4144SOL    HW224069   0.286   3.411   2.082  2.4626  0.4450 -0.6353
 4145SOL     OW24070   0.063   1.862  17.497 -0.1981 -0.0460  0.3908
 4145SOL    HW124071   0.079   1.768  17.511 -0.7660 -0.4753 -1.7675
 4145SOL    HW224072   0.070   1.902  17.583  0.9744 -1.0158  0.7547
 4146SOL     OW24073   4.521   1.780   5.465 -0.2113  0.3677 -0.4228
 4146SOL    HW124074   4.454   1.730   5.418 -0.2743 -0.0016  0.0583
 4146SOL    HW224075   4.502   1.753   5.555  1.7801  2.9201  0.7558
 4147SOL     OW24076   0.943   0.674  17.128 -0.1115  0.1870  0.6810
 4147SOL    HW124077   0.900   0.729  17.193  0.5327  1.4253  0.0459
 4147SOL    HW224078   1.030   0.713  17.138  0.4609 -0.6569 -0.9612
 4148SOL     OW24079   4.361   1.313  15.213 -0.1510 -0.1590 -0.2120
 4148SOL    HW124080   4.385   1.340  15.124 -0.7826  0.1777 -0.2871
 4148SOL    HW224081   4.447   1.308  15.255 -0.6004  0.1904  0.7460
 4149SOL     OW24082   1.619   4.568   3.358 -0.0176  0.2520 -0.5368
 4149SOL    HW124083   1.710   4.598   3.361  0.7425 -2.0297 -1.0479
 4149SOL    HW224084   1.601   4.569   3.452 -0.2736 -0.2861 -0.5778
 4150SOL     OW24085   2.282   3.250   1.917 -0.7008 -0.0869 -0.3252
 4150SOL    HW124086   2.304   3.273   1.827  2.2444  1.5799  0.8234
 4150SOL    HW224087   2.228   3.173   1.903 -1.5866  0.6375 -0.8932
 4151SOL     OW24088   4.008   4.419   0.017  0.0098 -0.0804 -0.2288
 4151SOL    HW124089   3.959   4.385  17.693 -1.4610 -0.8164  1.0908
 4151SOL    HW224090   4.006   4.345   0.077  3.0128  1.5565  1.8661
 4152SOL     OW24091   4.190   0.674   4.089  0.3420  0.0501  0.2263
 4152SOL    HW124092   4.155   0.598   4.136 -0.4768 -0.1089 -0.6391
 4152SOL    HW224093   4.156   0.659   4.001 -0.8237  1.1958  0.4837
 4153SOL     OW24094   2.937   0.082   7.128 -0.7174 -0.3368 -0.1107
 4153SOL    HW124095   2.974   0.142   7.192 -0.0368  0.3171 -1.1237
 4153SOL    HW224096   3.009   0.020   7.123  0.9218  1.4136  2.3653
 4154SOL     OW24097   1.613   2.053   2.336 -0.0719 -0.0144 -0.3379
 4154SOL    HW124098   1.641   1.973   2.292 -0.7034 -0.3255 -0.1857
 4154SOL    HW224099   1.680   2.069   2.402 -1.4725  0.5892  0.9313
 4155SOL     OW24100   0.895   1.048   4.431 -0.3957 -0.1145  0.3059
 4155SOL    HW124101   0.818   1.004   4.396 -0.2607 -0.6082  0.6273
 4155SOL    HW224102   0.859   1.085   4.511  3.2812  3.2871  0.4348
 4156SOL     OW24103   1.025   0.276   2.650 -0.4262 -0.1907 -0.0035
 4156SOL    HW124104   0.938   0.307   2.625 -0.5337 -0.2410  0.3080
 4156SOL    HW224105   1.082   0.351   2.636 -0.6326  0.7643  4.3653
 4157SOL     OW24106   3.997   1.156  15.918 -0.2827  0.3740  0.7561
 4157SOL    HW124107   3.973   1.088  15.854 -0.9835  0.6843  0.6832
 4157SOL    HW224108   4.056   1.110  15.977  0.3823  0.8557  0.4598
 4158SOL     OW24109   3.209   3.100  15.361  0.9842  0.5364  0.2733
 4158SOL    HW124110   3.276   3.168  15.361 -0.6404  2.1220  1.4828
 4158SOL    HW224111   3.201   3.075  15.453 -2.6588  1.4704  0.2250
 4159SOL     OW24112   2.779   2.426   8.581 -0.1091 -0.9953  0.1274
 4159SOL    HW124113   2.711   2.492   8.592  0.8661  0.3221 -1.7283
 4159SOL    HW224114   2.727   2.353   8.548 -1.8510  0.1771  0.3018
 4160SOL     OW24115   0.975   4.175  10.112  0.3701  0.9837  0.7421
 4160SOL    HW124116   0.995   4.255  10.063 -0.7831 -0.0175 -1.4008
 4160SOL    HW224117   1.011   4.108  10.054  0.7406  0.2394  1.8462
 4161SOL     OW24118   4.722   0.588   7.219  0.0415 -0.0372  0.1496
 4161SOL    HW124119   4.715   0.493   7.224  1.3260 -0.2045 -1.4775
 4161SOL    HW224120   4.640   0.611   7.263 -1.1132 -3.3617 -0.2973
 4162SOL     OW24121   3.608   0.474   7.379 -0.3890 -0.4044  0.2446
 4162SOL    HW124122   3.643   0.544   7.324 -0.5397 -0.8016 -0.3571
 4162SOL    HW224123   3.552   0.435   7.312  0.5179 -1.1281 -0.0992
 4163SOL     OW24124   3.741   3.309  15.122 -0.3199 -0.1234  0.3077
 4163SOL    HW124125   3.664   3.361  15.146 -0.5813 -0.5315  0.3546
 4163SOL    HW224126   3.732   3.294  15.028 -0.1779 -1.0618  0.4409
 4164SOL     OW24127   2.171   0.306   9.767 -0.0038  0.0964 -0.5017
 4164SOL    HW124128   2.256   0.337   9.734 -0.0133 -0.6300 -1.1975
 4164SOL    HW224129   2.127   0.389   9.786  0.8564  0.3398  0.4453
 4165SOL     OW24130   3.471   3.598   3.945 -0.2444 -0.5682  0.2467
 4165SOL    HW124131   3.424   3.666   3.898 -0.6752 -0.7695  0.3856
 4165SOL    HW224132   3.492   3.650   4.023 -0.4922 -0.0579 -0.0307
 4166SOL     OW24133   2.596   1.049   9.372 -0.6783  0.3434 -0.5643
 4166SOL    HW124134   2.615   1.017   9.461  1.8008  0.1164 -1.1562
 4166SOL    HW224135   2.665   1.003   9.324 -1.3122  0.6314 -1.7423
 4167SOL     OW24136   0.215   1.574   9.294  0.1607 -0.0209  0.1223
 4167SOL    HW124137   0.167   1.587   9.376 -0.0517  3.7263 -0.5813
 4167SOL    HW224138   0.269   1.653   9.298  2.3188 -1.4798  0.0709
 4168SOL     OW24139   2.529   3.322  13.339 -0.7836 -0.3096 -0.3405
 4168SOL    HW124140   2.619   3.349  13.321  0.2072 -1.6039  2.6711
 4168SOL    HW224141   2.491   3.401  13.379 -0.5352 -1.4276  2.0786
 4169SOL     OW24142   0.502   2.245  11.567 -0.4965 -0.2524 -0.1723
 4169SOL    HW124143   0.571   2.290  11.518 -1.3755 -0.4091 -1.5846
 4169SOL    HW224144   0.430   2.306  11.548 -1.5285 -1.7587 -1.1291
 4170SOL     OW24145   0.886   2.324   7.851 -0.1857 -0.5426  0.4692
 4170SOL    HW124146   0.971   2.301   7.815 -1.8432 -1.7500 -2.7066
 4170SOL    HW224147   0.900   2.319   7.945  2.3377  0.9917  0.1735
 4171SOL     OW24148   4.162   3.489  16.921 -0.8658 -0.6418  0.0737
 4171SOL    HW124149   4.127   3.549  16.855 -0.1527 -0.2312  0.0636
 4171SOL    HW224150   4.181   3.552  16.991 -0.8033  0.1092 -0.6222
 4172SOL     OW24151   2.693   4.587   1.889  0.1740 -0.0068 -0.1447
 4172SOL    HW124152   2.669   4.496   1.905 -1.9393  0.4818 -0.5560
 4172SOL    HW224153   2.777   4.574   1.844  0.4439  0.0742  0.3268
 4173SOL     OW24154   0.821   3.991   0.259  0.0245 -0.2501 -0.5468
 4173SOL    HW124155   0.750   3.950   0.308  0.9541 -2.4523 -1.0390
 4173SOL    HW224156   0.805   4.079   0.292  0.2778  0.3281 -1.9824
 4174SOL     OW24157   3.639   2.067  15.063 -0.3460  0.1303 -1.0833
 4174SOL    HW124158   3.646   1.998  15.128 -2.0022  1.3273  0.3644
 4174SOL    HW224159   3.727   2.104  15.057 -0.5952  0.6609 -1.5809
 4175SOL     OW24160   2.832   4.563   9.620 -0.3700 -0.5574 -0.1329
 4175SOL    HW124161   2.741   4.583   9.643 -0.3289 -1.8178  1.1647
 4175SOL    HW224162   2.818   4.469   9.614  2.3981 -1.0327  0.8115
 4176SOL     OW24163   1.501   1.743   4.979  0.2750 -0.2447  0.0764
 4176SOL    HW124164   1.556   1.669   4.955 -0.0903 -1.3889  2.7819
 4176SOL    HW224165   1.542   1.816   4.932 -2.1039  0.9688 -0.1353
 4177SOL     OW24166   1.506   0.894   1.174 -0.1701  0.3227  0.1813
 4177SOL    HW124167   1.524   0.917   1.083 -0.9775  0.5587  0.0808
 4177SOL    HW224168   1.411   0.878   1.167  0.0528 -0.9997  0.1673
 4178SOL     OW24169   0.913   4.671  14.033 -0.1205 -0.0003 -0.1755
 4178SOL    HW124170   0.927   4.577  14.038  0.5345  0.1009 -0.0980
 4178SOL    HW224171   0.989   4.703  14.082 -0.6613  1.4416 -0.2837
 4179SOL     OW24172   2.168   3.640  16.742 -0.5322 -0.0544  0.0725
 4179SOL    HW124173   2.260   3.646  16.764 -0.9813  1.1686  1.6224
 4179SOL    HW224174   2.125   3.713  16.787 -1.4153 -1.3894  1.3943
 4180SOL     OW24175   2.726   4.087  17.259 -0.3605  0.5745  0.1266
 4180SOL    HW124176   2.632   4.070  17.268 -0.1327 -0.2802  0.8636
 4180SOL    HW224177   2.729   4.181  17.239 -1.3705  0.2805 -1.4835
 4181SOL     OW24178   3.113   0.014  15.095  0.3581  0.3590  0.2421
 4181SOL    HW124179   3.186   0.026  15.034 -0.2477  0.8539 -0.3750
 4181SOL    HW224180   3.047   4.724  15.032  0.9959  0.4878 -0.4830
 4182SOL     OW24181   4.632   0.015   2.384  0.7670 -0.1574 -0.0913
 4182SOL    HW124182   4.571   4.702   2.329  1.2254 -0.1328 -0.6200
 4182SOL    HW224183   4.708   0.003   2.327 -2.8050 -0.4087 -4.8111
 4183SOL     OW24184   3.962   2.019   3.415  0.3730  0.1636 -0.2957
 4183SOL    HW124185   4.012   2.082   3.467 -0.2481 -0.4682  1.0537
 4183SOL    HW224186   3.965   1.945   3.475  3.0711 -0.7152 -1.5414
 4184SOL     OW24187   1.201   4.402   1.919 -0.0660 -0.0941  0.3587
 4184SOL    HW124188   1.294   4.417   1.909 -0.2647  0.1990 -1.0037
 4184SOL    HW224189   1.165   4.425   1.833  1.5734 -0.3965 -0.3965
 4185SOL     OW24190   2.123   2.003   4.438 -0.0330 -0.5296  0.1341
 4185SOL    HW124191   2.192   2.022   4.374 -1.4429 -3.0286 -2.1637
 4185SOL    HW224192   2.059   2.067   4.406  1.8087  1.1593 -0.1393
 4186SOL     OW24193   0.075   4.499   7.344 -0.0393  0.1820 -0.0799
 4186SOL    HW124194   4.719   4.513   7.342  0.0472  0.7999  0.1411
 4186SOL    HW224195   0.095   4.487   7.251 -0.0777  0.5593 -0.1368
 4187SOL     OW24196   3.510   3.067  13.975 -0.3768  0.0769  0.1852
 4187SOL    HW124197   3.502   3.148  13.924 -0.9461  0.9061  1.5914
 4187SOL    HW224198   3.432   3.019  13.948  0.0266  0.8046 -2.3076
 4188SOL     OW24199   2.621   4.584  17.598  0.0095 -0.0123  0.0627
 4188SOL    HW124200   2.609   4.570  17.504  0.9614 -0.6102  0.0262
 4188SOL    HW224201   2.561   4.656  17.619 -2.0070 -0.9746 -2.3354
 4189SOL     OW24202   2.667   3.933  15.767 -0.2728 -0.0902 -0.3334
 4189SOL    HW124203   2.602   3.919  15.835  0.4587 -0.6351  0.2577
 4189SOL    HW224204   2.648   3.866  15.702 -2.2598 -1.5254  1.7304
 4190SOL     OW24205   3.538   1.605   4.166  0.0092 -0.0275  0.3762
 4190SOL    HW124206   3.574   1.543   4.103 -0.4532  0.0047  0.0807
 4190SOL    HW224207   3.520   1.558   4.248  2.1905 -1.7350 -0.1248
 4191SOL     OW24208   1.302   4.194  15.875 -0.4580  0.5646 -0.1044
 4191SOL    HW124209   1.220   4.241  15.861 -1.2375 -0.2651  1.7468
 4191SOL    HW224210   1.269   4.129  15.936 -1.6989  1.6611  0.3846
 4192SOL     OW24211   4.589   3.391   2.030 -0.4544  0.1970  0.3614
 4192SOL    HW124212   4.662   3.450   2.048 -1.1199 -0.0627  3.8070
 4192SOL    HW224213   4.627   3.359   1.948 -1.6811 -0.4276  0.0457
 4193SOL     OW24214   1.875   1.847  15.758 -0.3756 -0.2380 -0.2604
 4193SOL    HW124215   1.874   1.835  15.663  0.8968  4.4469 -0.8763
 4193SOL    HW224216   1.792   1.893  15.772 -1.5716 -2.1159 -1.1390
 4194SOL     OW24217   0.028   0.046  13.684  0.5051 -0.3491  0.6110
 4194SOL    HW124218   4.685   0.060  13.732  0.1790 -0.4396  0.0791
 4194SOL    HW224219   0.083   0.036  13.762  0.9212  1.0626  0.4948
 4195SOL     OW24220   0.209   1.360  15.677 -0.3980 -0.3224  0.1732
 4195SOL    HW124221   0.274   1.290  15.684  0.2420  0.1222 -1.3323
 4195SOL    HW224222   0.234   1.416  15.750  1.1092  2.2516 -2.2920
 4196SOL     OW24223   3.101   0.011   4.623  0.5126  1.0369  0.6949
 4196SOL    HW124224   3.073   0.090   4.668 -1.1541  2.1174 -2.2228
 4196SOL    HW224225   3.032   4.688   4.651 -1.4639  1.9992 -2.0916
 4197SOL     OW24226   2.453   0.265   3.237 -0.0893 -0.4306 -0.3732
 4197SOL    HW124227   2.428   0.357   3.229 -1.4605 -0.6488  1.4134
 4197SOL    HW224228   2.482   0.233   3.151  3.2026  2.6058 -0.3902
 4198SOL     OW24229   0.471   1.041   9.661  0.4297 -0.4883  0.0978
 4198SOL    HW124230   0.484   1.092   9.740  0.3786 -0.4128  0.0567
 4198SOL    HW224231   0.488   1.108   9.595 -1.6826  0.5667  0.6530
 4199SOL     OW24232   2.955   0.441   6.413 -0.0838  0.6404 -0.3269
 4199SOL    HW124233   2.872   0.465   6.371 -0.0193 -0.9436 -1.3741
 4199SOL    HW224234   2.936   0.350   6.432  2.0979 -0.4496 -3.3005
 4200SOL     OW24235   4.423   3.262  11.954 -0.5880 -0.3749 -0.2477
 4200SOL    HW124236   4.424   3.221  11.868 -1.4135 -1.8002  0.3979
 4200SOL    HW224237   4.402   3.352  11.930  0.5190  0.3469  1.4498
 4201SOL     OW24238   4.484   4.112   3.569  0.6787  0.0727  0.2750
 4201SOL    HW124239   4.505   4.067   3.650 -0.1238 -0.9375 -0.0825
 4201SOL    HW224240   4.411   4.056   3.543  1.7075 -1.6894  1.1984
 4202SOL     OW24241   4.009   1.901   8.613 -0.4099 -0.6685  0.3343
 4202SOL    HW124242   4.056   1.965   8.560  2.7487 -2.7084  0.6740
 4202SOL    HW224243   3.920   1.930   8.591  0.0611 -0.0409 -0.6998
 4203SOL     OW24244   4.359   1.656  14.653 -0.1637  0.0946  0.0293
 4203SOL    HW124245   4.367   1.748  14.627 -0.3744 -0.5227 -2.1576
 4203SOL    HW224246   4.445   1.637  14.691  0.0582 -1.0805 -1.0716
 4204SOL     OW24247   4.639   0.771  10.633  0.0974 -0.2471  0.2105
 4204SOL    HW124248   4.703   0.721  10.582  0.2105  0.5091 -0.3848
 4204SOL    HW224249   4.682   0.765  10.718  0.5830  2.6269  0.1603
 4205SOL     OW24250   4.704   0.315   6.889  0.2220 -0.2440 -0.0774
 4205SOL    HW124251   4.733   0.257   6.819 -0.1120  0.3463 -0.7085
 4205SOL    HW224252   4.621   0.277   6.918  0.5679  0.3197  1.6852
 4206SOL     OW24253   0.399   4.343   8.960  0.1923 -0.5933 -0.4311
 4206SOL    HW124254   0.349   4.421   8.937 -1.0719 -1.2383  0.0669
 4206SOL    HW224255   0.487   4.370   8.935  0.4952 -1.4940 -0.3297
 4207SOL     OW24256   1.176   2.701   6.333 -0.6968  0.2183  0.3504
 4207SOL    HW124257   1.182   2.768   6.401 -0.1546  0.0645  0.4540
 4207SOL    HW224258   1.233   2.747   6.271 -1.0767  0.3148  0.0710
 4208SOL     OW24259   0.080   3.550  11.528 -0.3713  0.4079  0.1223
 4208SOL    HW124260   0.097   3.638  11.561  0.4012  0.6488 -0.9463
 4208SOL    HW224261   0.028   3.517  11.602  0.5922  0.7086  0.9329
 4209SOL     OW24262   4.091   2.143   2.233 -0.5476 -0.1124 -0.1609
 4209SOL    HW124263   4.183   2.130   2.256 -1.2755 -1.1963  2.0775
 4209SOL    HW224264   4.088   2.125   2.139 -0.4225  2.1489 -0.6099
 4210SOL     OW24265   1.764   1.608  11.737  0.4809 -0.2932 -0.6847
 4210SOL    HW124266   1.686   1.598  11.683 -0.7049 -0.2637  1.0398
 4210SOL    HW224267   1.824   1.646  11.673  0.0363  0.6667 -0.5326
 4211SOL     OW24268   3.180   0.456   3.041 -0.5011 -0.3770 -0.0244
 4211SOL    HW124269   3.171   0.429   3.132  0.0379  0.0726  0.1572
 4211SOL    HW224270   3.273   0.438   3.027 -0.2254 -0.2007  1.6515
 4212SOL     OW24271   4.124   2.416  14.408 -0.1619 -0.0691 -0.9082
 4212SOL    HW124272   4.128   2.419  14.312  1.1456  0.7918 -0.8288
 4212SOL    HW224273   4.039   2.382  14.436  1.2993 -3.0266 -0.1643
 4213SOL     OW24274   2.660   0.132   6.148  0.4448 -0.1077 -0.3721
 4213SOL    HW124275   2.650   0.116   6.241 -0.5630  0.8526 -0.3145
 4213SOL    HW224276   2.567   0.131   6.128  0.4213  0.7050 -0.3044
 4214SOL     OW24277   1.069   3.700   9.007  0.0819  0.1901  0.0138
 4214SOL    HW124278   1.161   3.712   9.032  0.5025 -1.8128 -0.6224
 4214SOL    HW224279   1.041   3.702   9.099 -0.2383 -2.4218 -0.0322
 4215SOL     OW24280   2.495   0.550   2.052  0.5349 -0.2294  1.2266
 4215SOL    HW124281   2.535   0.470   2.088 -0.0922 -0.7513  0.7581
 4215SOL    HW224282   2.566   0.614   2.060  0.5633  0.2011 -2.3588
 4216SOL     OW24283   3.608   0.975   2.208 -0.4071 -0.7018  0.2021
 4216SOL    HW124284   3.652   0.918   2.144  1.8615 -0.2068  1.3065
 4216SOL    HW224285   3.671   1.047   2.222 -0.3598 -0.5544 -0.7671
 4217SOL     OW24286   4.109   0.043   5.436  0.5883  0.5336 -0.2951
 4217SOL    HW124287   4.189   4.732   5.418  0.3716  0.1571 -0.2330
 4217SOL    HW224288   4.053   4.709   5.409  0.9468  1.2020 -2.7856
 4218SOL     OW24289   1.801   1.278   6.206  0.1098  0.3131 -0.1974
 4218SOL    HW124290   1.861   1.318   6.268  0.8826 -0.1797 -0.6245
 4218SOL    HW224291   1.837   1.190   6.202 -3.6625 -1.2620  0.6717
 4219SOL     OW24292   1.661   2.592  16.780 -0.5910 -0.1666  0.0206
 4219SOL    HW124293   1.701   2.677  16.760 -0.2464  0.0062  1.4131
 4219SOL    HW224294   1.602   2.615  16.851 -3.1560 -0.6486 -1.9441
 4220SOL     OW24295   2.294   0.417   8.216 -0.2001 -0.0906  0.4690
 4220SOL    HW124296   2.384   0.427   8.187 -0.3960 -0.6194 -0.3536
 4220SOL    HW224297   2.264   0.503   8.187  3.1857  0.7849 -0.3824
 4221SOL     OW24298   2.278   0.509  17.037 -0.2893  0.2816 -0.4345
 4221SOL    HW124299   2.223   0.497  17.114  0.6639 -1.0624  0.0259
 4221SOL    HW224300   2.228   0.583  17.002 -2.0617 -0.4975  0.4648
 4222SOL     OW24301   4.008   3.362  15.144  0.6917 -0.4549 -0.4204
 4222SOL    HW124302   3.915   3.357  15.122  0.4801 -0.4405  0.4459
 4222SOL    HW224303   4.034   3.427  15.079  1.4956 -0.5920 -0.2386
 4223SOL     OW24304   3.947   4.237   6.725  0.2774  0.3016  1.0137
 4223SOL    HW124305   3.950   4.151   6.683  1.3982  1.3522 -1.0560
 4223SOL    HW224306   3.852   4.253   6.721  0.4711  1.2883  0.2283
 4224SOL     OW24307   0.762   3.320   3.955 -0.5990 -0.3463  0.0576
 4224SOL    HW124308   0.816   3.313   3.876  1.1605  3.4130  0.9429
 4224SOL    HW224309   0.794   3.240   3.997  0.8897  0.2605  0.1040
 4225SOL     OW24310   0.932   4.604   9.654  0.3381 -0.0723  0.3175
 4225SOL    HW124311   1.005   4.659   9.626 -0.5912  1.0823  0.1752
 4225SOL    HW224312   0.888   4.661   9.717  0.0539 -0.8934  0.8691
 4226SOL     OW24313   3.877   4.543   8.291 -0.0533  0.1068  0.4690
 4226SOL    HW124314   3.955   4.494   8.320 -0.9368 -0.8888  1.1654
 4226SOL    HW224315   3.822   4.478   8.247 -1.4787  1.0176  0.8998
 4227SOL     OW24316   0.231   1.367   8.354  0.5013 -0.0582  0.4077
 4227SOL    HW124317   0.305   1.386   8.412 -0.7648  1.9526  1.3788
 4227SOL    HW224318   0.209   1.458   8.331 -0.9524 -0.6771 -0.6312
 4228SOL     OW24319   2.886   0.247   5.459 -0.2390  0.0995 -0.5062
 4228SOL    HW124320   2.909   0.215   5.546 -1.0486  0.8815 -0.0038
 4228SOL    HW224321   2.958   0.308   5.441 -1.0440  0.9279 -0.9267
 4229SOL     OW24322   4.467   4.222   8.489 -0.6687  0.0690  0.2585
 4229SOL    HW124323   4.416   4.230   8.408  1.5519  0.5285 -1.0986
 4229SOL    HW224324   4.387   4.237   8.538 -1.6629 -0.5777 -1.1758
 4230SOL     OW24325   4.362   2.820   7.970  0.1693 -0.4344 -0.0375
 4230SOL    HW124326   4.437   2.801   8.026 -0.1176 -0.6472  0.2720
 4230SOL    HW224327   4.311   2.884   8.020  1.7078  0.2325  0.6879
 4231SOL     OW24328   0.043   1.432   2.774  0.1405  0.2203  0.0647
 4231SOL    HW124329   0.031   1.470   2.861 -1.7611  1.3108 -0.6844
 4231SOL    HW224330   4.690   1.418   2.751  0.6823 -0.7681 -1.5492
 4232SOL     OW24331   4.086   2.497   1.235 -0.2016  0.1465 -0.4012
 4232SOL    HW124332   4.064   2.590   1.231  3.9059  1.1915  0.8436
 4232SOL    HW224333   4.182   2.504   1.239 -0.0793 -2.2474  0.8986
 4233SOL     OW24334   1.850   1.473  16.308  0.5110  0.0342  0.5008
 4233SOL    HW124335   1.865   1.437  16.220  2.1556 -0.5889  1.0464
 4233SOL    HW224336   1.790   1.408  16.345 -0.9963  0.5163 -1.0449
 4234SOL     OW24337   0.682   1.327   6.360 -0.2619 -0.0747 -0.3119
 4234SOL    HW124338   0.597   1.325   6.317  1.0947 -1.4562 -2.9476
 4234SOL    HW224339   0.669   1.403   6.417  0.2128  0.3971 -0.8333
 4235SOL     OW24340   3.891   1.103   4.494  0.3231  0.0264  0.1940
 4235SOL    HW124341   3.900   1.192   4.528  3.1551 -0.4121  0.6077
 4235SOL    HW224342   3.977   1.062   4.499  1.0429  1.2777 -2.0424
 4236SOL     OW24343   0.842   2.793  14.646  0.2988  0.1086 -0.2319
 4236SOL    HW124344   0.929   2.768  14.677  1.1995  2.4868 -0.8297
 4236SOL    HW224345   0.839   2.882  14.681 -1.8141 -0.9023  2.1162
 4237SOL     OW24346   2.579   3.480   7.709  1.0732 -0.3807  0.0602
 4237SOL    HW124347   2.604   3.409   7.768 -3.5790 -2.0631  0.0121
 4237SOL    HW224348   2.508   3.445   7.656 -0.2670  1.1021  0.8809
 4238SOL     OW24349   1.354   2.614   4.167  0.3990  0.4077  0.7331
 4238SOL    HW124350   1.367   2.560   4.246  2.0540  1.0194  0.8949
 4238SOL    HW224351   1.271   2.660   4.177 -1.5123 -2.6702 -0.8827
 4239SOL     OW24352   3.551   0.164   8.402  0.3126 -0.2084 -0.7466
 4239SOL    HW124353   3.536   0.259   8.398  1.0093 -0.0855 -0.5034
 4239SOL    HW224354   3.579   0.152   8.493  1.1325 -1.1770 -1.1226
 4240SOL     OW24355   3.719   2.632   5.286 -0.0593  0.1492 -0.1995
 4240SOL    HW124356   3.783   2.580   5.334 -0.6651 -0.2212  0.1989
 4240SOL    HW224357   3.706   2.705   5.347  0.5166  3.7458 -4.3762
 4241SOL     OW24358   3.945   1.982   8.292  0.0285 -0.1356 -0.1106
 4241SOL    HW124359   3.896   1.905   8.263  2.3637 -0.9447 -1.9264
 4241SOL    HW224360   3.974   2.013   8.206 -0.7052 -1.3256 -0.7832
 4242SOL     OW24361   4.144   2.008   7.094 -0.3729 -0.2011 -0.5024
 4242SOL    HW124362   4.108   2.055   7.169 -2.3719  0.0825 -1.6343
 4242SOL    HW224363   4.108   1.920   7.093  0.8409 -0.7141  0.1891
 4243SOL     OW24364   4.654   3.461   1.646 -0.1014 -0.0403 -0.3500
 4243SOL    HW124365   4.590   3.434   1.580  0.2426  0.1244 -0.7508
 4243SOL    HW224366   4.638   3.555   1.657  1.3238  0.4015 -1.9599
 4244SOL     OW24367   3.648   2.551   6.537  0.1934 -0.3262 -0.8345
 4244SOL    HW124368   3.677   2.632   6.580 -0.1233 -1.0920  0.7999
 4244SOL    HW224369   3.554   2.560   6.548  0.3412  0.4914 -0.2088
 4245SOL     OW24370   1.110   2.333  12.175  0.6572  0.4083  0.4396
 4245SOL    HW124371   1.175   2.380  12.227  0.4230  0.5127  0.6384
 4245SOL    HW224372   1.132   2.359  12.085  0.3486  0.8346  0.4869
 4246SOL     OW24373   3.350   2.753  15.340  0.0850  0.1927  0.2755
 4246SOL    HW124374   3.303   2.675  15.371  1.2320 -0.5142  0.2510
 4246SOL    HW224375   3.276   2.788  15.290 -0.9465 -0.4393  1.3521
 4247SOL     OW24376   1.320   0.010   6.868 -0.1422  0.1865  0.0117
 4247SOL    HW124377   1.389   0.068   6.903  1.8534 -1.0623 -1.8509
 4247SOL    HW224378   1.252   0.010   6.936 -2.0622  1.7883 -1.9136
 4248SOL     OW24379   1.848   3.088   8.596  0.0894  0.8649 -0.0352
 4248SOL    HW124380   1.820   3.009   8.642  4.0690 -0.3332  0.3405
 4248SOL    HW224381   1.939   3.086   8.626  0.2877  0.2285 -0.7011
 4249SOL     OW24382   4.536   3.964   8.190 -0.4504 -0.4445 -0.3308
 4249SOL    HW124383   4.495   3.878   8.195 -0.0628 -0.6650 -1.0009
 4249SOL    HW224384   4.463   4.024   8.178  0.5097  0.6471 -0.7324
 4250SOL     OW24385   2.382   2.346  10.730  0.0822  0.1997 -0.4258
 4250SOL    HW124386   2.346   2.326  10.817 -0.8548 -0.8727 -1.0648
 4250SOL    HW224387   2.428   2.264  10.712 -0.2969  0.4425 -2.5136
 4251SOL     OW24388   3.231   0.302   3.418  0.0666 -0.5827 -0.8604
 4251SOL    HW124389   3.182   0.385   3.412  1.3205  0.2741  0.7466
 4251SOL    HW224390   3.183   0.268   3.494  1.9540 -1.3901 -0.0404
 4252SOL     OW24391   0.761   4.347   6.432 -0.1591 -0.0397 -0.1217
 4252SOL    HW124392   0.685   4.387   6.391  1.0801  1.8669 -0.5708
 4252SOL    HW224393   0.833   4.374   6.374 -0.0146  2.2266  1.1038
 4253SOL     OW24394   4.010   2.532  10.310  0.0404 -0.4706  0.3469
 4253SOL    HW124395   3.920   2.538  10.276  0.5854 -0.2593 -1.0587
 4253SOL    HW224396   4.026   2.439  10.323 -0.7783 -0.4786  1.2392
 4254SOL     OW24397   4.369   3.607   2.778  0.3703  0.1375 -0.2277
 4254SOL    HW124398   4.312   3.563   2.841  1.5367  0.6024  1.1787
 4254SOL    HW224399   4.412   3.679   2.825  1.4708 -1.5681  1.4042
 4255SOL     OW24400   3.819   1.411  14.632  0.0624 -0.5644 -0.5535
 4255SOL    HW124401   3.816   1.480  14.698  1.0624 -2.1993  1.2128
 4255SOL    HW224402   3.898   1.439  14.585  0.1584 -0.8180 -0.5429
 4256SOL     OW24403   2.884   2.913   5.631 -0.2031  0.5446  0.5155
 4256SOL    HW124404   2.851   2.825   5.651  1.5489  0.0435  1.1936
 4256SOL    HW224405   2.918   2.902   5.543 -1.6111  1.5021 -0.1507
 4257SOL     OW24406   1.288   3.911   8.981 -0.4423  0.4814  0.1602
 4257SOL    HW124407   1.324   3.845   9.040 -0.0867  0.8722  0.3801
 4257SOL    HW224408   1.349   3.899   8.908 -0.5957  1.9893 -0.2212
 4258SOL     OW24409   4.302   4.331  10.400 -0.3374  0.7648  0.3726
 4258SOL    HW124410   4.221   4.288  10.375  1.1943 -2.1076  0.3293
 4258SOL    HW224411   4.283   4.379  10.481 -1.9436 -1.5510  1.3824
 4259SOL     OW24412   1.270   2.062   4.544  0.4182  0.7542 -0.4107
 4259SOL    HW124413   1.233   1.976   4.526 -1.3564  1.0913  1.5777
 4259SOL    HW224414   1.364   2.049   4.540  0.5281  1.3885  0.0972
 4260SOL     OW24415   2.498   3.995  14.343 -0.1266 -0.3850  0.5086
 4260SOL    HW124416   2.586   3.994  14.382  0.5099  4.4851 -0.7957
 4260SOL    HW224417   2.478   4.089  14.342 -1.8894 -0.7685  0.1387
 4261SOL     OW24418   3.408   0.006  15.617  0.3348 -0.2020  0.6486
 4261SOL    HW124419   3.452   0.087  15.592  0.2935 -0.2197  0.5164
 4261SOL    HW224420   3.325   0.042  15.647 -0.1781 -0.5563 -0.3333
 4262SOL     OW24421   0.444   1.632   7.456 -0.2734  0.0485  1.0896
 4262SOL    HW124422   0.510   1.589   7.401 -2.4156  1.1721 -2.3224
 4262SOL    HW224423   0.439   1.720   7.421 -0.3841 -0.9610 -1.4142
 4263SOL     OW24424   0.003   3.879  15.144  0.7206 -0.3097  0.2823
 4263SOL    HW124425   4.736   3.787  15.169 -0.7229  0.2630  2.1311
 4263SOL    HW224426   4.709   3.872  15.054 -1.5860 -1.1476  1.1567
 4264SOL     OW24427   1.023   2.729  16.009  0.2159  0.1648 -0.0448
 4264SOL    HW124428   1.043   2.682  16.090 -2.0214 -0.0380  0.3902
 4264SOL    HW224429   0.952   2.676  15.973  0.3491  2.1957 -3.2016
 4265SOL     OW24430   4.525   2.124   7.246  0.3872  0.1027  0.1319
 4265SOL    HW124431   4.471   2.045   7.242  1.5206 -0.5868 -1.3137
 4265SOL    HW224432   4.473   2.185   7.193  1.0705 -0.1296 -0.8051
 4266SOL     OW24433   1.746   2.612  15.637  0.0910  0.2018 -0.1350
 4266SOL    HW124434   1.790   2.694  15.660 -1.4846  0.6740  1.2225
 4266SOL    HW224435   1.681   2.601  15.707  0.0160  0.2723 -0.1945
 4267SOL     OW24436   3.694   1.189   2.872  0.4930  0.4126 -0.3290
 4267SOL    HW124437   3.730   1.138   2.944 -0.2758 -1.5582 -1.3412
 4267SOL    HW224438   3.602   1.199   2.899  1.2722  0.6159  2.2344
 4268SOL     OW24439   2.527   3.418  17.638  0.5659 -0.0412  0.5173
 4268SOL    HW124440   2.545   3.338  17.687  2.5298 -0.5906 -1.0935
 4268SOL    HW224441   2.511   3.469  17.718 -3.2852 -2.4166  1.2735
 4269SOL     OW24442   4.546   2.898   5.926 -0.0510 -0.2343  0.0855
 4269SOL    HW124443   4.588   2.931   6.006  2.8227 -0.2271 -1.4217
 4269SOL    HW224444   4.571   2.807   5.940  0.4814  0.1513  1.7311
 4270SOL     OW24445   1.778   4.320   4.163 -0.8493  0.3559  0.0168
 4270SOL    HW124446   1.868   4.347   4.144 -0.3722 -1.2365  0.0110
 4270SOL    HW224447   1.787   4.237   4.116 -3.2399  0.0063  0.1946
 4271SOL     OW24448   4.040   3.214   2.739 -0.5245  0.6609  0.0181
 4271SOL    HW124449   4.125   3.208   2.784 -0.3109 -1.5584 -0.6902
 4271SOL    HW224450   4.012   3.298   2.774 -2.4346 -0.1716  0.4545
 4272SOL     OW24451   4.716   2.796   6.410  0.0807 -0.3938  0.1880
 4272SOL    HW124452   4.659   2.865   6.442 -1.5875 -1.1460 -1.1774
 4272SOL    HW224453   4.649   2.759   6.352 -1.8937  0.1332  2.1508
 4273SOL     OW24454   1.359   1.640  14.920 -0.1754 -1.0051 -0.8178
 4273SOL    HW124455   1.343   1.698  14.846 -0.1757 -0.3639 -0.3113
 4273SOL    HW224456   1.324   1.701  14.984 -1.7369 -0.9142 -1.7523
 4274SOL     OW24457   1.024   1.033   5.846  0.0214  0.3652 -0.0951
 4274SOL    HW124458   1.116   1.059   5.838 -0.0267  0.9360  1.2142
 4274SOL    HW224459   0.986   1.110   5.887  2.1177  0.7700  1.1127
 4275SOL     OW24460   1.832   2.061   7.906  0.2922 -0.1672  0.3872
 4275SOL    HW124461   1.925   2.079   7.895  0.2683  0.6293  1.5404
 4275SOL    HW224462   1.822   1.988   7.845  2.0735  0.6391 -0.8768
 4276SOL     OW24463   4.359   4.290   9.048  0.5072  0.3250 -0.6691
 4276SOL    HW124464   4.315   4.214   9.010  1.2336  0.5054 -1.8978
 4276SOL    HW224465   4.447   4.284   9.011  1.2341  3.9545  0.4644
 4277SOL     OW24466   1.218   4.020   9.413 -0.4586 -0.4694 -0.1015
 4277SOL    HW124467   1.169   4.016   9.331 -0.3214 -2.0816 -0.1154
 4277SOL    HW224468   1.312   4.022   9.392 -0.3550 -1.0542  0.3115
 4278SOL     OW24469   0.580   2.034   3.243  0.1933 -0.9941  0.0741
 4278SOL    HW124470   0.635   2.112   3.243  1.9411 -2.2247 -2.4829
 4278SOL    HW224471   0.616   1.967   3.300  3.0446 -1.2656 -2.0115
 4279SOL     OW24472   0.667   4.364   7.406  0.1027  0.3770 -0.3376
 4279SOL    HW124473   0.752   4.324   7.425  0.4233  0.2533 -2.0389
 4279SOL    HW224474   0.689   4.457   7.407 -0.7344  0.5365  1.7697
 4280SOL     OW24475   0.656   0.155   7.888  0.1748 -0.2154  0.9761
 4280SOL    HW124476   0.620   0.178   7.973  0.4346  1.4533  0.6319
 4280SOL    HW224477   0.748   0.157   7.914  0.3123 -2.0430  0.6306
 4281SOL     OW24478   0.974   4.310   6.075  0.1409 -0.2874  0.3176
 4281SOL    HW124479   1.000   4.351   6.157  1.0950  0.1939 -0.2204
 4281SOL    HW224480   1.030   4.232   6.077 -0.6030 -0.8600 -0.8701
 4282SOL     OW24481   0.020   4.534   7.798 -0.1687  0.6259 -0.0051
 4282SOL    HW124482   4.674   4.531   7.844 -0.3102  1.4827 -0.2015
 4282SOL    HW224483   0.068   4.475   7.856  0.9401  0.2904 -1.2673
 4283SOL     OW24484   1.818   4.535   5.694  0.5623  0.0342  0.4287
 4283SOL    HW124485   1.881   4.500   5.757 -0.0173  2.2046  2.1999
 4283SOL    HW224486   1.868   4.588   5.633  1.2696  0.3268  1.2524
 4284SOL     OW24487   1.490   1.427  17.342 -0.2418 -0.4647 -0.4903
 4284SOL    HW124488   1.574   1.444  17.385 -0.4087  0.3439 -0.4862
 4284SOL    HW224489   1.488   1.502  17.283  0.4951 -2.1361 -2.6655
 4285SOL     OW24490   3.747   0.519   7.958  0.3069  0.1480  0.4389
 4285SOL    HW124491   3.698   0.436   7.959  1.2295 -0.4044 -0.2359
 4285SOL    HW224492   3.752   0.531   7.863 -1.1682  0.4026  0.3942
 4286SOL     OW24493   3.894   0.162   8.573 -0.7789  0.8953 -0.4054
 4286SOL    HW124494   3.917   0.209   8.654  0.4716  0.4288 -0.4978
 4286SOL    HW224495   3.889   0.233   8.510  1.1682  0.2438 -1.2975
 4287SOL     OW24496   4.051   4.683   8.767  0.4142 -0.3623  0.1905
 4287SOL    HW124497   4.006   4.644   8.692  0.5234 -1.9284  0.9535
 4287SOL    HW224498   4.142   4.677   8.740 -0.0132 -0.4758 -1.2469
 4288SOL     OW24499   2.213   1.559   4.215 -0.5078 -0.2856 -0.5044
 4288SOL    HW124500   2.242   1.495   4.150  1.3417 -2.4629  2.4206
 4288SOL    HW224501   2.198   1.507   4.294 -2.7022 -0.1539 -0.8329
 4289SOL     OW24502   2.832   1.327   4.781 -0.2490 -0.1438 -0.9538
 4289SOL    HW124503   2.917   1.354   4.747  0.6028 -1.0418  0.4651
 4289SOL    HW224504   2.848   1.234   4.763 -1.0890 -0.6279  0.9155
 4290SOL     OW24505   3.817   4.638   7.090 -0.7482  0.4819 -0.7414
 4290SOL    HW124506   3.880   4.580   7.048  0.3893 -0.1038  1.7363
 4290SOL    HW224507   3.767   4.654   7.010 -1.3093  0.7285 -0.3478
 4291SOL     OW24508   4.045   3.405  15.961 -0.1915  0.1860  0.2470
 4291SOL    HW124509   4.106   3.477  15.979 -0.8212  0.3061  1.9801
 4291SOL    HW224510   4.063   3.370  15.874 -1.8477 -0.2670  0.0773
 4292SOL     OW24511   2.390   1.944   8.807  0.0487  0.1033  0.4949
 4292SOL    HW124512   2.349   1.866   8.769 -0.6956 -0.5464  2.6228
 4292SOL    HW224513   2.322   1.976   8.867  0.4079  2.1368 -0.1732
 4293SOL     OW24514   0.822   0.162   4.326 -0.1490  0.3232 -0.0127
 4293SOL    HW124515   0.745   0.136   4.275 -0.1375 -1.4074  0.8339
 4293SOL    HW224516   0.880   0.192   4.257 -1.0468  0.5355 -0.6799
 4294SOL     OW24517   2.418   3.296   5.192 -0.2397 -0.3762 -0.5256
 4294SOL    HW124518   2.373   3.213   5.204  1.8595 -1.7495 -2.2895
 4294SOL    HW224519   2.452   3.300   5.281  0.4842 -0.8245 -0.7816
 4295SOL     OW24520   3.851   3.895   0.615 -0.1673  0.4751  0.1848
 4295SOL    HW124521   3.916   3.846   0.665  1.6120  1.5284 -1.0666
 4295SOL    HW224522   3.797   3.927   0.687  0.4492  0.0808  0.8192
 4296SOL     OW24523   4.367   0.018  14.185  0.0641  0.3079 -0.2853
 4296SOL    HW124524   4.314   4.696  14.238 -0.9035  1.9409  0.6077
 4296SOL    HW224525   4.379   4.719  14.098 -0.7928 -0.9053  0.1157
 4297SOL     OW24526   3.000   1.399   5.185  0.4830 -0.3572 -0.0186
 4297SOL    HW124527   3.042   1.342   5.121  0.2073  1.5785 -1.9089
 4297SOL    HW224528   2.915   1.356   5.177  0.5431 -0.7486  1.4612
 4298SOL     OW24529   1.530   0.333  11.130 -0.1631 -0.1222 -0.1793
 4298SOL    HW124530   1.532   0.353  11.223  0.4161 -2.4199  0.2979
 4298SOL    HW224531   1.609   0.380  11.103  0.0590 -1.5796 -2.0796
 4299SOL     OW24532   2.603   2.525   4.795 -0.0021  0.1910 -0.2541
 4299SOL    HW124533   2.542   2.474   4.848  0.0655  0.8185  0.4260
 4299SOL    HW224534   2.545   2.598   4.771  0.4644  0.5892 -0.1786
 4300SOL     OW24535   4.164   1.525  14.528 -0.1338  0.6448  0.3521
 4300SOL    HW124536   4.198   1.465  14.462 -0.9332  3.7496 -2.8735
 4300SOL    HW224537   4.240   1.575  14.559  0.3783 -0.0809  0.2674
 4301SOL     OW24538   3.905   1.327   2.457 -0.5729 -0.5273 -0.4762
 4301SOL    HW124539   3.905   1.420   2.432  3.1214  0.0810  1.7663
 4301SOL    HW224540   3.884   1.328   2.550  1.2081  1.4747 -0.0844
 4302SOL     OW24541   2.557   3.868  17.009  0.3455 -0.0285 -0.0301
 4302SOL    HW124542   2.604   3.858  17.092 -0.7414  1.5882  0.7843
 4302SOL    HW224543   2.592   3.796  16.956  1.0711  0.5449 -0.3303
 4303SOL     OW24544   2.291   2.440   3.087 -0.3525  0.4614 -0.3135
 4303SOL    HW124545   2.381   2.410   3.072  0.0611  0.9746  1.1762
 4303SOL    HW224546   2.276   2.493   3.009  0.0252  0.3312 -0.4776
 4304SOL     OW24547   1.117   2.305   3.309 -0.4638  0.2355  0.3586
 4304SOL    HW124548   1.211   2.311   3.321 -0.2052 -0.5438 -1.2331
 4304SOL    HW224549   1.099   2.295   3.402  0.4988  0.5088  0.5690
 4305SOL     OW24550   0.584   2.381  14.419  0.3385 -0.3747  0.5804
 4305SOL    HW124551   0.510   2.405  14.363  0.8093  2.1288  1.0378
 4305SOL    HW224552   0.612   2.465  14.455 -0.8998 -0.9394  2.8201
 4306SOL     OW24553   1.355   1.230   7.076  0.2542 -0.0540 -0.2095
 4306SOL    HW124554   1.386   1.148   7.114  0.2027  0.9524  2.0144
 4306SOL    HW224555   1.413   1.225   7.000  0.3051  3.3290 -0.3929
 4307SOL     OW24556   3.174   4.548   0.394 -0.1223  0.2736  0.3043
 4307SOL    HW124557   3.222   4.488   0.336  0.8358  0.7523  0.5980
 4307SOL    HW224558   3.167   4.505   0.479  0.2594 -1.5449 -0.5787
 4308SOL     OW24559   1.014   3.074   0.347  0.1191  0.1945 -0.1568
 4308SOL    HW124560   1.100   3.110   0.324 -0.9628  2.2054 -1.0686
 4308SOL    HW224561   1.016   3.099   0.439  0.2680  1.8700 -0.6123
 4309SOL     OW24562   0.100   0.813   2.338  0.1623  0.0871 -0.1597
 4309SOL    HW124563   0.108   0.755   2.414 -0.3257 -0.6530 -0.6713
 4309SOL    HW224564   0.186   0.852   2.325 -0.0708  1.1334  1.3886
 4310SOL     OW24565   2.918   4.651  17.624  0.0820 -0.4302 -0.1565
 4310SOL    HW124566   2.904   0.006  17.643  2.0245 -0.0866 -0.3418
 4310SOL    HW224567   2.831   4.619  17.600 -0.2457  0.4972 -0.2181
 4311SOL     OW24568   3.396   3.911   8.590 -0.2738  0.1141 -0.2966
 4311SOL    HW124569   3.432   3.986   8.636 -1.6484  0.8946 -0.5017
 4311SOL    HW224570   3.449   3.834   8.612 -0.8021  0.4531  2.1192
 4312SOL     OW24571   1.347   0.263   7.800  0.1168  0.4986  0.3735
 4312SOL    HW124572   1.364   0.355   7.824 -1.1892  1.3814 -2.0948
 4312SOL    HW224573   1.266   0.253   7.851 -0.4532  0.7912 -0.4748
 4313SOL     OW24574   4.227   0.131   8.411  0.3068 -0.0332 -0.7814
 4313SOL    HW124575   4.284   0.171   8.346  0.8465  1.3515  0.5608
 4313SOL    HW224576   4.177   0.071   8.354 -2.4066  0.3224  1.2395
 4314SOL     OW24577   2.113   1.885   6.794  0.2736  0.1841 -0.7746
 4314SOL    HW124578   2.117   1.979   6.774 -1.3519  0.0367 -1.8161
 4314SOL    HW224579   2.158   1.886   6.879  0.0377  0.2682 -0.6516
 4315SOL     OW24580   1.565   2.567   8.370 -0.1494 -0.0916  0.5927
 4315SOL    HW124581   1.659   2.550   8.362  0.3575  2.5884  1.0163
 4315SOL    HW224582   1.542   2.547   8.461 -0.8815 -3.7962 -0.4153
 4316SOL     OW24583   4.234   3.088  11.387 -0.0579  0.2535  0.3788
 4316SOL    HW124584   4.260   3.028  11.457 -0.3031 -2.0715 -1.5494
 4316SOL    HW224585   4.313   3.088  11.333 -1.0475  1.1654 -1.0483
 4317SOL     OW24586   3.164   1.749   3.420 -0.2466 -0.1585  0.1367
 4317SOL    HW124587   3.093   1.686   3.412  0.8241 -1.0539 -2.1948
 4317SOL    HW224588   3.142   1.775   3.510 -2.1427  1.0252 -0.6622
 4318SOL     OW24589   1.738   2.200   5.832 -0.2289 -0.5493  0.0729
 4318SOL    HW124590   1.775   2.137   5.894 -3.1143 -0.0382  2.3719
 4318SOL    HW224591   1.825   2.223   5.802  0.8430 -2.3940  1.7367
 4319SOL     OW24592   1.845   4.254   5.478  0.1069  0.0026  0.3564
 4319SOL    HW124593   1.895   4.173   5.468  0.1404 -0.0840  1.2476
 4319SOL    HW224594   1.912   4.320   5.495  0.4403 -0.3319  0.3410
 4320SOL     OW24595   1.268   2.836   1.585  0.0532  0.1054 -0.0239
 4320SOL    HW124596   1.300   2.822   1.674 -0.1939 -1.1539 -0.1295
 4320SOL    HW224597   1.325   2.907   1.557 -1.0143 -0.2298 -3.0242
 4321SOL     OW24598   4.556   2.770   4.442  0.1757 -0.0028 -0.4947
 4321SOL    HW124599   4.478   2.821   4.462 -0.2682 -0.8265 -0.0988
 4321SOL    HW224600   4.573   2.808   4.356  2.1660 -0.0372 -0.1171
 4322SOL     OW24601   2.258   3.321   0.172 -0.3468 -0.4446 -0.1298
 4322SOL    HW124602   2.350   3.320   0.199 -0.4387 -1.7062  0.1308
 4322SOL    HW224603   2.227   3.246   0.222  0.0760 -0.8894 -0.5349
 4323SOL     OW24604   2.168   1.774   3.813 -0.2197  0.1476  0.0577
 4323SOL    HW124605   2.215   1.855   3.790 -0.2604 -0.3334 -1.6961
 4323SOL    HW224606   2.103   1.810   3.873 -0.3587  0.9982 -0.6004
 4324SOL     OW24607   3.645   3.694   0.235 -0.2418  0.7082  0.1736
 4324SOL    HW124608   3.717   3.676   0.295  1.0568 -3.0684 -2.4957
 4324SOL    HW224609   3.624   3.785   0.256  1.9359  0.9528  1.2518
 4325SOL     OW24610   1.888   2.745  10.986 -0.1971 -0.1807  0.5746
 4325SOL    HW124611   1.890   2.657  11.023  1.7413  0.0577  1.0364
 4325SOL    HW224612   1.973   2.769  10.949 -0.6454 -0.3057 -0.5257
 4326SOL     OW24613   0.161   1.364   6.836  0.0913  0.0199  0.1304
 4326SOL    HW124614   0.103   1.292   6.860  0.5324 -0.0907  0.8652
 4326SOL    HW224615   0.179   1.337   6.746 -1.2628  1.4538 -0.5469
 4327SOL     OW24616   4.163   3.844   0.384  0.3415 -0.0045 -0.3826
 4327SOL    HW124617   4.229   3.900   0.343 -1.0206  2.6196  1.0217
 4327SOL    HW224618   4.141   3.795   0.305 -0.3100 -2.0037  1.0442
 4328SOL     OW24619   2.405   3.480  11.449  0.2774 -0.7067 -0.6574
 4328SOL    HW124620   2.349   3.493  11.372  0.3534  1.0392 -0.4083
 4328SOL    HW224621   2.465   3.554  11.443 -1.3003  0.7388  1.2737
 4329SOL     OW24622   0.630   3.511  15.813 -0.3295 -0.6010 -0.3586
 4329SOL    HW124623   0.611   3.455  15.738 -0.5941  1.8129 -2.0920
 4329SOL    HW224624   0.588   3.461  15.883  1.3535 -1.1609  0.2599
 4330SOL     OW24625   2.217   4.668   3.772  0.4010  0.0994  0.1936
 4330SOL    HW124626   2.224   4.592   3.714  3.9386  0.3471  0.2567
 4330SOL    HW224627   2.165   4.722   3.711 -1.2477  0.5725  2.0250
 4331SOL     OW24628   1.007   2.642   7.884  0.4830 -0.5872 -0.1112
 4331SOL    HW124629   0.987   2.734   7.865 -1.7170 -0.9145  0.5864
 4331SOL    HW224630   0.988   2.596   7.802  0.8821  0.0290 -0.5461
 4332SOL     OW24631   3.310   4.166   4.469 -0.0163 -0.0276 -0.3793
 4332SOL    HW124632   3.365   4.112   4.413  1.0832 -0.3179  1.0044
 4332SOL    HW224633   3.228   4.142   4.425  0.4140 -1.6201 -0.2897
 4333SOL     OW24634   3.124   1.762   5.878  0.3968 -0.3497  0.5051
 4333SOL    HW124635   3.129   1.669   5.855  2.3190 -0.3249  0.7694
 4333SOL    HW224636   3.085   1.796   5.799 -1.7452 -0.4093  1.5490
 4334SOL     OW24637   2.523   0.927  16.203 -0.0076 -0.4204 -0.1390
 4334SOL    HW124638   2.492   0.842  16.234  3.8557 -1.9139 -0.4175
 4334SOL    HW224639   2.568   0.957  16.283 -1.9733  0.8736  0.4751
 4335SOL     OW24640   0.627   2.800  13.899 -0.0867  0.0814 -0.0163
 4335SOL    HW124641   0.579   2.717  13.901 -0.4120  0.2682 -0.1003
 4335SOL    HW224642   0.547   2.853  13.894 -0.2019  0.1181  2.5158
 4336SOL     OW24643   2.198   2.786  13.771  0.2593 -0.3025 -0.3609
 4336SOL    HW124644   2.104   2.773  13.768  0.1616  0.9494 -2.4128
 4336SOL    HW224645   2.214   2.855  13.707  1.9607  0.1944  0.5962
 4337SOL     OW24646   1.146   0.794   0.338  0.5424 -0.5264  0.0491
 4337SOL    HW124647   1.188   0.836   0.263 -0.5941 -0.8162 -0.7344
 4337SOL    HW224648   1.093   0.729   0.292 -0.6763 -0.4337  1.3292
 4338SOL     OW24649   2.473   1.935  14.239  0.7092  0.0267  0.3567
 4338SOL    HW124650   2.379   1.925  14.227  1.2716 -1.8592 -2.7774
 4338SOL    HW224651   2.491   2.029  14.241 -0.5280  0.3128 -1.6370
 4339SOL     OW24652   2.512   3.565   6.455 -0.2530  0.0813  0.3862
 4339SOL    HW124653   2.567   3.634   6.491  0.4630 -0.2649 -0.0452
 4339SOL    HW224654   2.525   3.500   6.524  2.8204 -1.6420 -1.8063
 4340SOL     OW24655   1.329   3.760   5.748  0.1129 -0.4831 -0.4902
 4340SOL    HW124656   1.271   3.735   5.820 -0.2676  0.3167 -0.5126
 4340SOL    HW224657   1.283   3.831   5.702 -0.1972  0.3094  1.0355
 4341SOL     OW24658   2.372   2.923   4.951  0.0917  0.5360 -0.0757
 4341SOL    HW124659   2.451   2.953   4.996 -0.9556 -1.0404  2.8711
 4341SOL    HW224660   2.377   2.832   4.982 -0.7839 -0.0556 -1.6623
 4342SOL     OW24661   3.309   1.691  13.885 -0.4347 -0.5404  0.0577
 4342SOL    HW124662   3.401   1.677  13.910 -0.2887 -1.9738 -1.2604
 4342SOL    HW224663   3.266   1.694  13.971  0.1956 -0.8615  0.3855
 4343SOL     OW24664   2.592   0.308  14.448 -0.4446  0.4223  0.0816
 4343SOL    HW124665   2.573   0.234  14.506  0.6382  0.3273  0.2990
 4343SOL    HW224666   2.508   0.352  14.435  0.3770  2.0604  0.3637
 4344SOL     OW24667   1.020   1.327  17.591  0.3090 -0.4721  0.4122
 4344SOL    HW124668   1.101   1.360  17.550 -0.9172  0.0830 -1.5673
 4344SOL    HW224669   1.045   1.236  17.576  1.0072 -0.2587  0.2793
 4345SOL     OW24670   4.014   1.451   2.917 -0.4758  0.2821  0.1047
 4345SOL    HW124671   4.074   1.506   2.967  0.1150 -1.2226  1.0593
 4345SOL    HW224672   3.978   1.405   2.993  3.5362 -1.2609  1.0576
 4346SOL     OW24673   4.732   1.827  13.178 -0.0664  0.3472 -0.2419
 4346SOL    HW124674   4.682   1.889  13.124 -1.2649 -1.1802 -0.8976
 4346SOL    HW224675   0.035   1.788  13.101  1.1949 -1.3163  1.2967
 4347SOL     OW24676   1.732   3.065   9.599  0.1930  0.0865 -0.1217
 4347SOL    HW124677   1.693   3.018   9.525  0.2328 -0.1153 -0.0160
 4347SOL    HW224678   1.799   3.113   9.551  1.2621 -1.4390 -0.1656
 4348SOL     OW24679   3.574   2.850   2.715  0.6826 -0.0522  0.7836
 4348SOL    HW124680   3.490   2.852   2.668  0.8186  2.1330  0.6069
 4348SOL    HW224681   3.565   2.933   2.761  1.5450  0.4854 -0.0093
 4349SOL     OW24682   4.269   0.416   2.680 -0.0626  0.5264  0.4819
 4349SOL    HW124683   4.266   0.481   2.750 -1.5146  1.8479 -0.8157
 4349SOL    HW224684   4.216   0.346   2.717 -0.0237 -0.3844 -1.1721
 4350SOL     OW24685   0.620   1.335  12.027  0.2463  0.6156  0.0133
 4350SOL    HW124686   0.686   1.402  12.011  1.5731 -0.7007  0.0005
 4350SOL    HW224687   0.571   1.382  12.094 -1.3768 -0.9313 -0.0793
 4351SOL     OW24688   3.025   2.870   1.099  0.3985 -0.3170  0.0799
 4351SOL    HW124689   2.965   2.866   1.173  0.7857 -1.0584  0.3592
 4351SOL    HW224690   2.967   2.889   1.026  1.0739  2.0519  0.1711
 4352SOL     OW24691   0.076   3.781   5.713  0.6135  0.4156  0.7719
 4352SOL    HW124692   0.108   3.862   5.672 -1.2803  1.1320  0.7026
 4352SOL    HW224693   0.124   3.720   5.656  2.1472 -0.1684  2.7079
 4353SOL     OW24694   0.579   2.362   9.163 -0.4761  0.1294  0.1856
 4353SOL    HW124695   0.661   2.412   9.155 -0.3358 -0.2658 -0.8875
 4353SOL    HW224696   0.572   2.308   9.085  1.6697  0.2132 -0.0703
 4354SOL     OW24697   0.439   1.988  16.546  0.4219 -0.0017  0.4312
 4354SOL    HW124698   0.524   1.945  16.540 -1.3297 -3.4731  0.1268
 4354SOL    HW224699   0.413   1.954  16.631 -3.0932  0.6754 -0.3554
 4355SOL     OW24700   2.657   1.750   5.396  0.5929  0.6037 -0.1878
 4355SOL    HW124701   2.611   1.813   5.341  0.6246  0.1496 -0.7390
 4355SOL    HW224702   2.737   1.801   5.411  1.8661 -0.8323 -2.1165
 4356SOL     OW24703   3.941   2.362   2.153 -0.5941 -0.0458 -0.6759
 4356SOL    HW124704   3.984   2.447   2.139 -1.0362  0.4478  0.9555
 4356SOL    HW224705   3.898   2.343   2.069  0.0463 -0.0571 -1.0075
 4357SOL     OW24706   4.024   0.273   1.580  0.0707  0.3577 -0.3879
 4357SOL    HW124707   3.947   0.286   1.525 -0.0718  1.5405  0.0852
 4357SOL    HW224708   4.075   0.218   1.520  1.2092  1.3158 -0.2970
 4358SOL     OW24709   2.084   1.465   9.047 -0.0908 -0.1895  0.1865
 4358SOL    HW124710   2.029   1.427   9.116 -0.7933 -1.7084 -1.2078
 4358SOL    HW224711   2.111   1.548   9.087 -3.5474  0.3241  1.4937
 4359SOL     OW24712   1.061   2.531   9.537  0.1879 -0.5498 -0.7085
 4359SOL    HW124713   1.150   2.548   9.506  0.9927 -1.8338  0.8789
 4359SOL    HW224714   1.066   2.559   9.629  2.5063 -0.4053 -0.8900
 4360SOL     OW24715   4.289   1.799   4.806 -0.8978 -0.2029  0.7657
 4360SOL    HW124716   4.209   1.752   4.831  0.0550 -0.7035  2.8276
 4360SOL    HW224717   4.353   1.729   4.819 -0.7462 -0.2538 -0.2878
 4361SOL     OW24718   4.504   3.600   3.873  1.0875  0.4819  0.0523
 4361SOL    HW124719   4.586   3.559   3.846  0.3662 -0.5392 -0.5833
 4361SOL    HW224720   4.504   3.618   3.967 -0.2212 -1.7842  0.4816
 4362SOL     OW24721   1.884   2.108   2.166  0.5770 -0.0460 -0.5035
 4362SOL    HW124722   1.818   2.174   2.189  1.3774 -0.1385  2.0197
 4362SOL    HW224723   1.826   2.032   2.157  0.8344 -0.2073 -0.7733
 4363SOL     OW24724   1.540   0.460  12.244  0.2739  0.4022  0.2999
 4363SOL    HW124725   1.539   0.503  12.330 -0.0865  1.0418 -0.0190
 4363SOL    HW224726   1.591   0.383  12.266  0.6827  0.1291 -1.6050
 4364SOL     OW24727   2.628   3.453   5.055  0.1962 -0.3492 -0.7892
 4364SOL    HW124728   2.620   3.511   4.979 -2.8746  0.4104  0.0654
 4364SOL    HW224729   2.536   3.426   5.060 -0.0046  0.6347  0.8322
 4365SOL     OW24730   3.115   1.058   2.170  0.1527  0.0673 -0.5585
 4365SOL    HW124731   3.196   1.092   2.132  1.3934  0.0539  2.0750
 4365SOL    HW224732   3.058   1.135   2.173  2.4153  1.8487 -3.4528
 4366SOL     OW24733   0.236   1.420   9.074 -0.0607  0.4245  0.4154
 4366SOL    HW124734   0.214   1.474   9.150  2.0455  0.3470  1.0969
 4366SOL    HW224735   0.321   1.461   9.058 -0.4781  1.2033  0.1741
 4367SOL     OW24736   0.327   4.078   3.719  0.0503  0.9394  0.0281
 4367SOL    HW124737   0.398   4.092   3.781 -0.3215  0.6450  0.5195
 4367SOL    HW224738   0.288   3.999   3.757 -2.7826  1.8297 -0.9675
 4368SOL     OW24739   1.739   4.664   2.990  0.4354 -0.6728  0.2794
 4368SOL    HW124740   1.811   4.642   2.931  0.0505 -2.9517  0.6458
 4368SOL    HW224741   1.684   4.587   2.973  2.1965 -1.5749 -1.2390
 4369SOL     OW24742   4.205   0.490   8.750 -0.1321 -0.1430 -0.7086
 4369SOL    HW124743   4.181   0.398   8.738 -1.3009  0.1230 -0.4093
 4369SOL    HW224744   4.163   0.510   8.833  1.4539  0.7848 -0.1258
 4370SOL     OW24745   4.353   1.131  15.946  0.3151  0.0504  0.0746
 4370SOL    HW124746   4.432   1.086  15.919  0.4197  1.0845 -1.3019
 4370SOL    HW224747   4.369   1.217  15.908  1.1065 -0.4932 -0.8030
 4371SOL     OW24748   1.267   2.386   9.726 -0.1449  0.0073 -0.2047
 4371SOL    HW124749   1.206   2.391   9.800 -0.3220  2.2328 -0.4881
 4371SOL    HW224750   1.331   2.451   9.757 -0.1687 -1.1301  2.2590
 4372SOL     OW24751   1.385   0.610  15.535  0.0024  0.2805  0.2201
 4372SOL    HW124752   1.314   0.620  15.473  0.2106  0.0854 -0.0463
 4372SOL    HW224753   1.441   0.557  15.479  0.2142  0.3619  0.3531
 4373SOL     OW24754   4.589   0.343   4.902 -0.4829  0.0803  0.0885
 4373SOL    HW124755   4.685   0.340   4.907 -0.4989 -3.2190 -2.0549
 4373SOL    HW224756   4.570   0.324   4.994  1.6943  0.8178  0.7065
 4374SOL     OW24757   1.254   2.601   3.227 -0.4540  0.2681 -0.1660
 4374SOL    HW124758   1.250   2.689   3.189  2.0707 -0.7047 -2.6826
 4374SOL    HW224759   1.240   2.620   3.320  2.3961  0.0009  0.3231
 4375SOL     OW24760   0.472   3.573   6.728  0.3787 -0.0336  0.2754
 4375SOL    HW124761   0.491   3.538   6.641  1.8324  1.3201  0.0295
 4375SOL    HW224762   0.559   3.609   6.747  1.4162 -1.0120 -2.7045
 4376SOL     OW24763   2.558   1.423   6.779 -0.2791  0.0673  0.2029
 4376SOL    HW124764   2.503   1.501   6.789  1.9412  1.6952 -0.1021
 4376SOL    HW224765   2.549   1.408   6.684 -2.1423  0.5371  0.3072
 4377SOL     OW24766   2.212   2.344   6.765 -0.2097 -0.1153  0.2595
 4377SOL    HW124767   2.161   2.397   6.704 -2.6324 -2.3375  0.3432
 4377SOL    HW224768   2.160   2.266   6.781 -0.6359  0.3132  0.9272
 4378SOL     OW24769   1.688   1.653   4.006  0.0022 -0.0941  0.4991
 4378SOL    HW124770   1.645   1.571   3.980  1.8604 -0.9432  0.0373
 4378SOL    HW224771   1.686   1.640   4.101  3.3154 -2.5226  0.2443
 4379SOL     OW24772   1.323   2.153   4.911 -0.1474 -0.3426 -0.6151
 4379SOL    HW124773   1.289   2.188   4.828 -1.7479 -1.5759 -0.4633
 4379SOL    HW224774   1.296   2.219   4.975  1.4739  0.0396 -0.3176
 4380SOL     OW24775   0.411   3.104   9.034  0.2039 -0.4039 -0.8285
 4380SOL    HW124776   0.337   3.084   8.976 -0.7188 -0.8511  0.5128
 4380SOL    HW224777   0.470   3.166   8.990  1.5123 -1.9273 -1.1949
 4381SOL     OW24778   3.215   3.211   8.891 -0.4947  0.1288 -0.1363
 4381SOL    HW124779   3.200   3.135   8.947  0.6111 -0.2479 -0.3586
 4381SOL    HW224780   3.147   3.214   8.824  0.5746 -3.7196 -1.3921
 4382SOL     OW24781   2.645   0.789   4.296  0.5007 -0.4047  0.8728
 4382SOL    HW124782   2.684   0.713   4.253  1.4353  0.0173  0.9743
 4382SOL    HW224783   2.553   0.767   4.313 -0.1961  0.0896 -2.2737
 4383SOL     OW24784   0.521   3.157   6.299 -1.2782 -0.1359  0.3177
 4383SOL    HW124785   0.539   3.063   6.309  1.1738  0.0573 -2.1510
 4383SOL    HW224786   0.497   3.165   6.207 -2.6757  1.3883  0.8322
 4384SOL     OW24787   0.685   2.264   0.985 -0.5900  0.0329 -0.3104
 4384SOL    HW124788   0.652   2.255   0.895 -1.2347  0.0688 -0.0758
 4384SOL    HW224789   0.752   2.333   0.982 -2.1462  1.6254  1.6772
 4385SOL     OW24790   2.488   2.061   4.528 -0.5198  0.3573 -0.1085
 4385SOL    HW124791   2.533   2.046   4.444 -0.7380  0.3209 -0.2185
 4385SOL    HW224792   2.396   2.058   4.502 -1.2716  1.7716  2.4293
 4386SOL     OW24793   3.603   1.053   7.595 -0.1544 -0.0445  0.0509
 4386SOL    HW124794   3.658   1.066   7.672 -1.8338 -0.1381  1.2748
 4386SOL    HW224795   3.651   0.982   7.551  1.4360  1.4763 -0.6474
 4387SOL     OW24796   2.381   1.448   5.299  0.2735  0.3640  0.3732
 4387SOL    HW124797   2.338   1.533   5.308  0.5066  0.5872 -0.7254
 4387SOL    HW224798   2.473   1.474   5.294  0.8597 -1.5149  1.1789
 4388SOL     OW24799   0.863   1.578   7.223 -0.1262  0.4603  0.4427
 4388SOL    HW124800   0.913   1.659   7.214 -0.4525  0.4877 -1.1570
 4388SOL    HW224801   0.915   1.536   7.291 -0.1999  2.9961  2.0640
 4389SOL     OW24802   2.283   4.619   3.162 -0.3619 -0.2543 -0.1811
 4389SOL    HW124803   2.279   4.705   3.205  4.4474 -0.2038  0.2062
 4389SOL    HW224804   2.201   4.621   3.114  0.1429  3.9882 -0.8433
 4390SOL     OW24805   1.552   3.669   5.367 -0.3528 -0.8239 -0.2324
 4390SOL    HW124806   1.624   3.725   5.337  1.6065 -2.0208  2.2154
 4390SOL    HW224807   1.580   3.669   5.459  0.7538 -2.0596 -0.5659
 4391SOL     OW24808   4.208   1.882   6.287 -0.5342 -0.1358 -0.0437
 4391SOL    HW124809   4.216   1.813   6.352 -2.8549  0.5322  0.9263
 4391SOL    HW224810   4.263   1.839   6.221  0.4581  3.3476 -1.5032
 4392SOL     OW24811   0.164   4.062  14.443  0.7710 -0.2496 -0.5510
 4392SOL    HW124812   0.225   4.065  14.517  0.6916 -4.1165 -0.3424
 4392SOL    HW224813   0.222   4.096  14.375  1.3822  0.1538  0.1679
 4393SOL     OW24814   0.272   4.352   3.211  0.5042 -0.7183 -0.0159
 4393SOL    HW124815   0.281   4.267   3.254  0.2961 -0.5312  0.4106
 4393SOL    HW224816   0.187   4.377   3.248  0.3805 -1.8480  0.4793
 4394SOL     OW24817   1.900   4.709   3.698  0.1136 -0.8251  0.4711
 4394SOL    HW124818   1.904   4.729   3.605 -2.9712 -1.8521  0.1138
 4394SOL    HW224819   1.812   4.738   3.724  0.0900 -0.9425  0.5209
 4395SOL     OW24820   2.203   0.989   5.493  0.5907  0.6919 -0.0342
 4395SOL    HW124821   2.195   0.901   5.455  0.4610  0.0469  1.5137
 4395SOL    HW224822   2.282   1.017   5.447  0.4076 -0.1289 -0.8749
 4396SOL     OW24823   4.421   2.003   3.912  0.1549 -0.4684 -0.0331
 4396SOL    HW124824   4.511   2.010   3.878  0.4429 -0.6011  0.6918
 4396SOL    HW224825   4.357   2.015   3.842 -1.8753  0.6623  2.0219
 4397SOL     OW24826   4.719   3.955  10.405  0.4403 -0.1125  0.1185
 4397SOL    HW124827   0.003   3.864  10.388 -0.5171 -0.3634  0.2115
 4397SOL    HW224828   0.051   3.979  10.466  0.8728 -0.7045 -0.1490
 4398SOL     OW24829   3.084   0.905   2.384 -0.3161 -0.2286 -0.2423
 4398SOL    HW124830   2.990   0.919   2.398 -0.3966 -0.3187 -0.6765
 4398SOL    HW224831   3.099   0.936   2.295 -1.2419 -0.7032 -0.5643
 4399SOL     OW24832   3.976   3.937   0.086  0.2583  0.4321 -0.2706
 4399SOL    HW124833   4.000   3.851   0.121 -0.1033  0.7237  0.7080
 4399SOL    HW224834   3.915   3.962   0.156 -0.0964 -0.2430 -0.3282
 4400SOL     OW24835   3.916   0.053  10.325  0.6391  0.0902  0.0113
 4400SOL    HW124836   3.952   0.121  10.382 -0.9825  1.5951 -0.8011
 4400SOL    HW224837   3.826   0.059  10.357  0.3369 -0.8305 -0.6580
 4401SOL     OW24838   1.838   3.741   5.544 -0.7538 -0.3360  0.2642
 4401SOL    HW124839   1.834   3.650   5.515 -0.8038 -0.4710  0.6978
 4401SOL    HW224840   1.745   3.756   5.562  0.0843  4.9326  0.2104
 4402SOL     OW24841   0.723   3.889   8.192  0.1773 -0.6007 -0.1592
 4402SOL    HW124842   0.806   3.922   8.158 -0.8580 -0.9009 -3.0268
 4402SOL    HW224843   0.661   3.949   8.150  1.6300  0.0543 -1.3814
 4403SOL     OW24844   4.085   1.450  16.016 -0.0806  0.2825  0.5626
 4403SOL    HW124845   4.003   1.494  16.038 -0.6584 -1.3936  1.7016
 4403SOL    HW224846   4.062   1.365  15.979  0.3664  0.1123  0.6659
 4404SOL     OW24847   0.321   2.979   7.107  0.1292 -0.3420 -0.4554
 4404SOL    HW124848   0.406   2.937   7.093  0.8353  0.5065  1.2478
 4404SOL    HW224849   0.297   3.001   7.017 -2.3193  1.7644  0.7337
 4405SOL     OW24850   0.755   4.271   3.263 -0.2995  0.6710 -0.4151
 4405SOL    HW124851   0.738   4.193   3.209 -0.3547  0.6813 -0.4128
 4405SOL    HW224852   0.750   4.231   3.350 -1.4183  1.7960  0.0377
 4406SOL     OW24853   0.922   0.750   1.612  1.1047  0.2317 -0.0599
 4406SOL    HW124854   0.916   0.689   1.538 -0.5576  0.7716 -0.3810
 4406SOL    HW224855   0.843   0.802   1.629  0.0663 -0.4729 -2.7101
 4407SOL     OW24856   1.436   2.913   4.225 -0.5749  0.2592 -0.1783
 4407SOL    HW124857   1.422   3.002   4.258 -1.2379 -0.9348  2.7607
 4407SOL    HW224858   1.363   2.913   4.163  0.0291 -2.7498 -0.8977
 4408SOL     OW24859   4.466   3.361   7.211  0.6205 -0.9471  0.1719
 4408SOL    HW124860   4.411   3.317   7.275 -0.6344 -0.8358 -0.8094
 4408SOL    HW224861   4.514   3.296   7.160  1.2901  1.4423 -2.2728
 4409SOL     OW24862   4.450   0.322   9.485 -0.0954 -0.6517  0.5390
 4409SOL    HW124863   4.426   0.395   9.429 -0.2156 -0.7886  0.4116
 4409SOL    HW224864   4.534   0.290   9.453 -0.0459  0.0136  0.0152
 4410SOL     OW24865   2.786   3.280   2.855  0.3588 -0.0474  0.2334
 4410SOL    HW124866   2.807   3.374   2.852 -1.5825  0.4578  2.0052
 4410SOL    HW224867   2.709   3.281   2.911  0.4355 -0.8400  0.3437
 4411SOL     OW24868   4.248   3.740   7.025 -0.3442 -0.4288  0.2471
 4411SOL    HW124869   4.259   3.803   7.095 -3.8733 -0.5018  0.8848
 4411SOL    HW224870   4.160   3.711   7.047 -1.0485  0.4547 -1.3605
 4412SOL     OW24871   4.046   4.052   1.397 -0.0183  0.6958  0.3016
 4412SOL    HW124872   4.007   4.009   1.473  1.2788 -1.8670 -0.4999
 4412SOL    HW224873   4.138   4.025   1.400 -0.5500 -1.2371 -0.8208
 4413SOL     OW24874   4.084   3.204  10.449 -0.1968  0.1398  0.0911
 4413SOL    HW124875   4.074   3.110  10.461 -0.7936  0.2646  0.5978
 4413SOL    HW224876   4.033   3.236  10.524 -1.3965 -1.3363 -0.0921
 4414SOL     OW24877   2.937   4.301  17.452 -0.3240  0.6731  0.0234
 4414SOL    HW124878   2.925   4.288  17.358  2.0765 -0.1327 -0.1714
 4414SOL    HW224879   2.856   4.259  17.481  0.9832 -1.8862 -0.0967
 4415SOL     OW24880   2.900   0.382   4.904  0.3644 -0.5795 -0.1003
 4415SOL    HW124881   2.949   0.462   4.926 -1.4892  0.9182 -1.4364
 4415SOL    HW224882   2.866   0.350   4.988 -0.6308 -0.4830 -0.4722
 4416SOL     OW24883   4.173   2.950   3.141  0.3620 -0.2412  0.0176
 4416SOL    HW124884   4.130   2.972   3.059 -0.6000  1.9051  1.0901
 4416SOL    HW224885   4.221   3.031   3.160  1.1034 -0.7606  0.3816
 4417SOL     OW24886   1.729   0.255   7.943  0.1606 -0.6373  0.1037
 4417SOL    HW124887   1.779   0.257   7.861 -0.7490 -1.7856 -0.4927
 4417SOL    HW224888   1.719   0.350   7.948 -2.4796 -0.8604 -0.8171
 4418SOL     OW24889   3.536   1.430   2.151 -0.1618 -0.0009  0.3007
 4418SOL    HW124890   3.605   1.388   2.101  1.2370 -0.6840  2.8182
 4418SOL    HW224891   3.513   1.367   2.219 -2.9818  0.3433 -0.3283
 4419SOL     OW24892   2.802   4.001  10.646 -0.3125 -0.3535  0.1647
 4419SOL    HW124893   2.860   3.987  10.721 -0.0638 -0.3234 -0.0224
 4419SOL    HW224894   2.852   4.068  10.600 -1.3711 -1.4203 -2.5341
 4420SOL     OW24895   0.828   1.940   7.360  0.4227 -0.0648 -0.1005
 4420SOL    HW124896   0.757   1.966   7.301 -0.6926 -1.7647  0.4680
 4420SOL    HW224897   0.788   1.950   7.447 -2.1035 -2.0942 -1.0249
 4421SOL     OW24898   0.499   2.919   5.972  0.2288  0.1981  0.5682
 4421SOL    HW124899   0.460   3.003   5.997 -0.6370 -0.3033  0.9221
 4421SOL    HW224900   0.520   2.879   6.057 -2.5733 -2.6841 -0.1138
 4422SOL     OW24901   0.497   2.144  14.488  0.1464  0.3359  0.0565
 4422SOL    HW124902   0.534   2.219  14.442 -1.9054  0.3417 -1.5841
 4422SOL    HW224903   0.573   2.088  14.507 -0.4678 -0.2253  0.8522
 4423SOL     OW24904   3.629   3.742  17.695 -0.4532  0.0796  0.0758
 4423SOL    HW124905   3.637   3.724   0.038  0.9698  0.0154 -0.0562
 4423SOL    HW224906   3.701   3.799  17.669 -0.1411 -0.4017 -0.1147
 4424SOL     OW24907   3.919   1.028  10.733  0.1356 -0.4296  0.2639
 4424SOL    HW124908   3.937   0.992  10.646  0.4908  0.7021 -0.1316
 4424SOL    HW224909   4.008   1.047  10.764  0.0307  0.4834 -0.0018
 4425SOL     OW24910   3.502   0.995   8.992 -0.2431 -0.3284 -0.3312
 4425SOL    HW124911   3.593   0.974   8.970  0.0370  1.6713 -1.0804
 4425SOL    HW224912   3.513   1.007   9.087 -1.1745 -0.3191 -0.2276
 4426SOL     OW24913   4.668   1.472   8.692 -0.0409  0.0629  0.2148
 4426SOL    HW124914   4.644   1.381   8.711  1.4736 -0.2866  0.4591
 4426SOL    HW224915   4.580   1.501   8.666  0.4134 -1.1336 -2.6551
 4427SOL     OW24916   2.028   3.141   4.114 -0.2782 -0.2514  0.2458
 4427SOL    HW124917   2.006   3.048   4.115 -1.5893  0.0512 -0.4316
 4427SOL    HW224918   1.970   3.173   4.183 -2.2421  0.1117 -1.5704
 4428SOL     OW24919   4.302   2.570   8.681  0.3835 -0.0422 -0.7261
 4428SOL    HW124920   4.363   2.589   8.751  0.8126 -0.5912 -0.9479
 4428SOL    HW224921   4.233   2.522   8.727 -0.8529  1.8790 -0.5502
 4429SOL     OW24922   3.679   2.305   6.625  0.1010  0.2497 -0.0140
 4429SOL    HW124923   3.667   2.394   6.591  0.1823  0.4990  0.6073
 4429SOL    HW224924   3.770   2.292   6.599  0.4396  0.4889  1.0693
 4430SOL     OW24925   2.824   1.710   5.952 -0.1506  0.7306  0.3297
 4430SOL    HW124926   2.768   1.698   6.028 -1.6217 -0.9755 -1.0216
 4430SOL    HW224927   2.775   1.764   5.891  0.0740 -0.2167 -0.6918
 4431SOL     OW24928   1.334   3.082   4.452  0.1584 -0.6413  0.2933
 4431SOL    HW124929   1.382   3.075   4.534  2.5081  3.5358 -0.7311
 4431SOL    HW224930   1.366   3.158   4.404 -1.2569  0.2324  0.7436
 4432SOL     OW24931   3.109   0.005   3.842 -0.2426 -0.1245 -0.6756
 4432SOL    HW124932   3.055   4.677   3.800 -0.4728 -1.0273  1.0479
 4432SOL    HW224933   3.172   0.023   3.772 -1.2563 -1.6510 -1.9562
 4433SOL     OW24934   0.021   3.392   4.241 -0.4397 -0.3452  0.0478
 4433SOL    HW124935   4.676   3.345   4.235  0.5884 -1.8556 -2.9171
 4433SOL    HW224936   0.084   3.347   4.184 -0.7514  0.0923 -0.6472
 4434SOL     OW24937   3.496   1.090   7.362  0.6859  0.0678 -1.0974
 4434SOL    HW124938   3.406   1.062   7.377  1.2130 -0.5336  0.9203
 4434SOL    HW224939   3.536   1.086   7.449 -0.4663 -1.4227 -0.6335
 4435SOL     OW24940   0.589   4.422   8.049  0.3757  0.1397  0.4627
 4435SOL    HW124941   0.609   4.428   7.955 -0.2761 -2.5311  0.1456
 4435SOL    HW224942   0.497   4.447   8.053  0.0638 -0.9127 -0.1549
 4436SOL     OW24943   1.128   3.931   0.186  0.1291  0.4880  0.3709
 4436SOL    HW124944   1.119   3.892   0.099 -1.2940  0.6062  0.4689
 4436SOL    HW224945   1.038   3.942   0.216 -0.3289 -0.9396 -0.4530
 4437SOL     OW24946   1.244   1.833   1.337  0.4562  0.0186  0.1356
 4437SOL    HW124947   1.264   1.740   1.339  1.0531  0.1758  1.0195
 4437SOL    HW224948   1.195   1.847   1.418  0.0969  0.9006 -0.2271
 4438SOL     OW24949   3.457   1.793   7.596  0.5049 -0.6197  0.0664
 4438SOL    HW124950   3.549   1.785   7.568  0.8507  0.6960  0.8823
 4438SOL    HW224951   3.466   1.844   7.676  0.6812 -0.7822  0.1514
 4439SOL     OW24952   1.654   4.227   5.274 -0.4742 -0.8859  0.4980
 4439SOL    HW124953   1.620   4.190   5.356 -1.3995 -1.1400  0.0034
 4439SOL    HW224954   1.736   4.183   5.252  0.4534  1.6131 -1.0073
 4440SOL     OW24955   1.672   3.613   3.066 -0.5491  0.1116  0.2035
 4440SOL    HW124956   1.744   3.646   3.012 -0.3488  0.1684  0.5065
 4440SOL    HW224957   1.604   3.617   3.000 -2.1509  1.0972  1.9158
 4441SOL     OW24958   3.034   0.800   4.701  0.0291 -0.1854  0.1011
 4441SOL    HW124959   3.115   0.750   4.700  0.3306  0.2955  0.5917
 4441SOL    HW224960   2.981   0.763   4.631  0.2906 -0.9889  0.3193
 4442SOL     OW24961   0.779   4.473  14.258 -0.0855 -0.2422 -0.0527
 4442SOL    HW124962   0.728   4.551  14.279  2.0502  0.7805  1.3507
 4442SOL    HW224963   0.840   4.465  14.332  0.3778 -0.3659 -0.4490
 4443SOL     OW24964   2.495   3.820  15.217  0.0503  0.1046 -0.6101
 4443SOL    HW124965   2.529   3.778  15.296 -1.4661 -2.0461 -1.0939
 4443SOL    HW224966   2.416   3.766  15.220  1.7649 -2.3386  0.6723
 4444SOL     OW24967   2.475   2.929   1.679  0.6120 -0.4270 -0.4722
 4444SOL    HW124968   2.554   2.875   1.681  0.8383  0.0069  2.9515
 4444SOL    HW224969   2.431   2.893   1.756 -1.4060  1.3561 -0.8055
 4445SOL     OW24970   2.830   4.716   8.264 -0.4716  0.1305  0.1766
 4445SOL    HW124971   2.758   4.708   8.327 -0.4086  0.1104  0.2459
 4445SOL    HW224972   2.889   4.648   8.296 -0.6443 -0.9735 -1.8381
 4446SOL     OW24973   3.659   3.670  16.491  0.6178  0.3742 -0.4811
 4446SOL    HW124974   3.596   3.721  16.439  0.3079  1.9311  1.4204
 4446SOL    HW224975   3.604   3.594  16.511 -0.1281  0.7555 -1.0611
 4447SOL     OW24976   2.064   1.501  11.364  0.0032 -0.8699  0.1126
 4447SOL    HW124977   2.020   1.564  11.421  0.7104 -0.4262  0.1699
 4447SOL    HW224978   2.057   1.566  11.293 -0.1119  0.7862  1.6453
 4448SOL     OW24979   0.784   0.640  15.740  0.1328 -0.1173  0.4404
 4448SOL    HW124980   0.841   0.608  15.810  1.5814 -1.3569 -1.3133
 4448SOL    HW224981   0.760   0.726  15.775  1.5834  0.7383 -0.6957
 4449SOL     OW24982   1.693   3.735   8.884  0.2482  0.0606  0.3620
 4449SOL    HW124983   1.662   3.825   8.887 -1.7811 -0.6356  0.0165
 4449SOL    HW224984   1.634   3.695   8.820  0.8784 -1.0709  0.4796
 4450SOL     OW24985   1.464   4.043   5.757 -0.0760  0.1464  0.5133
 4450SOL    HW124986   1.506   3.993   5.827 -0.5034 -1.1875 -0.1842
 4450SOL    HW224987   1.511   4.013   5.680 -1.5868 -2.6336  0.6661
 4451SOL     OW24988   4.638   3.858   9.124 -0.2771  0.0851  0.1889
 4451SOL    HW124989   4.637   3.876   9.030  2.1130  2.2515  0.5543
 4451SOL    HW224990   4.705   3.924   9.146  0.3830 -0.7129  0.5894
 4452SOL     OW24991   0.165   1.914   2.862  0.4223 -0.2470 -0.0069
 4452SOL    HW124992   0.243   1.860   2.877  0.3675 -0.5489 -0.8260
 4452SOL    HW224993   0.112   1.850   2.815  1.3184 -0.8756 -0.1818
 4453SOL     OW24994   4.117   3.400   5.778 -0.0530  0.1170  0.0266
 4453SOL    HW124995   4.071   3.318   5.797 -1.0694  0.4647 -0.9195
 4453SOL    HW224996   4.111   3.442   5.863 -0.8461  0.7039 -0.3206
 4454SOL     OW24997   0.308   0.659   6.542  0.1662 -0.2300  0.1299
 4454SOL    HW124998   0.238   0.706   6.586 -0.1732 -0.1120 -0.5421
 4454SOL    HW224999   0.282   0.665   6.451 -2.4281 -0.5676  0.8598
 4455SOL     OW25000   1.464   1.430  11.821  0.5232  0.3904  0.2126
 4455SOL    HW125001   1.503   1.392  11.742 -0.3182 -1.4565  0.6861
 4455SOL    HW225002   1.442   1.520  11.797 -1.8828 -0.0835  0.6598
 4456SOL     OW25003   3.467   0.930  11.173 -0.2303  0.6515  0.6709
 4456SOL    HW125004   3.463   0.850  11.226  3.8561 -0.6969 -1.0663
 4456SOL    HW225005   3.376   0.935  11.143  0.4332  0.8319 -1.3154
 4457SOL     OW25006   0.567   3.355   2.119  0.1588 -0.0477 -0.1422
 4457SOL    HW125007   0.594   3.301   2.046  0.2767  0.0322 -0.1575
 4457SOL    HW225008   0.647   3.387   2.161 -0.3066  1.1470 -0.1524
 4458SOL     OW25009   4.601   1.662   0.962 -0.2129  0.2773 -0.2555
 4458SOL    HW125010   4.604   1.637   0.870  1.5570 -1.2932  0.2230
 4458SOL    HW225011   4.511   1.694   0.965 -1.2285 -2.4038 -2.0630
 4459SOL     OW25012   3.199   4.644  10.861  0.2059 -0.1904 -0.4715
 4459SOL    HW125013   3.152   4.727  10.872  1.7808  0.7303 -0.7019
 4459SOL    HW225014   3.181   4.614  10.772  0.7226  0.1079 -0.6744
 4460SOL     OW25015   3.408   3.211   5.620  0.0962 -0.5139  0.3191
 4460SOL    HW125016   3.454   3.152   5.680 -0.0126 -1.2696 -0.3469
 4460SOL    HW225017   3.400   3.150   5.548  0.9582 -1.2834  0.8787
 4461SOL     OW25018   1.834   4.585  12.354 -0.2388  0.4456 -0.2134
 4461SOL    HW125019   1.766   4.552  12.296 -1.6202  0.2593  1.5046
 4461SOL    HW225020   1.896   4.513  12.343  1.2375  1.9242 -1.5397
 4462SOL     OW25021   4.545   0.350   4.359  0.2169  0.0020 -0.0868
 4462SOL    HW125022   4.463   0.368   4.405  0.1325  0.1494 -0.2957
 4462SOL    HW225023   4.559   0.439   4.327 -3.1677  0.8775  0.8876
 4463SOL     OW25024   0.423   4.518   2.155 -0.5421 -0.2942  0.0736
 4463SOL    HW125025   0.514   4.517   2.186 -0.4126 -0.3511 -0.3065
 4463SOL    HW225026   0.411   4.613   2.143  2.3978 -0.3293 -3.1042
 4464SOL     OW25027   3.697   1.563   5.055 -0.1278 -0.0976  0.1521
 4464SOL    HW125028   3.764   1.591   5.118 -1.2303 -1.1206  1.7877
 4464SOL    HW225029   3.642   1.636   5.026 -2.3312 -2.2581 -1.1103
 4465SOL     OW25030   0.793   3.541   3.609  0.1618 -0.3009 -0.2043
 4465SOL    HW125031   0.757   3.599   3.675  0.0044 -0.9434  0.2803
 4465SOL    HW225032   0.869   3.585   3.571 -0.2011  0.5917  0.1218
 4466SOL     OW25033   3.813   0.548   2.205 -0.1209  0.1910 -0.3501
 4466SOL    HW125034   3.862   0.628   2.186 -1.9369  1.1468 -1.0579
 4466SOL    HW225035   3.869   0.506   2.270  0.7085 -0.7100 -1.6490
 4467SOL     OW25036   0.540   0.778   6.696 -0.2935  0.0405  0.1940
 4467SOL    HW125037   0.564   0.866   6.669  1.7140 -0.8763 -1.0073
 4467SOL    HW225038   0.487   0.739   6.627 -0.7924  0.5584  0.2899
 4468SOL     OW25039   3.683   0.205  10.957  0.9401  0.5196 -0.3950
 4468SOL    HW125040   3.639   0.203  11.042  0.1394 -0.3007 -0.8230
 4468SOL    HW225041   3.774   0.222  10.982  1.2125 -0.3782 -0.7754
 4469SOL     OW25042   0.325   4.346   1.957  0.0480 -0.2366 -0.4748
 4469SOL    HW125043   0.325   4.264   2.007 -1.0194  0.4149  0.6002
 4469SOL    HW225044   0.335   4.417   2.020  0.4243 -1.0990  0.4332
 4470SOL     OW25045   1.854   4.067   4.023 -0.6440  0.4974  0.5774
 4470SOL    HW125046   1.928   4.070   4.084  1.2071  0.4419 -1.6625
 4470SOL    HW225047   1.892   4.119   3.952  0.8927  0.5234  1.4273
 4471SOL     OW25048   1.007   0.153  12.281 -0.0224 -0.0972  0.0143
 4471SOL    HW125049   1.084   0.098  12.297 -1.1473 -0.6799  3.3663
 4471SOL    HW225050   1.012   0.178  12.189 -0.0916  0.9986  0.3076
 4472SOL     OW25051   0.178   3.379   4.572  0.0615 -0.0924 -0.7510
 4472SOL    HW125052   0.207   3.459   4.529 -0.9503  1.0299  0.6353
 4472SOL    HW225053   0.171   3.318   4.499 -0.0811  1.7863 -2.2933
 4473SOL     OW25054   1.017   0.583   7.890  0.3416 -0.2002 -0.3637
 4473SOL    HW125055   0.946   0.518   7.894 -0.2621  0.4544 -0.4822
 4473SOL    HW225056   1.017   0.623   7.977  0.3541 -2.2238  0.5927
 4474SOL     OW25057   4.267   0.278   7.802 -0.1123 -0.0285 -0.2525
 4474SOL    HW125058   4.358   0.276   7.772 -0.5787 -0.2332 -1.6699
 4474SOL    HW225059   4.270   0.237   7.888 -2.9379  0.3649  0.0296
 4475SOL     OW25060   1.481   2.667   6.727  0.3848  0.2359 -0.0576
 4475SOL    HW125061   1.509   2.724   6.798 -0.3299 -0.2945  0.6515
 4475SOL    HW225062   1.558   2.678   6.672  1.0812  1.5966  1.1967
 4476SOL     OW25063   3.130   2.132   3.017 -0.5555  0.5512 -0.1043
 4476SOL    HW125064   3.131   2.212   3.069  0.4490  0.9976 -0.8139
 4476SOL    HW225065   3.158   2.065   3.080 -0.8739 -0.1928 -0.7488
 4477SOL     OW25066   0.844   0.371   7.210 -0.3848 -0.1263 -0.5205
 4477SOL    HW125067   0.888   0.291   7.239 -1.0885 -0.8079 -1.3484
 4477SOL    HW225068   0.911   0.405   7.150 -1.2293  1.3832 -0.6016
 4478SOL     OW25069   2.443   2.497  15.737 -0.4930 -0.1240 -0.1087
 4478SOL    HW125070   2.491   2.579  15.731  1.5322 -1.3163 -0.1046
 4478SOL    HW225071   2.510   2.432  15.719 -0.6576 -0.5359  0.7798
 4479SOL     OW25072   3.067   2.349   1.632 -0.3101  0.1564  0.5506
 4479SOL    HW125073   3.019   2.287   1.687  1.0043 -0.9307  0.4817
 4479SOL    HW225074   3.056   2.426   1.687  1.1419 -0.8781  2.3253
 4480SOL     OW25075   0.780   4.707  17.081  0.4012 -0.3874 -0.2023
 4480SOL    HW125076   0.859   4.675  17.125  1.1013  1.2323 -0.2904
 4480SOL    HW225077   0.805   0.058  17.058 -0.8380 -0.7278 -2.9123
 4481SOL     OW25078   0.570   4.320   4.958  0.0760 -0.0580  0.1711
 4481SOL    HW125079   0.660   4.303   4.929 -0.2163  1.7432 -1.7571
 4481SOL    HW225080   0.569   4.414   4.979  2.0303  0.2043 -0.8437
 4482SOL     OW25081   3.603   4.146   0.468  0.2745  0.2464  0.2129
 4482SOL    HW125082   3.532   4.208   0.453  0.4909 -0.0520 -1.9802
 4482SOL    HW225083   3.641   4.175   0.551 -0.2201  0.5793  0.3220
 4483SOL     OW25084   3.789   1.445   3.765 -0.5698  0.1262  0.2761
 4483SOL    HW125085   3.762   1.369   3.714  1.8480 -0.2422 -0.4192
 4483SOL    HW225086   3.706   1.476   3.802 -1.2221  0.1799 -1.2230
 4484SOL     OW25087   4.345   1.456   2.945  0.5085 -0.1799 -0.4115
 4484SOL    HW125088   4.291   1.535   2.956  1.1897 -0.0818  2.1871
 4484SOL    HW225089   4.366   1.442   3.038  1.0096 -2.1775 -0.8357
 4485SOL     OW25090   1.111   0.659  15.092  0.3449  0.4809 -0.2821
 4485SOL    HW125091   1.047   0.682  15.159 -2.0298 -0.6532 -2.1646
 4485SOL    HW225092   1.169   0.598  15.138 -1.8018 -1.1278  0.2690
 4486SOL     OW25093   4.302   0.757   6.412  0.2336 -0.0230  0.1780
 4486SOL    HW125094   4.255   0.771   6.494 -0.9050 -1.3513 -0.2503
 4486SOL    HW225095   4.384   0.727   6.450 -1.0195  0.3409  3.1408
 4487SOL     OW25096   3.386   1.933   4.283  0.4887  0.2353 -0.1515
 4487SOL    HW125097   3.334   1.854   4.267  0.4460  0.4245 -0.9352
 4487SOL    HW225098   3.345   1.994   4.222 -1.4246 -1.1314 -0.2248
 4488SOL     OW25099   2.877   2.949   8.726 -0.1651  0.0175  0.6707
 4488SOL    HW125100   2.900   2.864   8.689  0.2925  0.8658 -1.0179
 4488SOL    HW225101   2.903   2.941   8.818 -2.5110  1.6362  1.4580
 4489SOL     OW25102   4.437   2.992  12.710 -0.0977  0.0160 -0.2702
 4489SOL    HW125103   4.509   2.972  12.770  0.6345  1.0534 -0.8134
 4489SOL    HW225104   4.475   2.943  12.637  0.4454 -0.4307  0.3094
 4490SOL     OW25105   0.301   1.014   1.538  0.0841 -0.4747 -0.4157
 4490SOL    HW125106   0.384   1.007   1.490  0.5525 -0.8070  0.4343
 4490SOL    HW225107   0.317   0.961   1.616 -1.6132  0.7180  0.7377
 4491SOL     OW25108   4.225   1.999   5.293 -0.1930  0.0847  0.3999
 4491SOL    HW125109   4.285   2.020   5.221  0.7328  0.8310  1.3821
 4491SOL    HW225110   4.250   2.073   5.349  0.4995  0.1989 -0.0627
 4492SOL     OW25111   2.669   4.626   2.319 -0.0311  0.2955  0.5083
 4492SOL    HW125112   2.609   4.555   2.295 -0.7592  0.4840  1.7483
 4492SOL    HW225113   2.653   4.635   2.413 -1.1501  2.5601  0.0965
 4493SOL     OW25114   2.583   3.355   4.463 -0.1587 -0.2330  0.4757
 4493SOL    HW125115   2.592   3.378   4.556  1.2248  0.6941  0.1084
 4493SOL    HW225116   2.517   3.423   4.445  1.3123  0.8091 -0.9860
 4494SOL     OW25117   1.466   1.522   9.909 -0.0524 -0.3539 -0.1528
 4494SOL    HW125118   1.444   1.579   9.834 -0.2555  1.4922  1.3046
 4494SOL    HW225119   1.560   1.540   9.914  0.0363 -1.3513  1.3690
 4495SOL     OW25120   4.492   0.943  17.562 -0.1569  0.0902 -0.0011
 4495SOL    HW125121   4.446   0.986  17.634  1.0794  0.7167  0.4179
 4495SOL    HW225122   4.476   1.015  17.500 -1.2552  0.6102  0.9051
 4496SOL     OW25123   0.238   1.140   8.935  0.4780 -0.4206 -0.0857
 4496SOL    HW125124   0.252   1.232   8.957  2.0183 -0.8324  0.6932
 4496SOL    HW225125   0.171   1.110   8.998  0.5769 -0.1033  0.1709
 4497SOL     OW25126   0.198   2.510   3.306 -0.0734  0.1644  0.1051
 4497SOL    HW125127   0.136   2.456   3.257 -0.5122 -0.5974  1.5015
 4497SOL    HW225128   0.224   2.564   3.231 -1.6929  0.0872 -0.5122
 4498SOL     OW25129   2.956   0.140   7.543 -0.5396  0.2887  0.3009
 4498SOL    HW125130   3.022   0.094   7.594 -0.3697 -0.7232 -0.8221
 4498SOL    HW225131   2.891   0.154   7.612 -0.6256 -0.3779  0.3587
 4499SOL     OW25132   4.320   2.302  12.593 -0.3401  0.5650  0.5529
 4499SOL    HW125133   4.356   2.246  12.662  0.5613 -0.4469 -0.7470
 4499SOL    HW225134   4.231   2.322  12.622 -1.1916 -1.0453 -0.9452
 4500SOL     OW25135   4.443   3.758  11.396  0.2854 -0.1002  0.2676
 4500SOL    HW125136   4.401   3.685  11.440 -1.2524  1.4058  1.3198
 4500SOL    HW225137   4.481   3.805  11.471  0.3191  0.7436 -0.2706
 4501SOL     OW25138   0.436   0.900   5.914 -0.0139  0.3472 -0.1677
 4501SOL    HW125139   0.498   0.951   5.967 -1.7579  2.2958 -0.0071
 4501SOL    HW225140   0.482   0.823   5.881 -1.3465 -0.1736 -0.8088
 4502SOL     OW25141   1.276   1.930   2.529 -0.2189 -0.2340 -0.0998
 4502SOL    HW125142   1.207   1.951   2.465 -1.1290 -2.5486  0.0957
 4502SOL    HW225143   1.310   2.017   2.545 -0.2829  0.0500 -1.4819
 4503SOL     OW25144   0.615   4.424   4.122 -0.3438  0.2577  0.3030
 4503SOL    HW125145   0.674   4.376   4.180  1.6935  0.7519 -1.3357
 4503SOL    HW225146   0.538   4.427   4.178 -1.5305  0.9709 -1.3673
 4504SOL     OW25147   2.633   4.121   5.561 -0.1933 -0.1749  0.2695
 4504SOL    HW125148   2.681   4.040   5.540  0.5710  0.1979  0.5664
 4504SOL    HW225149   2.584   4.141   5.481 -1.0988  0.1834  0.9253
 4505SOL     OW25150   3.165   3.863   8.240 -0.2420  0.9475  0.0031
 4505SOL    HW125151   3.180   3.957   8.257 -0.2009  0.5877  1.9760
 4505SOL    HW225152   3.255   3.833   8.226 -1.3138 -1.5978 -1.2686
 4506SOL     OW25153   2.842   0.037  15.423  0.0001  0.1256 -0.2643
 4506SOL    HW125154   2.859   4.693  15.469 -2.1388 -0.5798 -0.7254
 4506SOL    HW225155   2.830   0.086  15.504  0.8300  0.4291 -0.3214
 4507SOL     OW25156   0.825   0.423   4.083  0.4477 -0.3555  0.1630
 4507SOL    HW125157   0.902   0.366   4.089 -0.0833 -1.1156 -0.4259
 4507SOL    HW225158   0.781   0.382   4.010 -0.2638  0.2610  0.2504
 4508SOL     OW25159   4.434   1.488   9.544  0.5847  0.4693 -0.1008
 4508SOL    HW125160   4.458   1.571   9.504 -0.8878  0.5279 -0.8743
 4508SOL    HW225161   4.403   1.443   9.465 -1.5716  2.3974 -0.3542
 4509SOL     OW25162   4.617   4.302   8.931  0.2102 -0.2097  0.0901
 4509SOL    HW125163   4.617   4.382   8.982 -0.3738  0.0007 -0.2382
 4509SOL    HW225164   4.680   4.326   8.863 -0.0063 -1.5135 -0.5751
 4510SOL     OW25165   1.047   3.709   5.532  0.3246  0.1496  0.5120
 4510SOL    HW125166   1.021   3.652   5.604  1.3563 -0.2279  0.5933
 4510SOL    HW225167   1.121   3.661   5.494 -1.3376 -1.2922 -0.8674
 4511SOL     OW25168   2.040   3.301   5.111  0.0546  0.3740  0.1636
 4511SOL    HW125169   2.054   3.207   5.114 -1.3287  0.1286 -1.0151
 4511SOL    HW225170   1.947   3.300   5.134 -0.0122  0.1685 -0.1277
 4512SOL     OW25171   4.417   3.366   7.688  0.3672  0.4267 -0.2519
 4512SOL    HW125172   4.414   3.308   7.763 -1.4479 -0.5109 -1.0415
 4512SOL    HW225173   4.501   3.413   7.689  0.7937 -0.3912  1.5216
 4513SOL     OW25174   0.801   4.528  12.595  0.3056  0.2485  0.2023
 4513SOL    HW125175   0.717   4.543  12.639  0.4252  0.0905  0.4830
 4513SOL    HW225176   0.813   4.618  12.566  2.3340  0.3599  1.4419
 4514SOL     OW25177   0.146   4.623   3.452  0.2642 -0.4243 -0.2565
 4514SOL    HW125178   0.100   4.586   3.376  0.4447 -1.9898  0.4001
 4514SOL    HW225179   0.096   4.575   3.518 -1.6890  2.0345  0.0672
 4515SOL     OW25180   2.123   0.905   5.989 -0.1818 -0.3126 -0.0650
 4515SOL    HW125181   2.216   0.899   5.970 -0.0660 -0.4244  0.5276
 4515SOL    HW225182   2.080   0.927   5.906  1.4725  2.3023 -0.2254
 4516SOL     OW25183   1.636   2.997   8.805  0.3771  0.1419 -0.0541
 4516SOL    HW125184   1.541   2.985   8.812  0.0943  2.6607  0.6103
 4516SOL    HW225185   1.660   2.909   8.776  1.1689  0.0784  0.7939
 4517SOL     OW25186   1.093   1.158   3.127  0.2777 -0.0207  0.2854
 4517SOL    HW125187   1.060   1.233   3.177  1.0227 -0.1626  1.0050
 4517SOL    HW225188   1.183   1.138   3.155  0.3090 -0.3462 -0.0580
 4518SOL     OW25189   2.504   0.502   5.712 -0.2301  0.1758 -0.1251
 4518SOL    HW125190   2.577   0.442   5.724 -0.4105  0.0254  0.2065
 4518SOL    HW225191   2.464   0.506   5.799 -0.3519  2.6305 -0.2765
 4519SOL     OW25192   0.881   0.046  12.602  0.6404  0.3003 -0.2011
 4519SOL    HW125193   0.947   4.735  12.651 -1.2474 -1.0729  0.9305
 4519SOL    HW225194   0.925   0.123  12.566 -2.4184  1.7161 -0.9521
 4520SOL     OW25195   2.104   0.543   9.426 -0.9467 -0.1259 -0.1828
 4520SOL    HW125196   2.108   0.546   9.522  2.8773  2.4424 -0.4011
 4520SOL    HW225197   2.069   0.456   9.408  1.3256 -1.3012  1.0257
 4521SOL     OW25198   1.423   0.999   6.607  0.3642 -0.2411 -0.4065
 4521SOL    HW125199   1.472   1.068   6.562 -2.3862  2.5130  0.8521
 4521SOL    HW225200   1.356   0.978   6.542  2.1316  2.3232 -3.0716
 4522SOL     OW25201   0.877   1.045  11.184  0.7157 -0.5483  0.1214
 4522SOL    HW125202   0.882   0.970  11.125  1.5250 -1.5598  1.4683
 4522SOL    HW225203   0.851   1.005  11.267  1.5185  1.8191  1.5252
 4523SOL     OW25204   2.582   0.277   0.215 -0.1141  0.5486 -0.2446
 4523SOL    HW125205   2.583   0.368   0.243  0.6204 -0.4415  2.9824
 4523SOL    HW225206   2.497   0.241   0.241 -0.7313  1.5093 -0.9339
 4524SOL     OW25207   1.770   4.050   5.720 -0.6323  0.3185 -0.7152
 4524SOL    HW125208   1.703   4.021   5.657  1.2192 -2.4230 -1.4213
 4524SOL    HW225209   1.734   4.017   5.802 -0.4658  1.9378 -0.0029
 4525SOL     OW25210   3.539   2.960   6.684 -0.0908  0.2553  0.6685
 4525SOL    HW125211   3.554   3.032   6.744 -0.5554  0.8694  0.0512
 4525SOL    HW225212   3.446   2.961   6.662  0.6341  0.9676 -2.3292
 4526SOL     OW25213   0.597   2.487   9.561  0.0361  0.5447 -0.4009
 4526SOL    HW125214   0.502   2.481   9.564  0.0073  0.9980 -0.4441
 4526SOL    HW225215   0.590   2.550   9.489  1.1831  0.4011 -0.6412
 4527SOL     OW25216   1.508   4.325   4.284  0.2964  0.3783  0.4443
 4527SOL    HW125217   1.577   4.299   4.222  1.0815 -0.9304  1.8775
 4527SOL    HW225218   1.452   4.384   4.232  0.0524 -0.6444 -0.4666
 4528SOL     OW25219   2.385   1.207   5.655 -0.4473  0.2585 -0.4125
 4528SOL    HW125220   2.322   1.144   5.618 -1.5275  1.4878 -0.6532
 4528SOL    HW225221   2.355   1.228   5.743 -2.7075  3.4758 -1.9575
 4529SOL     OW25222   0.107   3.552   0.078  0.5062 -0.5527 -0.3185
 4529SOL    HW125223   0.089   3.591  17.744 -1.2734  1.0538  0.8062
 4529SOL    HW225224   0.016   3.544   0.106  0.0908 -1.1195 -1.8360
 4530SOL     OW25225   2.726   3.556   6.961  0.4010 -0.4433  0.1145
 4530SOL    HW125226   2.790   3.583   6.896 -1.5481  2.1364 -0.7009
 4530SOL    HW225227   2.637   3.583   6.938  1.0867  0.9193 -0.8918
 4531SOL     OW25228   4.401   3.823   1.515 -0.6035 -0.1600  0.4197
 4531SOL    HW125229   4.334   3.762   1.485  0.2064 -0.5881 -0.4979
 4531SOL    HW225230   4.369   3.838   1.604 -0.3695  2.1296  0.1236
 4532SOL     OW25231   0.269   0.812   7.762  0.2339 -0.2644 -0.0895
 4532SOL    HW125232   0.345   0.803   7.704 -0.3479  1.0864 -1.0731
 4532SOL    HW225233   0.275   0.727   7.806  0.7306  0.0241  0.3880
 4533SOL     OW25234   0.039   3.583   3.114  0.0020 -0.0172  0.1458
 4533SOL    HW125235   0.111   3.534   3.154  1.1132  0.1508 -1.6464
 4533SOL    HW225236   0.066   3.582   3.022 -1.0275 -0.9156 -0.1481
 4534SOL     OW25237   3.957   1.434  15.072  0.4800  0.1254 -0.2235
 4534SOL    HW125238   4.015   1.380  15.018  0.8110 -1.1392  1.3888
 4534SOL    HW225239   4.001   1.515  15.095  2.2086 -0.6330 -0.9028
 4535SOL     OW25240   2.447   2.035   3.139  0.6434 -0.0654  0.1844
 4535SOL    HW125241   2.523   2.042   3.197 -1.3326  0.1604  2.7528
 4535SOL    HW225242   2.480   2.043   3.050  2.5427 -0.7091  0.8153
 4536SOL     OW25243   2.485   1.670  17.341  0.4280 -0.0712  0.3454
 4536SOL    HW125244   2.509   1.736  17.276 -2.3876  1.2569  0.6265
 4536SOL    HW225245   2.397   1.705  17.358  1.3846  1.8631  1.3861
 4537SOL     OW25246   1.579   3.115   7.421  0.3338  0.3024 -0.2042
 4537SOL    HW125247   1.603   3.023   7.412  0.3596  0.1084  2.0114
 4537SOL    HW225248   1.621   3.150   7.499  0.7137 -0.4944 -0.0476
 4538SOL     OW25249   1.335   2.748   5.269  0.3541 -0.6187 -0.0525
 4538SOL    HW125250   1.389   2.669   5.273  0.5057 -0.5217 -0.2084
 4538SOL    HW225251   1.264   2.713   5.323 -1.4320  0.8883 -1.4301
 4539SOL     OW25252   2.979   3.269   6.900 -0.4211  0.1845  0.2138
 4539SOL    HW125253   3.017   3.245   6.816 -0.1829  1.6956 -0.1066
 4539SOL    HW225254   3.051   3.253   6.962 -2.1120 -0.3482  2.0520
 4540SOL     OW25255   2.691   4.595   2.606  0.7025  0.1223  0.5364
 4540SOL    HW125256   2.766   4.628   2.654  1.0708  1.9894 -1.3339
 4540SOL    HW225257   2.673   4.519   2.663  1.5858 -2.6485 -2.8615
 4541SOL     OW25258   4.610   3.378   3.605  0.1289 -1.1092  0.1461
 4541SOL    HW125259   4.553   3.318   3.557  0.8474 -2.6437  1.2346
 4541SOL    HW225260   4.645   3.433   3.535  0.5358  0.9893  2.0073
 4542SOL     OW25261   2.361   2.717   0.349 -0.0908  0.3414 -0.5295
 4542SOL    HW125262   2.290   2.778   0.330 -0.7547 -0.2969 -0.0753
 4542SOL    HW225263   2.364   2.655   0.277 -1.6758  2.1666 -2.1740
 4543SOL     OW25264   3.769   4.152   1.400 -0.5329  0.1872  0.3639
 4543SOL    HW125265   3.703   4.162   1.468 -0.4654 -1.1527  0.6145
 4543SOL    HW225266   3.850   4.167   1.448 -0.9171  2.1301  0.4249
 4544SOL     OW25267   0.371   4.156   7.839 -0.2687 -0.4921 -0.0135
 4544SOL    HW125268   0.345   4.246   7.858 -1.7959 -1.2260  1.3980
 4544SOL    HW225269   0.315   4.140   7.762 -0.8508  0.3878  0.2344
 4545SOL     OW25270   0.830   1.711   6.124 -0.3682 -0.1676 -1.0329
 4545SOL    HW125271   0.826   1.749   6.036 -0.1284  1.5185 -0.3254
 4545SOL    HW225272   0.860   1.623   6.103  1.8819  0.4606 -0.3786
 4546SOL     OW25273   3.767   4.323  10.763  0.5791 -0.0890 -0.1427
 4546SOL    HW125274   3.794   4.410  10.791  1.7105 -0.1702 -0.9804
 4546SOL    HW225275   3.842   4.281  10.723  0.5540  1.7700 -2.1567
 4547SOL     OW25276   2.285   1.458   4.730 -0.2055  0.0313  0.0671
 4547SOL    HW125277   2.292   1.545   4.770 -2.8460 -0.0189  0.6931
 4547SOL    HW225278   2.361   1.448   4.674  0.2463 -1.0811  0.8642
 4548SOL     OW25279   4.687   3.181  14.968  0.6455 -0.0788 -0.4761
 4548SOL    HW125280   4.676   3.155  15.060  1.2377 -1.0817 -0.6957
 4548SOL    HW225281   0.004   3.109  14.940 -0.1271 -0.4996 -0.9231
 4549SOL     OW25282   2.861   2.246   6.926 -0.2558 -0.3818 -0.7238
 4549SOL    HW125283   2.809   2.317   6.889  1.6596  0.6359 -1.5130
 4549SOL    HW225284   2.836   2.254   7.018  2.0505  0.3420 -0.1471
 4550SOL     OW25285   2.149   3.666   7.227 -0.2356 -0.0476 -0.0996
 4550SOL    HW125286   2.196   3.610   7.166 -0.7612 -0.4253 -0.1571
 4550SOL    HW225287   2.059   3.658   7.195  0.3422 -1.9625 -1.2331
 4551SOL     OW25288   0.168   3.237  15.535  0.0964 -0.3405  0.4754
 4551SOL    HW125289   0.124   3.155  15.515 -0.5738 -0.1608  1.2522
 4551SOL    HW225290   0.153   3.252  15.628 -3.4206  2.0463 -0.4864
 4552SOL     OW25291   3.870   0.664  13.417  0.2183  0.4301  0.3826
 4552SOL    HW125292   3.927   0.740  13.428 -0.3619  0.7748  1.0125
 4552SOL    HW225293   3.789   0.714  13.430 -0.6416 -0.8702  0.0020
 4553SOL     OW25294   1.101   2.965   2.987 -0.4800 -0.2673  0.6053
 4553SOL    HW125295   1.134   2.933   2.903  0.9809 -0.2045  1.1653
 4553SOL    HW225296   1.036   2.900   3.015 -2.1615  1.4684  0.7710
 4554SOL     OW25297   2.587   4.646   4.937 -0.3706  0.2250 -0.2684
 4554SOL    HW125298   2.674   4.664   4.971 -0.3052  1.3035 -1.0139
 4554SOL    HW225299   2.541   4.603   5.009  0.7473  1.2220  1.0559
 4555SOL     OW25300   1.501   0.540   6.643  0.0285 -0.2257  0.2740
 4555SOL    HW125301   1.475   0.608   6.705  1.1713 -0.1266  0.6414
 4555SOL    HW225302   1.417   0.500   6.620  0.5315 -1.0558 -0.1046
 4556SOL     OW25303   2.464   1.321   8.506  0.2217 -0.0754 -0.2560
 4556SOL    HW125304   2.388   1.282   8.550 -0.5628  1.2910 -0.3677
 4556SOL    HW225305   2.435   1.333   8.415 -1.7773  1.0096  0.5045
 4557SOL     OW25306   2.340   1.158   4.533  0.0573 -0.1016  0.0653
 4557SOL    HW125307   2.410   1.189   4.590 -0.5620 -0.6874  1.1497
 4557SOL    HW225308   2.371   1.072   4.505  0.4929  0.2264 -0.4559
 4558SOL     OW25309   4.648   2.594   2.373 -0.0811 -0.2387 -0.4088
 4558SOL    HW125310   4.651   2.503   2.403  1.0391  0.5940  2.0203
 4558SOL    HW225311   4.553   2.608   2.376 -0.3294 -2.2131  1.0489
 4559SOL     OW25312   4.550   0.886  15.990 -0.3844  0.0647 -0.3834
 4559SOL    HW125313   4.599   0.836  15.924 -0.1493 -1.2922  0.8151
 4559SOL    HW225314   4.459   0.870  15.965 -0.7391  1.8821 -0.2471
 4560SOL     OW25315   0.462   4.260   3.936 -0.4165  0.2676 -1.0894
 4560SOL    HW125316   0.511   4.323   3.989  0.1304 -0.9404 -0.1291
 4560SOL    HW225317   0.381   4.305   3.911 -0.4063  2.0347  2.1321
 4561SOL     OW25318   1.044   0.841   2.334 -0.2388  0.1537 -0.1911
 4561SOL    HW125319   1.138   0.822   2.331 -0.3787 -0.3318 -1.8130
 4561SOL    HW225320   1.011   0.752   2.346 -0.4603  0.0698 -1.4083
 4562SOL     OW25321   3.753   0.111   7.752  0.2848 -0.2455 -0.2435
 4562SOL    HW125322   3.706   0.154   7.823  0.8657  2.5728 -1.5860
 4562SOL    HW225323   3.741   0.173   7.680  0.2219  0.3796  0.3137
 4563SOL     OW25324   4.682   3.625  15.508 -0.8178  0.6376 -0.2534
 4563SOL    HW125325   4.715   3.601  15.594  2.3541  2.1001 -1.0361
 4563SOL    HW225326   4.619   3.556  15.486  0.7576 -0.8690 -0.0764
 4564SOL     OW25327   4.120   2.513  13.442 -0.7412 -0.0003  0.2413
 4564SOL    HW125328   4.133   2.607  13.442  1.4238 -0.2961 -0.9808
 4564SOL    HW225329   4.144   2.497  13.351 -2.8542 -1.7108 -0.0279
 4565SOL     OW25330   1.968   2.623  14.082 -0.1569 -0.3025  0.1698
 4565SOL    HW125331   1.895   2.630  14.143 -0.1888  0.4964  0.0322
 4565SOL    HW225332   2.003   2.712  14.085 -0.3871 -0.2592  1.9776
 4566SOL     OW25333   1.912   0.426   8.532 -0.1825  0.0128  0.5863
 4566SOL    HW125334   1.861   0.461   8.605 -1.7525  1.3409 -1.1631
 4566SOL    HW225335   1.957   0.504   8.499 -1.2588  0.6152  0.5588
 4567SOL     OW25336   3.543   3.007   5.762 -0.1345  0.4055 -0.2187
 4567SOL    HW125337   3.497   2.934   5.802  0.0445 -0.2387 -1.2002
 4567SOL    HW225338   3.620   3.007   5.819 -1.6116  0.0351  1.7711
 4568SOL     OW25339   1.960   0.936   8.672 -0.4960  0.6947 -0.7602
 4568SOL    HW125340   1.877   0.912   8.713  0.7276  0.8281  1.8153
 4568SOL    HW225341   1.943   1.018   8.626  0.6903  1.3994  0.0393
 4569SOL     OW25342   3.732   0.238   7.514  0.6100 -0.4578  0.4543
 4569SOL    HW125343   3.708   0.304   7.449 -0.6669 -1.2705  0.1068
 4569SOL    HW225344   3.751   0.169   7.450  0.0205  0.3852 -0.6245
 4570SOL     OW25345   1.510   1.536   6.009 -0.2134 -0.1024 -0.0906
 4570SOL    HW125346   1.541   1.451   6.038  1.6640  0.4487 -0.4578
 4570SOL    HW225347   1.450   1.508   5.940 -1.1273  0.1466  0.5999
 4571SOL     OW25348   4.686   3.451   7.699  0.8652  0.0616 -0.4708
 4571SOL    HW125349   0.010   3.513   7.735  1.7241  0.4694 -2.6708
 4571SOL    HW225350   4.738   3.394   7.642  2.6683 -0.6551  1.9393
 4572SOL     OW25351   3.936   3.694  17.445  0.1439  0.2251 -0.2212
 4572SOL    HW125352   3.894   3.763  17.496 -1.3975 -0.4043 -0.6401
 4572SOL    HW225353   3.863   3.635  17.426 -0.0764  0.8955 -1.4132
 4573SOL     OW25354   0.977   2.950   6.376 -0.4055 -0.2129  0.2345
 4573SOL    HW125355   1.001   3.042   6.367  1.6126 -0.8988 -1.4489
 4573SOL    HW225356   0.949   2.947   6.467  1.8485 -0.6991  0.8953
 4574SOL     OW25357   0.044   1.980   8.441  0.3876 -0.0638  0.2119
 4574SOL    HW125358   0.095   2.061   8.448  1.4048 -0.5926 -0.9787
 4574SOL    HW225359   0.088   1.950   8.361  0.8581 -1.1104  0.8760
 4575SOL     OW25360   4.476   1.753  10.351  0.0169 -0.3003  0.1740
 4575SOL    HW125361   4.410   1.733  10.417 -1.1390 -1.9581 -1.4732
 4575SOL    HW225362   4.545   1.690  10.374  0.3758  0.0346  0.0116
 4576SOL     OW25363   3.394   2.645   6.542 -0.1807 -0.5374  0.3823
 4576SOL    HW125364   3.322   2.602   6.498 -1.8984 -1.2379  3.8595
 4576SOL    HW225365   3.358   2.733   6.551  0.9206 -0.1919  1.4971
 4577SOL     OW25366   2.712   0.089   4.559  0.0917  0.1184 -0.0338
 4577SOL    HW125367   2.725   0.162   4.619 -1.3775  2.4092 -2.4966
 4577SOL    HW225368   2.685   0.130   4.477  1.2362  0.8800 -0.0303
 4578SOL     OW25369   1.565   1.068   1.479  0.1628  0.0827  0.2006
 4578SOL    HW125370   1.653   1.044   1.451 -0.7920 -0.3123 -2.4857
 4578SOL    HW225371   1.579   1.163   1.488 -3.4961  0.4477  2.0272
 4579SOL     OW25372   1.703   2.850   3.003 -0.1190 -0.2721  0.1475
 4579SOL    HW125373   1.764   2.920   2.979  0.4987 -0.3394  1.5105
 4579SOL    HW225374   1.713   2.844   3.098  0.2556 -4.3585 -0.1382
 4580SOL     OW25375   4.516   4.384   3.115  0.1412  0.3681 -0.0779
 4580SOL    HW125376   4.452   4.324   3.077 -1.0673  2.0255 -0.6849
 4580SOL    HW225377   4.468   4.436   3.179 -3.1429 -0.1885 -2.0643
 4581SOL     OW25378   2.664   3.537  17.432 -0.3148 -0.2025 -0.4732
 4581SOL    HW125379   2.572   3.533  17.408 -0.3200 -0.5826 -0.3835
 4581SOL    HW225380   2.644   3.496  17.516 -0.4114 -2.2053 -1.4844
 4582SOL     OW25381   1.893   0.047   5.817 -0.3535  0.1345 -0.0201
 4582SOL    HW125382   1.827   4.716   5.813  0.5750 -0.9891  4.3437
 4582SOL    HW225383   1.930   0.038   5.905 -0.1167 -0.8370 -0.2155
 4583SOL     OW25384   2.307   1.146   3.432  0.0599  0.0935  0.0727
 4583SOL    HW125385   2.379   1.103   3.387  0.1565  1.1368 -0.7577
 4583SOL    HW225386   2.244   1.075   3.445  0.0085 -0.2452 -2.0459
 4584SOL     OW25387   3.913   0.419   3.690  0.0409 -0.2993 -0.5537
 4584SOL    HW125388   3.852   0.476   3.737  0.6980  0.0326 -0.0899
 4584SOL    HW225389   3.905   0.453   3.601 -3.5992 -1.7979 -0.7700
 4585SOL     OW25390   3.309   3.600   3.097  0.2334  0.0402 -0.4366
 4585SOL    HW125391   3.341   3.516   3.131 -0.6484  1.0457  2.9406
 4585SOL    HW225392   3.283   3.566   3.011  0.5791 -1.5248  0.0811
 4586SOL     OW25393   0.039   4.422   9.867 -0.0895 -0.0978 -0.4464
 4586SOL    HW125394   0.063   4.400   9.776 -0.1651 -2.6360  0.1341
 4586SOL    HW225395   0.047   4.340   9.916 -0.7889  1.7242  2.6959
 4587SOL     OW25396   1.383   2.955  12.694 -0.3151 -0.1856 -0.0622
 4587SOL    HW125397   1.460   2.945  12.639 -0.7709  1.8485 -1.0771
 4587SOL    HW225398   1.407   3.037  12.738 -0.8940  0.1841 -0.4286
 4588SOL     OW25399   1.406   3.943   8.367  0.1390  0.1867 -0.4096
 4588SOL    HW125400   1.425   3.879   8.298 -2.2995  1.6612 -2.4062
 4588SOL    HW225401   1.490   3.949   8.413 -0.9055  1.0620  1.3649
 4589SOL     OW25402   0.241   0.412   0.510 -0.3237  0.5102 -0.2396
 4589SOL    HW125403   0.325   0.445   0.543  0.0624 -0.5763 -0.1305
 4589SOL    HW225404   0.232   0.470   0.434  2.6558  0.7207 -0.4329
 4590SOL     OW25405   4.138   1.183  10.591 -0.2205 -0.1398  0.4675
 4590SOL    HW125406   4.174   1.244  10.526 -0.2103 -0.0871  0.5233
 4590SOL    HW225407   4.128   1.111  10.528  0.6185  0.4109 -0.2926
 4591SOL     OW25408   0.546   1.108   1.355 -0.3236  0.4362  0.0686
 4591SOL    HW125409   0.524   1.181   1.413 -1.7614  0.5552 -0.6342
 4591SOL    HW225410   0.618   1.141   1.300  0.3123 -0.5334  0.3182
 4592SOL     OW25411   3.092   0.375  12.524 -0.5049  0.7987  0.6965
 4592SOL    HW125412   3.113   0.293  12.569  2.5607  0.9391 -0.4953
 4592SOL    HW225413   3.005   0.399  12.558 -1.6834  0.5060 -2.1738
 4593SOL     OW25414   2.217   0.133   0.095  0.1106  0.0407 -0.2138
 4593SOL    HW125415   2.128   0.118   0.126 -0.0928  2.3141  0.2940
 4593SOL    HW225416   2.191   0.161   0.007 -0.9906 -0.9128 -0.1966
 4594SOL     OW25417   1.292   3.168  11.455  0.0061  0.0196 -0.5436
 4594SOL    HW125418   1.296   3.222  11.377 -1.7612  0.5854 -0.2360
 4594SOL    HW225419   1.209   3.121  11.449  1.1504 -1.9120 -1.2663
 4595SOL     OW25420   2.639   2.006   4.312 -0.1276  0.7849 -0.1632
 4595SOL    HW125421   2.659   2.038   4.224 -1.1309  0.3703 -0.5467
 4595SOL    HW225422   2.589   1.927   4.292 -1.3030  1.3052  0.6680
 4596SOL     OW25423   2.365   1.988   8.124 -0.1155  0.2280  0.0653
 4596SOL    HW125424   2.431   2.041   8.170  0.7501  0.1141 -1.0425
 4596SOL    HW225425   2.393   1.983   8.032 -0.8862  3.4761 -0.3702
 4597SOL     OW25426   0.813   2.951   6.732 -0.2080 -0.2104 -0.1028
 4597SOL    HW125427   0.842   2.903   6.810  0.6734  0.7790  0.1776
 4597SOL    HW225428   0.852   3.039   6.737 -1.2395  0.1314  2.2090
 4598SOL     OW25429   4.150   3.485   7.713 -0.1914 -0.0080  0.4772
 4598SOL    HW125430   4.145   3.470   7.618 -0.8003  3.7625 -0.0988
 4598SOL    HW225431   4.234   3.442   7.730  1.2397  1.5608 -2.5694
 4599SOL     OW25432   2.193   3.137  15.771 -0.1128 -0.5482 -0.1530
 4599SOL    HW125433   2.102   3.130  15.800  0.0636  0.4498  0.6317
 4599SOL    HW225434   2.227   3.191  15.843  0.9513  0.0811 -1.1400
 4600SOL     OW25435   3.299   0.529   6.615  0.2165  0.6127 -0.1694
 4600SOL    HW125436   3.283   0.513   6.709 -0.1119 -0.2069 -0.3618
 4600SOL    HW225437   3.252   0.454   6.577 -0.2036  0.3622  0.8284
 4601SOL     OW25438   2.868   1.415   4.447 -0.3049 -0.3987  0.5501
 4601SOL    HW125439   2.820   1.400   4.528 -3.3924  0.0136 -1.2110
 4601SOL    HW225440   2.798   1.434   4.385  1.8861  0.3763 -1.7047
 4602SOL     OW25441   0.460   4.507   5.985 -0.2808  0.4128 -0.3298
 4602SOL    HW125442   0.533   4.556   5.947 -0.8779  2.0164  0.6289
 4602SOL    HW225443   0.439   4.554   6.065 -0.5601  0.2740 -0.3217
 4603SOL     OW25444   0.550   4.697   1.773  0.0706  0.1026 -0.0234
 4603SOL    HW125445   0.506   4.703   1.857  0.8330 -1.3982  0.4906
 4603SOL    HW225446   0.513   4.618   1.733  0.9047 -0.9835  1.3688
 4604SOL     OW25447   0.770   0.079   6.845  0.2597  0.1340 -0.7799
 4604SOL    HW125448   0.722   0.034   6.915  1.9254 -0.0519  0.2603
 4604SOL    HW225449   0.772   0.009   6.780 -0.9132 -2.1662  1.6670
 4605SOL     OW25450   3.459   0.089   5.474 -0.2403 -0.1381 -0.1444
 4605SOL    HW125451   3.394   0.149   5.509 -0.0421 -0.9853  1.6817
 4605SOL    HW225452   3.542   0.123   5.507 -0.5681 -0.7129  1.2620
 4606SOL     OW25453   3.542   0.390  15.006 -0.0427  0.1055  0.0364
 4606SOL    HW125454   3.480   0.439  14.952  1.8509  3.0706  0.5760
 4606SOL    HW225455   3.588   0.339  14.939  0.2085  0.4207 -0.0287
 4607SOL     OW25456   2.766   0.589   6.235  0.3755  0.1186  0.0363
 4607SOL    HW125457   2.699   0.629   6.180  1.5764  0.3066 -1.2934
 4607SOL    HW225458   2.820   0.559   6.162 -0.9970  2.7624 -2.0830
 4608SOL     OW25459   3.923   2.859   7.057  0.0983  0.3651  0.1124
 4608SOL    HW125460   4.018   2.853   7.062  0.0059  1.5712  3.5752
 4608SOL    HW225461   3.915   2.946   7.097  0.9437  1.4714 -2.1399
 4609SOL     OW25462   0.116   3.758   1.497  0.1058 -0.1125 -0.5612
 4609SOL    HW125463   0.087   3.848   1.509  1.4114  0.3572 -0.9747
 4609SOL    HW225464   0.177   3.770   1.425  1.0021 -1.7306 -0.0888
 4610SOL     OW25465   1.372   3.961  12.014  0.0955 -0.1892 -0.3269
 4610SOL    HW125466   1.332   4.015  11.946  1.2468 -1.2305 -1.8229
 4610SOL    HW225467   1.348   4.006  12.095  0.2790  0.7451 -0.7784
 4611SOL     OW25468   3.935   3.323   5.993 -0.5706  0.2406 -0.3628
 4611SOL    HW125469   3.847   3.358   5.997 -1.0891 -1.2453  1.7277
 4611SOL    HW225470   3.971   3.350   6.078 -0.6117 -0.3531 -0.1568
 4612SOL     OW25471   1.040   2.684   8.266 -0.3218  0.0995  0.5036
 4612SOL    HW125472   0.973   2.652   8.205  0.6004  0.1024 -0.5160
 4612SOL    HW225473   1.012   2.647   8.350 -0.4473 -1.8501 -0.3856
 4613SOL     OW25474   2.702   4.694   3.630 -0.0784  0.9068 -0.0739
 4613SOL    HW125475   2.681   4.604   3.608  0.9912  0.9292 -1.2136
 4613SOL    HW225476   2.779   4.691   3.687 -0.4292  0.4426  0.3752
 4614SOL     OW25477   2.729   4.636   9.210 -0.3328  0.1566 -0.3302
 4614SOL    HW125478   2.717   4.546   9.240 -1.4128 -0.2995 -2.0830
 4614SOL    HW225479   2.726   4.695   9.285 -0.1264 -0.5941  0.2652
 4615SOL     OW25480   2.571   2.337  14.006  0.4084 -0.9073 -0.4011
 4615SOL    HW125481   2.553   2.272  14.074  2.3815 -2.8812 -1.8072
 4615SOL    HW225482   2.655   2.365  14.044 -0.4882  1.3546 -0.0809
 4616SOL     OW25483   3.598   2.335   3.056 -0.1677 -0.0847 -0.3435
 4616SOL    HW125484   3.675   2.292   3.017 -0.2877  0.3282 -1.0530
 4616SOL    HW225485   3.578   2.396   2.984 -0.7767 -1.6564 -1.4966
 4617SOL     OW25486   0.673   4.693   3.429 -0.2820  0.0634  0.1648
 4617SOL    HW125487   0.612   4.628   3.394  0.3001  0.5987 -1.8482
 4617SOL    HW225488   0.701   4.655   3.512 -1.4138 -0.3729  0.3491
 4618SOL     OW25489   2.824   3.089   2.590  0.3264  0.1776  0.5862
 4618SOL    HW125490   2.865   3.018   2.640 -1.2206  1.4404  3.6667
 4618SOL    HW225491   2.841   3.163   2.648 -1.3230  1.5526 -0.6924
 4619SOL     OW25492   4.054   2.163   4.018  0.3778  0.2741  0.2828
 4619SOL    HW125493   4.140   2.167   4.060 -0.0352 -0.3466  1.1531
 4619SOL    HW225494   4.002   2.201   4.089 -0.4646 -1.0819  0.3858
 4620SOL     OW25495   0.089   2.959  10.261 -0.3490 -0.0775 -0.3008
 4620SOL    HW125496   0.029   2.936  10.190 -1.7531 -0.5352  1.0232
 4620SOL    HW225497   0.169   2.920  10.227  0.7076  1.0335  0.9207
 4621SOL     OW25498   4.481   3.335   4.150 -0.8078 -0.2288 -0.1131
 4621SOL    HW125499   4.419   3.318   4.080 -1.6063  0.9497  0.3249
 4621SOL    HW225500   4.510   3.423   4.126 -2.9972 -0.7152 -4.5127
 4622SOL     OW25501   2.864   0.182  16.598 -0.1531 -0.1266 -0.0428
 4622SOL    HW125502   2.813   0.238  16.539 -0.1854 -1.3543 -1.1615
 4622SOL    HW225503   2.949   0.161  16.560 -0.6104 -2.2891  0.1774
 4623SOL     OW25504   3.261   4.544   1.422 -0.0570 -0.3068 -1.1048
 4623SOL    HW125505   3.193   4.521   1.485  0.8394 -0.6588 -0.2685
 4623SOL    HW225506   3.217   4.513   1.343 -1.2640 -1.8477  0.1734
 4624SOL     OW25507   2.878   1.198   5.417  0.2136  0.2826  0.0017
 4624SOL    HW125508   2.897   1.115   5.374 -0.2333  0.1029  0.1571
 4624SOL    HW225509   2.784   1.203   5.399 -0.6049 -0.3794  4.1665
 4625SOL     OW25510   1.139   0.744  17.493 -0.6773  0.6998 -0.5185
 4625SOL    HW125511   1.202   0.740  17.565  1.1950 -2.2824 -2.3162
 4625SOL    HW225512   1.183   0.803  17.431  1.6304 -1.0920 -0.6000
 4626SOL     OW25513   4.318   0.634   5.433 -0.3200 -1.0921 -0.3082
 4626SOL    HW125514   4.376   0.686   5.488 -0.7436  0.8186 -1.6811
 4626SOL    HW225515   4.247   0.608   5.491 -1.0706 -0.4918 -0.9588
 4627SOL     OW25516   2.804   3.381  13.455  0.9952 -0.4954 -0.2613
 4627SOL    HW125517   2.832   3.386  13.364 -0.2616  0.1973 -0.6163
 4627SOL    HW225518   2.884   3.408  13.500  0.5504  0.1057  0.1677
 4628SOL     OW25519   0.547   2.650   8.047  0.0718  0.1941 -0.2028
 4628SOL    HW125520   0.563   2.677   7.957  0.2221 -0.5726 -0.4117
 4628SOL    HW225521   0.637   2.631   8.074 -1.0932 -0.1352  3.4836
 4629SOL     OW25522   0.635   2.013  11.659  0.3122  0.4946  0.3880
 4629SOL    HW125523   0.604   1.938  11.711  0.7426 -0.2484 -0.4189
 4629SOL    HW225524   0.558   2.064  11.635 -0.7511 -1.9846 -1.4983
 4630SOL     OW25525   0.308   2.756   9.095 -0.0033  0.3826  0.2374
 4630SOL    HW125526   0.367   2.821   9.133  0.9294  0.6095 -1.5990
 4630SOL    HW225527   0.313   2.779   9.002 -1.7761  1.4773  0.4049
 4631SOL     OW25528   0.338   3.393   2.808 -0.0459  0.2751 -0.9202
 4631SOL    HW125529   0.286   3.412   2.886 -1.9583 -0.1196 -2.1152
 4631SOL    HW225530   0.430   3.389   2.836 -0.9625 -1.7113  1.7972
 4632SOL     OW25531   4.495   2.735   9.758  0.2427  0.1329  0.4490
 4632SOL    HW125532   4.511   2.812   9.812  1.6218 -0.4799  0.9242
 4632SOL    HW225533   4.494   2.673   9.831  0.0218  0.9929  1.1719
 4633SOL     OW25534   3.719   4.360   4.711  0.3653 -0.5612 -0.6823
 4633SOL    HW125535   3.733   4.315   4.794 -1.9224  0.2548  0.1351
 4633SOL    HW225536   3.798   4.414   4.711 -1.4254  2.0332 -0.0438
 4634SOL     OW25537   1.367   3.905   6.839  0.3124 -0.3193 -0.3673
 4634SOL    HW125538   1.442   3.965   6.837  0.7256 -0.7269  2.6914
 4634SOL    HW225539   1.379   3.868   6.927 -0.8421  1.4767  0.5613
 4635SOL     OW25540   0.050   0.626  12.666  0.2548  0.3779 -0.0015
 4635SOL    HW125541   0.048   0.588  12.578 -1.5023 -0.2326  0.3057
 4635SOL    HW225542   0.114   0.568  12.709 -1.6851 -0.2123  2.0995
 4636SOL     OW25543   3.522   3.879   7.226  0.2980  0.0302  0.6339
 4636SOL    HW125544   3.538   3.808   7.288  0.6329  0.1859  0.7280
 4636SOL    HW225545   3.610   3.911   7.210  0.7416 -1.2480  0.5793
 4637SOL     OW25546   1.380   1.124   3.165 -0.0657  0.4728 -0.1986
 4637SOL    HW125547   1.449   1.102   3.227 -1.5780  0.8801  1.6404
 4637SOL    HW225548   1.380   1.219   3.179 -0.7417  0.8219 -2.6506
 4638SOL     OW25549   1.584   3.449   1.675 -0.3122  0.6427 -0.2065
 4638SOL    HW125550   1.491   3.442   1.652 -0.0529  0.0939 -1.0693
 4638SOL    HW225551   1.584   3.532   1.723 -0.3204 -0.9125  2.5301
 4639SOL     OW25552   0.706   2.342  14.115  0.9212 -0.0699  0.2884
 4639SOL    HW125553   0.766   2.357  14.042  0.1190  2.3911  0.1399
 4639SOL    HW225554   0.760   2.369  14.189  1.8163  0.7902 -0.6918
 4640SOL     OW25555   1.282   0.592   3.437 -0.5408  0.0885 -0.0110
 4640SOL    HW125556   1.285   0.636   3.521 -1.2112  0.6826 -0.2944
 4640SOL    HW225557   1.342   0.650   3.390  0.0429 -0.3934  0.1486
 4641SOL     OW25558   1.929   4.076  13.664  0.5954  0.4078 -0.0316
 4641SOL    HW125559   2.003   4.073  13.603 -1.8471 -1.3312 -2.9295
 4641SOL    HW225560   1.911   4.169  13.677  1.1762  0.3860  0.9038
 4642SOL     OW25561   1.266   2.103   8.676 -0.0768 -0.0635  0.1291
 4642SOL    HW125562   1.349   2.147   8.656  0.1168 -1.6419 -2.5692
 4642SOL    HW225563   1.257   2.030   8.615 -1.1464 -0.2058  0.4633
 4643SOL     OW25564   3.616   0.232  13.949  0.1745 -0.2848 -0.0848
 4643SOL    HW125565   3.614   0.139  13.973  1.7567 -0.1300  0.6541
 4643SOL    HW225566   3.712   0.244  13.948  0.1088  0.3216  2.0124
 4644SOL     OW25567   0.833   1.126   9.910 -0.1772  0.3918 -0.5154
 4644SOL    HW125568   0.790   1.041   9.911 -1.6217  1.1110 -1.5691
 4644SOL    HW225569   0.825   1.150   9.818  3.0471 -1.0867 -1.1961
 4645SOL     OW25570   0.749   2.342   8.942 -0.7851 -0.1177  0.1061
 4645SOL    HW125571   0.743   2.435   8.917  1.1164  0.3134  1.2655
 4645SOL    HW225572   0.685   2.301   8.883  0.9170 -2.9666  0.2639
 4646SOL     OW25573   2.929   3.350  14.344  0.1444 -0.2926 -0.0553
 4646SOL    HW125574   2.931   3.268  14.294  0.6402 -0.2537 -0.0998
 4646SOL    HW225575   2.886   3.324  14.426  2.1308  0.5945  1.2436
 4647SOL     OW25576   4.490   2.845  12.049  0.1526 -0.2264 -0.1872
 4647SOL    HW125577   4.427   2.785  12.089  1.4444 -1.1956  0.3937
 4647SOL    HW225578   4.501   2.913  12.115 -0.8393  0.4352 -0.6897
 4648SOL     OW25579   1.480   4.472  16.034 -0.5331 -0.3292 -0.3636
 4648SOL    HW125580   1.494   4.419  15.955 -0.5188  0.1426 -0.6730
 4648SOL    HW225581   1.393   4.500  16.006 -0.0093  0.6537 -0.9648
 4649SOL     OW25582   2.349   0.495  14.238 -0.1516  0.2212  0.1421
 4649SOL    HW125583   2.254   0.492  14.246 -0.1691  0.2475 -0.0571
 4649SOL    HW225584   2.356   0.533  14.151  2.9497  1.3982  0.9015
 4650SOL     OW25585   4.044   0.426  11.243 -0.5310  0.1579  0.3469
 4650SOL    HW125586   4.007   0.411  11.330  0.9561  2.0881  1.3265
 4650SOL    HW225587   4.030   0.519  11.224 -1.4670  0.2198  1.3027
 4651SOL     OW25588   3.623   1.969   1.274 -0.3135 -0.3308 -0.0913
 4651SOL    HW125589   3.579   2.013   1.345  0.7399 -0.1961  0.4789
 4651SOL    HW225590   3.610   1.878   1.301  0.6369 -0.3131  0.4383
 4652SOL     OW25591   4.561   0.579   0.919 -0.6444 -0.4710 -0.1445
 4652SOL    HW125592   4.628   0.529   0.871 -0.8015  1.2260 -2.1179
 4652SOL    HW225593   4.616   0.629   0.980 -1.5629  0.4443 -0.0696
 4653SOL     OW25594   0.382   3.849   6.789 -0.4269 -0.5395  0.4820
 4653SOL    HW125595   0.476   3.833   6.793 -0.0049  2.3911  1.8874
 4653SOL    HW225596   0.354   3.758   6.792 -0.7723 -0.5468 -2.6798
 4654SOL     OW25597   3.288   0.868   2.945 -0.8789 -0.1746  0.1723
 4654SOL    HW125598   3.232   0.924   2.891 -0.8969 -1.5821 -1.2944
 4654SOL    HW225599   3.230   0.869   3.021  0.5012  0.5960  1.2146
 4655SOL     OW25600   2.816   3.026   6.975 -0.2635  0.2723  0.0194
 4655SOL    HW125601   2.862   3.110   6.969 -0.3264  0.2606 -0.6458
 4655SOL    HW225602   2.773   3.015   6.890 -0.0547 -1.4624  0.1285
 4656SOL     OW25603   3.781   0.049   5.015 -0.3825  0.3899 -0.3443
 4656SOL    HW125604   3.697   0.016   5.046 -1.3583  0.9496 -2.3752
 4656SOL    HW225605   3.822   0.078   5.096  1.2659 -2.6799 -0.0835
 4657SOL     OW25606   1.201   2.416  11.929  0.2784  0.7481 -0.8112
 4657SOL    HW125607   1.150   2.494  11.908 -1.2461  0.0550  0.3119
 4657SOL    HW225608   1.253   2.450  12.002  0.0595 -0.1027 -0.2535
 4658SOL     OW25609   0.209   0.632   2.811 -0.3411  0.0181  0.5399
 4658SOL    HW125610   0.171   0.719   2.812 -0.5287 -0.0721  1.5258
 4658SOL    HW225611   0.138   0.584   2.854 -2.2487  1.1784 -1.3451
 4659SOL     OW25612   0.910   2.896   5.913  0.2430 -0.5362  0.6384
 4659SOL    HW125613   0.973   2.829   5.937 -1.5753 -2.4663  0.0314
 4659SOL    HW225614   0.878   2.905   6.003 -1.4810 -3.1230  0.2822
 4660SOL     OW25615   1.412   0.652   6.048 -0.2093  0.2405 -0.1851
 4660SOL    HW125616   1.431   0.710   5.974  1.8756  1.4091  1.2625
 4660SOL    HW225617   1.500   0.618   6.067  0.3240  1.3413 -0.6380
 4661SOL     OW25618   4.310   3.004   4.956  0.1247 -0.0533  0.4533
 4661SOL    HW125619   4.223   3.041   4.939 -0.1915 -0.5887  0.8985
 4661SOL    HW225620   4.352   3.029   4.874  0.8151 -0.0600  0.8091
 4662SOL     OW25621   0.610   4.124   1.050  0.5620  0.0524  0.3254
 4662SOL    HW125622   0.569   4.158   1.130 -1.9667 -0.3349 -0.7902
 4662SOL    HW225623   0.540   4.069   1.014  0.4136 -0.2761  1.1156
 4663SOL     OW25624   0.591   2.829   8.731 -0.6802  0.0759  0.1612
 4663SOL    HW125625   0.497   2.826   8.751 -0.7671  0.1738 -0.2185
 4663SOL    HW225626   0.636   2.897   8.780 -1.4034  0.4750  0.2827
 4664SOL     OW25627   4.322   4.389  12.335  0.1662  0.0648  0.0680
 4664SOL    HW125628   4.267   4.427  12.267 -1.3401 -1.7438  0.2907
 4664SOL    HW225629   4.255   4.361  12.398 -1.6356  1.7683 -1.0768
 4665SOL     OW25630   3.844   0.682  16.860  0.4287 -0.0916 -0.1402
 4665SOL    HW125631   3.770   0.668  16.801 -0.8910  0.6391  1.3302
 4665SOL    HW225632   3.869   0.595  16.893 -0.5008 -0.6605 -0.9266
 4666SOL     OW25633   0.712   3.591   3.016  0.3540  0.0666  0.3885
 4666SOL    HW125634   0.714   3.497   3.034 -0.1331  0.0487  0.3690
 4666SOL    HW225635   0.797   3.608   2.975  0.6806  0.2002  1.1374
 4667SOL     OW25636   0.315   2.534  15.095 -0.5104 -0.2830 -0.1059
 4667SOL    HW125637   0.346   2.510  15.008 -3.1816  0.5536 -1.2797
 4667SOL    HW225638   0.371   2.605  15.129  1.4530 -1.6695 -0.4294
 4668SOL     OW25639   0.419   4.692   0.054 -0.0512 -0.0368  0.4340
 4668SOL    HW125640   0.335   4.658   0.023  0.5278 -1.7675  0.7300
 4668SOL    HW225641   0.404   0.011   0.129  1.3440 -0.0038  0.6910
 4669SOL     OW25642   0.740   0.343   5.128  0.2513  0.8290  0.0517
 4669SOL    HW125643   0.788   0.398   5.190 -0.2575 -0.0806  1.2586
 4669SOL    HW225644   0.811   0.296   5.084 -1.9101 -0.0667 -2.4768
 4670SOL     OW25645   1.047   0.832  14.595 -0.5162  0.0092 -0.2084
 4670SOL    HW125646   1.107   0.893  14.639 -1.4259 -0.2170  1.3614
 4670SOL    HW225647   1.055   0.749  14.642 -2.4253 -0.2853 -0.3831
 4671SOL     OW25648   0.118   1.119  15.303 -0.6788 -0.2052  0.3461
 4671SOL    HW125649   0.200   1.079  15.331  0.6885  2.9771  0.8314
 4671SOL    HW225650   0.123   1.210  15.333 -3.8928 -0.1705  0.7662
 4672SOL     OW25651   1.089   4.180   7.522 -0.2880 -0.1624  0.2358
 4672SOL    HW125652   1.126   4.211   7.604 -0.6958 -1.2770  0.8333
 4672SOL    HW225653   1.097   4.085   7.524  1.6844 -0.0302 -1.0725
 4673SOL     OW25654   2.583   4.029  13.946  0.1802 -0.9118  0.1581
 4673SOL    HW125655   2.599   3.997  13.857  0.8914  0.6098 -0.2560
 4673SOL    HW225656   2.589   4.123  13.928  2.1496 -1.1043 -0.1486
 4674SOL     OW25657   1.778   2.191  16.017  0.3178 -0.3439 -0.4981
 4674SOL    HW125658   1.812   2.101  16.024 -1.9013 -1.3045 -2.3031
 4674SOL    HW225659   1.847   2.236  16.066  0.6789 -1.6322  0.1983
 4675SOL     OW25660   1.985   1.303   2.927  0.0122 -0.1099  0.0898
 4675SOL    HW125661   2.027   1.379   2.886 -0.0960  0.1716  0.4970
 4675SOL    HW225662   1.976   1.237   2.859 -1.9512  0.0055  0.2498
 4676SOL     OW25663   4.424   1.156   0.629 -0.1329 -0.3286  0.4060
 4676SOL    HW125664   4.448   1.206   0.707  0.3255 -2.3150  1.5349
 4676SOL    HW225665   4.504   1.105   0.614  0.1313  0.4882 -0.8845
 4677SOL     OW25666   1.821   2.879   3.258 -0.3993 -0.1762 -0.5259
 4677SOL    HW125667   1.914   2.879   3.236 -0.1711  1.5569  0.4414
 4677SOL    HW225668   1.805   2.791   3.292  0.1724  0.3484  1.1079
 4678SOL     OW25669   2.928   3.448   1.696 -0.4227 -0.0023  0.2937
 4678SOL    HW125670   2.959   3.390   1.765  1.3522  0.5093 -0.0817
 4678SOL    HW225671   2.964   3.406   1.617 -0.4179  0.6555 -0.0567
 4679SOL     OW25672   0.335   4.161   1.604 -0.0608 -0.6365 -0.2007
 4679SOL    HW125673   0.285   4.151   1.524 -0.2607  0.7914 -0.2608
 4679SOL    HW225674   0.382   4.244   1.598 -0.3320 -0.3799  1.0996
 4680SOL     OW25675   1.303   3.036  13.942 -0.8794  0.0142  0.0878
 4680SOL    HW125676   1.233   2.971  13.940  0.4714 -1.4646  0.5995
 4680SOL    HW225677   1.248   3.111  13.964 -0.3292  1.1296 -2.3516
 4681SOL     OW25678   2.739   4.250  13.679  0.3591 -0.2203  0.6716
 4681SOL    HW125679   2.692   4.259  13.761  0.9025  0.4036  0.9167
 4681SOL    HW225680   2.737   4.341  13.649  2.1412 -0.3414  0.1682
 4682SOL     OW25681   3.988   4.320  17.278 -0.3481 -0.1009  0.2774
 4682SOL    HW125682   4.031   4.290  17.358  0.8121 -0.3081 -0.4337
 4682SOL    HW225683   3.974   4.410  17.307  2.3381  1.0265 -2.0442
 4683SOL     OW25684   2.024   4.665   1.295  0.0715  0.3222  0.1034
 4683SOL    HW125685   1.942   4.677   1.246 -0.9689 -0.2434  1.7005
 4683SOL    HW225686   2.065   0.010   1.273  1.0239  0.0851  0.9694
 4684SOL     OW25687   2.077   0.029   0.389  0.1261  0.1481  0.6619
 4684SOL    HW125688   2.019   0.081   0.332  1.1323 -0.6172 -1.0603
 4684SOL    HW225689   2.093   4.693   0.332 -2.5637  0.6140 -0.6980
 4685SOL     OW25690   0.984   1.322   3.447  0.2958 -0.3314  0.7023
 4685SOL    HW125691   0.965   1.365   3.363  0.4828 -0.1883  0.7334
 4685SOL    HW225692   0.894   1.305   3.474 -0.7262  2.9588 -0.6009
 4686SOL     OW25693   0.325   3.013   1.084 -0.2405 -0.0920  0.5414
 4686SOL    HW125694   0.264   3.075   1.045 -1.0644 -0.7783  0.7390
 4686SOL    HW225695   0.357   2.981   1.000 -1.4488  0.1314  0.0008
 4687SOL     OW25696   1.880   4.609   3.280 -0.4260  0.0705 -0.3371
 4687SOL    HW125697   1.861   4.700   3.303 -1.2213 -0.1684 -0.0540
 4687SOL    HW225698   1.892   4.612   3.185 -2.1890 -0.7301 -0.5757
 4688SOL     OW25699   2.589   1.254   8.870 -0.4761  0.2290  0.7243
 4688SOL    HW125700   2.594   1.334   8.818 -0.8119 -0.7978 -0.9123
 4688SOL    HW225701   2.522   1.274   8.935 -1.3276 -0.0376 -0.0734
 4689SOL     OW25702   0.957   2.486   1.179 -0.2208  0.0826 -0.6745
 4689SOL    HW125703   0.981   2.395   1.166  1.4389 -0.0284  3.3114
 4689SOL    HW225704   0.999   2.523   1.100  1.7310 -1.0308 -0.1693
 4690SOL     OW25705   0.912   1.010   6.830 -0.0388  0.4790 -0.3523
 4690SOL    HW125706   0.965   1.051   6.899  2.0431  0.9129 -2.2024
 4690SOL    HW225707   0.823   1.040   6.846  0.3237  1.0863  0.5044
 4691SOL     OW25708   1.811   4.198   2.991  0.1010  0.4719  0.2166
 4691SOL    HW125709   1.748   4.127   3.001 -1.9281  2.1626 -0.6872
 4691SOL    HW225710   1.780   4.267   3.050 -0.9412  0.1187  0.0840
 4692SOL     OW25711   0.468   0.699   2.920  0.1591 -0.1079  0.3290
 4692SOL    HW125712   0.402   0.641   2.881  0.3940  0.3269 -0.7268
 4692SOL    HW225713   0.412   0.766   2.959  1.1209  1.0180 -0.1927
 4693SOL     OW25714   2.280   2.557   1.265  0.4424 -0.4784  0.5372
 4693SOL    HW125715   2.193   2.527   1.292  0.3715  0.4002  1.2988
 4693SOL    HW225716   2.268   2.652   1.266 -2.2863 -0.7544 -2.0771
 4694SOL     OW25717   4.696   2.872  16.077 -0.3407 -0.1449  0.4960
 4694SOL    HW125718   0.035   2.846  16.027  0.6738 -1.4985  2.7684
 4694SOL    HW225719   4.658   2.793  16.116 -2.6552  0.7024 -0.0214
 4695SOL     OW25720   1.117   1.169   0.663  0.1458 -0.1782 -0.2636
 4695SOL    HW125721   1.045   1.202   0.609 -1.2685 -3.1377 -0.2114
 4695SOL    HW225722   1.083   1.190   0.750  0.1929  0.4023 -0.3861
 4696SOL     OW25723   4.368   1.831  16.056 -0.4625 -0.2650 -0.1227
 4696SOL    HW125724   4.311   1.900  16.090 -2.1916  0.3688 -4.3435
 4696SOL    HW225725   4.367   1.865  15.967 -0.2621  0.7732  0.2683
 4697SOL     OW25726   4.599   2.613  16.438  0.1139 -0.2941  0.2119
 4697SOL    HW125727   4.670   2.566  16.483  1.8569 -0.7165 -2.9423
 4697SOL    HW225728   4.600   2.699  16.480 -1.6251 -0.4001  0.4419
 4698SOL     OW25729   1.287   0.162   7.559  1.0001  0.1121  0.5018
 4698SOL    HW125730   1.293   0.175   7.653 -4.2436  0.3869  0.8375
 4698SOL    HW225731   1.269   0.252   7.530  2.2226 -0.3415 -1.7102
 4699SOL     OW25732   4.609   1.784   3.717 -0.6536  0.2110 -0.0876
 4699SOL    HW125733   4.637   1.853   3.657 -1.3018  0.6959  0.1672
 4699SOL    HW225734   4.671   1.796   3.789 -1.2047 -1.1268  0.6190
 4700SOL     OW25735   0.904   4.206  16.764 -0.4241  0.0651  0.1348
 4700SOL    HW125736   0.921   4.250  16.846  0.9839 -1.0470  0.4378
 4700SOL    HW225737   0.988   4.185  16.724 -0.3213 -0.6757  0.7462
 4701SOL     OW25738   4.479   4.415   7.073  0.7374  0.6850 -0.0907
 4701SOL    HW125739   4.476   4.400   6.979 -1.2315 -0.5339  0.1721
 4701SOL    HW225740   4.532   4.495   7.080 -0.7070  1.5084  1.3658
 4702SOL     OW25741   4.595   4.229   2.833  0.3611  0.3147  0.3451
 4702SOL    HW125742   4.622   4.195   2.918  0.7842 -1.3162 -0.4446
 4702SOL    HW225743   4.647   4.309   2.837  0.4795  0.2536  0.0837
 4703SOL     OW25744   0.631   0.189   8.337  0.2792  0.2462 -0.6130
 4703SOL    HW125745   0.702   0.126   8.322 -0.0261 -0.3075  0.2921
 4703SOL    HW225746   0.672   0.249   8.400 -1.5472  1.6058 -0.7211
 4704SOL     OW25747   1.337   0.489   4.938 -0.7234  0.2273  0.2787
 4704SOL    HW125748   1.275   0.518   4.871  0.7938  0.8296 -0.8758
 4704SOL    HW225749   1.388   0.567   4.959  1.9614 -0.9916 -1.7750
 4705SOL     OW25750   4.709   4.139   7.773 -0.1391 -0.0891  0.5694
 4705SOL    HW125751   0.006   4.214   7.725  0.8890 -1.0990 -0.2470
 4705SOL    HW225752   4.711   4.075   7.702  1.1746  1.3778 -0.7267
 4706SOL     OW25753   0.088   3.500  16.028  0.1761 -0.1584 -0.1475
 4706SOL    HW125754   0.117   3.416  16.063  0.3441 -0.3827 -0.8216
 4706SOL    HW225755   4.737   3.522  16.056 -0.7464 -1.9819 -1.6812
 4707SOL     OW25756   3.448   1.923   7.120  0.5302  0.1637 -0.5994
 4707SOL    HW125757   3.397   1.898   7.197 -1.5234  0.3331 -1.9160
 4707SOL    HW225758   3.393   1.895   7.047 -0.5305  0.1470  0.1974
 4708SOL     OW25759   3.572   2.012   4.951  0.0927 -0.5416 -0.1159
 4708SOL    HW125760   3.651   2.066   4.956  0.1607 -0.5935 -0.6212
 4708SOL    HW225761   3.504   2.071   4.984 -1.3381 -2.6753  0.7914
 4709SOL     OW25762   4.520   0.957   7.860 -0.0772 -0.1750  0.4877
 4709SOL    HW125763   4.606   0.969   7.900  0.3611  1.7003 -1.0349
 4709SOL    HW225764   4.531   0.866   7.834  0.8729  0.2246 -0.4836
 4710SOL     OW25765   0.472   2.735   4.933 -0.3208 -0.0375  0.1654
 4710SOL    HW125766   0.377   2.738   4.924 -0.5452 -1.9395  1.7526
 4710SOL    HW225767   0.512   2.756   4.849 -1.7490 -1.2832 -0.8309
 4711SOL     OW25768   0.281   0.921  17.711 -0.4043  0.2977 -1.1635
 4711SOL    HW125769   0.326   0.980  17.650  0.7128  0.2823 -0.3536
 4711SOL    HW225770   0.340   0.921   0.035 -2.1006 -1.2574  0.1556
 4712SOL     OW25771   3.863   4.185  12.275 -0.3019 -0.3232 -0.3949
 4712SOL    HW125772   3.843   4.277  12.290 -3.5736 -0.7360 -2.1188
 4712SOL    HW225773   3.778   4.149  12.297 -0.2498  0.9236  1.7902
 4713SOL     OW25774   2.914   1.551   3.800 -0.5879 -0.1377 -0.1983
 4713SOL    HW125775   2.836   1.596   3.767  0.1373  1.5321  0.3734
 4713SOL    HW225776   2.888   1.547   3.892 -0.7125  0.9234 -0.1825
 4714SOL     OW25777   0.018   0.653   4.900 -0.0369 -0.1143 -0.1227
 4714SOL    HW125778   0.051   0.564   4.912  0.8399  0.1979 -0.2268
 4714SOL    HW225779   0.075   0.674   4.826 -0.9937  2.3741 -0.1680
 4715SOL     OW25780   4.415   0.991   8.313 -0.1244 -0.1625 -0.1385
 4715SOL    HW125781   4.329   0.951   8.327 -0.1889 -0.5967 -1.8499
 4715SOL    HW225782   4.483   0.926   8.336  1.2497  1.5705  0.7162
 4716SOL     OW25783   3.902   0.417   5.635  0.4433 -0.3848 -0.5196
 4716SOL    HW125784   3.841   0.450   5.702  0.2154 -0.7083 -0.5675
 4716SOL    HW225785   3.906   0.326   5.663 -2.2161 -0.7626 -1.3399
 4717SOL     OW25786   1.822   1.340   1.276  0.1939 -0.0673 -0.1733
 4717SOL    HW125787   1.821   1.253   1.316 -1.0411  0.3661  0.7133
 4717SOL    HW225788   1.767   1.327   1.199 -0.6153  0.5534  0.3037
 4718SOL     OW25789   0.642   2.400   3.383  0.4328 -0.1325 -0.0115
 4718SOL    HW125790   0.718   2.344   3.369  0.1982 -0.4312 -0.0941
 4718SOL    HW225791   0.587   2.382   3.306  1.3797  0.1739 -0.7495
 4719SOL     OW25792   3.057   3.152   8.625 -0.8768  0.0428  0.7460
 4719SOL    HW125793   3.023   3.202   8.550  0.3341 -1.4151 -0.7690
 4719SOL    HW225794   2.983   3.104   8.661 -0.6288 -1.4612 -0.7272
 4720SOL     OW25795   2.224   4.690  10.265  0.2631  0.0758 -0.0880
 4720SOL    HW125796   2.196   4.682  10.174 -2.0030  2.7491  0.3879
 4720SOL    HW225797   2.152   4.638  10.302 -0.1871  0.6415 -0.1640
 4721SOL     OW25798   1.230   3.056   1.351 -0.4338 -0.1669 -0.4143
 4721SOL    HW125799   1.189   3.106   1.421 -0.0635  0.0415 -0.3422
 4721SOL    HW225800   1.320   3.039   1.380 -0.1581  2.2110  0.1661
 4722SOL     OW25801   1.866   0.633   9.252 -0.7257 -0.0376  0.6363
 4722SOL    HW125802   1.951   0.651   9.212  0.0314 -1.6811  1.5187
 4722SOL    HW225803   1.868   0.538   9.245 -0.0427  0.0857 -0.8475
 4723SOL     OW25804   3.953   3.907   2.347  0.1922 -0.4036  0.1388
 4723SOL    HW125805   3.951   3.833   2.407  3.2864 -0.3936  0.2911
 4723SOL    HW225806   4.046   3.932   2.348  0.0158  0.1520  1.3205
 4724SOL     OW25807   0.322   1.308   3.797  0.3553  0.0209 -0.3146
 4724SOL    HW125808   0.233   1.325   3.766  0.1270  1.1721  0.9883
 4724SOL    HW225809   0.330   1.213   3.782  0.3962 -0.1321  0.7124
 4725SOL     OW25810   3.361   0.193  14.073  0.3643  0.1616  0.8981
 4725SOL    HW125811   3.371   0.106  14.035 -2.0644  0.5019 -0.5407
 4725SOL    HW225812   3.450   0.225  14.059 -0.8576  1.4135 -3.7814
 4726SOL     OW25813   2.608   4.422   6.922  0.2942  0.4506  0.1981
 4726SOL    HW125814   2.681   4.361   6.932 -0.6108 -0.8190 -1.0511
 4726SOL    HW225815   2.649   4.496   6.966  1.3049  0.4686 -0.7795
 4727SOL     OW25816   4.714   1.905   5.130 -0.5192 -0.2765 -0.2427
 4727SOL    HW125817   4.735   1.913   5.037  0.5479 -0.1324  0.0113
 4727SOL    HW225818   4.650   1.835   5.130 -0.9222  0.0947 -1.7465
 4728SOL     OW25819   4.714   3.267  13.904  0.3212  0.2601  0.0996
 4728SOL    HW125820   4.632   3.224  13.931 -0.2814  1.3358 -0.0273
 4728SOL    HW225821   4.683   3.357  13.900  1.1804  0.6006  1.2242
 4729SOL     OW25822   4.340   1.149   7.066  0.9506 -0.3069 -0.4991
 4729SOL    HW125823   4.423   1.156   7.114 -0.2297  0.7123  1.3893
 4729SOL    HW225824   4.297   1.227   7.100  2.4332  0.7427 -1.0255
 4730SOL     OW25825   3.892   1.516  13.011 -0.3307 -0.2118 -0.1081
 4730SOL    HW125826   3.970   1.463  13.029  0.6236  0.8020 -1.2777
 4730SOL    HW225827   3.930   1.601  12.989  1.8868 -0.9819  0.7073
 4731SOL     OW25828   0.768   2.846   1.769  0.0592 -0.6394 -0.0512
 4731SOL    HW125829   0.854   2.834   1.729 -0.0726  1.7495 -1.0721
 4731SOL    HW225830   0.714   2.863   1.692  0.4697  1.6369  0.1562
 4732SOL     OW25831   2.878   1.832   2.730  0.7630 -0.2435  0.0055
 4732SOL    HW125832   2.866   1.907   2.788 -0.6707 -0.4334 -0.0265
 4732SOL    HW225833   2.968   1.836   2.700  1.1557 -2.8458  0.8642
 4733SOL     OW25834   1.187   1.828   4.426 -0.2011 -0.3735 -0.2557
 4733SOL    HW125835   1.150   1.744   4.454  1.5054 -0.4713  1.7027
 4733SOL    HW225836   1.246   1.789   4.361  1.1532 -1.4485  1.6389
 4734SOL     OW25837   1.901   1.156   8.529  0.2011  0.2570  0.7348
 4734SOL    HW125838   1.827   1.216   8.539  1.4534  1.6689  1.5904
 4734SOL    HW225839   1.977   1.208   8.501  0.7801  0.2786  2.3304
 4735SOL     OW25840   1.013   4.605  10.530  0.1925  0.3565  0.2731
 4735SOL    HW125841   0.932   4.622  10.577 -0.2677  1.4506 -0.9361
 4735SOL    HW225842   1.049   4.692  10.517 -1.3431  1.0675  0.8196
 4736SOL     OW25843   3.856   2.551   4.065  0.6967  0.4335 -0.4868
 4736SOL    HW125844   3.792   2.614   4.035  0.6645 -0.8734 -3.1419
 4736SOL    HW225845   3.858   2.496   3.986 -0.8008 -2.8221  1.7288
 4737SOL     OW25846   0.602   4.384   5.558  0.2931  0.2714  0.5588
 4737SOL    HW125847   0.645   4.312   5.511 -0.9514  1.0200 -1.7472
 4737SOL    HW225848   0.634   4.385   5.648 -1.0556  1.1850  1.0203
 4738SOL     OW25849   4.247   2.681  16.270  0.6096 -0.1875  0.3346
 4738SOL    HW125850   4.179   2.652  16.210  2.5900  0.5199 -2.2779
 4738SOL    HW225851   4.273   2.596  16.306  1.2109 -0.1838 -0.0927
 4739SOL     OW25852   1.798   2.075  12.917 -0.0278 -0.0806 -0.3474
 4739SOL    HW125853   1.858   2.018  12.869  1.0408 -1.3857  2.4801
 4739SOL    HW225854   1.845   2.088  13.000 -1.1191  2.4411 -0.1196
 4740SOL     OW25855   0.874   4.104   8.653 -0.1575  0.2193  0.2503
 4740SOL    HW125856   0.805   4.038   8.658 -0.3809  0.3769 -0.6907
 4740SOL    HW225857   0.916   4.067   8.575 -1.1177  1.0381 -0.6559
 4741SOL     OW25858   4.505   2.844   4.167  0.6031  0.0832 -0.5911
 4741SOL    HW125859   4.511   2.761   4.119  0.2867 -1.0395  1.3342
 4741SOL    HW225860   4.528   2.913   4.104 -0.0005  0.5804 -0.2722
 4742SOL     OW25861   1.771   1.183  12.045 -0.1000 -0.2069  0.4735
 4742SOL    HW125862   1.850   1.160  11.996  0.0149 -0.1318  0.6222
 4742SOL    HW225863   1.708   1.215  11.981  0.4971 -0.0285 -0.0191
 4743SOL     OW25864   1.897   2.799   7.022  0.0757  0.4024  0.3444
 4743SOL    HW125865   1.918   2.707   7.008  1.9569  0.6472  1.5737
 4743SOL    HW225866   1.907   2.822   7.114  4.3475  1.2180 -0.3189
 4744SOL     OW25867   0.490   0.767   9.490  0.1629 -0.5468 -0.7067
 4744SOL    HW125868   0.419   0.723   9.537 -0.0580 -0.6523 -1.1338
 4744SOL    HW225869   0.513   0.838   9.549 -0.1414 -0.5891 -0.5398
 4745SOL     OW25870   2.736   3.636  15.405  0.4822  0.5256  0.3153
 4745SOL    HW125871   2.826   3.669  15.405  0.0036  1.8470  2.0120
 4745SOL    HW225872   2.734   3.597  15.318 -2.4857  0.4598  0.4126
 4746SOL     OW25873   3.416   1.179  13.434 -0.2626 -1.1404 -0.1756
 4746SOL    HW125874   3.327   1.153  13.409 -0.7959  0.5904 -0.0671
 4746SOL    HW225875   3.417   1.264  13.389  1.0922 -1.0501  0.0199
 4747SOL     OW25876   4.199   3.825   6.530 -0.2811  0.0542  0.1548
 4747SOL    HW125877   4.251   3.815   6.609 -0.7047 -0.6372  0.3460
 4747SOL    HW225878   4.174   3.917   6.524  1.7480  0.6306  0.6406
 4748SOL     OW25879   4.628   3.584   8.059  0.3159 -0.1102 -0.4392
 4748SOL    HW125880   4.689   3.629   8.117  1.1158  0.1126 -1.4552
 4748SOL    HW225881   4.643   3.626   7.974 -1.4672  0.8065 -0.2997
 4749SOL     OW25882   3.118   2.372   9.619  0.3507  0.5988  0.2300
 4749SOL    HW125883   3.062   2.439   9.657  2.7604  2.0297  1.2586
 4749SOL    HW225884   3.054   2.335   9.558  1.8353 -1.7092  0.0607
 4750SOL     OW25885   2.803   2.644   9.249 -0.0432 -0.2205 -0.4233
 4750SOL    HW125886   2.825   2.561   9.207  0.5347  0.0884 -0.7331
 4750SOL    HW225887   2.788   2.699   9.172  1.7736 -0.7561 -1.1665
 4751SOL     OW25888   0.566   0.600   3.167  0.9619  0.4172 -0.6664
 4751SOL    HW125889   0.536   0.666   3.105 -1.3042  1.6082  1.7093
 4751SOL    HW225890   0.650   0.640   3.191  1.9949 -3.1403  1.6921
 4752SOL     OW25891   2.329   1.831  15.028  0.1942 -0.1305  0.2623
 4752SOL    HW125892   2.367   1.877  14.953  0.5632  0.4243  0.7929
 4752SOL    HW225893   2.332   1.900  15.094  0.2613  1.1396 -1.0840
 4753SOL     OW25894   1.588   3.390  14.932  0.3039 -0.0370  0.1912
 4753SOL    HW125895   1.670   3.434  14.955 -0.6239  0.4688  2.4791
 4753SOL    HW225896   1.562   3.437  14.853  2.4802  1.0764  0.1386
 4754SOL     OW25897   3.307   4.193   2.322  0.4096  0.6577 -0.1073
 4754SOL    HW125898   3.398   4.185   2.295  0.1846 -1.9719 -0.0190
 4754SOL    HW225899   3.266   4.199   2.236 -0.6791  0.6515  0.4035
 4755SOL     OW25900   1.499   3.628   3.576  0.0302  0.0844 -0.2523
 4755SOL    HW125901   1.506   3.650   3.483  1.9877  1.7824  0.2854
 4755SOL    HW225902   1.550   3.548   3.587  2.8203  1.5856 -2.2770
 4756SOL     OW25903   3.054   3.885   0.827  0.1951 -0.1517  0.4015
 4756SOL    HW125904   3.116   3.817   0.851  1.3937  0.8297  0.1201
 4756SOL    HW225905   3.097   3.915   0.747  1.8007  0.7430  1.6042
 4757SOL     OW25906   0.078   0.016   7.042  0.5879  0.0598 -0.1467
 4757SOL    HW125907   0.126   0.097   7.059  1.7768 -0.8835  1.1343
 4757SOL    HW225908   0.132   4.695   7.096 -0.6532 -1.2074 -0.2809
 4758SOL     OW25909   3.828   0.660  15.476  0.5437  0.4860  0.4936
 4758SOL    HW125910   3.782   0.741  15.496 -1.3468 -0.1649 -1.2993
 4758SOL    HW225911   3.815   0.653  15.381  1.6080  0.7832  0.3165
 4759SOL     OW25912   2.752   0.797   7.819 -0.5548  0.0655  0.7298
 4759SOL    HW125913   2.716   0.721   7.772  0.1379  1.3340 -1.8857
 4759SOL    HW225914   2.782   0.862   7.755  1.1454  1.0904  2.5822
 4760SOL     OW25915   2.678   0.553   5.120 -0.3942  0.6246  0.5757
 4760SOL    HW125916   2.609   0.570   5.184 -0.6961 -0.1683  0.4565
 4760SOL    HW225917   2.653   0.463   5.102  1.7095 -0.4537  3.0771
 4761SOL     OW25918   1.366   1.661  11.051  0.6129 -0.6617 -0.1312
 4761SOL    HW125919   1.308   1.626  11.118 -1.2645 -1.9447 -2.4508
 4761SOL    HW225920   1.363   1.588  10.990 -0.5391 -1.8780  1.3687
 4762SOL     OW25921   0.953   4.113   0.552 -1.0219 -0.5332 -0.3576
 4762SOL    HW125922   0.957   4.123   0.647  0.5542 -2.3837 -0.2406
 4762SOL    HW225923   1.045   4.109   0.526 -0.8068 -0.7139  0.4312
 4763SOL     OW25924   0.920   1.905  15.287  0.6181 -0.0696  0.4514
 4763SOL    HW125925   0.996   1.850  15.271 -1.2377 -3.0771  1.8751
 4763SOL    HW225926   0.933   1.965  15.214  0.2831 -2.2686 -1.4452
 4764SOL     OW25927   3.479   2.997   8.601  0.4799 -0.0423  0.2009
 4764SOL    HW125928   3.417   2.925   8.590 -0.4211  0.4231  2.2186
 4764SOL    HW225929   3.429   3.068   8.562 -0.9251 -0.8399  0.5383
 4765SOL     OW25930   1.691   2.549  16.222  0.1196 -0.0048  0.0343
 4765SOL    HW125931   1.775   2.567  16.180  0.2769 -0.9829 -0.0791
 4765SOL    HW225932   1.643   2.497  16.158  1.4468 -1.0010 -0.1426
 4766SOL     OW25933   0.132   3.321   8.715 -0.1970 -0.5108  0.4227
 4766SOL    HW125934   0.130   3.402   8.663  0.0554  0.7786  2.4238
 4766SOL    HW225935   0.047   3.327   8.757  0.0870  2.1487  0.6210
 4767SOL     OW25936   3.865   1.849   2.996 -0.2056 -0.0769  0.3036
 4767SOL    HW125937   3.959   1.855   2.981 -0.2874 -0.4261 -0.3411
 4767SOL    HW225938   3.834   1.919   2.939 -0.9969 -0.9521 -0.3281
 4768SOL     OW25939   1.152   3.643   7.189 -0.0072 -0.5192  0.4581
 4768SOL    HW125940   1.089   3.588   7.235 -0.1152 -2.2355 -1.7365
 4768SOL    HW225941   1.127   3.730   7.221  1.0286  0.5604 -1.6554
 4769SOL     OW25942   0.823   2.548   6.532 -0.1073 -0.5616 -0.0626
 4769SOL    HW125943   0.901   2.528   6.583  0.5156 -0.1407 -0.8504
 4769SOL    HW225944   0.784   2.460   6.534  2.1949 -1.6535 -2.9897
 4770SOL     OW25945   1.066   2.468   3.083  0.3719  0.5362  0.4729
 4770SOL    HW125946   1.134   2.529   3.112 -0.5424  2.1748 -0.8540
 4770SOL    HW225947   1.081   2.389   3.136 -1.0419 -1.3406 -1.8836
 4771SOL     OW25948   2.056   3.278   4.831 -0.1718 -0.5616 -0.0330
 4771SOL    HW125949   2.027   3.281   4.922  1.2073  0.8303  0.3663
 4771SOL    HW225950   2.144   3.241   4.840 -0.6156 -1.5933 -0.0190
 4772SOL     OW25951   0.167   3.847   5.982  0.0869  0.6424 -0.3284
 4772SOL    HW125952   0.088   3.900   5.972 -0.6396 -0.2973  0.4071
 4772SOL    HW225953   0.176   3.819   5.890 -2.0076  0.0953 -0.3750
 4773SOL     OW25954   3.276   2.091   7.465 -0.1946  0.4487  0.1300
 4773SOL    HW125955   3.312   2.141   7.392 -1.0695  0.2662 -0.4303
 4773SOL    HW225956   3.290   2.001   7.433 -1.2868  0.3828 -0.1513
 4774SOL     OW25957   3.445   0.804   6.064 -0.0986  0.3374  0.0404
 4774SOL    HW125958   3.426   0.728   6.119 -1.7040 -2.1024 -3.8965
 4774SOL    HW225959   3.462   0.878   6.122 -1.2286  1.2904 -0.8407
 4775SOL     OW25960   0.048   3.213  16.085 -0.8204 -0.1595 -0.3162
 4775SOL    HW125961   4.729   3.237  16.159 -0.8804  0.5291 -0.5878
 4775SOL    HW225962   0.069   3.122  16.107  0.7871  0.5950  1.2957
 4776SOL     OW25963   0.126   1.994   9.067 -0.2295 -0.0816 -0.2539
 4776SOL    HW125964   0.115   2.003   8.973 -1.3095  1.8271  0.0493
 4776SOL    HW225965   0.036   1.989   9.100 -0.2711  0.0782 -0.3409
 4777SOL     OW25966   0.056   2.561   2.627 -0.1194 -0.6139 -0.1043
 4777SOL    HW125967   0.118   2.494   2.655 -0.3753 -0.5710  0.5596
 4777SOL    HW225968   4.730   2.517   2.571 -0.9397 -0.6030  0.8248
 4778SOL     OW25969   1.328   2.661   1.892 -0.3902  0.1647  0.0258
 4778SOL    HW125970   1.243   2.622   1.874 -0.5091 -0.4963  1.9785
 4778SOL    HW225971   1.381   2.581   1.894 -1.8151 -0.7924 -0.2369
 4779SOL     OW25972   1.326   3.355   1.589  0.2560  0.7304  0.2627
 4779SOL    HW125973   1.301   3.366   1.681  2.5743 -2.2790  1.2166
 4779SOL    HW225974   1.276   3.274   1.580  0.1082  0.6110  2.0946
 4780SOL     OW25975   4.108   2.418   8.775  0.2675  0.0366 -0.0004
 4780SOL    HW125976   4.139   2.329   8.759  0.0116 -0.1463  0.5162
 4780SOL    HW225977   4.014   2.404   8.762  0.2320  0.9868 -0.7800
 4781SOL     OW25978   4.440   0.335   5.994  0.0461 -0.0431 -0.7412
 4781SOL    HW125979   4.468   0.274   5.926  0.6687  1.4273 -1.8052
 4781SOL    HW225980   4.518   0.370   6.036 -1.0922  1.8043 -0.1790
 4782SOL     OW25981   0.569   2.153   6.047  0.2763 -0.0801 -0.0146
 4782SOL    HW125982   0.619   2.074   6.023 -1.5883 -0.2911 -3.1903
 4782SOL    HW225983   0.497   2.114   6.095  0.6877 -0.2232  0.4883
 4783SOL     OW25984   0.867   2.527  10.506 -0.6177  0.4461 -0.1774
 4783SOL    HW125985   0.914   2.450  10.475 -0.4562  1.0647 -1.5005
 4783SOL    HW225986   0.796   2.524  10.442  1.6704  0.1928 -2.7325
 4784SOL     OW25987   4.369   1.815   6.056 -0.0083  0.7645  0.2598
 4784SOL    HW125988   4.311   1.784   5.986 -0.0393  1.5611 -0.0670
 4784SOL    HW225989   4.418   1.734   6.073 -1.2783  0.0384  0.4341
 4785SOL     OW25990   0.931   4.426   7.542  0.0530 -0.0531  0.7316
 4785SOL    HW125991   1.013   4.469   7.567 -0.5576  2.4222 -1.5562
 4785SOL    HW225992   0.974   4.349   7.505  0.2627  0.6166 -0.4351
 4786SOL     OW25993   0.305   2.209   1.095  0.2198 -0.7118  0.2795
 4786SOL    HW125994   0.245   2.134   1.087 -0.4803 -0.1826  0.5930
 4786SOL    HW225995   0.356   2.190   1.174  0.0189 -1.0553  0.3261
 4787SOL     OW25996   4.592   1.580   1.218 -0.3173  0.0734 -0.4242
 4787SOL    HW125997   4.591   1.618   1.130 -0.8575 -3.0883 -1.7921
 4787SOL    HW225998   4.510   1.533   1.229  0.0165  0.0126  1.7532
 4788SOL     OW25999   4.261   1.888   2.428 -0.5449  0.3544 -0.5729
 4788SOL    HW126000   4.278   1.803   2.388  1.4472  0.2846  0.4047
 4788SOL    HW226001   4.333   1.930   2.382 -1.8181  2.0419 -1.0434
 4789SOL     OW26002   2.126   0.097   2.500 -0.2585 -0.2662 -0.3730
 4789SOL    HW126003   2.105   0.101   2.593  1.0070  1.0282 -0.1331
 4789SOL    HW226004   2.083   0.172   2.459  0.1340  0.8949  1.3432
 4790SOL     OW26005   1.441   0.273   5.364 -0.0349  0.3881  0.3196
 4790SOL    HW126006   1.469   0.183   5.380  0.3516  0.5904  0.8107
 4790SOL    HW226007   1.473   0.276   5.274  2.3663 -2.4222  1.0704
 4791SOL     OW26008   2.721   1.412  17.744  0.0841 -0.1554  0.5727
 4791SOL    HW126009   2.679   1.481   0.043  1.3440 -0.5746  2.2023
 4791SOL    HW226010   2.668   1.436  17.668  0.0395  0.7789  0.8980
 4792SOL     OW26011   4.370   0.627   9.603 -0.5964  0.7322 -0.0766
 4792SOL    HW126012   4.380   0.721   9.594  0.7788  0.4146 -1.8287
 4792SOL    HW226013   4.348   0.612   9.511  1.7010 -1.0156 -0.3571
 4793SOL     OW26014   0.105   4.213  10.262  0.4698 -0.3271  0.0896
 4793SOL    HW126015   0.178   4.174  10.311  0.1779  0.1927  0.9378
 4793SOL    HW226016   0.045   4.249  10.328  0.7336  0.0076  0.1479
 4794SOL     OW26017   0.256   4.442  10.115 -0.1674  0.1627  0.4108
 4794SOL    HW126018   0.193   4.394  10.170 -0.7550 -0.3935 -0.7529
 4794SOL    HW226019   0.329   4.454  10.176  0.2358 -0.8887  0.1339
 4795SOL     OW26020   0.482   1.376   3.589  0.7675  0.2123 -0.1660
 4795SOL    HW126021   0.440   1.462   3.584  0.5766  0.0597 -1.1067
 4795SOL    HW226022   0.425   1.338   3.656  1.1267 -0.5669 -0.3099
 4796SOL     OW26023   1.056   2.544   6.952  0.0580  0.5059  0.0465
 4796SOL    HW126024   1.147   2.558   6.978  0.7727  0.7902 -2.6105
 4796SOL    HW226025   1.019   2.491   7.022  1.6513  1.6550  1.7371
 4797SOL     OW26026   3.067   0.762  16.764 -0.0889  0.0170  0.0349
 4797SOL    HW126027   3.163   0.767  16.768  0.0150 -2.3324  1.0130
 4797SOL    HW226028   3.048   0.671  16.742 -1.0554  0.6966 -1.8440
 4798SOL     OW26029   0.467   3.029   3.824  0.6787  0.0925  0.3041
 4798SOL    HW126030   0.414   2.960   3.785 -0.4749  1.3501 -0.3659
 4798SOL    HW226031   0.496   2.981   3.902 -1.3224 -0.2837  0.8254
 4799SOL     OW26032   2.236   0.228  11.886 -0.4337 -0.1847 -0.1204
 4799SOL    HW126033   2.285   0.303  11.921 -0.5783  0.0596 -0.4342
 4799SOL    HW226034   2.281   0.149  11.914 -0.8319 -0.8303 -1.3286
 4800SOL     OW26035   4.733   3.421   3.887 -0.4011  0.6217 -0.5865
 4800SOL    HW126036   4.689   3.369   3.820 -1.7812  0.6442  0.2913
 4800SOL    HW226037   0.075   3.371   3.900 -1.1885 -0.4008  0.3845
 4801SOL     OW26038   3.495   4.296   8.111 -0.0262 -0.2255  0.1357
 4801SOL    HW126039   3.440   4.300   8.032 -1.7554 -2.6216  1.2156
 4801SOL    HW226040   3.437   4.253   8.174  2.2694  0.3769  2.6232
 4802SOL     OW26041   2.860   3.571  14.217 -0.1728 -0.2751  0.3182
 4802SOL    HW126042   2.787   3.595  14.274 -0.6452  0.7636 -0.7183
 4802SOL    HW226043   2.888   3.493  14.264  0.4332 -0.6212 -0.6256
 4803SOL     OW26044   3.591   2.496  14.230  0.4117  0.1614 -0.0178
 4803SOL    HW126045   3.602   2.576  14.180 -0.9039  2.1792  2.9358
 4803SOL    HW226046   3.612   2.436  14.158 -0.4625  0.0462 -0.1772
 4804SOL     OW26047   0.729   1.598  15.805 -0.0379 -0.4892 -0.2231
 4804SOL    HW126048   0.649   1.592  15.857  1.1899 -1.6135  1.5546
 4804SOL    HW226049   0.782   1.646  15.868 -0.3856  0.1953 -0.4571
 4805SOL     OW26050   3.204   0.484  11.300  0.1045 -0.4561  0.6724
 4805SOL    HW126051   3.185   0.408  11.246 -0.8342  0.2255  0.0408
 4805SOL    HW226052   3.219   0.444  11.386  2.4618 -0.0370  0.4499
 4806SOL     OW26053   4.455   3.376   4.888 -0.1333 -0.1033  0.3225
 4806SOL    HW126054   4.462   3.349   4.796 -0.1275  0.3302  0.1952
 4806SOL    HW226055   4.360   3.379   4.897 -0.0307  0.5193  1.1730
 4807SOL     OW26056   0.593   1.834   8.653  0.2475 -0.4458 -0.0910
 4807SOL    HW126057   0.594   1.760   8.713 -0.2375  0.5922  1.2108
 4807SOL    HW226058   0.646   1.897   8.702  1.4290  0.4980 -2.5619
 4808SOL     OW26059   4.074   0.282   3.127 -0.3184 -0.3526 -0.1569
 4808SOL    HW126060   4.001   0.318   3.077 -1.1738  0.3627  1.6085
 4808SOL    HW226061   4.042   0.289   3.217  0.1891 -1.2582  0.0951
 4809SOL     OW26062   2.379   1.127   5.329  0.1531  0.3351 -0.2448
 4809SOL    HW126063   2.381   1.221   5.312 -1.0145  1.0523  3.7738
 4809SOL    HW226064   2.473   1.107   5.325  0.3067  0.8615  0.7169
 4810SOL     OW26065   3.089   2.284   7.795 -0.1374  0.6248 -0.6340
 4810SOL    HW126066   3.158   2.264   7.858  0.0209 -1.4811 -1.4903
 4810SOL    HW226067   3.080   2.202   7.747 -0.1687  0.0323  0.3840
 4811SOL     OW26068   3.598   0.104   2.744  0.7696 -0.0574 -0.2650
 4811SOL    HW126069   3.609   0.024   2.795 -0.1358  0.5325  0.8593
 4811SOL    HW226070   3.518   0.141   2.780  0.3371  1.0059 -2.2897
 4812SOL     OW26071   1.669   3.171   4.019 -0.4523  0.1619  0.1739
 4812SOL    HW126072   1.589   3.219   4.002 -1.0846 -0.7998  0.4559
 4812SOL    HW226073   1.727   3.202   3.949 -0.2609 -0.0183  0.2506
 4813SOL     OW26074   2.336   1.315   7.637 -0.2321  0.5829  0.6783
 4813SOL    HW126075   2.410   1.272   7.681  1.2393 -0.2717 -2.6846
 4813SOL    HW226076   2.281   1.351   7.707 -1.5705  0.3351 -0.2456
 4814SOL     OW26077   2.937   4.307   3.755 -0.0593 -0.3834  0.3215
 4814SOL    HW126078   2.922   4.286   3.663  1.7706 -0.3330  0.0298
 4814SOL    HW226079   2.878   4.245   3.799 -0.5058 -0.1987 -0.0202
 4815SOL     OW26080   1.952   0.209   4.450  0.5837  0.1016 -0.0169
 4815SOL    HW126081   1.874   0.178   4.497  0.6914  1.3814  1.0012
 4815SOL    HW226082   2.012   0.140   4.479 -1.4285 -0.4398  2.9198
 4816SOL     OW26083   2.968   0.579   6.638 -0.3772  0.1011 -0.0006
 4816SOL    HW126084   2.989   0.526   6.561  1.8174  0.5249  0.3293
 4816SOL    HW226085   2.945   0.514   6.704 -0.3601 -0.6061 -0.6883
 4817SOL     OW26086   2.416   3.543  13.405 -0.3295 -0.0290  0.5525
 4817SOL    HW126087   2.451   3.608  13.344 -0.2952 -1.6542 -1.1413
 4817SOL    HW226088   2.327   3.564  13.432 -1.2799 -0.6111 -2.1318
 4818SOL     OW26089   3.164   4.275   6.780 -0.3550  0.0127  0.2927
 4818SOL    HW126090   3.118   4.240   6.856  0.6535  0.4116  1.0839
 4818SOL    HW226091   3.196   4.359   6.812 -0.9108  0.6219 -0.7349
 4819SOL     OW26092   1.101   4.542   3.756  0.1340 -0.0809  0.0228
 4819SOL    HW126093   1.057   4.466   3.794  1.1125  0.4831  2.2721
 4819SOL    HW226094   1.186   4.504   3.730  0.4306  0.3896  0.3137
 4820SOL     OW26095   3.043   1.454   5.466  0.6197 -0.0021  0.4469
 4820SOL    HW126096   2.961   1.407   5.474 -0.7974  2.3096 -0.3804
 4820SOL    HW226097   3.052   1.461   5.371 -0.6064  0.2635  0.3511
 4821SOL     OW26098   3.413   1.941   5.659 -0.2195 -0.1332  0.3157
 4821SOL    HW126099   3.467   1.942   5.580 -2.1708  3.8493 -0.9572
 4821SOL    HW226100   3.437   1.851   5.682  0.0765 -0.0186  0.4594
 4822SOL     OW26101   4.248   4.245   6.934  0.5470 -0.4869 -0.5638
 4822SOL    HW126102   4.302   4.170   6.908 -0.0600 -0.4869 -1.8423
 4822SOL    HW226103   4.159   4.219   6.955  0.3419 -0.1141 -0.9654
 4823SOL     OW26104   1.283   0.340   7.294 -0.2406 -0.0452 -0.4756
 4823SOL    HW126105   1.288   0.380   7.381 -0.9255 -0.3181 -0.3061
 4823SOL    HW226106   1.359   0.282   7.300  1.8513  2.3774 -3.6087
 4824SOL     OW26107   4.533   2.559   8.295  0.6530  0.6808 -0.2937
 4824SOL    HW126108   4.464   2.493   8.296  1.6137 -0.3446 -1.2292
 4824SOL    HW226109   4.596   2.527   8.229 -1.0633  0.2006 -1.6975
 4825SOL     OW26110   1.754   3.005  17.298 -0.0039  0.2101  0.0319
 4825SOL    HW126111   1.756   2.970  17.209 -1.1818  1.1751 -0.3800
 4825SOL    HW226112   1.844   3.029  17.317  0.9521 -1.5421 -2.2452
 4826SOL     OW26113   4.242   0.008   0.926 -0.0050 -0.3680 -0.8369
 4826SOL    HW126114   4.199   4.670   0.887 -0.2934 -0.5727 -0.1016
 4826SOL    HW226115   4.166   0.063   0.946  1.5406  0.4961  2.6030
 4827SOL     OW26116   3.284   4.194   4.014 -0.2247 -0.3738 -0.5056
 4827SOL    HW126117   3.266   4.129   3.946  1.5062 -2.6891  1.2534
 4827SOL    HW226118   3.221   4.265   4.001  1.4087  1.1155 -0.3037
 4828SOL     OW26119   2.124   4.560   3.460  0.1889 -0.6830  0.0458
 4828SOL    HW126120   2.042   4.553   3.508 -0.1682 -0.1896 -0.5006
 4828SOL    HW226121   2.112   4.507   3.382 -0.6923  0.1413 -0.3746
 4829SOL     OW26122   0.227   2.243   4.278 -0.0293 -0.0854 -0.1691
 4829SOL    HW126123   0.269   2.328   4.268 -0.0182 -0.1176 -0.3947
 4829SOL    HW226124   0.298   2.189   4.312 -0.7429 -0.7084  0.3520
 4830SOL     OW26125   3.452   3.809  13.402  0.1206 -0.0086 -0.0683
 4830SOL    HW126126   3.461   3.815  13.306  0.9246  0.0822  0.0103
 4830SOL    HW226127   3.357   3.809  13.410 -0.1067  0.3475 -2.5543
 4831SOL     OW26128   2.523   4.206   2.744  0.3289 -0.1885  0.1123
 4831SOL    HW126129   2.607   4.249   2.730  0.1546  1.2189  3.2583
 4831SOL    HW226130   2.550   4.121   2.712  0.2606 -0.5591  1.0507
 4832SOL     OW26131   2.533   3.871   6.059 -0.2196 -0.2260 -0.4895
 4832SOL    HW126132   2.542   3.916   6.143 -0.4417  2.5857 -2.0077
 4832SOL    HW226133   2.554   3.945   6.002 -2.2418  1.6805  1.2835
 4833SOL     OW26134   1.237   0.265   2.412 -0.7888  0.0494  0.1294
 4833SOL    HW126135   1.228   0.332   2.480  3.2101 -1.0317  1.7267
 4833SOL    HW226136   1.305   0.297   2.353  0.0217  0.2653  1.1776
 4834SOL     OW26137   3.887   2.400   2.470  0.4758 -0.0601  0.1498
 4834SOL    HW126138   3.841   2.471   2.425  0.5413  0.5986  1.1478
 4834SOL    HW226139   3.979   2.426   2.469  0.1118  1.2328  0.7461
 4835SOL     OW26140   2.260   1.008  17.342  0.3221  0.4121  0.2669
 4835SOL    HW126141   2.311   1.020  17.422  1.1599  1.2615 -0.3827
 4835SOL    HW226142   2.303   1.052  17.269 -1.2027  0.8197 -0.4025
 4836SOL     OW26143   1.613   4.076   3.701 -0.0432  0.0225  0.3041
 4836SOL    HW126144   1.571   3.991   3.708  0.5487 -0.1606  1.7287
 4836SOL    HW226145   1.703   4.043   3.709 -0.2538 -0.6889 -0.2799
 4837SOL     OW26146   4.404   4.083  10.165 -0.0180  0.0358  0.5072
 4837SOL    HW126147   4.352   4.152  10.206 -2.7651 -1.3804 -0.5950
 4837SOL    HW226148   4.374   4.081  10.074  1.3902 -1.1282  0.0715
 4838SOL     OW26149   3.638   2.029   8.609 -0.0544  0.1454 -0.4407
 4838SOL    HW126150   3.692   2.078   8.547  1.5683 -0.9636  0.0873
 4838SOL    HW226151   3.612   1.959   8.550 -3.1470  1.1126 -0.2544
 4839SOL     OW26152   1.853   4.714  17.274 -0.3584 -0.8824 -0.1857
 4839SOL    HW126153   1.811   4.682  17.195  1.1289 -2.0653 -0.5033
 4839SOL    HW226154   1.803   4.672  17.344 -3.9134 -0.3565 -2.4742
 4840SOL     OW26155   4.379   2.013   0.972  0.4989  0.2324  0.3675
 4840SOL    HW126156   4.327   2.085   0.937  1.5571  0.3094 -1.0302
 4840SOL    HW226157   4.344   2.026   1.060  1.0277  1.7453  0.3478
 4841SOL     OW26158   0.569   0.407   2.741  0.3849 -0.0453  1.1235
 4841SOL    HW126159   0.650   0.447   2.769  0.5664 -0.2311  0.8680
 4841SOL    HW226160   0.596   0.400   2.649 -0.5160  0.9325  0.7832
 4842SOL     OW26161   2.668   2.027  15.424  0.5237 -0.1267  0.7448
 4842SOL    HW126162   2.750   2.074  15.407  2.0602 -2.8899  0.6374
 4842SOL    HW226163   2.662   1.987  15.337 -1.4004  0.2474  0.7099
 4843SOL     OW26164   4.089   3.156  13.130  0.6179 -0.2523 -0.0261
 4843SOL    HW126165   3.997   3.175  13.150  0.2480 -0.9451 -1.0802
 4843SOL    HW226166   4.094   3.208  13.049 -2.4755  2.3208  1.4289
 4844SOL     OW26167   0.879   2.801  13.395 -0.2918 -0.1318 -0.2003
 4844SOL    HW126168   0.971   2.828  13.398 -0.0019 -1.5013  3.4047
 4844SOL    HW226169   0.841   2.881  13.358  1.3614  1.6506  1.9469
 4845SOL     OW26170   3.388   2.234   2.287  0.1849 -0.4286  0.2713
 4845SOL    HW126171   3.341   2.279   2.217 -0.2873 -0.4131  0.5953
 4845SOL    HW226172   3.422   2.158   2.239  0.4771  0.3237 -0.6895
 4846SOL     OW26173   2.518   3.392   2.926 -0.2942 -0.0743 -0.3913
 4846SOL    HW126174   2.428   3.360   2.925 -0.5510  0.6832 -1.1911
 4846SOL    HW226175   2.517   3.462   2.992 -1.9973 -1.1132  0.6744
 4847SOL     OW26176   4.444   1.303   8.757  0.0068 -0.1996 -0.4325
 4847SOL    HW126177   4.422   1.269   8.671  1.3285 -0.1975 -0.7763
 4847SOL    HW226178   4.362   1.339   8.792 -0.6362 -0.1092 -2.0420
 4848SOL     OW26179   3.125   4.465  17.625  0.2811  0.7274 -0.6041
 4848SOL    HW126180   3.061   4.413  17.579  2.8463 -1.6813 -1.4395
 4848SOL    HW226181   3.086   4.551  17.638  0.2524  0.4082  1.4584
 4849SOL     OW26182   0.817   0.354   2.491 -0.1055  0.4560 -0.1294
 4849SOL    HW126183   0.742   0.413   2.500 -1.5209 -0.9884 -2.3407
 4849SOL    HW226184   0.854   0.380   2.407  1.4773  1.7298  0.9779
 4850SOL     OW26185   4.317   1.769   4.061 -0.2913  0.3073  0.4322
 4850SOL    HW126186   4.312   1.731   3.974 -2.1896  0.1043  0.6340
 4850SOL    HW226187   4.351   1.856   4.040 -1.3562  0.2640 -1.3746
 4851SOL     OW26188   4.166   1.325   6.782  0.0001 -0.2048 -0.0736
 4851SOL    HW126189   4.123   1.364   6.705 -0.2127 -2.2704 -1.0045
 4851SOL    HW226190   4.096   1.325   6.847 -0.0594 -3.1941 -0.1393
 4852SOL     OW26191   0.557   4.415   9.450  0.3588 -0.3846 -0.2190
 4852SOL    HW126192   0.557   4.414   9.355 -1.8217  0.3641 -0.2393
 4852SOL    HW226193   0.512   4.498   9.465 -1.4938 -1.8336  2.3217
 4853SOL     OW26194   3.275   4.630   7.867 -0.3166  0.0411  0.3173
 4853SOL    HW126195   3.276   4.716   7.827 -3.2643  0.4972  1.1913
 4853SOL    HW226196   3.352   4.579   7.842 -0.0940 -0.1330  1.3284
 4854SOL     OW26197   4.530   2.242   2.964  0.1771 -0.2745 -0.2089
 4854SOL    HW126198   4.467   2.236   2.893  0.7262  2.6876 -0.9409
 4854SOL    HW226199   4.588   2.310   2.929 -0.5071 -0.4760 -1.7242
 4855SOL     OW26200   1.367   3.081   3.794 -0.0428  0.2216 -0.1186
 4855SOL    HW126201   1.394   3.061   3.704  1.4334 -1.7784  0.7746
 4855SOL    HW226202   1.424   3.022   3.843  0.5595  0.8725 -0.0451
 4856SOL     OW26203   3.766   3.672  15.456  0.5610  0.3936  0.5993
 4856SOL    HW126204   3.854   3.638  15.473 -0.2256 -2.0050 -0.1724
 4856SOL    HW226205   3.755   3.732  15.530 -1.4835 -1.0860  1.4867
 4857SOL     OW26206   3.452   2.402   7.598 -0.5343 -0.0846  0.3177
 4857SOL    HW126207   3.437   2.308   7.609  1.6771 -0.1797  2.5332
 4857SOL    HW226208   3.542   2.412   7.570 -0.2798 -1.6671  0.5516
 4858SOL     OW26209   2.822   2.583   3.866  0.8795 -0.2805  0.2936
 4858SOL    HW126210   2.834   2.671   3.902 -0.9843 -0.3135  0.9874
 4858SOL    HW226211   2.780   2.590   3.781  0.5720 -3.2276  0.1861
 4859SOL     OW26212   3.865   0.435   4.061 -0.3125 -0.0429 -0.3081
 4859SOL    HW126213   3.775   0.410   4.081  0.3597 -2.5183 -0.2831
 4859SOL    HW226214   3.863   0.497   3.988  2.0761  1.9823  1.3146
 4860SOL     OW26215   1.178   3.875   8.281 -0.3119 -0.5126 -0.6317
 4860SOL    HW126216   1.219   3.919   8.206 -2.5411 -1.7013 -2.5362
 4860SOL    HW226217   1.238   3.910   8.347 -0.2453 -0.3853 -0.7589
 4861SOL     OW26218   1.361   0.961  13.827  0.1796  0.2306 -1.0283
 4861SOL    HW126219   1.317   0.876  13.832  1.3204 -0.1166  2.8057
 4861SOL    HW226220   1.334   0.996  13.742 -2.8763  3.8609  1.4294
 4862SOL     OW26221   0.278   1.997   0.351  0.1300  0.0698  0.4067
 4862SOL    HW126222   0.215   2.050   0.402 -0.8814  0.1544 -0.9308
 4862SOL    HW226223   0.313   2.072   0.303  0.1471  0.4899  1.0722
 4863SOL     OW26224   1.275   2.637   7.211 -0.0447 -0.1710 -0.4948
 4863SOL    HW126225   1.290   2.544   7.193 -1.1745 -0.3512 -0.4647
 4863SOL    HW226226   1.300   2.680   7.129 -0.8612  0.7552 -0.2527
 4864SOL     OW26227   4.199   2.909  10.201 -0.1367 -0.2743  0.1950
 4864SOL    HW126228   4.150   2.827  10.192 -0.4669 -0.1764  1.1385
 4864SOL    HW226229   4.283   2.882  10.237  0.3491  0.5284 -0.3435
 4865SOL     OW26230   1.480   0.680   7.318  0.2339  0.6477 -0.1946
 4865SOL    HW126231   1.388   0.663   7.336  1.0563 -1.4345  2.0806
 4865SOL    HW226232   1.515   0.598   7.353  1.5905  0.5387 -1.7976
 4866SOL     OW26233   1.220   3.558   9.966 -0.7430  0.4125 -0.4325
 4866SOL    HW126234   1.174   3.607   9.898 -1.8642 -0.4771 -0.3253
 4866SOL    HW226235   1.195   3.607  10.044  0.6922 -0.3753  0.5259
 4867SOL     OW26236   2.789   1.638   7.417 -0.4905  0.1140 -0.3903
 4867SOL    HW126237   2.865   1.656   7.472 -1.3763 -1.0624  1.1881
 4867SOL    HW226238   2.744   1.722   7.429 -0.0418  0.3800 -0.5399
 4868SOL     OW26239   1.272   2.798   0.878 -0.3808  0.0151 -0.3224
 4868SOL    HW126240   1.194   2.851   0.863  1.1093  2.0675 -0.7968
 4868SOL    HW226241   1.237   2.720   0.922 -2.3557  0.5023 -1.0502
 4869SOL     OW26242   3.616   4.439  10.577  0.1342  0.4172  0.3228
 4869SOL    HW126243   3.657   4.382  10.642  3.1125  1.4998 -0.6125
 4869SOL    HW226244   3.665   4.518  10.597  0.9801 -0.2013  0.6963
 4870SOL     OW26245   2.388   2.774   8.664 -0.0064 -0.1418 -0.0907
 4870SOL    HW126246   2.386   2.823   8.582 -0.3640  2.4650  1.4526
 4870SOL    HW226247   2.346   2.837   8.723 -2.7453 -0.5658 -1.6067
 4871SOL     OW26248   3.142   2.323   3.235  0.5966  0.9265  0.2130
 4871SOL    HW126249   3.075   2.357   3.294 -0.1157 -1.9272  1.0244
 4871SOL    HW226250   3.193   2.275   3.300  0.6586 -0.0098 -0.5180
 4872SOL     OW26251   1.109   0.736   4.996  0.1095 -0.3340 -0.0172
 4872SOL    HW126252   1.020   0.709   5.020  0.5772 -1.6224  0.3117
 4872SOL    HW226253   1.116   0.690   4.912 -1.6865  0.5208 -0.6123
 4873SOL     OW26254   3.151   2.617   2.436  0.5643 -0.3582  0.0826
 4873SOL    HW126255   3.182   2.527   2.426  2.4155 -0.0472  2.9708
 4873SOL    HW226256   3.058   2.601   2.421  0.3115  1.3953 -0.2398
 4874SOL     OW26257   3.292   2.429   9.403  0.3794  0.4428 -0.3524
 4874SOL    HW126258   3.212   2.405   9.451  0.7881  1.4430  0.8294
 4874SOL    HW226259   3.302   2.520   9.430 -0.6355 -0.0013  1.5570
 4875SOL     OW26260   2.770   0.093   5.724 -0.3988  0.2695  0.3534
 4875SOL    HW126261   2.792   0.003   5.702 -0.9561  1.0287 -3.3283
 4875SOL    HW226262   2.676   0.083   5.710 -0.3201 -0.0699  0.0598
 4876SOL     OW26263   3.105   0.336  17.675 -0.2518  0.0635  0.8569
 4876SOL    HW126264   3.054   0.367  17.600  1.7254 -0.2544 -0.6232
 4876SOL    HW226265   3.106   0.417  17.726  1.2217  0.7836 -0.3251
 4877SOL     OW26266   2.803   2.584   6.555 -0.4876  0.2882 -0.0422
 4877SOL    HW126267   2.731   2.637   6.520  0.6123  1.1807 -0.9803
 4877SOL    HW226268   2.861   2.567   6.481 -0.2874  0.5757  0.0492
 4878SOL     OW26269   2.791   1.028  10.670  0.0994 -0.2524  0.2136
 4878SOL    HW126270   2.738   1.088  10.617  1.8969  2.7209  1.7790
 4878SOL    HW226271   2.826   0.975  10.598 -0.1888  1.9330 -1.5308
 4879SOL     OW26272   4.289   2.438   0.912  0.1075 -0.1911 -0.1788
 4879SOL    HW126273   4.264   2.356   0.868  1.2159 -0.1877 -0.8194
 4879SOL    HW226274   4.384   2.428   0.920  0.1067  0.0548  0.1183
 4880SOL     OW26275   3.949   0.982  15.713  0.2775 -0.0196  0.0291
 4880SOL    HW126276   3.895   0.912  15.676  0.7205  0.0809 -0.7917
 4880SOL    HW226277   3.951   1.036  15.634 -0.2539 -0.5124 -0.3213
 4881SOL     OW26278   3.874   4.103   8.928 -0.7587  0.0415  0.2914
 4881SOL    HW126279   3.804   4.159   8.959  0.5002  1.5468  0.3936
 4881SOL    HW226280   3.931   4.100   9.004  0.6888  3.1457 -0.6680
 4882SOL     OW26281   4.134   4.041   2.057  0.2767 -0.0502 -0.2828
 4882SOL    HW126282   4.100   4.004   2.138  2.7991 -1.4691  0.0909
 4882SOL    HW226283   4.207   4.094   2.088  1.0888 -0.8751 -0.7812
 4883SOL     OW26284   2.106   2.660   3.641  0.2500  0.3663  0.1445
 4883SOL    HW126285   2.126   2.723   3.710 -1.3179  2.3484 -1.2089
 4883SOL    HW226286   2.010   2.664   3.635  0.0660 -3.4816  0.4257
 4884SOL     OW26287   2.390   2.907   6.878  0.2823 -0.2612  0.0727
 4884SOL    HW126288   2.306   2.942   6.905  0.2629 -1.4799  1.5867
 4884SOL    HW226289   2.363   2.824   6.840  0.5776 -0.4463  0.2670
 4885SOL     OW26290   4.268   1.460   9.267 -0.5788 -0.2367  0.3325
 4885SOL    HW126291   4.258   1.382   9.212  1.5428 -0.0267 -0.3287
 4885SOL    HW226292   4.360   1.483   9.257 -0.5600 -0.1635  0.6658
 4886SOL     OW26293   2.106   0.020   4.564 -0.2977 -0.3731  0.5842
 4886SOL    HW126294   2.171   0.003   4.497  0.5857  1.3230  1.0259
 4886SOL    HW226295   2.143   0.076   4.632 -1.3857  0.9512  0.0964
 4887SOL     OW26296   3.410   4.722  11.531 -0.0133  0.4265 -0.4321
 4887SOL    HW126297   3.499   4.710  11.564  0.4196 -1.2327 -2.1870
 4887SOL    HW226298   3.354   4.692  11.603  2.5420  0.6022  1.6339
 4888SOL     OW26299   1.663   3.731   0.103  0.4204  0.3029 -0.3839
 4888SOL    HW126300   1.601   3.683   0.048 -2.2577  0.6108  2.3733
 4888SOL    HW226301   1.604   3.806   0.113  1.1815  0.6959  1.2163
 4889SOL     OW26302   0.652   2.737   5.830  0.2328  0.1457 -0.4322
 4889SOL    HW126303   0.590   2.789   5.880 -1.1576 -1.9752  0.0576
 4889SOL    HW226304   0.704   2.695   5.899 -2.8843 -3.4555 -0.2546
 4890SOL     OW26305   2.432   1.708   4.562  0.3162  0.5120 -0.0007
 4890SOL    HW126306   2.426   1.730   4.469 -2.1117  2.5385  0.6370
 4890SOL    HW226307   2.453   1.615   4.557  2.1769  0.9658 -0.8633
 4891SOL     OW26308   2.074   1.624  12.851  0.1382  0.2896 -0.1138
 4891SOL    HW126309   2.162   1.624  12.890  0.0813 -2.2091  0.0202
 4891SOL    HW226310   2.026   1.626  12.934  1.2118 -1.8214  0.5769
 4892SOL     OW26311   2.941   0.312  13.366 -0.2035 -0.2303 -0.3320
 4892SOL    HW126312   3.017   0.354  13.406  0.0062 -1.6125  0.7225
 4892SOL    HW226313   2.913   0.378  13.303  0.1154  0.9649  0.7914
 4893SOL     OW26314   2.416   2.722   3.593  0.2509  0.4379 -0.2286
 4893SOL    HW126315   2.460   2.779   3.656  2.4179 -1.7088  0.2224
 4893SOL    HW226316   2.351   2.675   3.645  0.5768  0.1091 -0.1171
 4894SOL     OW26317   0.501   2.176   0.785  0.4688  0.4712  0.1826
 4894SOL    HW126318   0.566   2.118   0.745 -1.7019 -1.3535 -0.7192
 4894SOL    HW226319   0.482   2.114   0.856 -2.2380 -0.1071 -1.0341
 4895SOL     OW26320   3.721   1.620   9.142 -0.0082 -0.0243  0.4497
 4895SOL    HW126321   3.690   1.648   9.055  2.8936  2.0102  0.0637
 4895SOL    HW226322   3.809   1.657   9.141  0.2543 -0.6413  1.1162
 4896SOL     OW26323   1.174   1.116  15.913  0.0650  0.1557  0.0572
 4896SOL    HW126324   1.258   1.126  15.869 -0.4474 -1.1066 -1.2551
 4896SOL    HW226325   1.194   1.151  15.999 -0.4267 -1.5155  0.8714
 4897SOL     OW26326   4.053   2.388   8.346 -0.2382 -0.2854 -0.1561
 4897SOL    HW126327   4.072   2.476   8.315  0.2215 -0.2812  0.1350
 4897SOL    HW226328   4.006   2.427   8.421  0.3679 -0.0077  0.0751
 4898SOL     OW26329   4.483   3.457   8.511 -0.0969  0.0607 -0.3212
 4898SOL    HW126330   4.396   3.460   8.471 -0.3009  0.8833  0.1908
 4898SOL    HW226331   4.533   3.433   8.434 -0.7135  0.9572 -0.9920
 4899SOL     OW26332   3.682   3.923  10.283  0.4072 -0.0864  0.7346
 4899SOL    HW126333   3.623   3.998  10.280  0.1579 -0.2904  0.5124
 4899SOL    HW226334   3.756   3.964  10.238 -1.3738  0.9818 -1.2487
 4900SOL     OW26335   1.430   1.054   6.041  0.2809 -0.0403  0.1193
 4900SOL    HW126336   1.347   1.036   6.086  0.5792 -4.3480 -1.0220
 4900SOL    HW226337   1.487   1.050   6.117 -0.5112  0.9248  0.7616
 4901SOL     OW26338   1.233   4.126   8.012 -0.9065  0.2086  0.0417
 4901SOL    HW126339   1.161   4.111   7.951 -1.9878  2.2623  0.8001
 4901SOL    HW226340   1.264   4.211   7.979  0.3718  0.2801  1.4262
 4902SOL     OW26341   1.306   1.134   7.916 -0.1661 -0.2093 -0.1378
 4902SOL    HW126342   1.348   1.051   7.937  0.2851  0.7266  2.6671
 4902SOL    HW226343   1.349   1.200   7.970  2.7067 -1.9853 -0.2575
 4903SOL     OW26344   3.181   4.697   6.353  0.2833  0.3280  0.1583
 4903SOL    HW126345   3.234   0.030   6.389  0.5606  0.1176  0.1671
 4903SOL    HW226346   3.218   4.687   6.265 -2.4418 -2.5835 -0.6383
 4904SOL     OW26347   1.729   2.812  15.937 -0.0970 -0.0247  0.1712
 4904SOL    HW126348   1.803   2.806  15.877  2.3281  1.6308  2.9796
 4904SOL    HW226349   1.683   2.728  15.926  1.2852 -1.1537  2.9649
 4905SOL     OW26350   2.109   2.229   3.799  0.0935  0.0660  0.1278
 4905SOL    HW126351   2.063   2.206   3.719 -2.1519  0.5456  1.2774
 4905SOL    HW226352   2.054   2.291   3.846 -2.2651 -1.1074 -1.0634
 4906SOL     OW26353   0.593   1.548   9.289  0.3552 -0.1185 -0.3813
 4906SOL    HW126354   0.610   1.522   9.379 -0.2957  2.4551  0.4562
 4906SOL    HW226355   0.537   1.624   9.304 -0.0267 -0.5633  0.4584
 4907SOL     OW26356   3.309   3.582   1.909 -0.5052 -0.0591 -0.0077
 4907SOL    HW126357   3.255   3.646   1.955 -1.5284 -0.4647 -0.6468
 4907SOL    HW226358   3.323   3.623   1.824 -0.0162  1.7227  0.9419
 4908SOL     OW26359   0.229   3.662  12.567 -0.2117  0.3817  0.2466
 4908SOL    HW126360   0.211   3.573  12.536  0.4699  1.1061 -2.3129
 4908SOL    HW226361   0.324   3.671  12.556 -0.1570 -2.6231 -1.7248
 4909SOL     OW26362   2.278   1.034   7.104  0.1534  0.1380  0.3551
 4909SOL    HW126363   2.356   0.982   7.120  0.4709  0.2256 -0.9170
 4909SOL    HW226364   2.323   1.117   7.092  1.0372 -0.4455 -0.3367
 4910SOL     OW26365   4.545   0.336   8.022  0.3819 -0.3250 -0.1750
 4910SOL    HW126366   4.560   0.315   7.930  0.7009 -0.6951 -0.0382
 4910SOL    HW226367   4.630   0.306   8.055  0.3036 -1.5566 -1.0921
 4911SOL     OW26368   0.204   2.216  17.534  0.2489 -0.1869  0.2768
 4911SOL    HW126369   0.237   2.286  17.477  0.7289 -0.2956  0.4174
 4911SOL    HW226370   0.110   2.231  17.530  0.6777  3.0304  1.9896
 4912SOL     OW26371   2.987   0.974   7.190 -0.1213 -0.0333  0.2432
 4912SOL    HW126372   3.047   0.956   7.118  1.0123  0.0349  1.1678
 4912SOL    HW226373   2.909   0.988   7.136 -1.1722  0.3571  1.8806
 4913SOL     OW26374   2.163   2.050   4.691 -0.1591  0.0306 -0.6600
 4913SOL    HW126375   2.072   2.051   4.720 -0.2011 -0.1402 -0.7841
 4913SOL    HW226376   2.150   2.028   4.599 -3.9036  2.3736 -0.6654
 4914SOL     OW26377   4.398   3.030   1.790 -0.0043 -0.4848  0.1301
 4914SOL    HW126378   4.468   3.049   1.853  0.3617  0.6258 -0.6186
 4914SOL    HW226379   4.335   3.023   1.861  0.8846  0.1870  0.9862
 4915SOL     OW26380   3.649   2.007  14.793 -0.2124 -0.3597 -0.4376
 4915SOL    HW126381   3.673   1.999  14.885 -1.5315  1.1497  0.0327
 4915SOL    HW226382   3.720   1.964  14.745 -0.2564 -1.3414  0.3919
 4916SOL     OW26383   1.766   0.982   8.119  0.4295 -0.5055 -0.1761
 4916SOL    HW126384   1.708   0.982   8.195  1.9052  0.3233  0.9525
 4916SOL    HW226385   1.851   0.994   8.160  0.5986 -2.2260 -0.0446
 4917SOL     OW26386   2.424   4.014   8.730 -0.1114  0.2568 -1.2716
 4917SOL    HW126387   2.442   4.077   8.800 -3.4138  2.6875 -2.6588
 4917SOL    HW226388   2.329   4.021   8.734  0.1306  1.2253  2.3967
 4918SOL     OW26389   2.118   2.165   4.084 -0.2154 -0.1532 -0.5025
 4918SOL    HW126390   2.108   2.197   3.994  1.2664  0.8192 -0.3266
 4918SOL    HW226391   2.158   2.242   4.125 -1.8136 -0.4936  1.6956
 4919SOL     OW26392   3.382   1.337   9.683 -0.1779  0.3993  0.4123
 4919SOL    HW126393   3.296   1.365   9.712 -0.3855 -0.8774  1.0134
 4919SOL    HW226394   3.438   1.372   9.752  0.8838 -2.5178  1.0490
 4920SOL     OW26395   0.063   2.723  14.981  0.1369 -0.4482  0.4720
 4920SOL    HW126396   0.143   2.734  14.930  0.2486  0.3548  0.8247
 4920SOL    HW226397   0.026   2.643  14.943  0.4177 -1.2855  1.9827
 4921SOL     OW26398   0.411   1.161   5.571 -0.1706 -0.0779 -0.2981
 4921SOL    HW126399   0.422   1.066   5.565 -0.3914 -0.2803  2.4412
 4921SOL    HW226400   0.333   1.164   5.626 -0.0240 -1.1476 -0.0448
 4922SOL     OW26401   1.244   3.276   2.774 -0.6227  0.2760 -0.2628
 4922SOL    HW126402   1.325   3.224   2.772 -2.1314 -2.0845 -0.3898
 4922SOL    HW226403   1.254   3.322   2.858 -0.7440 -0.8117  0.3527
 4923SOL     OW26404   1.224   2.024   3.087  0.4687 -0.3310  0.1636
 4923SOL    HW126405   1.156   2.036   3.153  0.6518 -1.0789  0.4902
 4923SOL    HW226406   1.205   1.939   3.047 -0.0011 -0.4757  0.7073
 4924SOL     OW26407   0.084   3.854   7.303 -0.2040  0.0186  0.9547
 4924SOL    HW126408   0.097   3.887   7.392 -1.0114  1.9235  0.3823
 4924SOL    HW226409   0.175   3.845   7.275 -0.8979  0.3804 -1.3570
 4925SOL     OW26410   0.254   4.405   9.239  0.1356  0.3866  0.0321
 4925SOL    HW126411   0.272   4.311   9.241  3.2073  1.0076  1.2261
 4925SOL    HW226412   0.160   4.393   9.252  0.5282 -0.6930  1.9481
 4926SOL     OW26413   0.307   0.039   6.656  0.2826 -0.0314  0.0202
 4926SOL    HW126414   0.239   4.725   6.697  1.4485 -0.1442  1.7896
 4926SOL    HW226415   0.358   0.075   6.728  1.4050 -0.8106 -0.3819
 4927SOL     OW26416   3.147   1.946  10.958 -0.4675 -0.3039  0.0937
 4927SOL    HW126417   3.066   1.904  10.987 -0.4100 -1.1938 -1.0479
 4927SOL    HW226418   3.125   2.018  10.899  1.3943  0.5636  0.4661
 4928SOL     OW26419   2.483   3.779   8.084 -0.1641  0.0555 -0.1829
 4928SOL    HW126420   2.469   3.710   8.020  0.5461  0.8716 -1.2233
 4928SOL    HW226421   2.464   3.858   8.033 -1.7882  0.3560  0.8881
 4929SOL     OW26422   0.685   0.820   8.365 -0.0828  0.9303  0.0797
 4929SOL    HW126423   0.725   0.830   8.279 -1.5252 -3.4808 -1.1296
 4929SOL    HW226424   0.621   0.891   8.363 -0.6729  0.4208  0.4697
 4930SOL     OW26425   0.993   4.296  15.876  0.5025 -0.2108 -0.2365
 4930SOL    HW126426   0.994   4.200  15.885  0.0648 -0.2334 -0.3904
 4930SOL    HW226427   0.909   4.313  15.919  0.6466  0.6853 -0.3124
 4931SOL     OW26428   3.118   2.307  15.708 -0.6781  0.1586 -0.7486
 4931SOL    HW126429   3.176   2.314  15.632 -1.7072 -1.4735 -1.6924
 4931SOL    HW226430   3.180   2.253  15.756 -2.0237  0.5474  1.4230
 4932SOL     OW26431   4.202   0.030  10.492 -0.1458 -0.3212  0.1099
 4932SOL    HW126432   4.159   0.108  10.456  2.4956  1.0683 -0.0455
 4932SOL    HW226433   4.273   0.018  10.428  0.0574 -1.9837  0.6416
 4933SOL     OW26434   1.343   2.530   6.482 -0.2818 -0.7439 -0.1434
 4933SOL    HW126435   1.332   2.591   6.555 -0.2042  1.2820 -1.8156
 4933SOL    HW226436   1.288   2.574   6.418  0.9973  3.4489  1.5784
 4934SOL     OW26437   0.302   4.685   5.623  0.2539 -0.0047 -0.5356
 4934SOL    HW126438   0.347   4.726   5.697 -0.1529 -1.1538  0.3474
 4934SOL    HW226439   0.354   4.734   5.560 -1.1871  0.8991 -1.0388
 4935SOL     OW26440   1.684   4.385  17.719  0.4218  0.2454 -0.3280
 4935SOL    HW126441   1.715   4.428   0.048 -0.4055  0.6678 -0.2306
 4935SOL    HW226442   1.684   4.291  17.736  0.9584  0.0500 -1.4485
 4936SOL     OW26443   1.924   1.741   6.453 -0.6142  0.2573  0.0017
 4936SOL    HW126444   2.000   1.713   6.403 -0.5913  2.7651 -1.3881
 4936SOL    HW226445   1.855   1.703   6.398 -1.3976  1.1090  0.3781
 4937SOL     OW26446   0.904   3.098   8.708 -0.4236  0.1163 -0.1109
 4937SOL    HW126447   0.841   3.044   8.756  1.6760 -1.8554  0.4320
 4937SOL    HW226448   0.866   3.185   8.709  0.3654  0.4541  0.0909
 4938SOL     OW26449   1.661   4.461   6.193  0.1103 -0.6605  0.0656
 4938SOL    HW126450   1.690   4.517   6.120 -2.8577  0.9597  0.1362
 4938SOL    HW226451   1.615   4.525   6.246  0.6250 -0.7955  0.6659
 4939SOL     OW26452   1.133   1.839   2.927  0.2910 -0.3097 -0.0208
 4939SOL    HW126453   1.180   1.811   2.849 -0.3844 -1.3762 -0.0459
 4939SOL    HW226454   1.046   1.799   2.931  0.3003 -0.4017 -0.9101
 4940SOL     OW26455   4.551   2.582   4.047 -0.3861  0.2927 -0.0556
 4940SOL    HW126456   4.620   2.564   3.984  0.0623  1.3794  0.1243
 4940SOL    HW226457   4.487   2.516   4.022  0.7860 -1.4589  1.5376
 4941SOL     OW26458   0.923   0.393   4.828 -0.3063  0.8154 -0.7279
 4941SOL    HW126459   0.978   0.320   4.801  0.4487  0.6811  1.1884
 4941SOL    HW226460   0.999   0.434   4.870  0.9430 -0.8318 -1.4191
 4942SOL     OW26461   0.777   2.594   6.014  0.0032  0.5846  0.3995
 4942SOL    HW126462   0.791   2.500   6.005 -1.1242  0.4474  0.1607
 4942SOL    HW226463   0.868   2.623   6.029  0.8614 -0.9697 -1.7642
 4943SOL     OW26464   1.912   0.081   9.111  0.3755 -0.1876  0.1809
 4943SOL    HW126465   2.007   0.083   9.121  0.2382 -1.0762  1.6465
 4943SOL    HW226466   1.898   0.125   9.195  0.5092 -1.6342  0.9731
 4944SOL     OW26467   3.328   2.767   8.616  0.0406 -0.2811  0.0647
 4944SOL    HW126468   3.247   2.723   8.590 -1.6810  1.1327  3.1001
 4944SOL    HW226469   3.326   2.742   8.708 -1.9586 -2.3629 -0.5398
 4945SOL     OW26470   0.153   2.376   7.130  0.2950 -0.6097 -0.1583
 4945SOL    HW126471   0.143   2.369   7.035 -0.8529  3.4081 -0.3336
 4945SOL    HW226472   0.214   2.450   7.129  1.4760 -1.5460  1.2077
 4946SOL     OW26473   2.515   2.123   8.300  0.4746  0.6146 -0.4559
 4946SOL    HW126474   2.511   2.076   8.384 -2.6733  1.4564 -0.1419
 4946SOL    HW226475   2.608   2.145   8.296  0.1906  1.8346 -0.0933
 4947SOL     OW26476   0.972   1.327   2.214 -0.4993  0.0826 -0.1056
 4947SOL    HW126477   0.999   1.237   2.201 -0.7422 -0.0284  0.1531
 4947SOL    HW226478   1.034   1.352   2.283 -0.2252  0.1371 -0.3698
 4948SOL     OW26479   4.075   1.823   2.224 -0.5816  0.1918 -0.4010
 4948SOL    HW126480   3.991   1.867   2.212 -0.2760  1.4218  1.9445
 4948SOL    HW226481   4.108   1.855   2.307 -1.3612  1.7995 -0.7025
 4949SOL     OW26482   0.961   3.114   5.434  0.7938  0.2247 -0.2270
 4949SOL    HW126483   0.867   3.119   5.413  0.4957  0.0338  1.0313
 4949SOL    HW226484   0.966   3.041   5.495 -0.9139  0.4892  0.2591
 4950SOL     OW26485   0.191   1.302   9.515  0.1397  0.0928 -0.0239
 4950SOL    HW126486   0.228   1.348   9.440  0.6549  1.5291  1.1213
 4950SOL    HW226487   0.256   1.233   9.529  0.2220  0.7120  2.6438
 4951SOL     OW26488   0.141   3.194   1.019 -0.1256 -0.2751  0.6233
 4951SOL    HW126489   0.197   3.262   1.056 -1.1985  0.4965  0.8184
 4951SOL    HW226490   0.082   3.249   0.967 -3.1758 -0.3968  4.0185
 4952SOL     OW26491   2.278   1.015  16.372  0.0805  0.2546  0.0504
 4952SOL    HW126492   2.326   1.066  16.437 -1.3993 -1.7110  2.6718
 4952SOL    HW226493   2.321   0.930  16.377 -0.1026  0.1364 -0.3613
 4953SOL     OW26494   3.502   2.028  15.892  0.3664  0.3892  0.1618
 4953SOL    HW126495   3.460   2.080  15.823 -4.0830 -2.1383  0.9395
 4953SOL    HW226496   3.586   2.000  15.857  0.1422  0.0637 -0.1173
 4954SOL     OW26497   2.923   3.568   3.220  0.4498 -0.0977  0.3652
 4954SOL    HW126498   2.927   3.476   3.243  1.2307  0.3737  2.1124
 4954SOL    HW226499   2.859   3.561   3.149  2.0306 -0.0763 -1.0486
 4955SOL     OW26500   3.093   3.101   5.132  0.5425 -0.1069  0.7221
 4955SOL    HW126501   3.163   3.069   5.189  1.4539  0.6248  0.0123
 4955SOL    HW226502   3.036   3.138   5.199  0.4648 -1.7264  1.5408
 4956SOL     OW26503   2.208   2.863  10.672  0.4948 -0.5619  0.2055
 4956SOL    HW126504   2.242   2.787  10.625  1.7300  0.0718  0.0688
 4956SOL    HW226505   2.264   2.934  10.639 -0.3241 -0.2719 -0.5734
 4957SOL     OW26506   1.494   0.191  14.842 -0.1251 -0.4405  0.0745
 4957SOL    HW126507   1.502   0.102  14.810  0.5703  0.0110 -1.0183
 4957SOL    HW226508   1.451   0.233  14.768 -3.0304 -1.3301  1.2611
 4958SOL     OW26509   1.665   1.457   4.793 -0.1248  0.1940  0.2486
 4958SOL    HW126510   1.662   1.371   4.750  3.5015  0.8164 -1.2447
 4958SOL    HW226511   1.746   1.453   4.845  0.0841  1.7995  0.0237
 4959SOL     OW26512   1.927   3.024   9.211 -0.2839 -0.0718  0.2799
 4959SOL    HW126513   1.926   2.929   9.200 -0.9110  0.0294 -0.5498
 4959SOL    HW226514   1.912   3.061   9.124  3.8989  1.3218  0.1509
 4960SOL     OW26515   3.365   2.203  16.435  0.3018 -0.2674  0.5045
 4960SOL    HW126516   3.413   2.140  16.489  0.9329 -0.0600  0.1804
 4960SOL    HW226517   3.291   2.218  16.495  0.5642  0.4460  0.6457
 4961SOL     OW26518   0.201   2.846   8.455  0.2661 -0.6767 -0.0257
 4961SOL    HW126519   0.188   2.856   8.361  2.5909  2.5055  0.0050
 4961SOL    HW226520   0.264   2.915   8.471  0.2594 -0.5629 -0.5062
 4962SOL     OW26521   2.621   3.072   8.538 -0.0765 -0.8832  0.1736
 4962SOL    HW126522   2.708   3.075   8.579  1.0806  1.5615 -2.4745
 4962SOL    HW226523   2.568   3.088   8.616  0.9124  0.8236  0.4925
 4963SOL     OW26524   1.821   2.009   5.987  0.0618 -0.3317 -0.1187
 4963SOL    HW126525   1.751   1.969   6.039 -1.2861  1.8717 -0.2351
 4963SOL    HW226526   1.853   1.931   5.942 -0.3016 -0.9330  0.6516
 4964SOL     OW26527   0.446   4.678   3.845  0.6446 -0.1912 -0.6451
 4964SOL    HW126528   0.402   4.676   3.930  1.9695  0.0197  0.0496
 4964SOL    HW226529   0.536   4.689   3.877  1.0094 -0.6698 -1.5070
 4965SOL     OW26530   4.364   0.459   8.163  0.0385  0.3932 -0.9935
 4965SOL    HW126531   4.427   0.419   8.103 -0.1131  0.7946 -1.4184
 4965SOL    HW226532   4.359   0.549   8.131  2.4972  0.7411 -0.3866
 4966SOL     OW26533   2.497   1.849   8.447 -0.1059  0.1839  0.3608
 4966SOL    HW126534   2.523   1.875   8.536 -1.2339 -0.9856  1.0236
 4966SOL    HW226535   2.584   1.836   8.408 -0.3702  1.6394 -0.6924
 4967SOL     OW26536   0.648   2.429   7.735  0.0245 -0.2293  0.0744
 4967SOL    HW126537   0.731   2.410   7.778 -0.7936 -3.7050  0.1412
 4967SOL    HW226538   0.613   2.347   7.701  0.0490 -1.3113  2.6746
 4968SOL     OW26539   2.883   3.058  15.027 -0.3427  0.1454 -0.8689
 4968SOL    HW126540   2.858   2.999  15.098 -0.0414 -1.7114 -2.3066
 4968SOL    HW226541   2.929   3.122  15.081 -1.6886  0.3344  0.0607
 4969SOL     OW26542   0.382   3.795   6.121 -0.0194  0.2679  0.1254
 4969SOL    HW126543   0.294   3.795   6.082 -0.1530  1.3360  0.4226
 4969SOL    HW226544   0.426   3.869   6.080  2.2465 -0.3432  1.4683
 4970SOL     OW26545   1.054   4.080   4.593 -0.2270 -0.1609 -0.1331
 4970SOL    HW126546   0.999   4.123   4.658  1.3678  0.4198  0.8350
 4970SOL    HW226547   1.012   3.994   4.584  0.7212 -1.0064  3.5010
 4971SOL     OW26548   3.944   3.124  15.958  0.2504 -0.0217  0.2683
 4971SOL    HW126549   3.937   3.218  15.977 -2.0398 -0.4183  1.3643
 4971SOL    HW226550   4.037   3.113  15.976  0.5452  1.8938 -0.1381
 4972SOL     OW26551   3.164   2.720  16.610 -0.1790  0.3604  0.4628
 4972SOL    HW126552   3.149   2.723  16.516  0.2037 -0.5204  0.3755
 4972SOL    HW226553   3.084   2.769  16.627  1.0411  1.4740  3.0624
 4973SOL     OW26554   0.912   1.047  14.411 -0.3845 -0.3833  0.3772
 4973SOL    HW126555   1.006   1.035  14.398 -0.4966  1.5363 -2.0892
 4973SOL    HW226556   0.914   1.029  14.505  2.0008 -0.1107  0.3604
 4974SOL     OW26557   2.767   1.665   8.631  0.1190  0.0196  0.2563
 4974SOL    HW126558   2.801   1.623   8.552 -1.1223 -0.0674 -0.2261
 4974SOL    HW226559   2.832   1.735   8.647  0.8137 -0.3945 -0.7459
 4975SOL     OW26560   1.777   1.814   7.031  0.7486 -0.1275 -0.2953
 4975SOL    HW126561   1.738   1.874   6.967 -2.3664 -1.5082  0.3017
 4975SOL    HW226562   1.703   1.804   7.091  1.9498 -2.4403  0.7987
 4976SOL     OW26563   0.146   1.202   8.039 -0.5829 -0.1091  0.1505
 4976SOL    HW126564   0.196   1.279   8.013  1.0053 -1.5510 -1.0539
 4976SOL    HW226565   0.147   1.145   7.961 -0.3968  0.3941 -0.2133
 4977SOL     OW26566   1.916   1.599   7.077 -0.0464  0.5928 -0.5445
 4977SOL    HW126567   1.866   1.678   7.055 -1.6734  0.1209  1.4261
 4977SOL    HW226568   1.913   1.609   7.172 -3.0491 -3.2507 -0.2460
 4978SOL     OW26569   2.439   0.032  17.748  0.4753 -0.6766 -0.0917
 4978SOL    HW126570   2.473   4.696   0.048  0.6542 -1.9406 -2.0411
 4978SOL    HW226571   2.368   0.061   0.055 -0.2306  0.4886 -1.5527
 4979SOL     OW26572   0.288   3.035   6.849 -0.0971 -0.0304  0.6643
 4979SOL    HW126573   0.372   2.991   6.833 -0.7722 -0.8087 -0.7155
 4979SOL    HW226574   0.270   3.080   6.766  0.4809 -1.6980 -0.3522
 4980SOL     OW26575   0.817   3.672   9.997  0.0168  0.2159  0.0918
 4980SOL    HW126576   0.810   3.754  10.045  2.3635  0.9453 -0.8125
 4980SOL    HW226577   0.737   3.624  10.021  1.0361 -1.2982  0.4687
 4981SOL     OW26578   1.213   2.955   5.593  0.1833  0.1291  0.6715
 4981SOL    HW126579   1.145   2.984   5.654  0.5562  2.3174  0.0552
 4981SOL    HW226580   1.276   2.944   5.664  0.9691  0.7719  0.0658
 4982SOL     OW26581   4.498   0.576   4.214  0.6201 -0.0978 -0.6356
 4982SOL    HW126582   4.505   0.569   4.118  1.3530  0.6994 -0.6532
 4982SOL    HW226583   4.521   0.666   4.239  0.6449 -0.3489  0.2307
 4983SOL     OW26584   4.658   3.202   7.055 -0.2997 -0.5097  0.2804
 4983SOL    HW126585   4.696   3.192   6.968 -0.4836 -0.9483  0.2495
 4983SOL    HW226586   4.691   3.123   7.099 -1.2543  1.4966  4.6581
 4984SOL     OW26587   1.436   3.661   6.129  0.0433 -0.8609 -0.2004
 4984SOL    HW126588   1.363   3.606   6.158 -0.1335 -0.5257 -0.0093
 4984SOL    HW226589   1.439   3.736   6.190 -3.0715 -2.9718  2.5197
 4985SOL     OW26590   4.401   3.025  14.457 -0.0027 -0.0454  0.2077
 4985SOL    HW126591   4.434   2.942  14.424 -0.1908 -0.1292  0.2341
 4985SOL    HW226592   4.434   3.022  14.547 -0.8692  1.5001  0.5964
 4986SOL     OW26593   0.501   1.832   3.788  0.0733  0.2171  0.2341
 4986SOL    HW126594   0.415   1.807   3.821  0.6880 -0.9518  0.9844
 4986SOL    HW226595   0.559   1.798   3.857 -0.5242 -0.1415  0.5568
 4987SOL     OW26596   1.671   2.997   2.308 -0.0223  0.3888 -0.3131
 4987SOL    HW126597   1.656   3.007   2.214  0.9056 -2.3497 -0.7707
 4987SOL    HW226598   1.767   2.989   2.312  0.0007  0.5082 -0.6365
 4988SOL     OW26599   2.767   1.489   4.972  0.7024 -0.1367  0.4325
 4988SOL    HW126600   2.741   1.566   4.921  1.5657 -0.7595 -0.9575
 4988SOL    HW226601   2.793   1.437   4.895  0.2069 -2.4915  1.8434
 4989SOL     OW26602   0.243   1.799   2.421  0.2192  0.2989 -0.0517
 4989SOL    HW126603   0.241   1.805   2.517 -0.0848 -0.2913 -0.0174
 4989SOL    HW226604   0.199   1.714   2.417 -0.4645  0.5447  2.1672
 4990SOL     OW26605   3.162   1.177  12.719 -0.4176  0.2028  0.3360
 4990SOL    HW126606   3.137   1.166  12.627 -0.7375  0.1742  0.4284
 4990SOL    HW226607   3.103   1.244  12.752 -1.7823 -0.4110 -0.8308
 4991SOL     OW26608   1.691   1.373  16.063  0.0413  0.3410 -0.2898
 4991SOL    HW126609   1.639   1.406  15.990 -0.5047  0.0874 -0.0148
 4991SOL    HW226610   1.631   1.299  16.073  0.0539  0.2177 -1.1966
 4992SOL     OW26611   0.595   1.510   6.566  0.1404  0.1263 -0.2678
 4992SOL    HW126612   0.671   1.526   6.621 -1.3827  0.4449  1.7528
 4992SOL    HW226613   0.551   1.593   6.547  1.8614  1.1718  0.3168
 4993SOL     OW26614   0.681   4.049   3.073  0.1967  0.0707 -0.2532
 4993SOL    HW126615   0.592   4.063   3.106  0.1996 -3.1455  1.1573
 4993SOL    HW226616   0.670   3.983   3.005 -0.8673  0.8531 -0.8269
 4994SOL     OW26617   3.240   0.968   8.876 -0.7660 -0.1302  0.1950
 4994SOL    HW126618   3.327   0.971   8.914 -1.7405  2.0942  2.2232
 4994SOL    HW226619   3.191   0.912   8.936  0.7913  0.2894  1.8324
 4995SOL     OW26620   2.537   0.514   0.373 -0.4314  0.7098  0.4939
 4995SOL    HW126621   2.543   0.598   0.326  0.4032  0.4278  0.1045
 4995SOL    HW226622   2.612   0.517   0.432  0.0031 -0.6262  0.0079
 4996SOL     OW26623   0.247   3.800  12.837  0.9358 -0.1187 -0.1783
 4996SOL    HW126624   0.245   3.749  12.756 -1.5912 -0.2408 -0.0531
 4996SOL    HW226625   0.295   3.881  12.819  2.1660 -1.3920 -2.6225
 4997SOL     OW26626   3.884   4.548   3.551 -0.3556  0.4523 -0.2490
 4997SOL    HW126627   3.855   4.569   3.463  0.4780 -0.9293 -0.8532
 4997SOL    HW226628   3.802   4.537   3.599  0.4130 -0.6018  0.8310
 4998SOL     OW26629   1.414   2.096  10.117  0.0604  0.5298 -0.4745
 4998SOL    HW126630   1.465   2.166  10.076 -0.3541 -0.4614 -2.6407
 4998SOL    HW226631   1.455   2.015  10.088 -1.2802  0.5963 -2.5500
 4999SOL     OW26632   2.664   4.273   2.492 -0.5906  0.8614  0.1634
 4999SOL    HW126633   2.644   4.182   2.512 -0.8568  1.3736  2.2718
 4999SOL    HW226634   2.637   4.278   2.400 -2.1532 -0.5484  0.5549
 5000SOL     OW26635   3.144   2.566   8.541 -0.4091 -0.2548  0.1407
 5000SOL    HW126636   3.194   2.529   8.469 -1.5796  3.5821 -2.6479
 5000SOL    HW226637   3.102   2.494   8.588  1.2559 -2.6128 -2.0094
 5001SOL     OW26638   2.234   1.675   5.766  0.1607 -0.1603  0.0194
 5001SOL    HW126639   2.219   1.679   5.860  1.1416  2.6905  0.0645
 5001SOL    HW226640   2.328   1.687   5.748  0.3614  0.7561  1.6719
 5002SOL     OW26641   0.406   0.743   8.547  0.1818  0.5882 -0.5452
 5002SOL    HW126642   0.400   0.834   8.516  2.8990  0.9636  0.0207
 5002SOL    HW226643   0.422   0.763   8.639  0.2224 -0.5314 -0.3098
 5003SOL     OW26644   4.130   0.350   4.546 -0.7187 -0.3631 -0.7411
 5003SOL    HW126645   4.182   0.305   4.612  0.8994  2.4072 -0.1381
 5003SOL    HW226646   4.192   0.413   4.509 -0.8802 -0.2863 -0.8859
 5004SOL     OW26647   0.783   2.259   8.622  0.3270  0.1454 -0.4043
 5004SOL    HW126648   0.770   2.168   8.650  0.1619  0.6347  1.1044
 5004SOL    HW226649   0.863   2.270   8.675 -0.4631  1.0698  0.5966
 5005SOL     OW26650   2.933   3.724   8.245  0.5106  0.3456 -0.5123
 5005SOL    HW126651   2.879   3.787   8.293 -0.3654 -0.6298 -0.2181
 5005SOL    HW226652   3.016   3.766   8.267  0.3710 -0.2734  1.2310
 5006SOL     OW26653   1.145   2.693   5.461 -0.4769  0.2821  0.1120
 5006SOL    HW126654   1.111   2.777   5.490  0.2993  0.5613  0.2029
 5006SOL    HW226655   1.212   2.687   5.528 -0.8413 -1.5779  0.3037
 5007SOL     OW26656   4.010   0.905  16.238  0.6059  0.5019  0.1614
 5007SOL    HW126657   4.032   0.975  16.299  3.0143  1.1611 -1.4568
 5007SOL    HW226658   4.080   0.917  16.174  1.1313  1.5256  0.9328
 5008SOL     OW26659   2.378   3.089   3.153 -0.0516  0.0037 -0.1374
 5008SOL    HW126660   2.432   3.055   3.223  1.5026  0.3594 -1.1714
 5008SOL    HW226661   2.355   3.013   3.100  2.4585 -0.2431 -0.8511
 5009SOL     OW26662   0.043   4.694   1.718 -0.0492  0.5958 -0.3076
 5009SOL    HW126663   0.011   0.031   1.669 -1.2778  1.1576  1.3534
 5009SOL    HW226664   0.111   4.661   1.660 -0.5189  1.9364 -1.6299
 5010SOL     OW26665   2.487   0.000  14.988  0.1870 -0.2148 -0.3086
 5010SOL    HW126666   2.400   0.040  14.999 -0.7902 -2.0746 -1.3567
 5010SOL    HW226667   2.508   0.021  15.079  0.5412  0.1634 -0.4722
 5011SOL     OW26668   2.388   3.531   4.526 -0.1969 -0.4054  0.1073
 5011SOL    HW126669   2.315   3.547   4.467  0.2057 -0.2026 -0.3392
 5011SOL    HW226670   2.334   3.515   4.603 -3.0370  0.5889 -1.6758
 5012SOL     OW26671   4.217   2.187   0.811  0.3158  0.6746 -0.1632
 5012SOL    HW126672   4.195   2.173   0.719 -1.4624 -0.1630  0.3954
 5012SOL    HW226673   4.136   2.173   0.859  3.1848 -1.5490  4.0336
 5013SOL     OW26674   1.802   2.352   2.929  0.4290 -0.2780  0.0174
 5013SOL    HW126675   1.886   2.313   2.903  0.0510 -2.2997  1.8066
 5013SOL    HW226676   1.839   2.432   2.965 -0.6157 -0.0930  0.6439
 5014SOL     OW26677   2.636   1.059   3.922 -0.1107 -0.8343  0.3064
 5014SOL    HW126678   2.726   1.090   3.915  0.0475 -1.0359  1.5294
 5014SOL    HW226679   2.657   0.973   3.885 -0.5079 -0.4991 -0.6962
 5015SOL     OW26680   3.207   4.053   5.645 -0.5934 -0.5667 -0.3916
 5015SOL    HW126681   3.114   4.033   5.630 -0.1735 -2.1478 -0.8693
 5015SOL    HW226682   3.243   4.007   5.569  1.0846  2.1257 -1.2316
 5016SOL     OW26683   0.685   4.247   6.029 -0.0117  0.9250 -0.2419
 5016SOL    HW126684   0.753   4.297   6.074  0.7837 -1.1567  0.8922
 5016SOL    HW226685   0.691   4.294   5.946  1.7002  0.0457 -0.6225
 5017SOL     OW26686   0.884   1.253   5.921  0.3142  0.5708 -0.1946
 5017SOL    HW126687   0.934   1.301   5.987 -0.2996  1.1788 -0.1585
 5017SOL    HW226688   0.889   1.314   5.847  2.9574 -1.8615 -1.9952
 5018SOL     OW26689   3.921   4.206  17.032  0.1091  0.5762 -0.0235
 5018SOL    HW126690   3.943   4.236  17.119  0.7782  2.8784 -0.9874
 5018SOL    HW226691   3.873   4.286  17.010  1.1067  1.7638  2.1064
 5019SOL     OW26692   2.397   2.966  15.704  0.4794  0.1772  0.5648
 5019SOL    HW126693   2.419   2.978  15.796  0.7595  0.3135  0.4801
 5019SOL    HW226694   2.301   2.969  15.709  0.6088 -0.3807  3.0214
 5020SOL     OW26695   4.546   3.031   7.825 -0.0725 -0.6985  0.4548
 5020SOL    HW126696   4.622   3.080   7.857 -0.0909  0.5407 -1.4332
 5020SOL    HW226697   4.580   2.997   7.743  0.8810  0.7495  0.2406
 5021SOL     OW26698   1.776   2.688  11.544  0.2088  0.1532 -0.6533
 5021SOL    HW126699   1.725   2.765  11.518 -2.4941 -2.6805 -3.6612
 5021SOL    HW226700   1.724   2.665  11.620  1.3742  0.1933  0.1551
 5022SOL     OW26701   0.231   0.470   4.172 -0.4587  0.0773 -1.2175
 5022SOL    HW126702   0.250   0.396   4.114 -0.5111 -0.6904 -0.2612
 5022SOL    HW226703   0.273   0.445   4.254  1.1673  1.2821 -1.6847
 5023SOL     OW26704   2.425   2.462   7.631 -0.0379  0.2103 -0.2917
 5023SOL    HW126705   2.397   2.552   7.614  1.8956  1.0151  0.7467
 5023SOL    HW226706   2.480   2.457   7.709  1.9248  1.5373 -1.6078
 5024SOL     OW26707   4.087   1.778   8.884  0.7974  0.2198 -0.0372
 5024SOL    HW126708   4.070   1.816   8.798 -1.7587  0.2932  0.5126
 5024SOL    HW226709   4.021   1.708   8.882  0.7447  0.3096 -1.2235
 5025SOL     OW26710   2.367   1.728   4.834 -0.7014 -0.4177  0.1597
 5025SOL    HW126711   2.384   1.737   4.740 -0.8857 -1.1034  0.0564
 5025SOL    HW226712   2.444   1.774   4.865 -2.4252  3.5108 -1.3251
 5026SOL     OW26713   1.213   4.665   9.599 -0.3785  0.1463  0.4176
 5026SOL    HW126714   1.207   4.705   9.686  0.3003  0.2972  0.3974
 5026SOL    HW226715   1.252   4.581   9.624  0.9940  0.5381 -0.3932
 5027SOL     OW26716   4.230   4.392   6.053 -0.3729  0.2230 -0.0442
 5027SOL    HW126717   4.250   4.470   6.104  0.5786  0.6995 -1.1545
 5027SOL    HW226718   4.292   4.396   5.980 -1.6082 -0.6436 -1.1575
 5028SOL     OW26719   1.440   2.641   4.999  0.2550  0.3249  0.1786
 5028SOL    HW126720   1.370   2.637   5.064  0.3677 -2.5566  0.1362
 5028SOL    HW226721   1.451   2.735   4.990 -2.1851  0.1781 -4.1064
 5029SOL     OW26722   2.931   4.075   5.313 -0.0491  0.2499  0.2331
 5029SOL    HW126723   2.873   4.008   5.349  0.5789 -0.5689 -0.2901
 5029SOL    HW226724   3.009   4.033   5.278 -1.0583 -1.2795 -0.1902
 5030SOL     OW26725   4.124   1.330   7.733  0.3123  0.3755  0.2166
 5030SOL    HW126726   4.206   1.280   7.728 -0.1708 -0.2650 -1.3792
 5030SOL    HW226727   4.061   1.269   7.695  1.3189 -0.4540 -0.1202
 5031SOL     OW26728   3.902   4.572   1.986 -0.2645 -0.1670  0.1347
 5031SOL    HW126729   3.930   4.642   1.928 -3.2938  0.4298 -0.6000
 5031SOL    HW226730   3.888   4.500   1.924  2.4470  0.2965 -1.0205
 5032SOL     OW26731   2.221   1.453   2.843  0.2053 -0.2754 -0.1314
 5032SOL    HW126732   2.292   1.508   2.809 -0.8469  1.5902  0.6598
 5032SOL    HW226733   2.232   1.474   2.936  0.4486 -1.2130  0.0472
 5033SOL     OW26734   1.354   2.346  12.291  0.0083 -0.3946  0.3606
 5033SOL    HW126735   1.441   2.376  12.318  0.3009 -0.8888 -0.0245
 5033SOL    HW226736   1.360   2.250  12.291 -0.5118 -0.4305  1.5523
 5034SOL     OW26737   0.947   1.006   2.526  0.4375  1.0214  0.0329
 5034SOL    HW126738   0.857   0.979   2.540  0.5287 -0.3408 -1.8910
 5034SOL    HW226739   0.986   0.933   2.478 -1.0854  0.1463  0.1352
 5035SOL     OW26740   1.812   3.593  10.592 -0.4459 -0.2915  0.7493
 5035SOL    HW126741   1.896   3.637  10.582 -1.0659  0.0176 -3.0914
 5035SOL    HW226742   1.765   3.656  10.646 -1.7825 -2.4735  2.1306
 5036SOL     OW26743   1.077   3.206  10.970  0.0910  0.1167  0.3101
 5036SOL    HW126744   1.082   3.211  10.874 -0.2340  0.3763  0.3058
 5036SOL    HW226745   1.070   3.299  10.995 -4.2660 -0.4164  1.1017
 5037SOL     OW26746   0.764   2.996  11.289  0.1674 -0.0781  0.0311
 5037SOL    HW126747   0.739   3.085  11.313 -1.3801 -0.1867 -1.1710
 5037SOL    HW226748   0.799   3.028  11.206 -1.5418  1.4551 -0.0818
 5038SOL     OW26749   3.325   3.980  14.204 -0.2364  0.3880 -0.5441
 5038SOL    HW126750   3.389   3.967  14.134  2.7432 -0.5865  2.4132
 5038SOL    HW226751   3.364   4.054  14.250  1.0410 -0.4762 -0.2280
 5039SOL     OW26752   1.507   0.622  17.380  0.0605  0.7624  0.4137
 5039SOL    HW126753   1.456   0.703  17.380 -0.7900  0.2380 -0.0552
 5039SOL    HW226754   1.592   0.661  17.397 -0.2917  1.1224  1.3864
 5040SOL     OW26755   1.192   0.515   2.111 -0.1208  0.1163  0.2433
 5040SOL    HW126756   1.144   0.575   2.055  2.1970  1.2277 -0.5695
 5040SOL    HW226757   1.249   0.574   2.160 -0.3952 -1.1841  2.1103
 5041SOL     OW26758   0.589   0.806   5.156  0.3908 -0.1206 -0.1033
 5041SOL    HW126759   0.579   0.783   5.063  0.1216  0.8583 -0.3140
 5041SOL    HW226760   0.651   0.878   5.151 -0.7022  0.8386  0.2646
 5042SOL     OW26761   3.558   4.623  10.230  0.1124 -0.2843 -0.1064
 5042SOL    HW126762   3.596   4.535  10.231  1.3421  0.2322 -0.7474
 5042SOL    HW226763   3.626   4.655  10.171  1.1656 -0.1544  1.1766
 5043SOL     OW26764   2.703   1.867  14.088  0.8437 -0.5346  0.5047
 5043SOL    HW126765   2.624   1.853  14.139  1.0837  3.5319  1.9769
 5043SOL    HW226766   2.673   1.949  14.049 -0.4946 -0.5988  1.3880
 5044SOL     OW26767   3.021   2.569   1.765 -0.2062 -0.0288  0.2285
 5044SOL    HW126768   3.027   2.663   1.748 -0.5474  0.1708  1.1951
 5044SOL    HW226769   3.076   2.567   1.843 -1.1944 -1.0585  0.8876
 5045SOL     OW26770   1.450   3.352   7.708 -0.5530  0.3211  0.0095
 5045SOL    HW126771   1.438   3.442   7.739 -1.4299  0.0913  0.3186
 5045SOL    HW226772   1.406   3.354   7.623 -0.1025  0.7369 -0.2127
 5046SOL     OW26773   3.356   0.125  17.444 -0.3270  0.6188  0.5055
 5046SOL    HW126774   3.405   0.043  17.450  0.4621  0.9340 -1.4108
 5046SOL    HW226775   3.305   0.112  17.523  0.4216 -0.6345  0.7700
 5047SOL     OW26776   1.188   1.703   1.794  0.3115 -0.0194 -0.2829
 5047SOL    HW126777   1.158   1.676   1.881  1.3683 -0.5262 -0.0836
 5047SOL    HW226778   1.228   1.621   1.764  0.1688 -0.0209 -0.4731
 5048SOL     OW26779   0.804   1.261  17.121  0.4127 -0.5423  0.2921
 5048SOL    HW126780   0.841   1.188  17.171 -1.1687 -3.4252 -2.7188
 5048SOL    HW226781   0.746   1.287  17.193  0.7420 -0.1526  0.4172
 5049SOL     OW26782   1.948   2.590   2.992 -0.5875 -0.5338  0.4532
 5049SOL    HW126783   1.892   2.666   2.978  2.5513  0.9244 -3.9787
 5049SOL    HW226784   1.955   2.584   3.088  0.4763 -1.2540  0.3260
 5050SOL     OW26785   3.029   0.860  15.541  0.3960 -0.3841  0.5246
 5050SOL    HW126786   2.985   0.777  15.523  2.6719 -1.2338 -1.1234
 5050SOL    HW226787   2.955   0.916  15.565 -0.0858  0.5897 -3.1814
 5051SOL     OW26788   4.127   2.657   0.942  0.9364 -0.2643 -0.4220
 5051SOL    HW126789   4.108   2.650   1.035 -0.5698 -0.1022 -0.7290
 5051SOL    HW226790   4.153   2.567   0.922  1.1429 -0.4187  0.5590
 5052SOL     OW26791   4.729   2.017   0.674 -0.3703  0.5536  0.4118
 5052SOL    HW126792   0.055   1.966   0.722  0.8355 -0.8212 -2.6565
 5052SOL    HW226793   4.671   2.050   0.743  0.0548  0.5919  0.7498
 5053SOL     OW26794   2.255   2.720   9.558  0.2675 -0.3464 -0.0736
 5053SOL    HW126795   2.171   2.708   9.604  0.1897 -0.6127 -0.2841
 5053SOL    HW226796   2.315   2.681   9.622  1.5502  0.2315 -0.9309
 5054SOL     OW26797   2.768   0.642  16.849 -0.1023 -0.0537 -0.3887
 5054SOL    HW126798   2.778   0.688  16.932 -0.3706  0.1527 -0.4728
 5054SOL    HW226799   2.679   0.657  16.817 -0.7195  1.7860  2.2257
 5055SOL     OW26800   0.670   4.335  16.281 -0.8160 -0.2809 -0.2798
 5055SOL    HW126801   0.745   4.365  16.332 -0.5932 -0.8953 -0.2417
 5055SOL    HW226802   0.635   4.264  16.335  1.4980 -2.6822 -1.9036
 5056SOL     OW26803   1.184   3.246  11.225  0.0850 -0.3609  0.1540
 5056SOL    HW126804   1.125   3.238  11.150  1.2702 -2.3201 -0.5603
 5056SOL    HW226805   1.164   3.332  11.261  0.6212  0.5389 -1.6719
 5057SOL     OW26806   0.709   3.290   8.225 -0.2738  0.4070 -0.1117
 5057SOL    HW126807   0.698   3.226   8.155 -0.1557  0.5925 -0.3027
 5057SOL    HW226808   0.802   3.281   8.246 -0.2388 -1.8101 -1.1962
 5058SOL     OW26809   4.237   1.383   2.644 -0.2392  0.5302 -0.0284
 5058SOL    HW126810   4.158   1.347   2.604  0.4471 -0.3066 -0.6088
 5058SOL    HW226811   4.280   1.309   2.688  2.1698  0.0751 -3.1614
 5059SOL     OW26812   3.690   0.825   4.014  0.0022 -0.1530 -0.1294
 5059SOL    HW126813   3.613   0.878   4.031  0.7386  0.7160  0.5003
 5059SOL    HW226814   3.749   0.872   4.073 -0.5400  1.2530 -0.7082
 5060SOL     OW26815   2.576   4.449  16.413  0.1032  0.0855 -0.2346
 5060SOL    HW126816   2.492   4.403  16.422 -0.1303  0.3864 -0.8674
 5060SOL    HW226817   2.618   4.397  16.345 -1.4140 -0.8478 -0.4704
 5061SOL     OW26818   3.920   2.223   3.756  0.8408  0.2146  0.0373
 5061SOL    HW126819   3.976   2.191   3.828 -0.2896  0.4999  1.0350
 5061SOL    HW226820   3.841   2.172   3.774  2.1918 -1.6402  0.8140
 5062SOL     OW26821   4.002   2.841   4.590  0.0572 -0.2408 -0.3055
 5062SOL    HW126822   3.998   2.797   4.675  1.3927 -0.9888 -0.6322
 5062SOL    HW226823   4.019   2.764   4.535  4.2787  2.4227 -2.6927
 5063SOL     OW26824   0.438   3.977   5.216  0.3621 -0.0099 -0.5922
 5063SOL    HW126825   0.396   4.018   5.140 -0.1958  0.5710  0.0287
 5063SOL    HW226826   0.533   3.981   5.206  0.2529  0.4400 -1.4394
 5064SOL     OW26827   2.559   1.193   4.679 -0.8658 -0.8644  0.0611
 5064SOL    HW126828   2.560   1.216   4.772  0.2069 -1.3038  0.1542
 5064SOL    HW226829   2.593   1.104   4.681  0.8120 -0.2074  0.5251
 5065SOL     OW26830   0.175   3.719  14.780 -0.2202 -0.0821 -0.3065
 5065SOL    HW126831   0.153   3.641  14.729  1.8850 -0.0681 -1.2203
 5065SOL    HW226832   0.184   3.682  14.867  2.5073  2.4350  0.4798
 5066SOL     OW26833   1.147   3.701   4.539 -0.1055  0.3866  0.4470
 5066SOL    HW126834   1.194   3.677   4.459 -0.8397  0.9797 -0.1674
 5066SOL    HW226835   1.209   3.724   4.609 -1.1631  2.3075  0.7538
 5067SOL     OW26836   1.617   0.854   4.072 -0.2906  0.2464  0.0659
 5067SOL    HW126837   1.655   0.925   4.019 -2.1040  0.3524 -1.0879
 5067SOL    HW226838   1.661   0.874   4.154 -2.6042  0.9399  1.1168
 5068SOL     OW26839   1.699   2.185   8.421  0.0570  0.4173 -0.2161
 5068SOL    HW126840   1.757   2.211   8.349  1.4307 -0.5338  0.5370
 5068SOL    HW226841   1.639   2.127   8.375 -0.1025  0.9583 -0.6871
 5069SOL     OW26842   3.841   3.518   9.488  0.4884 -0.5298 -0.0056
 5069SOL    HW126843   3.782   3.531   9.415 -0.1914  2.0474  1.0021
 5069SOL    HW226844   3.870   3.608   9.500  0.0721 -0.5214  0.9228
 5070SOL     OW26845   1.592   2.412   4.082  0.1948  0.3681  0.2382
 5070SOL    HW126846   1.506   2.426   4.042  0.4680  0.8205 -0.1956
 5070SOL    HW226847   1.581   2.472   4.156 -2.2091  2.4266 -1.7999
 5071SOL     OW26848   4.331   1.720   1.012 -0.3703  0.3446  0.4047
 5071SOL    HW126849   4.382   1.800   1.025 -0.1772  0.2533  0.2046
 5071SOL    HW226850   4.273   1.759   0.947 -0.6911 -0.1174  0.4200
 5072SOL     OW26851   1.983   1.045   2.452  0.5240 -0.1273 -0.3698
 5072SOL    HW126852   1.926   1.072   2.380 -0.5117 -0.0545  0.4597
 5072SOL    HW226853   1.990   0.949   2.446 -0.6211 -0.2749  0.3879
 5073SOL     OW26854   4.460   0.696   7.305 -0.5620  0.2178 -0.0794
 5073SOL    HW126855   4.415   0.759   7.248 -0.9581 -0.9696 -1.0784
 5073SOL    HW226856   4.382   0.696   7.361 -1.5502 -2.6913 -1.4404
 5074SOL     OW26857   4.270   1.449  16.877  0.8730 -0.1477  0.5115
 5074SOL    HW126858   4.360   1.481  16.887  0.6364  0.1947  1.5574
 5074SOL    HW226859   4.235   1.500  16.804  0.9601  0.1857  0.7011
 5075SOL     OW26860   4.380   4.615   6.584  0.0792 -0.3028  0.0511
 5075SOL    HW126861   4.436   4.581   6.653 -1.1446  1.9818  2.1811
 5075SOL    HW226862   4.445   4.661   6.530  1.5749 -1.5940  0.7443
 5076SOL     OW26863   3.992   4.359   9.284  0.5299  0.4669  0.3626
 5076SOL    HW126864   4.048   4.422   9.330  0.6956  0.4209  0.2235
 5076SOL    HW226865   3.915   4.415   9.296 -2.0283 -2.7621 -1.0952
 5077SOL     OW26866   3.819   3.487   2.007 -0.3387 -0.5076 -0.4626
 5077SOL    HW126867   3.875   3.453   2.076 -0.8853  2.4031  1.4129
 5077SOL    HW226868   3.763   3.546   2.057  1.2605 -0.3865  1.1700
 5078SOL     OW26869   3.341   0.167   2.564 -0.1213 -0.4856 -0.1627
 5078SOL    HW126870   3.328   0.081   2.524 -2.6192 -1.0511  1.8436
 5078SOL    HW226871   3.273   0.159   2.631 -1.5330 -3.1487 -1.9001
 5079SOL     OW26872   2.754   1.123   8.690  0.0488  0.2201  0.4020
 5079SOL    HW126873   2.798   1.207   8.674 -1.7159  0.8430 -1.0166
 5079SOL    HW226874   2.695   1.159   8.757 -1.3896 -0.4198 -0.5312
 5080SOL     OW26875   0.573   4.050   6.431  0.0307 -0.1154  0.4410
 5080SOL    HW126876   0.555   4.126   6.375 -0.6736  0.5310  1.5677
 5080SOL    HW226877   0.490   4.034   6.475  0.5758  0.8304  1.7981
 5081SOL     OW26878   4.432   2.328  16.647 -0.1621 -0.3562  0.1523
 5081SOL    HW126879   4.520   2.306  16.678  0.3395 -0.1741 -1.1611
 5081SOL    HW226880   4.385   2.324  16.731 -0.4959 -1.6783 -0.0931
 5082SOL     OW26881   1.103   0.375   5.965 -0.0193  0.0286  0.2764
 5082SOL    HW126882   1.077   0.284   5.976 -0.5942  0.1884  0.2689
 5082SOL    HW226883   1.103   0.379   5.870 -0.5380 -0.3999  0.2569
 5083SOL     OW26884   0.288   0.694  13.821  0.0558  0.3686  0.8970
 5083SOL    HW126885   0.243   0.612  13.798 -1.2495  1.1551  0.6320
 5083SOL    HW226886   0.282   0.738  13.736  0.1901  0.9222  1.1798
 5084SOL     OW26887   4.643   4.723   0.427 -0.1606 -0.0753 -0.1187
 5084SOL    HW126888   4.660   0.072   0.461 -0.0978  0.4996 -1.6208
 5084SOL    HW226889   4.579   4.687   0.489  0.0030 -0.4108 -0.1423
 5085SOL     OW26890   2.171   1.612  10.164  0.1828 -0.6224  0.0094
 5085SOL    HW126891   2.125   1.620  10.080  1.2695 -1.6821 -0.7013
 5085SOL    HW226892   2.233   1.684  10.157  1.1592 -1.0400  4.8025
 5086SOL     OW26893   0.673   3.797   7.869 -1.1458  0.0956 -0.0537
 5086SOL    HW126894   0.589   3.839   7.850  0.0906  3.4080  1.7339
 5086SOL    HW226895   0.646   3.735   7.936 -1.7497 -1.6373 -1.9168
 5087SOL     OW26896   0.542   2.065   5.750 -0.2052 -0.4961  0.2492
 5087SOL    HW126897   0.598   2.026   5.683  2.9485 -1.1269  3.2108
 5087SOL    HW226898   0.509   1.990   5.800  1.0653 -1.5537 -0.5134
 5088SOL     OW26899   2.716   3.819   3.178  0.7245 -0.7290  0.2964
 5088SOL    HW126900   2.775   3.880   3.222 -1.3113  0.8469  0.8605
 5088SOL    HW226901   2.707   3.846   3.087  2.2374 -0.6919  0.1680
 5089SOL     OW26902   2.511   1.214   4.949  0.2053 -0.3480  0.5154
 5089SOL    HW126903   2.570   1.249   5.015 -0.3738  0.8099  0.4293
 5089SOL    HW226904   2.545   1.125   4.948 -0.6264 -0.6637  1.1017
 5090SOL     OW26905   4.723   2.472   8.150  0.2621  0.1461  0.3776
 5090SOL    HW126906   0.025   2.494   8.066  0.6218 -2.6456 -0.1662
 5090SOL    HW226907   0.058   2.440   8.203  0.6443 -1.0389 -0.8864
 5091SOL     OW26908   3.715   1.833  17.407  0.1131 -0.0263  0.0557
 5091SOL    HW126909   3.633   1.843  17.358  1.0755 -1.4176 -1.8258
 5091SOL    HW226910   3.734   1.918  17.448  2.1892  0.0426 -1.0602
 5092SOL     OW26911   0.024   3.663   2.737  0.0907  0.2653  0.0670
 5092SOL    HW126912   4.722   3.739   2.779  1.6573  0.3391  1.4246
 5092SOL    HW226913   0.031   3.688   2.645  0.3721 -0.7721 -0.1954
 5093SOL     OW26914   1.352   4.220   3.358  0.0507  0.6204 -0.3807
 5093SOL    HW126915   1.269   4.218   3.407 -0.6100  0.3848 -1.5137
 5093SOL    HW226916   1.355   4.316   3.349 -1.2490  0.8282  1.3256
 5094SOL     OW26917   3.298   0.389  17.361 -0.2306 -0.1115  0.1452
 5094SOL    HW126918   3.322   0.310  17.410 -1.6121 -0.8956 -0.4454
 5094SOL    HW226919   3.249   0.357  17.286  1.8357 -1.5640 -0.5889
 5095SOL     OW26920   0.233   3.561  11.093 -0.0927  0.2665 -0.3321
 5095SOL    HW126921   0.203   3.562  11.002  2.1799 -1.1214 -1.0754
 5095SOL    HW226922   0.172   3.620  11.138 -1.3452 -1.1091 -0.2383
 5096SOL     OW26923   0.802   3.462   2.267 -0.4182  0.1517  0.1081
 5096SOL    HW126924   0.887   3.465   2.224 -0.3213 -1.0395  0.2266
 5096SOL    HW226925   0.767   3.549   2.245 -1.1851 -0.0696  0.4412
 5097SOL     OW26926   0.010   2.458   4.866 -0.9948  0.4311  0.2351
 5097SOL    HW126927   4.678   2.403   4.902  0.2592 -0.2659  1.6589
 5097SOL    HW226928   0.086   2.402   4.884 -1.7848 -0.1912  1.6994
 5098SOL     OW26929   4.468   4.714   4.951  0.4247  0.3834  0.3835
 5098SOL    HW126930   4.460   0.047   5.015 -0.6424  2.1591 -1.7275
 5098SOL    HW226931   4.547   0.008   4.909  0.5808 -3.3549 -2.2064
 5099SOL     OW26932   4.687   2.256   5.872  0.2862  0.0752  0.5016
 5099SOL    HW126933   4.596   2.280   5.853 -0.4070 -1.4873  1.7691
 5099SOL    HW226934   4.707   2.209   5.791  1.3925  0.1826  0.7188
 5100SOL     OW26935   2.573   1.499   4.027 -0.8776  0.2417  0.1994
 5100SOL    HW126936   2.515   1.445   3.973  2.7404 -0.5446 -2.8528
 5100SOL    HW226937   2.547   1.590   4.010  1.0842  0.8980  0.7760
 5101SOL     OW26938   4.166   0.208   8.672 -0.3431  0.7757 -0.0188
 5101SOL    HW126939   4.166   0.202   8.576 -0.8037 -0.6724  0.0632
 5101SOL    HW226940   4.098   0.143   8.691 -1.5604  1.7502 -0.9955
 5102SOL     OW26941   4.334   0.379   1.678 -0.1995 -0.0346 -0.4121
 5102SOL    HW126942   4.385   0.411   1.604 -0.0948  1.5529  0.3608
 5102SOL    HW226943   4.246   0.414   1.663 -0.2537  1.2419  2.8320
 5103SOL     OW26944   0.801   4.579   2.361 -0.1785  0.2842  0.1659
 5103SOL    HW126945   0.800   4.652   2.423 -1.0647  0.5603 -0.1650
 5103SOL    HW226946   0.858   4.524   2.414 -1.3565 -3.3371 -2.3780
 5104SOL     OW26947   3.154   2.394  10.520 -0.0474 -0.4002 -0.2279
 5104SOL    HW126948   3.081   2.340  10.553  1.8835 -2.8716 -0.0161
 5104SOL    HW226949   3.158   2.371  10.428 -1.2904  1.6267 -0.7825
 5105SOL     OW26950   2.496   0.877   5.669  0.3321  0.6964 -0.1108
 5105SOL    HW126951   2.574   0.845   5.715 -0.4455 -1.2400 -0.1347
 5105SOL    HW226952   2.477   0.936   5.743 -0.3835  2.2130 -1.4998
 5106SOL     OW26953   3.419   1.826   3.520 -0.0043 -0.1207  0.5640
 5106SOL    HW126954   3.432   1.808   3.427 -2.0248 -2.0064  0.6418
 5106SOL    HW226955   3.328   1.797   3.525  0.0632 -0.2661  1.0059
 5107SOL     OW26956   2.593   4.150   6.534 -0.5046  0.4008 -0.2617
 5107SOL    HW126957   2.529   4.089   6.571  1.9772 -0.5830  2.3939
 5107SOL    HW226958   2.538   4.192   6.467 -1.4305  0.0942  0.3045
 5108SOL     OW26959   3.774   3.671  11.669 -0.5609 -0.9216  0.6672
 5108SOL    HW126960   3.769   3.633  11.581  1.6211  2.8221 -1.0608
 5108SOL    HW226961   3.810   3.758  11.651 -0.8057 -0.5058  2.1808
 5109SOL     OW26962   0.862   2.616   3.492 -0.4138  0.1077 -0.1629
 5109SOL    HW126963   0.839   2.565   3.415  0.2753 -1.8592  0.9245
 5109SOL    HW226964   0.908   2.689   3.449  0.6714 -0.1375  0.5601
 5110SOL     OW26965   0.846   2.749   6.936 -0.4767  0.0623 -0.3268
 5110SOL    HW126966   0.823   2.757   7.029 -1.5842 -0.3662 -0.5721
 5110SOL    HW226967   0.923   2.692   6.941  1.0756  2.2414  1.2458
 5111SOL     OW26968   4.223   3.909   4.688  0.1449 -0.1762 -0.6473
 5111SOL    HW126969   4.147   3.897   4.745  0.5610 -2.9536 -0.6614
 5111SOL    HW226970   4.261   3.985   4.732  1.0820 -0.3001 -1.2460
 5112SOL     OW26971   4.611   3.579   7.318 -0.4609  0.0565  0.4638
 5112SOL    HW126972   4.534   3.528   7.293 -1.4274  2.0692 -0.6034
 5112SOL    HW226973   4.605   3.652   7.256 -0.6138  1.1602  1.7795
 5113SOL     OW26974   2.591   2.742   8.270 -0.5162 -0.2637  0.1219
 5113SOL    HW126975   2.516   2.801   8.264  1.6185  2.7614  3.2962
 5113SOL    HW226976   2.661   2.783   8.321 -0.5154 -0.1088 -0.0032
 5114SOL     OW26977   3.488   3.642   4.975 -0.1191 -0.1256 -0.1997
 5114SOL    HW126978   3.564   3.620   5.030 -0.5890  0.0809  0.5414
 5114SOL    HW226979   3.494   3.571   4.911 -1.8236  0.2726 -0.7845
 5115SOL     OW26980   4.226   2.209   4.791  0.2349  0.1240  0.0108
 5115SOL    HW126981   4.155   2.183   4.850 -0.7821 -0.1319 -1.3265
 5115SOL    HW226982   4.255   2.128   4.750 -1.9661 -0.1922 -0.9296
 5116SOL     OW26983   1.251   0.392  12.307 -0.3246  0.3064  0.1656
 5116SOL    HW126984   1.252   0.314  12.363  0.2044  0.2867  0.1256
 5116SOL    HW226985   1.339   0.430  12.305 -0.5295  0.7249 -0.6882
 5117SOL     OW26986   3.142   0.834  13.167 -0.3282 -0.6231  0.2379
 5117SOL    HW126987   3.102   0.774  13.104 -0.6144  1.1376 -1.2165
 5117SOL    HW226988   3.230   0.836  13.130  0.4034 -1.0005  1.9606
 5118SOL     OW26989   3.509   1.924  10.729  0.0287  0.4796 -0.6976
 5118SOL    HW126990   3.581   1.864  10.748 -1.0635 -0.7075 -0.2608
 5118SOL    HW226991   3.503   1.966  10.815 -1.4599 -0.7125 -0.2180
 5119SOL     OW26992   0.928   1.446   6.655  0.1679  0.4355 -0.2912
 5119SOL    HW126993   0.878   1.522   6.685  1.7577  2.2953 -2.3580
 5119SOL    HW226994   0.946   1.481   6.568  0.3805 -1.7325 -1.1233
 5120SOL     OW26995   2.315   3.727   4.227 -0.5705 -0.4256  0.7724
 5120SOL    HW126996   2.262   3.737   4.148  0.9231  1.1162 -0.0462
 5120SOL    HW226997   2.261   3.661   4.270 -0.4418 -1.3057 -0.3912
 5121SOL     OW26998   2.380   0.342   7.473 -0.0979 -0.6567 -0.5181
 5121SOL    HW126999   2.393   0.362   7.565  0.8166  1.7916 -1.2023
 5121SOL    HW227000   2.463   0.316   7.433  0.2861 -0.1479 -0.0380
 5122SOL     OW27001   1.922   3.663   1.693  0.3675  0.0754 -0.7176
 5122SOL    HW127002   1.852   3.652   1.629  0.3714  2.5098 -1.1278
 5122SOL    HW227003   1.977   3.734   1.660 -0.3098  0.4847 -0.9601
 5123SOL     OW27004   4.102   1.251   8.556  0.1624  0.5645  0.1637
 5123SOL    HW127005   4.011   1.276   8.542 -0.5843 -1.9449  0.6075
 5123SOL    HW227006   4.142   1.335   8.579 -0.8987  1.3181 -0.6911
 5124SOL     OW27007   0.044   3.671   4.172 -0.1693 -0.3583  0.1499
 5124SOL    HW127008   0.047   3.633   4.085 -0.4992  1.1497 -0.5139
 5124SOL    HW227009   0.055   3.585   4.214  1.4717  0.5000  1.4601
 5125SOL     OW27010   2.447   3.359  10.486  0.4368  0.2217 -0.3461
 5125SOL    HW127011   2.446   3.381  10.579  0.5685 -2.9756  0.4089
 5125SOL    HW227012   2.509   3.288  10.473 -0.2720 -0.9452  2.7318
 5126SOL     OW27013   2.535   2.022   5.633 -0.1500  0.5394 -0.2170
 5126SOL    HW127014   2.484   2.086   5.683  1.3141  1.0894  0.5688
 5126SOL    HW227015   2.465   1.966   5.597  0.5199 -0.9010  0.7367
 5127SOL     OW27016   2.429   1.218   3.834  0.6902  0.0241  0.3296
 5127SOL    HW127017   2.369   1.152   3.800 -0.2519 -0.5939  3.2002
 5127SOL    HW227018   2.505   1.161   3.825  2.3307  1.8328  2.5975
 5128SOL     OW27019   3.785   2.463   7.801 -0.2273 -0.6140  0.1629
 5128SOL    HW127020   3.745   2.549   7.816  1.1760  0.4648 -2.2566
 5128SOL    HW227021   3.835   2.449   7.882  0.6944  1.4338 -0.0454
 5129SOL     OW27022   1.330   2.627  16.102 -0.2562  0.0078  0.2640
 5129SOL    HW127023   1.353   2.606  16.192 -1.0539  0.9351  0.6852
 5129SOL    HW227024   1.241   2.593  16.109  0.1591 -1.1462 -0.1622
 5130SOL     OW27025   0.886   3.225   1.637 -0.4236  0.6552 -0.1162
 5130SOL    HW127026   0.890   3.265   1.550  1.8309  0.2177 -0.2228
 5130SOL    HW227027   0.825   3.153   1.622 -2.6277  2.5432 -0.1614
 5131SOL     OW27028   1.196   4.645  14.607  0.1461  0.1895  0.0556
 5131SOL    HW127029   1.249   4.673  14.533 -0.5441  0.4432 -0.3413
 5131SOL    HW227030   1.131   4.587  14.568 -0.0417 -0.6538  1.6238
 5132SOL     OW27031   2.418   2.305   8.502 -0.1271  0.3635 -0.3412
 5132SOL    HW127032   2.376   2.238   8.448  0.8878  0.3890 -1.1451
 5132SOL    HW227033   2.454   2.243   8.565 -0.2523 -1.0891 -1.7056
 5133SOL     OW27034   0.670   1.729   2.637  0.1914  0.2333 -0.2789
 5133SOL    HW127035   0.700   1.763   2.553  0.7334  1.2416  0.3303
 5133SOL    HW227036   0.576   1.713   2.626  0.5058 -1.3758 -0.6441
 5134SOL     OW27037   0.044   4.171  10.009 -0.2696  0.0915 -0.2694
 5134SOL    HW127038   4.728   4.096  10.033 -1.8915  1.4561  0.3473
 5134SOL    HW227039   0.088   4.195  10.090  1.1193  1.1420 -1.3454
 5135SOL     OW27040   4.706   3.175   7.388  0.6606  0.0730 -0.5327
 5135SOL    HW127041   0.063   3.184   7.394  0.6799  1.2046 -2.7585
 5135SOL    HW227042   4.677   3.264   7.371 -2.4627 -1.3095 -2.4470
 5136SOL     OW27043   3.717   3.075   6.183  0.0619  0.1781  0.3664
 5136SOL    HW127044   3.709   3.169   6.198 -1.6115  0.2094 -0.7053
 5136SOL    HW227045   3.642   3.039   6.230 -0.6376  1.2343  0.0491
 5137SOL     OW27046   0.560   2.882  12.349  0.1513  0.7310  0.1089
 5137SOL    HW127047   0.517   2.806  12.309 -0.0277  0.9587 -0.1244
 5137SOL    HW227048   0.578   2.944  12.278 -0.0333  1.8629  1.0562
 5138SOL     OW27049   3.976   2.229   1.246 -0.1757 -0.1784 -0.5175
 5138SOL    HW127050   4.020   2.314   1.239  0.6292 -0.3255  2.5264
 5138SOL    HW227051   3.883   2.249   1.247  0.3682  2.0519  2.9110
 5139SOL     OW27052   0.853   2.889   3.306  0.2256  0.1853  0.7182
 5139SOL    HW127053   0.929   2.870   3.361 -0.6138 -1.5994  1.2773
 5139SOL    HW227054   0.848   2.820   3.240 -0.9125 -0.4602  1.4789
 5140SOL     OW27055   2.896   4.018  11.239  0.1502  0.4455  0.6443
 5140SOL    HW127056   2.988   4.004  11.259  0.1163 -0.3581  0.2324
 5140SOL    HW227057   2.893   4.043  11.146  0.6094 -1.1765  0.2061
 5141SOL     OW27058   3.819   3.989   1.086 -0.1685  0.0170 -0.6265
 5141SOL    HW127059   3.889   4.054   1.084  0.2846 -0.4102  1.8907
 5141SOL    HW227060   3.821   3.973   1.180  2.8989 -0.1110 -0.7121
 5142SOL     OW27061   4.121   4.604  12.554  0.0693  0.2793  0.4018
 5142SOL    HW127062   4.184   4.665  12.591  2.1329 -0.4658 -1.8940
 5142SOL    HW227063   4.185   4.533  12.556 -1.3790 -0.9258  3.3436
 5143SOL     OW27064   1.959   3.070  13.473 -0.3264  0.6125  0.5688
 5143SOL    HW127065   1.901   3.033  13.540  1.4968 -1.7555  0.8416
 5143SOL    HW227066   2.045   3.073  13.514 -0.0698  1.7767 -0.0823
 5144SOL     OW27067   4.696   3.620   7.013 -0.3108 -0.3029 -0.2864
 5144SOL    HW127068   4.608   3.584   6.999 -0.3585 -0.1727 -0.3200
 5144SOL    HW227069   4.737   3.612   6.927 -0.3816  1.4687 -0.4769
 5145SOL     OW27070   3.808   3.314   8.141  0.1158 -0.5425 -0.0743
 5145SOL    HW127071   3.892   3.282   8.176  0.0753  0.3721  0.8630
 5145SOL    HW227072   3.803   3.381   8.208 -0.7358  0.0448 -0.7368
 5146SOL     OW27073   3.113   0.195   7.300 -0.1322 -0.1761 -0.9222
 5146SOL    HW127074   3.204   0.224   7.308  0.7334 -1.6296 -5.2725
 5146SOL    HW227075   3.090   0.182   7.392  2.9326 -1.1394 -0.2801
 5147SOL     OW27076   3.328   0.802   8.657 -0.1038  0.3028 -0.2954
 5147SOL    HW127077   3.265   0.856   8.705 -0.8237 -1.0276  0.2589
 5147SOL    HW227078   3.286   0.716   8.657 -0.4372  0.4592  0.5935
 5148SOL     OW27079   1.815   2.778   8.667  0.4831 -0.3404  0.0113
 5148SOL    HW127080   1.884   2.720   8.635  0.1443 -0.4091 -0.6027
 5148SOL    HW227081   1.774   2.722   8.733 -0.8422 -1.1634 -1.5001
 5149SOL     OW27082   1.719   1.097   4.302  0.6034 -0.5143  0.7306
 5149SOL    HW127083   1.762   1.013   4.283  1.1461  0.4794 -2.5042
 5149SOL    HW227084   1.793   1.147   4.337  1.1132 -1.3332  0.8458
 5150SOL     OW27085   3.860   3.412   4.088  0.7044 -0.7484 -0.0569
 5150SOL    HW127086   3.930   3.476   4.082  0.4293 -0.6183 -1.7532
 5150SOL    HW227087   3.807   3.445   4.161  2.1679 -0.2915  0.8030
 5151SOL     OW27088   0.406   1.724  15.325  0.1271  0.2539 -0.0022
 5151SOL    HW127089   0.354   1.775  15.262  0.2359 -0.8882 -1.0131
 5151SOL    HW227090   0.497   1.750  15.313  0.1451 -0.7395 -2.0487
 5152SOL     OW27091   1.684   3.481  16.146  0.1102 -0.0453 -0.3502
 5152SOL    HW127092   1.767   3.528  16.152 -0.1751  0.7863 -2.9364
 5152SOL    HW227093   1.703   3.442  16.061 -1.3446 -2.4594  0.4046
 5153SOL     OW27094   1.534   3.363   3.687  0.3175  0.1707 -0.3560
 5153SOL    HW127095   1.611   3.361   3.743 -0.8575  0.8051  1.3103
 5153SOL    HW227096   1.503   3.273   3.672  0.5830 -0.2975  1.9083
 5154SOL     OW27097   1.192   0.778  17.121 -0.1433  0.3933 -0.0123
 5154SOL    HW127098   1.222   0.803  17.208  2.3001  0.3502 -0.8545
 5154SOL    HW227099   1.277   0.752  17.086  0.2009 -1.5678  2.3449
 5155SOL     OW27100   1.963   3.323  14.319 -0.2998 -0.4555 -0.1032
 5155SOL    HW127101   1.985   3.240  14.361 -0.1158 -1.3731 -2.0280
 5155SOL    HW227102   2.030   3.384  14.350  0.2126 -1.9621  1.7308
 5156SOL     OW27103   0.093   1.058   9.815  0.6691  0.3138  0.4461
 5156SOL    HW127104   4.738   1.074   9.829  0.3077 -0.1597 -1.4347
 5156SOL    HW227105   0.124   1.139   9.855 -0.5338  2.2364 -2.4886
 5157SOL     OW27106   3.579   3.641   7.390  0.1957  0.1729  1.7662
 5157SOL    HW127107   3.500   3.601   7.427 -0.5970  0.4720  0.4202
 5157SOL    HW227108   3.646   3.579   7.418  0.8571  1.0950  2.2300
 5158SOL     OW27109   2.321   3.632   5.706  0.0505 -0.1797 -0.1787
 5158SOL    HW127110   2.276   3.619   5.789 -0.2710  0.9312 -0.1754
 5158SOL    HW227111   2.254   3.631   5.637 -0.8278 -1.1585  0.6814
 5159SOL     OW27112   2.641   3.758   2.469  0.5391  0.2392 -0.2344
 5159SOL    HW127113   2.610   3.685   2.522  4.2255 -1.5708 -0.5732
 5159SOL    HW227114   2.621   3.725   2.381  0.5265 -1.1477  0.2880
 5160SOL     OW27115   4.311   2.908   7.722 -0.2599  0.3690  0.1822
 5160SOL    HW127116   4.344   2.871   7.803  1.0509 -1.2471 -1.0780
 5160SOL    HW227117   4.385   2.962   7.694 -0.5275  1.4633  1.6310
 5161SOL     OW27118   3.671   4.246   4.052 -0.2231 -0.3152  0.1261
 5161SOL    HW127119   3.737   4.193   4.098 -0.6062 -0.1761  0.8391
 5161SOL    HW227120   3.718   4.329   4.044  0.7563 -1.0021 -1.2871
 5162SOL     OW27121   2.602   0.852  15.223 -0.2411  0.3569  0.4905
 5162SOL    HW127122   2.628   0.790  15.154  1.4315  2.9180 -1.1892
 5162SOL    HW227123   2.600   0.925  15.162  2.0792  0.1472  0.1835
 5163SOL     OW27124   3.678   4.206   6.278 -0.2775 -0.2711  0.1234
 5163SOL    HW127125   3.637   4.249   6.203  0.5265  0.3508  0.0345
 5163SOL    HW227126   3.764   4.187   6.240 -0.9445 -1.3643 -0.8244
 5164SOL     OW27127   3.670   0.441   6.467  0.1668 -0.5857  0.3441
 5164SOL    HW127128   3.675   0.443   6.562 -2.9414 -0.6799  0.5004
 5164SOL    HW227129   3.762   0.417   6.454 -0.2286 -1.5850 -0.6261
 5165SOL     OW27130   0.460   3.571   7.871 -0.0469  0.6078  0.5732
 5165SOL    HW127131   0.428   3.538   7.955  0.4675 -0.5750  0.3157
 5165SOL    HW227132   0.447   3.663   7.891 -0.5614  1.1905 -2.3435
 5166SOL     OW27133   3.743   3.342   0.337  0.0011 -0.4289  0.2617
 5166SOL    HW127134   3.803   3.333   0.410 -1.1106 -2.2765  0.9439
 5166SOL    HW227135   3.719   3.435   0.338  0.4270 -0.2641 -3.5513
 5167SOL     OW27136   1.091   4.262   1.322 -0.4371  0.1045  0.4280
 5167SOL    HW127137   1.034   4.186   1.313  1.6772 -1.2561 -1.3305
 5167SOL    HW227138   1.033   4.326   1.364  0.4819  1.8177 -0.9047
 5168SOL     OW27139   0.863   0.425   5.723  0.3015  1.0117 -0.0016
 5168SOL    HW127140   0.955   0.401   5.709 -0.0237  0.6105 -1.4297
 5168SOL    HW227141   0.825   0.378   5.797  1.6903 -1.0882 -0.6319
 5169SOL     OW27142   4.287   0.891  12.999  0.3379 -0.1869 -0.6105
 5169SOL    HW127143   4.281   0.850  12.913 -0.1470 -1.0918 -0.1491
 5169SOL    HW227144   4.361   0.848  13.042  2.2329  0.6759 -3.0281
 5170SOL     OW27145   1.094   4.206   5.770  0.1132 -0.4404 -0.0284
 5170SOL    HW127146   1.025   4.157   5.814 -0.2409  1.3636  1.4720
 5170SOL    HW227147   1.137   4.139   5.717 -1.3278 -0.9468 -0.5518
 5171SOL     OW27148   0.270   3.450   1.888 -0.3421  0.6033  0.3275
 5171SOL    HW127149   0.336   3.392   1.849 -0.0730  0.3033  1.2328
 5171SOL    HW227150   0.188   3.403   1.873 -0.7098  1.3461 -0.0277
 5172SOL     OW27151   4.447   0.961   2.977 -0.1986 -0.0150 -0.6374
 5172SOL    HW127152   4.354   0.939   2.968  0.0026 -1.0592 -0.2105
 5172SOL    HW227153   4.461   0.991   3.067 -0.2848 -0.5515 -0.4421
 5173SOL     OW27154   0.207   2.144   1.641  0.0348 -0.1224 -0.2106
 5173SOL    HW127155   0.296   2.132   1.607  0.6176  1.9821  0.5629
 5173SOL    HW227156   0.199   2.238   1.621 -0.7925  0.3204  2.1870
 5174SOL     OW27157   2.894   0.567   7.289  0.2649  0.0550  0.7692
 5174SOL    HW127158   2.848   0.484   7.284  0.5415 -0.0477 -0.0728
 5174SOL    HW227159   2.819   0.624   7.308 -0.2363 -0.5056  0.4591
 5175SOL     OW27160   4.317   0.898   9.525 -0.0238  0.2540  0.2916
 5175SOL    HW127161   4.371   0.966   9.565  0.8020 -0.1471 -0.1425
 5175SOL    HW227162   4.234   0.912   9.571  1.4065  1.3685  2.5297
 5176SOL     OW27163   2.336   0.563  11.974 -0.1033 -0.1050 -0.2090
 5176SOL    HW127164   2.377   0.551  12.060 -0.2160  0.8053 -0.0325
 5176SOL    HW227165   2.376   0.488  11.930 -2.0474 -0.6753 -0.9997
 5177SOL     OW27166   1.430   0.135   3.608 -0.2933  0.2347 -0.0846
 5177SOL    HW127167   1.421   0.214   3.554 -0.7130  0.0409 -0.2996
 5177SOL    HW227168   1.394   0.062   3.557  2.4475 -0.1843 -1.4081
 5178SOL     OW27169   0.986   0.745   8.663  0.4632 -0.5084  0.4236
 5178SOL    HW127170   0.985   0.828   8.616 -0.2724 -1.9187 -2.0577
 5178SOL    HW227171   1.079   0.721   8.663  0.7172  0.5185  1.6321
 5179SOL     OW27172   2.764   1.392  12.344  0.0117  0.1365 -0.6414
 5179SOL    HW127173   2.686   1.377  12.396  0.3464  2.8600  0.6472
 5179SOL    HW227174   2.754   1.326  12.275  2.7303 -0.5999 -0.3216
 5180SOL     OW27175   2.625   2.997   5.038  0.2245  0.4185 -0.4306
 5180SOL    HW127176   2.713   2.962   5.027  0.0227  0.3704 -1.8570
 5180SOL    HW227177   2.635   3.085   5.003 -0.7710 -0.3148 -2.6020
 5181SOL     OW27178   4.426   4.515  12.572 -0.0278 -0.0351  0.0581
 5181SOL    HW127179   4.396   4.489  12.485 -0.6964 -0.2729  0.3608
 5181SOL    HW227180   4.496   4.449  12.578  1.7820  1.7907 -1.0408
 5182SOL     OW27181   1.730   0.488   3.509 -0.0693 -0.3166 -0.1145
 5182SOL    HW127182   1.654   0.438   3.478  1.7103 -0.8518 -3.6738
 5182SOL    HW227183   1.714   0.571   3.465  1.3405  0.2584  0.4503
 5183SOL     OW27184   1.417   3.857   8.766 -0.0282 -0.0594 -0.1713
 5183SOL    HW127185   1.421   3.771   8.724  0.1942 -0.9852  1.7501
 5183SOL    HW227186   1.332   3.884   8.731 -1.0211  0.0404  2.3039
 5184SOL     OW27187   0.339   0.376  12.352  0.4499  0.3830  0.4601
 5184SOL    HW127188   0.375   0.428  12.280  1.2887 -0.9571 -0.0868
 5184SOL    HW227189   0.405   0.312  12.377 -0.0711  0.3786  1.7794
 5185SOL     OW27190   0.353   0.199  15.360 -0.1033  0.5858 -0.0058
 5185SOL    HW127191   0.306   0.133  15.309  0.6757 -0.5849  0.7976
 5185SOL    HW227192   0.290   0.211  15.431  1.2061 -2.3056  1.6457
 5186SOL     OW27193   3.885   3.053   5.266 -0.7452 -0.3122 -0.1726
 5186SOL    HW127194   3.964   3.092   5.304 -0.0997 -2.9515  1.1727
 5186SOL    HW227195   3.923   2.972   5.233 -1.2806 -0.8521  0.5266
 5187SOL     OW27196   1.302   1.745   2.717  0.6587 -0.1224  0.0531
 5187SOL    HW127197   1.235   1.700   2.665  0.3768  1.4847 -0.9913
 5187SOL    HW227198   1.304   1.815   2.651  2.1451  1.5234  1.8472
 5188SOL     OW27199   1.470   4.041   2.786  0.3096  0.1166  0.3047
 5188SOL    HW127200   1.397   4.102   2.799 -0.5865 -0.6348 -1.1048
 5188SOL    HW227201   1.422   3.963   2.756 -1.3277  1.7762 -1.3787
 5189SOL     OW27202   0.012   2.371   1.675 -0.0446  0.4501  0.3216
 5189SOL    HW127203   0.027   2.446   1.733  0.8200  0.0276  0.6342
 5189SOL    HW227204   0.074   2.402   1.609 -0.4181 -0.7269 -0.5840
 5190SOL     OW27205   1.316   4.690   8.484 -0.1393 -0.5809 -0.8098
 5190SOL    HW127206   1.253   4.659   8.419 -1.1269  0.1070 -0.1786
 5190SOL    HW227207   1.307   0.047   8.489 -1.3623 -0.7296 -0.0079
 5191SOL     OW27208   1.004   0.191   4.112  0.1622  0.3584  0.3232
 5191SOL    HW127209   1.084   0.167   4.065  1.1107 -0.5884  2.3985
 5191SOL    HW227210   0.960   0.107   4.095  0.7945 -0.4022  2.4368
 5192SOL     OW27211   1.281   3.082   3.300 -0.3851  0.0661 -0.9455
 5192SOL    HW127212   1.194   3.122   3.297 -0.5353 -0.2085 -0.3125
 5192SOL    HW227213   1.321   3.168   3.285  0.0373  0.0714  0.1833
 5193SOL     OW27214   2.077   3.702   8.116  0.0269  0.4054  0.5408
 5193SOL    HW127215   2.017   3.630   8.136 -0.5603  0.8738  0.4440
 5193SOL    HW227216   2.095   3.725   8.207 -1.8664 -1.5377  1.4046
 5194SOL     OW27217   0.231   3.628  15.044  0.3688  0.0621 -0.7434
 5194SOL    HW127218   0.307   3.630  15.102  0.9238  1.5006 -1.5145
 5194SOL    HW227219   0.158   3.633  15.106 -0.3420 -1.2040 -1.4744
 5195SOL     OW27220   2.946   0.047   9.092  0.1396 -0.0023  0.8592
 5195SOL    HW127221   2.986   0.038   9.178  0.1213  0.4628  0.9140
 5195SOL    HW227222   2.861   0.008   9.112  0.8723 -2.0895 -0.0692
 5196SOL     OW27223   4.609   0.319   1.794 -0.2022 -0.5549 -0.4014
 5196SOL    HW127224   4.536   0.258   1.808 -1.3326  0.9820  0.3224
 5196SOL    HW227225   4.592   0.386   1.860  1.4306  0.7940 -1.3293
 5197SOL     OW27226   2.909   0.216  16.870 -0.7245  0.4828 -0.6376
 5197SOL    HW127227   2.896   0.204  16.776 -1.3779  0.7508 -0.5784
 5197SOL    HW227228   2.824   0.256  16.883 -0.1603  1.4623 -0.0121
 5198SOL     OW27229   4.579   3.794   5.249 -0.0415 -0.3485 -0.3875
 5198SOL    HW127230   4.611   3.788   5.159 -2.0679 -0.9202 -1.0797
 5198SOL    HW227231   4.565   3.703   5.276  0.5846 -0.9209 -1.9678
 5199SOL     OW27232   2.450   3.328   3.944 -0.0054  0.7193 -0.3414
 5199SOL    HW127233   2.522   3.360   3.998  0.6624 -0.9126 -0.2733
 5199SOL    HW227234   2.380   3.392   3.960  1.5500  1.8854  1.9156
 5200SOL     OW27235   2.600   3.983   4.149 -0.0376 -0.5673 -0.2103
 5200SOL    HW127236   2.534   3.976   4.218  0.7463 -0.6974  0.5249
 5200SOL    HW227237   2.546   3.979   4.071 -1.1759  0.3954  0.5229
 5201SOL     OW27238   4.232   4.653   1.623  0.2310 -0.7905  0.2866
 5201SOL    HW127239   4.265   4.722   1.565 -2.6546  0.1085 -0.3161
 5201SOL    HW227240   4.295   4.667   1.694 -0.1061 -0.5641  0.5404
 5202SOL     OW27241   2.750   1.699   4.787  0.0786 -0.3184 -0.2562
 5202SOL    HW127242   2.810   1.744   4.847 -2.1024 -1.0667  2.4433
 5202SOL    HW227243   2.817   1.695   4.719  3.4190  0.0342  3.0026
 5203SOL     OW27244   3.844   3.440   0.678 -0.9041 -0.4949  0.3124
 5203SOL    HW127245   3.786   3.505   0.718  0.3009  0.6017  0.2836
 5203SOL    HW227246   3.925   3.490   0.686  0.9131 -3.4949  0.6426
 5204SOL     OW27247   3.507   2.009   2.142  0.5713 -0.7524 -0.0498
 5204SOL    HW127248   3.479   1.938   2.200  2.1736 -0.5577  0.9590
 5204SOL    HW227249   3.519   1.961   2.060  1.4322  1.1583 -1.0411
 5205SOL     OW27250   2.401   0.665   4.272 -0.0541 -0.5197 -0.2122
 5205SOL    HW127251   2.436   0.627   4.192  0.3284  1.0511 -0.7841
 5205SOL    HW227252   2.315   0.623   4.280 -0.2043 -0.5897 -2.4048
 5206SOL     OW27253   3.649   2.891   4.297 -0.1996  0.6533  0.5223
 5206SOL    HW127254   3.606   2.961   4.346 -1.9381  1.4181 -2.1119
 5206SOL    HW227255   3.659   2.930   4.210  0.9621 -0.2343  0.2598
 5207SOL     OW27256   2.078   4.317   2.550  0.8593  0.0173 -0.7037
 5207SOL    HW127257   2.115   4.234   2.522  0.8434 -0.1053 -0.3567
 5207SOL    HW227258   2.156   4.354   2.592  0.8194  0.6208 -1.1663
 5208SOL     OW27259   0.289   2.667   7.346  0.2490 -0.0388 -0.5865
 5208SOL    HW127260   0.374   2.710   7.336  1.2292 -1.4053  1.8791
 5208SOL    HW227261   0.278   2.620   7.264  3.4472  0.2450 -1.1639
 5209SOL     OW27262   4.561   4.182  16.879 -0.0578 -0.0305 -0.2963
 5209SOL    HW127263   4.474   4.211  16.908 -0.2547  0.1516 -1.0713
 5209SOL    HW227264   4.607   4.265  16.890 -0.5884  0.0504  1.2743
 5210SOL     OW27265   2.025   0.327   3.419 -0.1006 -0.0832  0.5728
 5210SOL    HW127266   1.975   0.369   3.489  2.1639  0.1810  2.0347
 5210SOL    HW227267   2.107   0.296   3.458 -1.8060 -2.6367  2.1203
 5211SOL     OW27268   1.154   0.590   0.537 -0.1939 -0.0970  0.5399
 5211SOL    HW127269   1.131   0.517   0.479 -1.8267 -0.9683  2.3009
 5211SOL    HW227270   1.185   0.651   0.471  0.5206 -1.6297 -0.5357
 5212SOL     OW27271   4.176   0.497   1.450 -0.8434 -0.2438 -0.4913
 5212SOL    HW127272   4.160   0.458   1.364 -0.3186  1.8140 -1.5188
 5212SOL    HW227273   4.085   0.516   1.473 -0.1340  1.4716  0.9074
 5213SOL     OW27274   2.328   1.503   3.111 -0.2633 -0.4452  0.5006
 5213SOL    HW127275   2.268   1.510   3.185 -1.6358  0.8269 -0.7360
 5213SOL    HW227276   2.344   1.597   3.100 -1.6006 -0.3006 -0.1389
 5214SOL     OW27277   1.307   4.098  16.217  0.1780  0.1178 -0.5686
 5214SOL    HW127278   1.304   4.018  16.165 -3.1481 -0.4474  0.5222
 5214SOL    HW227279   1.375   4.077  16.282 -1.2507 -0.9601  0.5670
 5215SOL     OW27280   1.559   0.232   8.140 -0.1665  0.0113 -0.3733
 5215SOL    HW127281   1.552   0.322   8.174 -0.1785 -0.3110  0.4697
 5215SOL    HW227282   1.615   0.258   8.066  1.8735 -0.4640  1.0027
 5216SOL     OW27283   1.068   0.042  14.780 -0.7376  0.3664 -0.4826
 5216SOL    HW127284   1.117   4.723  14.721  0.5967  0.4764  0.5095
 5216SOL    HW227285   1.137   0.045  14.846  0.8519  0.4748 -2.1605
 5217SOL     OW27286   0.147   3.532  13.747 -0.5939  0.2664 -0.2649
 5217SOL    HW127287   0.080   3.507  13.810 -0.6643 -0.8690 -0.7824
 5217SOL    HW227288   0.231   3.503  13.783 -0.9471 -1.2210 -0.6262
 5218SOL     OW27289   0.761   3.719   2.504  0.3282 -0.2572  0.2261
 5218SOL    HW127290   0.817   3.751   2.433 -0.9756 -0.0915 -0.7351
 5218SOL    HW227291   0.710   3.798   2.522 -1.0019 -0.8009 -1.1091
 5219SOL     OW27292   2.675   1.217  10.093 -0.1493 -0.8537 -0.4284
 5219SOL    HW127293   2.613   1.251  10.158 -0.4195 -1.8414 -0.1701
 5219SOL    HW227294   2.755   1.215  10.146 -1.6869 -2.6234  1.8012
 5220SOL     OW27295   0.815   4.453  16.689  0.1184 -0.2504  0.2191
 5220SOL    HW127296   0.823   4.360  16.709 -2.1901  0.1901  3.1371
 5220SOL    HW227297   0.835   4.455  16.595  1.0907  0.5969  0.4365
 5221SOL     OW27298   0.421   2.121  13.679  0.2668  0.1605 -0.1150
 5221SOL    HW127299   0.437   2.041  13.729  0.6807  0.2451 -0.1161
 5221SOL    HW227300   0.329   2.096  13.664  0.7837  0.0772 -3.1263
 5222SOL     OW27301   2.407   0.875   7.740  0.1626  0.1310 -0.1294
 5222SOL    HW127302   2.419   0.944   7.675  1.2800  1.7266  1.7625
 5222SOL    HW227303   2.315   0.895   7.753  0.4132  1.2734 -0.1701
 5223SOL     OW27304   4.694   0.161   8.443 -0.2021  0.3179  0.8731
 5223SOL    HW127305   0.029   0.149   8.504  0.4027 -0.1843  0.0602
 5223SOL    HW227306   4.630   0.196   8.505 -2.7152 -2.2085 -0.3045
 5224SOL     OW27307   2.122   3.881   6.564  0.2802 -0.3055  0.0418
 5224SOL    HW127308   2.099   3.818   6.633 -0.8645 -2.0727 -1.9525
 5224SOL    HW227309   2.087   3.825   6.495 -1.4553 -1.6381  1.9911
 5225SOL     OW27310   0.047   0.138  12.343  0.4836 -0.6287 -0.2276
 5225SOL    HW127311   0.047   0.052  12.385  0.1004 -1.3406 -1.6952
 5225SOL    HW227312   4.692   0.159  12.340  0.6232  0.1757  1.2388
 5226SOL     OW27313   3.959   3.824   6.394  0.9220  0.2129  0.4906
 5226SOL    HW127314   4.035   3.848   6.447  0.2096  0.4847  1.3805
 5226SOL    HW227315   3.973   3.893   6.328  2.1308 -1.6007 -1.1535
 5227SOL     OW27316   0.168   3.299   7.572 -0.0212  0.2897  0.7791
 5227SOL    HW127317   0.181   3.221   7.519  0.9204 -0.2536  1.7916
 5227SOL    HW227318   0.238   3.355   7.540  0.3261 -0.3521  0.4293
 5228SOL     OW27319   1.577   2.254   4.434  0.0734  0.1752 -0.6730
 5228SOL    HW127320   1.578   2.177   4.378 -0.3674  0.6586 -1.3445
 5228SOL    HW227321   1.549   2.213   4.515 -1.2541 -1.7130 -2.1174
 5229SOL     OW27322   0.422   4.543   6.605  0.6210  0.2822  0.0538
 5229SOL    HW127323   0.510   4.553   6.642 -0.2858 -0.8164  2.5052
 5229SOL    HW227324   0.389   4.630   6.628 -0.2060  0.0224 -0.1339
 5230SOL     OW27325   4.512   2.741  14.386  0.1040 -0.2676 -0.1554
 5230SOL    HW127326   4.445   2.677  14.409 -2.0407  2.2757  0.7463
 5230SOL    HW227327   4.562   2.708  14.312  0.7257 -0.7531  0.4822
 5231SOL     OW27328   2.067   4.719  10.048 -0.0923  0.0313  0.1905
 5231SOL    HW127329   2.032   4.630  10.046  0.5043 -0.1927 -0.7152
 5231SOL    HW227330   1.999   0.021  10.101  0.0211  1.9436 -1.1114
 5232SOL     OW27331   1.722   2.006   8.172 -0.2026 -0.7428 -0.1065
 5232SOL    HW127332   1.751   2.096   8.184 -0.4237 -0.3288 -2.6805
 5232SOL    HW227333   1.720   1.991   8.078 -2.5745  0.4507 -0.2597
 5233SOL     OW27334   3.704   1.817   8.238  0.2959 -0.2837  0.1103
 5233SOL    HW127335   3.623   1.867   8.249  0.6618  0.0575  1.2724
 5233SOL    HW227336   3.707   1.763   8.317 -0.4497 -2.9493 -1.6523
 5234SOL     OW27337   1.375   1.173   1.280 -0.4477  0.1358 -0.0714
 5234SOL    HW127338   1.420   1.244   1.232  0.0509 -1.0671 -1.3805
 5234SOL    HW227339   1.449   1.116   1.298  0.4567  0.5775 -2.3746
 5235SOL     OW27340   1.767   2.027  11.572  0.4398 -0.0092  0.6663
 5235SOL    HW127341   1.742   2.064  11.488 -0.6482 -0.7751  0.6506
 5235SOL    HW227342   1.850   1.981  11.559  0.4549  0.3571 -0.4838
 5236SOL     OW27343   3.152   4.349   8.859  0.1396  0.9970 -0.2025
 5236SOL    HW127344   3.244   4.362   8.839  0.4109 -1.1145 -0.3071
 5236SOL    HW227345   3.123   4.437   8.881  2.2901  2.1486 -2.0215
 5237SOL     OW27346   0.021   2.634   5.682  0.4095 -0.1312  0.2661
 5237SOL    HW127347   4.678   2.634   5.632  0.6667 -0.8015 -0.1341
 5237SOL    HW227348   4.721   2.628   5.770 -2.7477  0.1242 -1.0697
 5238SOL     OW27349   4.246   3.741   2.018  0.6448  0.2072  0.0443
 5238SOL    HW127350   4.234   3.651   2.047 -0.7110  0.8616  1.4909
 5238SOL    HW227351   4.184   3.793   2.069 -0.7467 -1.0224 -0.4026
 5239SOL     OW27352   3.354   3.882  12.370 -0.4690 -0.7989  0.6960
 5239SOL    HW127353   3.314   3.843  12.448 -1.8221 -1.9223 -0.5889
 5239SOL    HW227354   3.447   3.869  12.390 -0.6213 -0.8646  1.3826
 5240SOL     OW27355   4.455   0.855   4.405  0.1926 -0.7421  0.7080
 5240SOL    HW127356   4.396   0.840   4.479  1.7294 -1.0244  1.8765
 5240SOL    HW227357   4.532   0.842   4.462 -0.5362 -0.2893  1.8044
 5241SOL     OW27358   0.609   2.922   4.651 -0.0886 -0.2488 -0.5167
 5241SOL    HW127359   0.677   2.988   4.640  0.7328 -1.2390 -1.4209
 5241SOL    HW227360   0.586   2.962   4.735  1.7348  0.9157 -0.5686
 5242SOL     OW27361   0.742   1.464  16.929  0.6575  0.0559 -0.2530
 5242SOL    HW127362   0.796   1.420  16.995 -2.0974 -0.3190  1.7772
 5242SOL    HW227363   0.651   1.455  16.959  1.3597 -1.3994  1.4330
 5243SOL     OW27364   2.714   3.951   5.043 -0.0111 -0.1114 -0.5771
 5243SOL    HW127365   2.692   3.881   5.104  0.4860 -0.0385 -0.3165
 5243SOL    HW227366   2.706   4.026   5.101 -1.1662  0.3466 -1.3307
 5244SOL     OW27367   3.947   4.030  16.094  0.9283  0.3572  0.2882
 5244SOL    HW127368   4.003   4.093  16.139  1.7801 -0.1398 -0.0620
 5244SOL    HW227369   4.018   3.971  16.066 -0.0052 -0.8120  0.3815
 5245SOL     OW27370   4.281   1.307  16.579 -0.3693 -0.3088 -0.2692
 5245SOL    HW127371   4.254   1.371  16.513  1.3927 -1.7337 -2.3903
 5245SOL    HW227372   4.351   1.355  16.623 -1.2287  0.1787  0.5407
 5246SOL     OW27373   0.660   4.387   8.799 -0.3581 -0.6737  0.6106
 5246SOL    HW127374   0.701   4.414   8.717  1.1095  0.0771  1.6061
 5246SOL    HW227375   0.607   4.311   8.774  0.9926 -0.6143 -2.4737
 5247SOL     OW27376   1.554   4.101   1.916 -0.5917  0.1563 -0.0197
 5247SOL    HW127377   1.535   4.044   1.990 -2.1505  1.8432  0.8612
 5247SOL    HW227378   1.637   4.140   1.941  0.9035 -2.4134 -0.9904
 5248SOL     OW27379   2.651   1.481   5.340 -0.2263 -0.0530  0.4994
 5248SOL    HW127380   2.665   1.575   5.344 -0.5964 -0.0422  1.6884
 5248SOL    HW227381   2.616   1.452   5.424 -0.1421  0.6651  0.7789
 5249SOL     OW27382   0.986   1.892   8.391 -0.5992 -0.8592 -0.2521
 5249SOL    HW127383   1.079   1.869   8.395 -0.7965 -2.0578 -2.5484
 5249SOL    HW227384   0.991   1.974   8.341  0.3975 -1.4439 -1.1087
 5250SOL     OW27385   3.537   0.333   4.922 -0.4738 -0.5458 -0.3422
 5250SOL    HW127386   3.528   0.237   4.919 -0.8054 -0.5606  1.3805
 5250SOL    HW227387   3.453   0.363   4.956 -0.4631 -1.1680  0.2375
 5251SOL     OW27388   0.371   0.871   0.937 -0.6430  0.3673  0.3155
 5251SOL    HW127389   0.295   0.829   0.976  0.9414 -1.5070  1.4339
 5251SOL    HW227390   0.434   0.803   0.913 -1.5021 -0.2323 -0.1862
 5252SOL     OW27391   3.265   3.570  14.772  0.0660 -0.8403  0.0183
 5252SOL    HW127392   3.236   3.512  14.842 -2.0577  1.4159  0.9823
 5252SOL    HW227393   3.194   3.555  14.710  0.5764  1.5723 -1.1536
 5253SOL     OW27394   2.001   0.162   6.691  0.3500  0.5836  0.2937
 5253SOL    HW127395   1.972   0.215   6.616 -2.4886  1.0985  1.7478
 5253SOL    HW227396   2.058   0.101   6.645  0.4928  2.0666 -1.5081
 5254SOL     OW27397   0.191   0.605  17.138  0.4741  0.6425 -0.0121
 5254SOL    HW127398   0.149   0.684  17.170 -0.7309  0.6358 -1.5808
 5254SOL    HW227399   0.159   0.608  17.048  0.6572 -1.2150 -0.1381
 5255SOL     OW27400   1.534   2.975   8.472  0.2962 -0.3585 -0.0487
 5255SOL    HW127401   1.475   3.045   8.501  0.9804  0.7358 -1.3049
 5255SOL    HW227402   1.473   2.902   8.465 -1.5884  1.0665  1.5816
 5256SOL     OW27403   3.520   0.202  11.168 -0.6533  0.2114 -0.5878
 5256SOL    HW127404   3.497   0.290  11.139 -1.2935  0.2010 -0.1207
 5256SOL    HW227405   3.532   0.230  11.259  2.5879  0.0817 -0.9735
 5257SOL     OW27406   0.756   2.260  15.689  0.0464 -0.4367  0.2901
 5257SOL    HW127407   0.766   2.224  15.777 -1.8563 -1.7812 -0.0449
 5257SOL    HW227408   0.793   2.348  15.703 -0.2661 -0.4473  1.1944
 5258SOL     OW27409   2.469   1.789   4.282  0.1945  0.1568 -0.5844
 5258SOL    HW127410   2.402   1.854   4.261  0.1886  0.2872 -0.1474
 5258SOL    HW227411   2.443   1.712   4.231 -3.7836 -0.5041  2.4606
 5259SOL     OW27412   3.866   1.981  11.665 -0.3055 -0.1709  0.2108
 5259SOL    HW127413   3.862   2.075  11.650 -0.1646 -0.1990 -0.0118
 5259SOL    HW227414   3.952   1.971  11.706  0.2160  1.4602 -0.4983
 5260SOL     OW27415   1.358   3.531   3.861  0.6103 -0.3313 -0.1752
 5260SOL    HW127416   1.422   3.545   3.791 -0.4263 -0.7483 -1.1976
 5260SOL    HW227417   1.406   3.495   3.935  1.5646 -1.6648 -1.4578
 5261SOL     OW27418   2.984   3.517   2.102 -0.4025  0.1594 -0.4456
 5261SOL    HW127419   2.967   3.597   2.152 -1.6452 -1.0618  1.0801
 5261SOL    HW227420   2.937   3.454   2.156 -0.1787 -0.7758 -1.3324
 5262SOL     OW27421   4.008   2.840  13.058  0.4145  0.9037 -0.2943
 5262SOL    HW127422   4.033   2.902  13.127  0.4942 -0.4081  0.8602
 5262SOL    HW227423   4.055   2.880  12.985 -1.4138  3.1994 -0.1992
 5263SOL     OW27424   3.774   0.212   1.761 -0.3438 -0.1896  0.4585
 5263SOL    HW127425   3.816   0.265   1.829  2.0304 -2.0512  0.4726
 5263SOL    HW227426   3.685   0.232   1.790  0.6772  0.6271  3.0356
 5264SOL     OW27427   1.091   0.340   0.432 -0.0927 -0.0903 -0.3164
 5264SOL    HW127428   1.147   0.294   0.370 -2.9465 -1.4286 -1.8776
 5264SOL    HW227429   1.065   0.274   0.496 -1.6921  0.1161 -0.7566
 5265SOL     OW27430   2.413   2.334   7.005 -0.3478  0.4338  0.5138
 5265SOL    HW127431   2.363   2.344   6.924  1.5724  0.2161 -0.6960
 5265SOL    HW227432   2.432   2.428   7.001 -0.9546  0.4814 -1.3666
 5266SOL     OW27433   3.013   3.199  16.192  0.0326  0.2808 -0.0897
 5266SOL    HW127434   3.072   3.263  16.152  0.1650  1.4148  1.9461
 5266SOL    HW227435   2.929   3.245  16.187 -0.4882 -0.6478  0.2032
 5267SOL     OW27436   0.607   4.723   7.038  0.1832  0.0545  0.2818
 5267SOL    HW127437   0.573   4.634   7.051  1.2808 -0.6578 -1.8306
 5267SOL    HW227438   0.672   4.722   7.108 -0.3381  2.6133  0.8297
 5268SOL     OW27439   2.847   3.565   2.874  0.5632 -0.3212  0.2831
 5268SOL    HW127440   2.759   3.595   2.893  0.9252  0.0695  1.3204
 5268SOL    HW227441   2.871   3.631   2.808 -0.0712 -1.3275 -0.9536
 5269SOL     OW27442   1.439   3.732   2.962  0.1134 -0.3246  0.0308
 5269SOL    HW127443   1.346   3.754   2.973  0.0946  0.8701 -2.4422
 5269SOL    HW227444   1.479   3.819   2.965 -0.5775 -0.0464  1.1878
 5270SOL     OW27445   2.456   2.799   1.907 -0.1231 -0.1804  0.0781
 5270SOL    HW127446   2.516   2.740   1.953  0.7336 -0.9346 -1.9933
 5270SOL    HW227447   2.434   2.865   1.972  0.4239  0.7776 -0.7055
 5271SOL     OW27448   0.040   2.952   7.137 -0.4774  0.5177 -0.1597
 5271SOL    HW127449   0.133   2.974   7.137  0.0125 -1.5442 -0.6283
 5271SOL    HW227450   0.036   2.888   7.208  3.3601  1.0124  0.5127
 5272SOL     OW27451   3.838   2.012   5.989  0.2722  0.1441 -0.0732
 5272SOL    HW127452   3.893   1.970   6.055 -0.7051  0.1889  0.7764
 5272SOL    HW227453   3.838   1.961   5.909  0.1583 -0.4276  0.2919
 5273SOL     OW27454   0.538   4.475   4.560 -0.0699  0.3591 -0.4189
 5273SOL    HW127455   0.619   4.516   4.529 -0.0231  0.5464 -0.0525
 5273SOL    HW227456   0.503   4.554   4.601  0.4296  1.4959 -2.1514
 5274SOL     OW27457   1.562   1.530   7.485 -0.2660  0.1976 -0.1580
 5274SOL    HW127458   1.631   1.528   7.551  1.4698  1.0584 -1.9521
 5274SOL    HW227459   1.597   1.463   7.426 -0.7345 -0.4649  0.3079
 5275SOL     OW27460   2.767   2.664   0.892  0.2701  0.2262 -0.1379
 5275SOL    HW127461   2.781   2.758   0.904  2.8311 -0.2904  0.9123
 5275SOL    HW227462   2.855   2.634   0.871 -0.3648 -2.1515  0.5522
 5276SOL     OW27463   1.655   1.581  14.877 -0.0645  0.1489  0.9838
 5276SOL    HW127464   1.674   1.664  14.835  0.9193  0.2787  1.6633
 5276SOL    HW227465   1.562   1.589  14.896 -0.5427  0.3457 -1.5311
 5277SOL     OW27466   1.405   4.699   5.987 -0.2163  0.3765 -0.4857
 5277SOL    HW127467   1.468   4.652   5.932 -2.1537 -2.2756 -0.4468
 5277SOL    HW227468   1.326   4.655   5.955 -1.2692  0.0320  2.5909
 5278SOL     OW27469   1.287   1.464   1.686 -0.2584  0.1230 -0.0013
 5278SOL    HW127470   1.275   1.376   1.721  1.2982 -0.7681 -1.6993
 5278SOL    HW227471   1.220   1.463   1.617 -1.2978  0.2540  1.0080
 5279SOL     OW27472   1.762   3.026  13.977 -0.1666 -0.2933 -0.0175
 5279SOL    HW127473   1.757   2.956  14.043  0.7070 -0.5328 -0.2124
 5279SOL    HW227474   1.820   3.095  14.011 -0.6994 -0.0696  0.4507
 5280SOL     OW27475   2.000   2.889   7.578 -0.0694  0.3009  0.6944
 5280SOL    HW127476   1.917   2.869   7.620 -0.9313 -0.2426 -1.2549
 5280SOL    HW227477   2.063   2.852   7.640 -0.4614 -1.3443  0.1120
 5281SOL     OW27478   1.575   0.921   7.954  0.0942 -0.2847  0.2380
 5281SOL    HW127479   1.649   0.960   8.000  1.4607 -1.6996 -0.7651
 5281SOL    HW227480   1.604   0.944   7.866 -0.2031 -0.5747  0.0662
 5282SOL     OW27481   0.432   3.342   8.684 -0.5138  0.3601 -0.4367
 5282SOL    HW127482   0.468   3.278   8.745  0.0310 -0.0696 -1.2088
 5282SOL    HW227483   0.338   3.338   8.704  0.1901  1.5982  3.0254
 5283SOL     OW27484   2.327   3.243   4.901  0.4443 -0.1911 -0.0062
 5283SOL    HW127485   2.361   3.154   4.901  1.8160  0.3445  0.0833
 5283SOL    HW227486   2.341   3.263   4.993  1.5872  1.8525 -0.6303
 5284SOL     OW27487   3.441   0.477  10.554  0.4605 -0.7575 -0.1630
 5284SOL    HW127488   3.477   0.468  10.643  0.2444  0.0786  0.0139
 5284SOL    HW227489   3.347   0.476  10.571  0.4320  0.1836 -0.2283
 5285SOL     OW27490   2.910   4.125   7.822 -0.2461  0.3127 -0.1214
 5285SOL    HW127491   2.971   4.168   7.762 -0.8756  0.6793 -0.4950
 5285SOL    HW227492   2.968   4.066   7.871 -0.8905  0.9709  1.4363
 5286SOL     OW27493   4.721   4.402   5.788  0.0110 -0.4307  0.3509
 5286SOL    HW127494   0.013   4.460   5.718  0.3127 -0.1680  0.6973
 5286SOL    HW227495   0.057   4.419   5.847  0.7233 -1.3111 -0.2827
 5287SOL     OW27496   1.657   2.860   6.129 -0.1714  0.7779  0.5251
 5287SOL    HW127497   1.752   2.848   6.127 -0.1893  1.1299 -1.5774
 5287SOL    HW227498   1.637   2.828   6.041  0.4642  0.7035  0.4108
 5288SOL     OW27499   0.894   0.429  14.325  0.3665  0.7616 -0.2923
 5288SOL    HW127500   0.829   0.421  14.395  0.4275  1.6765 -0.1203
 5288SOL    HW227501   0.924   0.518  14.345 -0.0052  0.9626 -0.6222
 5289SOL     OW27502   1.885   0.873  10.700  0.5571 -0.1688  0.3424
 5289SOL    HW127503   1.948   0.850  10.768 -0.7838 -2.7974  0.7030
 5289SOL    HW227504   1.867   0.961  10.733 -3.3962  0.1477 -2.6911
 5290SOL     OW27505   1.512   1.281   9.816  0.0990 -0.4751 -0.3786
 5290SOL    HW127506   1.496   1.372   9.843  1.3867 -0.4844  0.3925
 5290SOL    HW227507   1.435   1.257   9.764  2.1776 -3.7449 -1.9639
 5291SOL     OW27508   0.834   4.549   8.089  0.2294 -0.1797 -0.0386
 5291SOL    HW127509   0.742   4.532   8.109  0.6606  0.9794  3.0190
 5291SOL    HW227510   0.853   4.474   8.033 -0.2686  2.2602 -3.4766
 5292SOL     OW27511   0.685   4.613  17.740  0.4653 -0.3110 -0.3455
 5292SOL    HW127512   0.620   4.669   0.032 -1.3616 -2.9425  0.3179
 5292SOL    HW227513   0.622   4.562  17.690 -0.1787 -0.9336  1.0895
 5293SOL     OW27514   0.624   2.550   6.294 -0.7605 -0.1784 -0.2563
 5293SOL    HW127515   0.689   2.570   6.362  1.6064  0.2918 -2.6495
 5293SOL    HW227516   0.676   2.566   6.215 -2.2375  0.3172 -1.1201
 5294SOL     OW27517   3.131   2.578   4.959  0.4732  0.2535 -0.4116
 5294SOL    HW127518   3.038   2.572   4.982  0.2468  0.1365 -1.3836
 5294SOL    HW227519   3.136   2.581   4.864  1.8366  0.4473 -0.3364
 5295SOL     OW27520   0.092   3.896  12.508 -0.0923  0.2458  0.2612
 5295SOL    HW127521   0.132   3.820  12.551 -2.9401  0.6491  3.5534
 5295SOL    HW227522   0.037   3.853  12.443  0.5885 -2.8038  1.6764
 5296SOL     OW27523   2.732   0.749   2.568 -0.5325  0.3504  0.7522
 5296SOL    HW127524   2.729   0.694   2.647 -0.2878 -1.0197 -0.1911
 5296SOL    HW227525   2.743   0.833   2.613 -0.9989  1.7031 -1.6788
 5297SOL     OW27526   1.687   2.546   3.824  0.1709 -0.5214  0.1986
 5297SOL    HW127527   1.681   2.510   3.912 -0.6459  0.5942  0.5968
 5297SOL    HW227528   1.612   2.606   3.825  1.2511  0.8059  1.8531
 5298SOL     OW27529   1.168   4.381  10.473 -0.1017  0.0741 -0.8020
 5298SOL    HW127530   1.100   4.446  10.491  0.1212  0.3878 -1.0969
 5298SOL    HW227531   1.246   4.430  10.501 -0.3413 -0.8047  1.3361
 5299SOL     OW27532   4.151   3.697  11.805  0.0751  0.3514  0.0277
 5299SOL    HW127533   4.068   3.666  11.840 -0.9583  0.5583 -2.1868
 5299SOL    HW227534   4.151   3.789  11.833 -1.7197 -0.1589  1.6100
 5300SOL     OW27535   0.271   0.160   5.992  0.8244  0.7985 -0.6838
 5300SOL    HW127536   0.295   0.246   6.028 -0.3404  0.1988  1.5214
 5300SOL    HW227537   0.301   0.175   5.903  0.1855 -1.5610 -1.2805
 5301SOL     OW27538   1.675   0.471   4.621 -0.4267  0.4223 -0.4345
 5301SOL    HW127539   1.664   0.384   4.659  2.2558  0.0134 -0.6189
 5301SOL    HW227540   1.725   0.515   4.689  0.3207 -0.0673 -0.6772
 5302SOL     OW27541   4.415   2.102  12.416  0.1618  0.0129  0.4284
 5302SOL    HW127542   4.326   2.068  12.406  0.1063  1.4728 -4.1754
 5302SOL    HW227543   4.397   2.167  12.484  1.1639  0.7200  0.0089
 5303SOL     OW27544   0.701   0.049   8.706 -0.4068  0.3963  0.0577
 5303SOL    HW127545   0.727   0.126   8.656  0.5843 -0.1289 -0.2277
 5303SOL    HW227546   0.743   4.723   8.648  0.5361  0.6040  0.5204
 5304SOL     OW27547   3.690   3.689   5.530  0.5636  0.5739  0.4752
 5304SOL    HW127548   3.662   3.598   5.542 -0.3525  0.6419 -1.1127
 5304SOL    HW227549   3.783   3.678   5.511  0.3580  0.9014 -0.6953
 5305SOL     OW27550   0.176   0.025  15.229 -0.0274 -0.1762  0.4191
 5305SOL    HW127551   0.117   0.029  15.153  0.4950 -0.8748 -0.0203
 5305SOL    HW227552   0.142   4.679  15.261 -2.0110  0.9549  1.2986
 5306SOL     OW27553   1.742   4.309   6.630 -0.9971  0.1422 -0.1860
 5306SOL    HW127554   1.720   4.313   6.723 -0.6756 -1.2045 -0.0546
 5306SOL    HW227555   1.821   4.254   6.633 -1.5032 -0.5560  0.3795
 5307SOL     OW27556   3.357   0.518   5.412  0.2310  0.5850 -0.7045
 5307SOL    HW127557   3.449   0.504   5.434  0.2944  0.8072 -0.8288
 5307SOL    HW227558   3.354   0.613   5.403 -2.3719  0.3049 -2.8280
 5308SOL     OW27559   3.390   4.503   3.566  0.2796  0.5890  0.8265
 5308SOL    HW127560   3.481   4.497   3.539 -0.0955  0.4151 -0.3920
 5308SOL    HW227561   3.375   4.425   3.620  0.0233 -0.3763 -0.6560
 5309SOL     OW27562   4.648   3.993   1.756  0.3910  0.4825 -0.1772
 5309SOL    HW127563   4.729   4.030   1.793  1.7701 -2.1316 -0.6125
 5309SOL    HW227564   4.598   3.997   1.837 -0.0992 -1.2388 -0.4139
 5310SOL     OW27565   1.295   2.464  11.335  0.2604  0.6466  0.1708
 5310SOL    HW127566   1.226   2.397  11.341  0.2606  0.8204  2.2093
 5310SOL    HW227567   1.371   2.408  11.320  0.7967  0.8289  2.2121
 5311SOL     OW27568   1.989   3.984   8.438  0.2407 -0.3102 -0.0045
 5311SOL    HW127569   2.048   3.956   8.508  1.4131  4.1789  0.8307
 5311SOL    HW227570   2.042   4.058   8.408  0.6953 -1.5825 -2.3031
 5312SOL     OW27571   0.165   0.646   0.735 -0.3269 -0.9402  0.2472
 5312SOL    HW127572   0.253   0.607   0.732  0.1321  0.2010 -1.2365
 5312SOL    HW227573   0.165   0.690   0.820 -0.2416  0.6776 -0.5806
 5313SOL     OW27574   2.731   0.637   8.616  0.2106 -0.4984  0.7513
 5313SOL    HW127575   2.794   0.606   8.680  0.5669 -1.0444  0.1372
 5313SOL    HW227576   2.781   0.716   8.595  0.1675 -0.3110  1.3588
 5314SOL     OW27577   4.118   3.565  14.519  0.3792  0.1345 -0.0720
 5314SOL    HW127578   4.072   3.491  14.480 -3.5772  1.5219  2.0409
 5314SOL    HW227579   4.041   3.611  14.552 -0.3342 -0.4284 -0.9357
 5315SOL     OW27580   0.756   3.975   9.032 -0.6492  0.1592 -0.0885
 5315SOL    HW127581   0.792   3.989   9.120 -1.3927  1.6779 -0.0174
 5315SOL    HW227582   0.787   4.055   8.990  0.1359  0.9040  1.8900
 5316SOL     OW27583   2.176   4.026   3.933 -0.4280  0.1093  0.1035
 5316SOL    HW127584   2.150   4.083   4.005  0.4545 -1.5613  1.7369
 5316SOL    HW227585   2.117   4.059   3.865  1.5903  2.2284 -0.6772
 5317SOL     OW27586   4.135   1.226   5.416  0.0316 -0.6330 -0.5860
 5317SOL    HW127587   4.118   1.250   5.325  1.7106  0.4653 -0.6075
 5317SOL    HW227588   4.061   1.270   5.459  1.1063  1.1302 -0.5111
 5318SOL     OW27589   1.621   0.830   3.521  0.3143  0.2770  0.0148
 5318SOL    HW127590   1.658   0.829   3.609  3.1129 -1.9695 -1.1840
 5318SOL    HW227591   1.688   0.888   3.485 -0.1922  0.8125 -0.0652
 5319SOL     OW27592   1.457   4.108  11.675 -0.2085 -0.6048 -0.0802
 5319SOL    HW127593   1.469   4.200  11.697  1.1877 -0.7200 -0.3448
 5319SOL    HW227594   1.370   4.090  11.712  0.3851 -4.1508 -0.3556
 5320SOL     OW27595   2.643   1.876   2.412  0.7514  0.3115 -0.2006
 5320SOL    HW127596   2.582   1.945   2.437 -1.7151 -1.4444 -1.4242
 5320SOL    HW227597   2.587   1.805   2.382  0.0574  1.8248 -2.4608
 5321SOL     OW27598   2.253   0.066   8.683 -0.0047  0.3470  0.1274
 5321SOL    HW127599   2.187   0.064   8.753  0.0255  1.2395  0.1798
 5321SOL    HW227600   2.274   0.159   8.689  1.7187 -0.0075 -0.4937
 5322SOL     OW27601   1.286   4.330   8.749 -0.2223  0.4381 -0.3498
 5322SOL    HW127602   1.284   4.285   8.665  1.2593  1.2994 -0.8504
 5322SOL    HW227603   1.242   4.266   8.805  0.7506  0.2554  0.2094
 5323SOL     OW27604   1.144   0.516   2.550 -0.6279 -0.6488 -0.3058
 5323SOL    HW127605   1.165   0.584   2.614  0.3632  1.2821 -2.6971
 5323SOL    HW227606   1.063   0.552   2.514 -1.7000 -0.4126  2.3273
 5324SOL     OW27607   4.214   2.093  13.116  0.3809  0.2292  0.0414
 5324SOL    HW127608   4.216   1.997  13.117  0.2286  0.2014 -1.8120
 5324SOL    HW227609   4.127   2.111  13.152 -0.3396 -0.2649 -1.4410
 5325SOL     OW27610   1.907   1.029   7.464  0.1729  0.5034 -0.2166
 5325SOL    HW127611   1.911   1.124   7.460  0.7054  0.4957  0.1007
 5325SOL    HW227612   1.958   1.006   7.386  1.2746  2.5240 -0.0874
 5326SOL     OW27613   1.656   2.307   5.443  0.0720  0.0239  0.5277
 5326SOL    HW127614   1.728   2.254   5.407 -0.9260  0.5445 -2.2227
 5326SOL    HW227615   1.691   2.390   5.411  0.7565  0.2310  1.7769
 5327SOL     OW27616   1.991   0.319   8.264  0.6074 -0.0822 -0.0034
 5327SOL    HW127617   1.976   0.414   8.257  1.5232  0.0798  0.3238
 5327SOL    HW227618   2.009   0.319   8.358 -2.5398  0.3289  0.6045
 5328SOL     OW27619   2.715   1.874   1.255 -0.2122  0.5349  0.6212
 5328SOL    HW127620   2.770   1.811   1.209  0.0613  3.9168 -3.5686
 5328SOL    HW227621   2.636   1.822   1.270  0.2571 -0.4207 -0.2134
 5329SOL     OW27622   2.639   2.638   7.399 -0.3612  0.5525 -0.3613
 5329SOL    HW127623   2.546   2.661   7.408 -0.8045 -1.2692 -0.4347
 5329SOL    HW227624   2.674   2.662   7.485 -1.4734 -0.0581  0.2652
 5330SOL     OW27625   1.973   1.146   5.432 -0.0838  0.2526 -0.3806
 5330SOL    HW127626   2.013   1.215   5.380 -0.7325  0.1924 -0.9549
 5330SOL    HW227627   2.052   1.098   5.457  0.1253  0.5134 -0.5490
 5331SOL     OW27628   4.300   4.288   7.231 -0.6631 -0.0958  0.3217
 5331SOL    HW127629   4.393   4.298   7.252  0.4046 -1.5918 -3.6802
 5331SOL    HW227630   4.303   4.318   7.140  0.0207 -2.6011 -0.4575
 5332SOL     OW27631   0.158   4.369  16.699 -0.5033 -0.0572  0.4183
 5332SOL    HW127632   0.195   4.282  16.709  0.0969  0.0669 -0.6862
 5332SOL    HW227633   0.077   4.366  16.749  0.2721 -0.8449  1.6067
 5333SOL     OW27634   1.190   2.607   1.454 -0.7615  0.2809  0.0756
 5333SOL    HW127635   1.201   2.633   1.363  1.1732 -0.8968 -0.0388
 5333SOL    HW227636   1.216   2.687   1.499  3.1131  0.2601 -2.1360
 5334SOL     OW27637   1.363   1.238   2.432  0.4211 -0.0591 -0.1496
 5334SOL    HW127638   1.275   1.269   2.415  1.1106  1.2329 -1.3707
 5334SOL    HW227639   1.362   1.198   2.519  2.9030  0.8162  0.2909
 5335SOL     OW27640   2.964   2.373   5.338 -0.3671 -0.2873  0.2427
 5335SOL    HW127641   2.881   2.407   5.373  0.6663  1.3779  1.0596
 5335SOL    HW227642   2.921   2.309   5.281 -0.7754 -0.8261  1.1697
 5336SOL     OW27643   0.525   0.819   3.390 -0.3121  0.4784 -0.0982
 5336SOL    HW127644   0.618   0.842   3.388  0.3499 -1.9065  3.3369
 5336SOL    HW227645   0.509   0.843   3.299  2.7465  3.6189  0.1407
 5337SOL     OW27646   1.318   1.985   5.551  0.4013 -0.4164  0.3974
 5337SOL    HW127647   1.292   1.901   5.589 -1.1689  0.6795  1.7334
 5337SOL    HW227648   1.349   2.032   5.629 -0.7205 -0.4891  0.8824
 5338SOL     OW27649   1.016   2.897   1.350  0.8778  0.0255  0.0358
 5338SOL    HW127650   1.096   2.949   1.363  0.8721  0.1807 -0.5250
 5338SOL    HW227651   0.976   2.969   1.302  1.6108 -0.2885 -1.0516
 5339SOL     OW27652   3.319   3.349  13.013 -0.2469  0.1882  0.4405
 5339SOL    HW127653   3.318   3.353  12.917 -2.7580 -0.8653  0.4151
 5339SOL    HW227654   3.289   3.261  13.036  0.8977 -0.8501 -2.0305
 5340SOL     OW27655   4.430   3.233   2.188 -0.1053 -0.3988 -0.0025
 5340SOL    HW127656   4.453   3.297   2.255  0.2586 -0.8020  0.2591
 5340SOL    HW227657   4.502   3.260   2.131 -0.0208 -0.5665  0.0242
 5341SOL     OW27658   0.988   0.384  11.130  0.4648  0.2100  0.5557
 5341SOL    HW127659   0.964   0.474  11.150  1.5595  0.8199 -0.8705
 5341SOL    HW227660   1.083   0.393  11.144  0.8527  0.4389 -2.3616
 5342SOL     OW27661   2.754   1.038   2.645  0.8972 -0.4575 -0.6166
 5342SOL    HW127662   2.692   1.111   2.647 -0.3067 -1.5236  1.4187
 5342SOL    HW227663   2.751   1.012   2.553  0.6426  3.7007 -1.7607
 5343SOL     OW27664   4.664   3.307  12.084  0.6178 -0.3721 -0.4757
 5343SOL    HW127665   4.585   3.298  12.031  0.5550  2.1186 -0.8125
 5343SOL    HW227666   4.679   3.214  12.100  1.5580 -0.7307 -3.3408
 5344SOL     OW27667   0.027   0.712   8.190 -0.4274 -0.0037 -0.0224
 5344SOL    HW127668   0.097   0.680   8.247 -1.7768  0.6293  1.9836
 5344SOL    HW227669   4.710   0.761   8.251  0.5596 -0.3653  1.1667
 5345SOL     OW27670   3.908   1.427  11.143  0.7451  0.3480  0.6884
 5345SOL    HW127671   3.961   1.498  11.108  0.3716  0.2267 -0.1311
 5345SOL    HW227672   3.904   1.449  11.236  1.5381  1.4745  0.4528
 5346SOL     OW27673   1.207   2.822   3.829 -0.0619  0.1607 -0.6041
 5346SOL    HW127674   1.150   2.755   3.790  0.0363 -0.1028 -0.2950
 5346SOL    HW227675   1.206   2.894   3.766 -0.3953  0.4404 -0.2740
 5347SOL     OW27676   4.684   2.681   5.099  0.6003 -0.0195  0.1076
 5347SOL    HW127677   4.733   2.614   5.052  0.7942  0.8038 -0.8531
 5347SOL    HW227678   4.602   2.641   5.129 -0.1725  0.9304 -0.7539
 5348SOL     OW27679   1.600   3.076  15.835  0.9016 -0.2719 -0.3569
 5348SOL    HW127680   1.612   3.071  15.740 -0.1100 -3.2199 -0.3184
 5348SOL    HW227681   1.593   2.987  15.869  0.3520  1.2233  3.4944
 5349SOL     OW27682   3.799   3.739   4.724 -0.3225  0.0280 -0.4750
 5349SOL    HW127683   3.713   3.776   4.703 -0.0745  0.8915  0.0389
 5349SOL    HW227684   3.788   3.646   4.703  2.0265 -0.1212 -0.9965
 5350SOL     OW27685   4.651   2.998   9.353 -0.1107  0.0185  0.2374
 5350SOL    HW127686   4.623   3.090   9.360 -0.1549 -0.0475  0.9262
 5350SOL    HW227687   4.607   2.943   9.417 -1.1916  3.4133  2.4171
 5351SOL     OW27688   3.161   3.484   8.547  0.2928 -0.3293 -0.0203
 5351SOL    HW127689   3.087   3.432   8.516  0.9405 -1.4184  0.2566
 5351SOL    HW227690   3.140   3.513   8.636  2.6996 -2.1017  1.1372
 5352SOL     OW27691   1.894   2.456   6.682 -0.3903 -0.1152  0.1886
 5352SOL    HW127692   1.940   2.506   6.614 -1.7068  1.1297  0.2121
 5352SOL    HW227693   1.804   2.465   6.651  1.0273  0.9901 -3.6205
 5353SOL     OW27694   4.252   3.910   2.297 -0.0909  0.3770 -0.3283
 5353SOL    HW127695   4.297   3.980   2.345 -1.9544  1.0348  0.4536
 5353SOL    HW227696   4.330   3.855   2.285 -1.4922 -1.8119  0.6412
 5354SOL     OW27697   2.602   1.727   3.779  0.4605  0.3390 -0.1364
 5354SOL    HW127698   2.585   1.792   3.710 -0.1001 -1.3351 -1.5613
 5354SOL    HW227699   2.671   1.758   3.838 -0.8033  0.8336  1.1028
 5355SOL     OW27700   2.806   4.617   3.211 -0.1629  0.2990  0.7019
 5355SOL    HW127701   2.883   4.669   3.189  0.1794 -1.2316 -1.6613
 5355SOL    HW227702   2.747   4.653   3.145 -0.3463 -0.8501  0.2452
 5356SOL     OW27703   0.253   4.730   4.079  0.1064 -0.2577  0.4274
 5356SOL    HW127704   0.178   4.674   4.064 -0.7694  1.0170  0.0059
 5356SOL    HW227705   0.244   4.720   4.174  0.0990  1.3304  0.6058
 5357SOL     OW27706   0.870   3.607  14.081 -0.0650  0.2393  0.7322
 5357SOL    HW127707   0.900   3.579  14.167 -0.2709  0.6352  0.9327
 5357SOL    HW227708   0.780   3.576  14.085  0.4467 -1.4431 -0.6278
 5358SOL     OW27709   4.061   0.146   5.686 -0.4638 -0.2538  0.3821
 5358SOL    HW127710   4.146   0.116   5.719 -1.2021 -0.3981  2.1574
 5358SOL    HW227711   4.061   0.122   5.594 -0.7236  1.0727  0.0313
 5359SOL     OW27712   2.576   2.168  14.672  0.2923  0.0919 -0.2309
 5359SOL    HW127713   2.546   2.083  14.639  0.5040 -0.2596  0.4660
 5359SOL    HW227714   2.537   2.229  14.610 -0.2216 -0.0580 -0.0656
 5360SOL     OW27715   1.582   3.223   0.498  0.6466 -0.3291  0.4292
 5360SOL    HW127716   1.511   3.161   0.510  0.5935  0.0268  1.9044
 5360SOL    HW227717   1.552   3.295   0.553  1.3408  0.2073  0.1152
 5361SOL     OW27718   2.890   1.443   7.653  0.2566  0.1328 -0.4612
 5361SOL    HW127719   2.925   1.529   7.632 -0.6684  0.5300 -0.3971
 5361SOL    HW227720   2.802   1.453   7.615  0.0747  0.8010  0.1401
 5362SOL     OW27721   3.213   2.883  11.784  0.0349 -0.2857  0.0369
 5362SOL    HW127722   3.224   2.789  11.772 -1.7413 -0.2525 -1.9666
 5362SOL    HW227723   3.141   2.886  11.847 -1.0135  2.2652 -1.2941
 5363SOL     OW27724   2.915   3.145   5.752  0.0006  0.5545 -0.1930
 5363SOL    HW127725   2.867   3.212   5.704  0.3856  0.9829  0.0261
 5363SOL    HW227726   2.899   3.064   5.702  0.4071  0.0543  0.4868
 5364SOL     OW27727   1.334   1.089  11.961  0.1757  0.7569 -0.0189
 5364SOL    HW127728   1.430   1.084  11.964  0.0881 -0.7506  0.5396
 5364SOL    HW227729   1.316   0.999  11.933  2.3824 -0.0790  1.2107
 5365SOL     OW27730   3.956   4.216   2.268 -0.0391 -0.8234 -1.1098
 5365SOL    HW127731   3.990   4.179   2.186  0.4264  0.4116 -1.4756
 5365SOL    HW227732   3.963   4.308   2.244  2.4196 -0.8844 -0.6676
 5366SOL     OW27733   0.477   0.765   7.609  0.4859  0.2166 -0.1128
 5366SOL    HW127734   0.522   0.738   7.689  1.1817  1.4020 -0.1107
 5366SOL    HW227735   0.555   0.793   7.560  1.9501 -1.3647  1.3248
 5367SOL     OW27736   4.664   3.308  13.307 -0.7633  0.2076 -0.1101
 5367SOL    HW127737   0.008   3.356  13.310  2.1639 -4.9061  0.1124
 5367SOL    HW227738   4.668   3.254  13.386 -1.2905  1.3979  0.7313
 5368SOL     OW27739   2.632   4.398   5.560 -1.1213  0.1509 -0.8364
 5368SOL    HW127740   2.631   4.311   5.599 -0.0765 -0.5058 -2.2462
 5368SOL    HW227741   2.603   4.377   5.471  0.6551  0.2025 -1.4312
 5369SOL     OW27742   2.962   4.198  13.550  0.6571  0.2562 -0.3276
 5369SOL    HW127743   2.874   4.208  13.587  0.9815  1.7333  0.0539
 5369SOL    HW227744   2.978   4.276  13.496  1.0269 -0.3502 -1.1021
 5370SOL     OW27745   3.146   2.458   7.575 -0.1853  0.2469 -0.5362
 5370SOL    HW127746   3.139   2.422   7.663  2.2314 -0.9809 -0.8458
 5370SOL    HW227747   3.201   2.398   7.523 -0.2167  0.6586 -1.0512
 5371SOL     OW27748   1.624   0.650  12.066 -0.0084  0.0011 -1.0658
 5371SOL    HW127749   1.598   0.612  11.982  2.3709  1.2216 -2.3658
 5371SOL    HW227750   1.594   0.582  12.126  1.6771  1.0282  0.9276
 5372SOL     OW27751   0.534   2.919   6.819  0.0671 -0.1355  0.3097
 5372SOL    HW127752   0.578   2.834   6.809  2.6315  1.0493  1.4121
 5372SOL    HW227753   0.600   2.977   6.856 -1.4420  0.3437  2.2667
 5373SOL     OW27754   4.662   3.166  13.523 -0.4140 -0.4021  0.1620
 5373SOL    HW127755   4.689   3.239  13.578  0.6106 -1.2357  0.7535
 5373SOL    HW227756   4.603   3.114  13.578  0.7505 -2.3854 -0.4284
 5374SOL     OW27757   4.151   1.248   3.287 -0.3645 -0.5696 -0.5287
 5374SOL    HW127758   4.142   1.183   3.217  2.4120 -0.2019 -1.2228
 5374SOL    HW227759   4.235   1.289   3.269 -0.0186 -0.1988  1.8806
 5375SOL     OW27760   2.408   4.617  17.260 -0.7574  0.6506  0.0682
 5375SOL    HW127761   2.324   4.576  17.280 -0.6283  0.4890  0.2749
 5375SOL    HW227762   2.380   4.693  17.208  0.6070  1.2220  0.1522
 5376SOL     OW27763   0.444   0.126   5.768 -0.3865  0.8958 -0.0344
 5376SOL    HW127764   0.489   0.206   5.741  0.2454  1.8273  3.7769
 5376SOL    HW227765   0.495   0.121   5.849 -0.8992 -1.9595  0.0950
 5377SOL     OW27766   2.832   0.434   0.723  0.3055  0.4029 -0.0326
 5377SOL    HW127767   2.863   0.483   0.799 -0.7928  2.4287 -0.9048
 5377SOL    HW227768   2.739   0.422   0.741  0.7839  0.7201  2.5732
 5378SOL     OW27769   0.685   1.978   1.537  0.8040  0.0377 -0.2259
 5378SOL    HW127770   0.696   1.914   1.467  2.7222 -1.1490  1.1359
 5378SOL    HW227771   0.604   1.947   1.576  1.0453 -0.0299  0.2261
 5379SOL     OW27772   3.586   4.115   1.610 -0.0283 -0.4310 -0.3441
 5379SOL    HW127773   3.509   4.077   1.652 -0.3201  1.1456  0.5408
 5379SOL    HW227774   3.606   4.174   1.683  0.1023 -0.3120 -0.4770
 5380SOL     OW27775   2.225   4.501   2.897  0.3285  0.4674  0.0711
 5380SOL    HW127776   2.264   4.499   2.810  0.8259 -1.4137  0.3488
 5380SOL    HW227777   2.245   4.412   2.926 -0.9971  0.9202  2.3937
 5381SOL     OW27778   1.958   4.599   2.868 -0.0577 -0.2490 -0.3153
 5381SOL    HW127779   1.921   4.512   2.854  1.4202 -0.9199 -0.0285
 5381SOL    HW227780   2.052   4.590   2.879 -0.2145 -0.2184  1.0470
 5382SOL     OW27781   1.881   2.961   1.356  0.0637  0.1841 -0.0215
 5382SOL    HW127782   1.878   2.943   1.450 -0.6461  0.3771 -0.0077
 5382SOL    HW227783   1.928   3.044   1.365  1.1119 -0.5499  1.1672
 5383SOL     OW27784   0.285   1.061   1.995  0.4866 -0.0965 -0.1465
 5383SOL    HW127785   0.370   1.103   1.987  0.4102 -0.3755 -2.4968
 5383SOL    HW227786   0.307   0.976   2.033  0.4018 -0.0502  0.0094
 5384SOL     OW27787   3.168   4.358   8.535 -0.5841 -0.3778 -0.3692
 5384SOL    HW127788   3.234   4.304   8.492  1.3651 -0.1723  2.3297
 5384SOL    HW227789   3.109   4.291   8.569 -0.3822 -1.1860 -1.6323
 5385SOL     OW27790   4.134   2.217   3.510 -0.0696  0.2854 -0.4098
 5385SOL    HW127791   4.085   2.262   3.442  0.6060  2.9551  0.8734
 5385SOL    HW227792   4.117   2.271   3.587  1.4733 -1.5993  1.2783
 5386SOL     OW27793   1.266   3.633   6.920 -0.2682  0.6054 -0.2537
 5386SOL    HW127794   1.257   3.723   6.890  1.0406  1.1323  0.9456
 5386SOL    HW227795   1.214   3.628   7.000 -0.6447 -0.9183 -0.5804
 5387SOL     OW27796   0.904   3.790  11.986 -0.3499 -0.3013  0.5206
 5387SOL    HW127797   0.881   3.698  12.002  0.5257 -0.6654 -0.3691
 5387SOL    HW227798   0.914   3.787  11.891  0.2654 -1.6822  0.6269
 5388SOL     OW27799   2.363   0.716  16.290 -0.2959  0.1972 -0.1825
 5388SOL    HW127800   2.275   0.713  16.253 -0.7249 -0.3785  0.8880
 5388SOL    HW227801   2.353   0.649  16.357 -2.2397  0.5910 -0.0699
 5389SOL     OW27802   3.548   1.615  15.180 -0.3130  0.1491 -0.4984
 5389SOL    HW127803   3.613   1.577  15.121  0.1453 -1.7164  1.2158
 5389SOL    HW227804   3.558   1.546  15.246 -0.2055 -1.3284 -2.0498
 5390SOL     OW27805   1.360   3.076  15.452 -0.5436 -0.5389 -0.0390
 5390SOL    HW127806   1.323   2.998  15.493 -0.8659 -0.2318  0.2621
 5390SOL    HW227807   1.452   3.069  15.474 -0.5974 -0.1263  0.3304
 5391SOL     OW27808   0.300   0.449   2.522  0.2697 -0.1312  0.0835
 5391SOL    HW127809   0.231   0.393   2.557  0.5341 -0.1338  0.6029
 5391SOL    HW227810   0.311   0.412   2.435 -0.6506 -1.8413  0.6995
 5392SOL     OW27811   0.789   2.393   7.051  0.5617  0.1827 -0.5265
 5392SOL    HW127812   0.726   2.414   6.982 -0.6003 -2.2601 -0.2210
 5392SOL    HW227813   0.741   2.425   7.128  0.0528 -1.4576 -0.1567
 5393SOL     OW27814   1.420   4.370   7.979  0.5316  0.2593  0.1528
 5393SOL    HW127815   1.503   4.325   7.994 -0.1637 -0.8286  0.7466
 5393SOL    HW227816   1.381   4.359   8.066 -1.3341  1.5929 -0.5241
 5394SOL     OW27817   1.626   2.813   3.741  0.3422 -0.0739 -0.0487
 5394SOL    HW127818   1.575   2.822   3.821  0.6162  3.5062 -0.2512
 5394SOL    HW227819   1.716   2.816   3.772  1.0110  0.6055 -2.0258
 5395SOL     OW27820   0.531   1.604   0.918 -0.2482  0.8205 -0.2104
 5395SOL    HW127821   0.580   1.573   0.994 -0.3033 -0.7561 -0.8194
 5395SOL    HW227822   0.441   1.584   0.944  0.7973 -2.0647  1.1975
 5396SOL     OW27823   0.963   2.292   2.365 -0.4905 -0.0989  0.0563
 5396SOL    HW127824   1.054   2.295   2.336 -0.3344  0.9799  0.6350
 5396SOL    HW227825   0.986   2.274   2.456  2.3058 -0.4749 -0.7231
 5397SOL     OW27826   4.294   3.583  10.553  0.2891  0.2420 -0.3670
 5397SOL    HW127827   4.341   3.517  10.605 -0.5497 -1.7519 -2.1380
 5397SOL    HW227828   4.311   3.652  10.617  1.0555  1.2321 -1.6424
 5398SOL     OW27829   1.535   1.590   7.925  0.2543 -0.0025 -0.7897
 5398SOL    HW127830   1.466   1.652   7.949  0.2192 -0.2902 -0.1596
 5398SOL    HW227831   1.475   1.532   7.878  0.4809 -1.3889  0.6224
 5399SOL     OW27832   2.859   2.835   1.923 -0.4487  0.0032 -0.2868
 5399SOL    HW127833   2.900   2.861   1.841 -0.3912 -0.8108 -0.5158
 5399SOL    HW227834   2.864   2.909   1.984  1.0277 -0.8884  0.6725
 5400SOL     OW27835   3.833   1.148   8.131 -0.2388 -0.0868  0.5704
 5400SOL    HW127836   3.896   1.091   8.088 -1.1843 -0.4819 -0.2904
 5400SOL    HW227837   3.877   1.139   8.216 -0.2084  0.5432  0.6214
 5401SOL     OW27838   2.002   4.370  12.340 -0.0676  0.3808 -0.3479
 5401SOL    HW127839   2.062   4.301  12.369 -0.0885  0.5925  0.1945
 5401SOL    HW227840   1.954   4.327  12.268 -0.0157  0.1327 -0.2352
 5402SOL     OW27841   4.727   2.841  10.841  0.0890  0.0817 -0.5765
 5402SOL    HW127842   4.651   2.899  10.835  0.2051  0.5096  2.0651
 5402SOL    HW227843   0.044   2.887  10.778  2.6288  0.9901  2.3322
 5403SOL     OW27844   2.197   0.601  13.392 -0.2727 -0.6484 -0.0081
 5403SOL    HW127845   2.137   0.661  13.436  0.6756 -1.3354  2.2251
 5403SOL    HW227846   2.199   0.526  13.452 -0.1671 -1.3425 -0.8828
 5404SOL     OW27847   0.771   4.716   1.934  0.5664  0.0947  0.5423
 5404SOL    HW127848   0.697   4.720   1.874 -0.4014  0.7270  1.7838
 5404SOL    HW227849   0.807   4.633   1.902  1.0462  0.1753  0.8803
 5405SOL     OW27850   1.928   1.754   2.494 -0.1842  0.4080  0.0565
 5405SOL    HW127851   1.934   1.824   2.429 -0.9481 -0.0898 -0.5615
 5405SOL    HW227852   2.003   1.766   2.552  1.3688 -2.9258 -1.2301
 5406SOL     OW27853   4.062   1.609   1.855  0.0991 -0.1806 -0.0760
 5406SOL    HW127854   4.085   1.621   1.762  0.4783 -2.4306 -0.2697
 5406SOL    HW227855   4.135   1.648   1.903  1.4018 -2.3776 -0.3102
 5407SOL     OW27856   3.498   3.563   4.365 -0.1128 -0.2237  0.2121
 5407SOL    HW127857   3.434   3.567   4.294 -0.1142 -0.7825  0.1787
 5407SOL    HW227858   3.453   3.520   4.438  1.3110  0.1029  1.2746
 5408SOL     OW27859   4.542   1.646   5.738 -0.3030  0.1168  0.2020
 5408SOL    HW127860   4.614   1.705   5.760  0.0848 -0.2980  0.0692
 5408SOL    HW227861   4.517   1.632   5.829 -0.6784 -1.2416 -0.0981
 5409SOL     OW27862   1.600   2.536  15.871  0.3621  0.5520 -0.1061
 5409SOL    HW127863   1.509   2.546  15.843  0.1264 -1.7106 -0.0927
 5409SOL    HW227864   1.596   2.479  15.948 -0.8446 -1.2761 -1.5214
 5410SOL     OW27865   1.964   1.047  10.354  0.2055  0.1851 -0.0489
 5410SOL    HW127866   2.053   1.026  10.382 -0.0836 -0.6447  0.2461
 5410SOL    HW227867   1.975   1.140  10.335  1.9662 -0.3730 -1.7787
 5411SOL     OW27868   1.564   2.413  11.350  0.0930 -0.2002  0.3321
 5411SOL    HW127869   1.547   2.506  11.337 -0.1232 -0.6304 -2.4711
 5411SOL    HW227870   1.543   2.392  11.441  2.9453 -1.1223  0.7819
 5412SOL     OW27871   1.811   2.816  16.769 -0.2305  0.3773  0.7126
 5412SOL    HW127872   1.821   2.884  16.702  0.5116  0.8783  1.3422
 5412SOL    HW227873   1.900   2.782  16.768 -0.5679 -0.6030  3.1327
 5413SOL     OW27874   0.821   1.151   5.563 -0.2275 -0.5103 -0.4084
 5413SOL    HW127875   0.843   1.245   5.567 -2.4413  0.0040 -0.3452
 5413SOL    HW227876   0.884   1.112   5.502 -0.6636 -0.5912 -0.8095
 5414SOL     OW27877   0.784   0.933   7.149 -0.4545 -0.3029  0.6132
 5414SOL    HW127878   0.731   0.871   7.099  2.0127  0.3789 -2.8473
 5414SOL    HW227879   0.725   0.936   7.224  0.5255  0.0749  1.3719
 5415SOL     OW27880   3.810   4.206   9.849  0.3664  0.1038 -0.2241
 5415SOL    HW127881   3.878   4.140   9.860  0.6492  0.5096  0.4583
 5415SOL    HW227882   3.858   4.249   9.778  2.2279 -1.0504  0.3546
 5416SOL     OW27883   3.166   4.559   8.126  0.7370  0.2134  0.6754
 5416SOL    HW127884   3.247   4.575   8.078 -0.4343 -1.1988 -1.7772
 5416SOL    HW227885   3.156   4.635   8.184 -0.2407  0.9351 -0.4437
 5417SOL     OW27886   0.751   0.298  16.057  0.4486 -0.0105 -0.2261
 5417SOL    HW127887   0.825   0.240  16.041  1.1989 -0.0190  3.2840
 5417SOL    HW227888   0.674   0.251  16.024  0.8820  0.0946 -1.4135
 5418SOL     OW27889   0.565   4.226  12.297 -0.2613  0.1084 -0.4743
 5418SOL    HW127890   0.477   4.247  12.268  0.6586 -0.0290 -3.4404
 5418SOL    HW227891   0.596   4.312  12.323 -2.3026  1.2872 -1.9909
 5419SOL     OW27892   4.474   2.945   3.532 -0.1637  0.5014 -0.3924
 5419SOL    HW127893   4.453   2.873   3.472  0.1357  0.0694  0.0162
 5419SOL    HW227894   4.487   2.889   3.609  4.7213  2.4345  0.1349
 5420SOL     OW27895   1.898   0.425  12.570 -0.6058  0.0621 -0.1437
 5420SOL    HW127896   1.991   0.415  12.550 -0.5698 -1.4083  0.8404
 5420SOL    HW227897   1.877   0.491  12.503  1.0824 -0.0739 -0.8202
 5421SOL     OW27898   0.767   4.379  10.221 -0.4346  0.1844 -0.5035
 5421SOL    HW127899   0.677   4.346  10.216  0.1482 -1.4144 -0.6404
 5421SOL    HW227900   0.812   4.301  10.190 -1.1121 -0.9683  1.3867
 5422SOL     OW27901   4.581   2.030   3.425 -0.0736  0.4746  0.2327
 5422SOL    HW127902   4.659   2.027   3.370  0.1596  0.9557  0.5366
 5422SOL    HW227903   4.584   2.124   3.445 -1.6976  0.8689 -1.3065
 5423SOL     OW27904   3.783   0.869  12.878 -0.0886  0.3510  0.3022
 5423SOL    HW127905   3.829   0.953  12.876 -1.2892  0.9765 -1.3167
 5423SOL    HW227906   3.754   0.864  12.969 -2.1056  1.5890 -0.2812
 5424SOL     OW27907   3.582   0.757  11.546 -0.1479 -0.2110  0.2844
 5424SOL    HW127908   3.658   0.788  11.497  0.8863 -0.3764  1.7746
 5424SOL    HW227909   3.555   0.679  11.498  1.9202 -1.0308  0.4464
 5425SOL     OW27910   2.029   4.383  10.533  0.0748 -0.1493  0.2025
 5425SOL    HW127911   2.096   4.450  10.520 -0.1614  0.0639  0.0830
 5425SOL    HW227912   2.084   4.305  10.534 -1.2797 -1.0946  0.7319
 5426SOL     OW27913   1.205   2.080   1.893  0.1646  0.5436  0.1079
 5426SOL    HW127914   1.136   2.146   1.893 -0.1826  0.1752  1.5144
 5426SOL    HW227915   1.264   2.124   1.832 -0.9310  0.9838 -0.6405
 5427SOL     OW27916   4.308   4.481   5.018 -0.1306  1.1088 -0.5020
 5427SOL    HW127917   4.351   4.426   5.083 -0.6299  1.0212 -0.2452
 5427SOL    HW227918   4.376   4.546   4.999  0.7520  0.0758 -0.9149
 5428SOL     OW27919   2.854   3.045   2.100 -0.1713 -0.1845 -0.3359
 5428SOL    HW127920   2.902   3.047   2.183 -0.1981 -0.5210 -0.3114
 5428SOL    HW227921   2.764   3.028   2.126 -1.0767  0.5153 -2.9864
 5429SOL     OW27922   4.240   4.086   6.451  0.0153 -0.1016  0.4658
 5429SOL    HW127923   4.287   4.134   6.519 -0.2541  1.0491 -0.1697
 5429SOL    HW227924   4.187   4.148   6.402  1.9390  1.0323 -0.1384
 5430SOL     OW27925   2.046   1.988   5.718  0.6388 -0.3819  0.4922
 5430SOL    HW127926   1.960   1.978   5.678  2.1482 -4.1119 -1.8365
 5430SOL    HW227927   2.042   1.911   5.776  0.9820 -1.5318 -1.0106
 5431SOL     OW27928   3.168   3.020  15.623 -0.0405  0.0228 -0.1416
 5431SOL    HW127929   3.110   2.944  15.620  1.2131 -0.9447  0.3973
 5431SOL    HW227930   3.219   2.997  15.700  1.1639  2.7440 -0.1271
 5432SOL     OW27931   4.216   2.255   6.019  0.0578 -1.0228  0.5160
 5432SOL    HW127932   4.140   2.287   6.068  1.4307  0.7304  1.5151
 5432SOL    HW227933   4.181   2.219   5.938  0.3931 -1.5957  0.6236
 5433SOL     OW27934   1.191   3.786  14.066  0.2352  0.2844  0.0331
 5433SOL    HW127935   1.148   3.832  13.994 -2.3648 -1.5365  0.4252
 5433SOL    HW227936   1.164   3.695  14.049 -2.7741  1.2277 -0.1046
 5434SOL     OW27937   4.283   2.030   3.629  0.3072  0.6966  0.1857
 5434SOL    HW127938   4.352   2.095   3.619 -0.7127  1.7637  0.0465
 5434SOL    HW227939   4.226   2.087   3.577 -0.2981  0.5896  0.7271
 5435SOL     OW27940   1.854   4.470  10.719  0.0033  0.4131  0.1857
 5435SOL    HW127941   1.904   4.535  10.769 -0.4509  1.2153 -0.3965
 5435SOL    HW227942   1.913   4.469  10.643  2.4624  0.4866  2.0741
 5436SOL     OW27943   1.635   2.983  14.502 -0.3861  0.0851 -0.4922
 5436SOL    HW127944   1.609   3.061  14.551 -1.2291 -1.5239  1.6079
 5436SOL    HW227945   1.557   2.936  14.534  0.2789 -0.4779  0.2872
 5437SOL     OW27946   1.964   4.254  17.099 -0.0904  0.1491  0.7093
 5437SOL    HW127947   2.021   4.270  17.023  1.5253 -2.7583  1.2915
 5437SOL    HW227948   1.882   4.287  17.062  0.7862  0.8321 -0.6213
 5438SOL     OW27949   3.229   4.731  10.492 -0.3333 -0.1539 -0.7037
 5438SOL    HW127950   3.285   4.673  10.545  1.0231 -0.0079 -1.9714
 5438SOL    HW227951   3.224   0.072  10.545  2.7045 -0.6682  0.3640
 5439SOL     OW27952   0.255   2.812   3.476  0.0004  0.1873  0.8769
 5439SOL    HW127953   0.293   2.875   3.538 -2.4926  1.6684  0.9187
 5439SOL    HW227954   0.335   2.767   3.450 -1.0816 -1.7624  0.9069
 5440SOL     OW27955   0.636   4.518   6.769  0.0935  0.2152 -0.1254
 5440SOL    HW127956   0.571   4.453   6.796  0.0606  2.1564  4.3437
 5440SOL    HW227957   0.719   4.469   6.770 -1.6723 -2.6969  3.2934
 5441SOL     OW27958   3.843   4.207   7.498  0.1280 -0.5277  0.1048
 5441SOL    HW127959   3.851   4.303   7.497  2.0900 -0.7174 -1.8705
 5441SOL    HW227960   3.926   4.186   7.456  0.0891 -0.1369 -0.1708
 5442SOL     OW27961   0.186   2.191   0.579  0.0107 -0.3261 -0.2894
 5442SOL    HW127962   0.106   2.157   0.618  0.3513 -1.3646 -0.4863
 5442SOL    HW227963   0.239   2.217   0.655 -2.3327 -1.6262  1.7625
 5443SOL     OW27964   4.135   1.414  13.000 -0.5711  0.1666 -0.0421
 5443SOL    HW127965   4.150   1.321  12.981  0.5477  0.2647  0.3675
 5443SOL    HW227966   4.178   1.460  12.929  0.9866  0.0017  0.7980
 5444SOL     OW27967   1.143   1.623  15.921  0.3787 -0.1878 -0.1170
 5444SOL    HW127968   1.173   1.572  15.845 -0.7502  1.0898 -1.4376
 5444SOL    HW227969   1.222   1.618  15.975 -1.7913 -1.5404  2.9283
 5445SOL     OW27970   3.446   4.443   8.734 -0.5763 -0.6140 -0.3757
 5445SOL    HW127971   3.407   4.485   8.658  0.5547 -0.1996 -0.7312
 5445SOL    HW227972   3.538   4.440   8.708 -0.3497 -0.2256  0.3823
 5446SOL     OW27973   4.102   3.801   6.022 -0.5694  0.9771  0.4907
 5446SOL    HW127974   4.140   3.718   6.051 -0.4422  0.1824 -1.9162
 5446SOL    HW227975   4.166   3.866   6.049 -0.7516  1.5292 -0.3978
 5447SOL     OW27976   4.253   1.955   7.464 -0.3948  0.0174 -0.5694
 5447SOL    HW127977   4.159   1.970   7.465 -0.2585  1.0495 -2.7905
 5447SOL    HW227978   4.266   1.923   7.375 -1.5636  0.9424 -1.0628
 5448SOL     OW27979   2.276   4.038  17.466 -0.1192 -0.2922  0.3564
 5448SOL    HW127980   2.248   4.102  17.400 -0.3616 -0.8765 -0.1036
 5448SOL    HW227981   2.355   4.003  17.425  0.7709 -0.3415  2.1481
 5449SOL     OW27982   3.819   1.331   0.874 -1.0189  0.1591  0.0679
 5449SOL    HW127983   3.867   1.280   0.809 -2.1798 -0.3337 -0.4173
 5449SOL    HW227984   3.885   1.399   0.882  0.0113 -1.0706  2.2486
 5450SOL     OW27985   3.386   1.633   2.018  0.3439  0.3052  0.1401
 5450SOL    HW127986   3.427   1.552   2.047  1.1413  0.8641  0.6054
 5450SOL    HW227987   3.294   1.607   2.016 -0.0399  1.4713  3.0514
 5451SOL     OW27988   2.065   1.502   5.648  0.0729  0.5041  0.0455
 5451SOL    HW127989   2.128   1.548   5.592 -0.1357  2.4838  1.4401
 5451SOL    HW227990   2.080   1.565   5.718  0.4639 -0.7798  1.1117
 5452SOL     OW27991   3.388   2.782   1.972 -0.0384 -0.2110 -0.2654
 5452SOL    HW127992   3.453   2.852   1.962  1.4374 -1.7358 -1.2039
 5452SOL    HW227993   3.320   2.833   2.017  0.1431 -1.9895  2.0537
 5453SOL     OW27994   1.785   0.322  10.292 -0.1791 -0.2976 -0.2586
 5453SOL    HW127995   1.763   0.396  10.349  1.7653 -1.4315  1.9662
 5453SOL    HW227996   1.693   0.299  10.281 -0.1102 -0.0633 -1.3070
 5454SOL     OW27997   2.464   2.724   2.497 -0.4481  0.2393  0.6063
 5454SOL    HW127998   2.546   2.741   2.451 -0.9368  0.5427 -0.1556
 5454SOL    HW227999   2.439   2.816   2.508  0.5419  0.2750  2.4606
 5455SOL     OW28000   2.068   0.335  15.861  0.4664 -0.1417  0.1548
 5455SOL    HW128001   2.022   0.264  15.906 -0.6035 -0.1116 -0.8885
 5455SOL    HW228002   2.146   0.348  15.915  1.0665  0.1615 -0.7828
 5456SOL     OW28003   0.820   0.258   8.576  0.1052  1.0547  0.0364
 5456SOL    HW128004   0.848   0.304   8.497  1.1522 -1.0399 -0.8334
 5456SOL    HW228005   0.873   0.278   8.653  0.1941  0.7236  0.0628
 5457SOL     OW28006   3.984   3.186   8.300 -0.9885  0.1350  0.1403
 5457SOL    HW128007   3.975   3.111   8.359  0.7532 -0.6697 -0.6203
 5457SOL    HW228008   4.078   3.199   8.311 -0.7772 -1.4341  0.1978
 5458SOL     OW28009   3.505   4.384   5.817  0.3108 -0.4293 -0.4772
 5458SOL    HW128010   3.521   4.462   5.763  0.7237 -0.8747 -0.9976
 5458SOL    HW228011   3.442   4.340   5.761 -0.8466 -0.0428  0.5354
 5459SOL     OW28012   3.511   2.316   6.034 -0.1749  0.3478 -0.4962
 5459SOL    HW128013   3.605   2.325   6.014  0.5272  0.1283  2.8155
 5459SOL    HW228014   3.489   2.328   5.941 -0.1772  0.3544 -0.4949
 5460SOL     OW28015   1.075   3.289   9.252  0.1019 -0.1281 -0.0923
 5460SOL    HW128016   1.013   3.333   9.194  0.8089  1.6491  0.5095
 5460SOL    HW228017   1.017   3.250   9.318  0.2290  0.6570  0.4852
 5461SOL     OW28018   1.382   1.439   5.769 -0.3806  0.1286  0.5502
 5461SOL    HW128019   1.342   1.408   5.688 -0.1561 -0.9469  0.8551
 5461SOL    HW228020   1.305   1.476   5.812 -1.2652  0.4436 -1.2937
 5462SOL     OW28021   2.475   4.176   9.678 -0.4654 -0.0750 -0.3469
 5462SOL    HW128022   2.566   4.153   9.662  0.5171  1.7858  2.6592
 5462SOL    HW228023   2.464   4.223   9.595  1.0281 -0.4139 -0.7306
 5463SOL     OW28024   1.430   2.476   4.402 -0.4212 -0.6066  0.2918
 5463SOL    HW128025   1.355   2.458   4.459 -1.5939  0.8529 -0.7988
 5463SOL    HW228026   1.476   2.392   4.404 -1.7687 -1.3388  0.5268
 5464SOL     OW28027   0.691   3.112   8.027 -0.2199 -0.8111  0.5622
 5464SOL    HW128028   0.690   3.112   7.931 -1.2463 -3.2868  0.5844
 5464SOL    HW228029   0.731   3.026   8.041 -1.9473 -1.8357 -0.8229
 5465SOL     OW28030   4.446   1.252  11.319  0.0103 -0.4054  0.2866
 5465SOL    HW128031   4.404   1.206  11.246 -1.1330 -0.9594  1.2931
 5465SOL    HW228032   4.400   1.335  11.327  2.0941  0.7893 -0.0089
 5466SOL     OW28033   2.749   3.028   6.309  0.0466 -0.6716 -0.0210
 5466SOL    HW128034   2.802   2.987   6.240 -0.7118  0.9252 -1.5618
 5466SOL    HW228035   2.805   3.105   6.325 -1.8396  1.4197 -3.5084
 5467SOL     OW28036   0.852   1.706   2.844 -0.0164  0.0091 -0.2667
 5467SOL    HW128037   0.843   1.784   2.899 -0.3006  2.3050 -3.4902
 5467SOL    HW228038   0.781   1.711   2.780  0.1736  3.8781 -0.2028
 5468SOL     OW28039   0.650   2.443   3.650 -0.0664  0.4333 -0.2777
 5468SOL    HW128040   0.733   2.489   3.640  0.8774 -1.2266 -0.0740
 5468SOL    HW228041   0.645   2.402   3.564  0.8564  1.3211 -0.7506
 5469SOL     OW28042   1.492   3.030   1.400 -0.1396 -0.4940 -0.0169
 5469SOL    HW128043   1.536   2.995   1.478 -1.2016  1.8071  1.6312
 5469SOL    HW228044   1.544   3.110   1.393  0.7210 -0.9940  0.6441
 5470SOL     OW28045   1.538   3.133  13.844  0.6341  0.3070  0.2762
 5470SOL    HW128046   1.606   3.068  13.863  1.9222  1.9016  1.0883
 5470SOL    HW228047   1.473   3.096  13.903 -0.0061 -1.4532 -1.5058
 5471SOL     OW28048   4.671   0.810   3.479 -0.2333  0.1115 -0.0349
 5471SOL    HW128049   0.024   0.782   3.485 -0.4812 -0.8249 -0.8473
 5471SOL    HW228050   4.676   0.892   3.529 -1.4597  0.0036  0.2604
 5472SOL     OW28051   4.246   1.168  11.899 -0.7399 -0.1157 -0.0216
 5472SOL    HW128052   4.240   1.246  11.954 -0.7765 -0.2995  0.2362
 5472SOL    HW228053   4.217   1.193  11.811 -0.0617  0.4433 -0.0807
 5473SOL     OW28054   3.647   2.022   0.097  0.2111  0.6135 -0.4193
 5473SOL    HW128055   3.694   2.035   0.015  0.4286  0.0927 -0.3737
 5473SOL    HW228056   3.576   1.970   0.058 -0.2324  0.1538  1.0014
 5474SOL     OW28057   3.431   1.752   8.695 -0.1459 -0.2977  0.1482
 5474SOL    HW128058   3.509   1.711   8.733  0.2089 -0.5323 -0.8253
 5474SOL    HW228059   3.415   1.828   8.751 -1.5576  0.4423 -1.2570
 5475SOL     OW28060   4.575   0.914   0.203  0.0536  0.4299  0.2778
 5475SOL    HW128061   4.567   0.821   0.181 -0.8390  0.4495  0.4956
 5475SOL    HW228062   4.651   0.932   0.148 -0.9226  1.3446 -0.7826
 5476SOL     OW28063   2.320   4.440   7.223  0.1851  0.1772 -0.5468
 5476SOL    HW128064   2.414   4.422   7.227  0.0706 -0.5941 -1.4004
 5476SOL    HW228065   2.290   4.429   7.313  0.9520 -0.4908 -0.3736
 5477SOL     OW28066   3.110   2.152   7.009  0.0074 -0.1938  0.3141
 5477SOL    HW128067   3.028   2.187   6.973  1.1418 -1.6183 -3.7058
 5477SOL    HW228068   3.162   2.231   7.024 -0.5809  0.0525  1.0213
 5478SOL     OW28069   1.520   1.023   5.561 -0.6767  0.2390 -0.0627
 5478SOL    HW128070   1.551   1.113   5.549 -1.7449  0.6741  0.4458
 5478SOL    HW228071   1.458   1.008   5.489 -1.5276 -0.6116  0.8590
 5479SOL     OW28072   1.086   2.241   6.668  0.0346 -0.1709  0.2037
 5479SOL    HW128073   1.067   2.333   6.653  1.8523  0.3974  1.3559
 5479SOL    HW228074   1.002   2.198   6.651  0.8738 -2.3815  1.5461
 5480SOL     OW28075   0.913   0.214  13.351  0.5215  0.5665  0.1195
 5480SOL    HW128076   0.978   0.145  13.334 -0.5063 -0.4402  0.2518
 5480SOL    HW228077   0.947   0.239  13.437  0.7714 -1.3612  0.5973
 5481SOL     OW28078   1.330   1.239   2.019 -0.0490  0.2887 -0.0799
 5481SOL    HW128079   1.312   1.146   2.038 -2.1223  0.7199  0.0638
 5481SOL    HW228080   1.251   1.266   1.971 -0.2688 -3.2939 -1.8005
 5482SOL     OW28081   4.454   0.872   6.157 -0.3629  0.1258  0.1447
 5482SOL    HW128082   4.462   0.962   6.188 -0.0853 -0.0056  0.4552
 5482SOL    HW228083   4.448   0.828   6.242  0.2407 -1.1410 -0.4557
 5483SOL     OW28084   1.897   3.072  15.848 -0.2619 -0.1574  0.0630
 5483SOL    HW128085   1.824   3.083  15.909  1.1095 -1.1014  1.8759
 5483SOL    HW228086   1.875   3.134  15.779  0.6794 -0.1269 -0.2029
 5484SOL     OW28087   2.752   3.378  16.503  0.2190 -0.3614  0.3437
 5484SOL    HW128088   2.700   3.306  16.467  0.3080  0.6323 -1.7224
 5484SOL    HW228089   2.788   3.420  16.426 -2.7599  3.4567  1.0688
 5485SOL     OW28090   1.220   2.927   4.081  0.0052 -0.2932 -0.2138
 5485SOL    HW128091   1.240   2.909   3.989 -2.6838 -0.7796 -0.6801
 5485SOL    HW228092   1.167   2.850   4.099 -0.1968  0.5482  2.7420
 5486SOL     OW28093   0.231   2.786   4.052  0.0468 -0.0004  0.1981
 5486SOL    HW128094   0.230   2.881   4.061  0.5605 -0.1138  1.3812
 5486SOL    HW228095   0.240   2.761   4.143  0.6418  0.1813  0.1853
 5487SOL     OW28096   4.432   1.813   9.779  0.2466  0.0115  0.0247
 5487SOL    HW128097   4.518   1.831   9.817  1.3987 -0.5371 -2.3179
 5487SOL    HW228098   4.407   1.737   9.830 -1.1881  0.9001  0.6349
 5488SOL     OW28099   1.714   3.777  10.774  0.1427  0.0230 -0.3399
 5488SOL    HW128100   1.719   3.800  10.867 -1.6092 -6.1615  1.2382
 5488SOL    HW228101   1.656   3.850  10.750  0.3544  1.3728  3.1466
 5489SOL     OW28102   2.198   1.978   0.542  0.2724  0.6618  0.4369
 5489SOL    HW128103   2.238   1.952   0.459 -1.2757 -0.7041  0.1158
 5489SOL    HW228104   2.220   2.071   0.536 -1.1671  0.9906  0.3765
 5490SOL     OW28105   0.325   1.158   7.008 -0.3827 -0.2357  0.3209
 5490SOL    HW128106   0.239   1.195   6.987 -0.5651 -0.1908  1.1523
 5490SOL    HW228107   0.360   1.228   7.062 -0.0829 -1.6717  1.9755
 5491SOL     OW28108   1.408   2.980   5.399  0.0612 -0.0624 -0.0563
 5491SOL    HW128109   1.339   2.985   5.465 -1.6579 -0.8632 -1.8049
 5491SOL    HW228110   1.380   2.916   5.333  1.9573 -1.0498  0.1092
 5492SOL     OW28111   2.641   3.748   8.837 -0.4778 -0.1789 -0.0774
 5492SOL    HW128112   2.548   3.764   8.852 -0.6662 -0.5969 -0.7764
 5492SOL    HW228113   2.680   3.780   8.918 -2.2493  3.3010 -0.5724
 5493SOL     OW28114   2.403   2.788   1.444 -0.5441 -0.8842  0.7493
 5493SOL    HW128115   2.456   2.823   1.515 -0.2494  2.9823 -1.4083
 5493SOL    HW228116   2.467   2.720   1.421  0.5473  0.1537  0.7439
 5494SOL     OW28117   0.472   1.197   9.884  0.5215 -0.0868  0.0154
 5494SOL    HW128118   0.482   1.231   9.973  3.2999 -0.2192 -0.2568
 5494SOL    HW228119   0.428   1.115   9.908  1.6303 -0.4655  0.7605
 5495SOL     OW28120   4.551   0.156  12.474  0.1349 -0.0583  0.1651
 5495SOL    HW128121   4.524   0.242  12.507 -0.1970 -0.5864  1.2438
 5495SOL    HW228122   4.466   0.143  12.432 -1.1406  0.7489  2.4803
 5496SOL     OW28123   3.013   3.306   7.771  0.4862  0.1458 -0.0904
 5496SOL    HW128124   3.088   3.366   7.774  1.5524 -1.2344  0.6465
 5496SOL    HW228125   3.008   3.300   7.867 -1.4856 -0.4363 -0.2388
 5497SOL     OW28126   2.810   1.746   3.571 -0.0766  0.1709 -0.0925
 5497SOL    HW128127   2.833   1.819   3.514  0.8220  1.7677  2.3371
 5497SOL    HW228128   2.853   1.674   3.525  1.3131  0.8225  0.1924
 5498SOL     OW28129   1.384   0.472   8.503 -0.4025 -0.1624  0.1515
 5498SOL    HW128130   1.380   0.509   8.591  2.1264 -1.6348  0.8703
 5498SOL    HW228131   1.454   0.527   8.468 -0.3008 -1.3001 -1.4547
 5499SOL     OW28132   3.214   3.829   6.006 -0.1923  0.0865 -0.7940
 5499SOL    HW128133   3.296   3.873   6.027 -0.4367  0.3737 -0.4591
 5499SOL    HW228134   3.244   3.746   5.967 -0.0491 -1.0111  1.6596
 5500SOL     OW28135   4.163   3.364   3.237 -0.3242  0.0915 -0.3498
 5500SOL    HW128136   4.237   3.304   3.231 -0.1856  0.5379 -2.9146
 5500SOL    HW228137   4.124   3.350   3.323  1.0890  1.0448  0.4508
 5501SOL     OW28138   0.307   2.366   3.488 -0.5852 -0.0957  0.7923
 5501SOL    HW128139   0.291   2.436   3.426  2.6657  0.9933  1.1756
 5501SOL    HW228140   0.351   2.307   3.427  1.0361  1.4013  0.5429
 5502SOL     OW28141   4.626   2.627  17.461  0.0901  0.1808 -0.7723
 5502SOL    HW128142   4.708   2.626  17.511  0.0167 -0.0091 -0.6558
 5502SOL    HW228143   4.579   2.682  17.524  0.5031  0.0697 -0.3628
 5503SOL     OW28144   2.089   2.019   8.113  0.0641 -0.0019  0.3308
 5503SOL    HW128145   2.075   2.087   8.047  0.1112  0.8606  1.2106
 5503SOL    HW228146   2.184   2.015   8.118 -0.0304 -0.7312  1.4250
 5504SOL     OW28147   4.049   4.273  10.337  0.0434  0.1853 -0.2467
 5504SOL    HW128148   3.994   4.339  10.296  0.5720  0.9331  0.2414
 5504SOL    HW228149   3.992   4.196  10.331  0.9379 -0.5629  0.7995
 5505SOL     OW28150   2.034   1.518  11.988 -0.0142  0.0858  0.3227
 5505SOL    HW128151   2.071   1.606  11.990 -0.8216  0.4803 -1.3798
 5505SOL    HW228152   2.102   1.475  12.039  0.4206 -1.9354 -1.9163
 5506SOL     OW28153   2.674   3.953   7.440  0.4900 -0.0545  0.3500
 5506SOL    HW128154   2.684   3.931   7.532 -1.9137  0.0012  0.6477
 5506SOL    HW228155   2.721   3.878   7.405 -0.2789 -0.3816  0.0055
 5507SOL     OW28156   0.611   0.400   9.802 -0.6037 -0.0608 -0.1890
 5507SOL    HW128157   0.669   0.467   9.841  2.9910 -2.9016 -0.6174
 5507SOL    HW228158   0.641   0.403   9.711  0.6876 -0.0770  0.2368
 5508SOL     OW28159   4.058   3.408  11.277 -0.2185 -0.0912 -0.2299
 5508SOL    HW128160   4.003   3.474  11.236  0.0675  0.1536 -0.2155
 5508SOL    HW228161   4.010   3.367  11.349 -0.4238 -1.3542 -1.0714
 5509SOL     OW28162   1.076   2.025   7.266  0.4790 -0.1156 -0.0424
 5509SOL    HW128163   0.992   2.003   7.306 -0.4583  0.6305 -1.6070
 5509SOL    HW228164   1.075   2.120   7.262  0.2600 -0.1627 -1.1283
 5510SOL     OW28165   3.017   2.028   4.014  0.5935 -0.3200 -0.2619
 5510SOL    HW128166   2.956   1.995   3.948 -0.1489  2.2534 -0.8794
 5510SOL    HW228167   2.977   2.008   4.099  1.0645  0.9840  0.2693
 5511SOL     OW28168   4.669   3.566   4.844  0.3451 -0.1635 -0.0770
 5511SOL    HW128169   4.594   3.508   4.855 -0.8752  1.2760 -0.8964
 5511SOL    HW228170   0.006   3.507   4.857  0.6991 -0.2773 -2.7215
 5512SOL     OW28171   4.442   1.671   7.489 -0.0974  0.0609 -0.0155
 5512SOL    HW128172   4.364   1.680   7.434 -1.6041 -3.0172  1.6509
 5512SOL    HW228173   4.396   1.640   7.567 -1.0846 -0.7263 -0.9281
 5513SOL     OW28174   0.457   2.575   3.973 -0.1167 -0.3812  0.3453
 5513SOL    HW128175   0.431   2.535   3.890 -2.0144  1.0678  0.2585
 5513SOL    HW228176   0.490   2.505   4.029 -0.7081  0.9042  2.2974
 5514SOL     OW28177   3.357   3.889   0.948  0.2070 -0.0475 -0.3756
 5514SOL    HW128178   3.327   3.955   1.010 -0.0371  1.5573 -2.1648
 5514SOL    HW228179   3.389   3.946   0.878 -0.1448  1.2991  0.5611
 5515SOL     OW28180   4.648   1.139   8.528  0.0866 -0.2515  0.4907
 5515SOL    HW128181   4.587   1.206   8.499 -0.1335 -0.3910  0.6302
 5515SOL    HW228182   4.645   1.069   8.462  1.1253 -0.8409  1.0593
 5516SOL     OW28183   2.008   2.403   8.610  0.7004  0.1452  0.6301
 5516SOL    HW128184   2.025   2.496   8.617  0.6044  0.2493 -0.6235
 5516SOL    HW228185   2.059   2.385   8.532  1.0994  1.0032  0.7065
 5517SOL     OW28186   3.754   1.084   6.067  0.4747 -0.4105  0.2542
 5517SOL    HW128187   3.729   1.110   6.155  0.1636 -0.5387  0.2051
 5517SOL    HW228188   3.817   1.148   6.034  0.3504 -0.5312 -0.2229
 5518SOL     OW28189   1.720   1.629   4.264 -0.1981 -0.4474  0.0558
 5518SOL    HW128190   1.787   1.621   4.331 -0.9123  1.8309  1.0819
 5518SOL    HW228191   1.641   1.622   4.318 -0.2671  0.3144  0.0592
 5519SOL     OW28192   2.393   3.411  14.249  0.8897  0.7040  0.0603
 5519SOL    HW128193   2.428   3.323  14.236 -0.5392  0.3436 -1.3510
 5519SOL    HW228194   2.436   3.460  14.179  1.5768 -1.7441 -1.2291
 5520SOL     OW28195   2.423   1.805  11.255 -0.1275 -0.0484  0.2580
 5520SOL    HW128196   2.360   1.738  11.228 -0.8683  1.1588 -0.9742
 5520SOL    HW228197   2.507   1.762  11.272  0.4902  0.1184 -2.2437
 5521SOL     OW28198   2.243   1.241   4.940 -0.6323  0.3481 -0.3704
 5521SOL    HW128199   2.339   1.240   4.933 -0.5449  1.1039  0.6792
 5521SOL    HW228200   2.212   1.317   4.891 -0.6494 -0.6186 -1.8440
 5522SOL     OW28201   3.504   1.436   6.434 -0.0875 -0.3871  0.2079
 5522SOL    HW128202   3.423   1.454   6.386  0.1025 -1.8559 -0.6462
 5522SOL    HW228203   3.470   1.442   6.523  0.2058  0.3562  0.2737
 5523SOL     OW28204   4.687   4.191  14.597 -0.0825  0.0461  0.2730
 5523SOL    HW128205   4.735   4.267  14.566 -2.4198  1.0072 -0.9718
 5523SOL    HW228206   0.003   4.129  14.549 -1.0209 -0.9775  0.5332
 5524SOL     OW28207   3.477   0.126  13.315 -0.4745 -0.4552  0.1827
 5524SOL    HW128208   3.561   0.164  13.288  1.2156 -3.4363  1.2274
 5524SOL    HW228209   3.433   0.203  13.350 -1.4915 -0.5311 -0.9216
 5525SOL     OW28210   4.534   0.989   5.742 -0.5001 -0.2224 -0.2939
 5525SOL    HW128211   4.438   0.985   5.743 -0.4714 -0.8283 -0.2059
 5525SOL    HW228212   4.542   1.078   5.778  4.3538 -0.2601 -1.2492
 5526SOL     OW28213   3.968   0.652  15.706 -0.5169  0.2941  0.5202
 5526SOL    HW128214   3.938   0.665  15.616  0.4155 -0.7837  0.0501
 5526SOL    HW228215   4.054   0.609  15.699  0.5897  2.8622 -1.6753
 5527SOL     OW28216   1.481   2.032  11.689  0.3920  0.1343  0.7143
 5527SOL    HW128217   1.474   1.936  11.690  0.8852  0.0946  0.0663
 5527SOL    HW228218   1.565   2.052  11.649 -0.4854  0.7382 -0.8134
 5528SOL     OW28219   2.802   2.103   5.621 -0.7865 -0.1875 -0.4195
 5528SOL    HW128220   2.745   2.143   5.687 -0.8757  0.6288 -0.9790
 5528SOL    HW228221   2.737   2.056   5.570 -0.1185 -1.5253 -0.0410
 5529SOL     OW28222   4.072   1.395  10.886 -0.3055  0.1091 -0.0049
 5529SOL    HW128223   4.077   1.394  10.790 -2.6524 -1.0696 -0.0998
 5529SOL    HW228224   4.020   1.471  10.910 -0.8407 -0.1808 -0.2558
 5530SOL     OW28225   0.060   2.308   5.316 -0.0675  0.4874  0.4795
 5530SOL    HW128226   0.107   2.227   5.298 -1.7266 -0.8761  2.1757
 5530SOL    HW228227   0.101   2.363   5.249  1.6175 -1.8125 -0.3644
 5531SOL     OW28228   0.577   4.252   5.294  0.0502  0.5526  0.0245
 5531SOL    HW128229   0.593   4.220   5.205 -1.2356  0.8713 -0.3103
 5531SOL    HW228230   0.494   4.296   5.278 -0.1422 -0.0436 -0.6367
 5532SOL     OW28231   2.948   3.805   2.192  0.2469 -0.1543 -0.0052
 5532SOL    HW128232   2.879   3.857   2.152  1.0691  0.3968 -0.7116
 5532SOL    HW228233   2.974   3.844   2.275  0.2351  0.1391 -0.1409
 5533SOL     OW28234   3.517   2.076  16.641  0.1552  0.0483  0.4158
 5533SOL    HW128235   3.547   2.026  16.716 -0.0387 -0.5654  0.0801
 5533SOL    HW228236   3.584   2.054  16.576  0.8652  0.9829  0.8228
 5534SOL     OW28237   4.646   2.481   2.889 -0.2814  0.0309  0.7117
 5534SOL    HW128238   4.632   2.553   2.950 -0.1400  0.7884 -0.1509
 5534SOL    HW228239   4.594   2.503   2.811 -2.0237  1.8828  2.3970
 5535SOL     OW28240   1.439   0.397  16.368 -0.2517 -0.1857 -0.0982
 5535SOL    HW128241   1.442   0.317  16.421 -1.9450 -0.9618 -1.1595
 5535SOL    HW228242   1.407   0.363  16.285  1.6303  0.0907 -0.9348
 5536SOL     OW28243   1.348   1.335   0.725 -0.1091 -0.0107  0.8869
 5536SOL    HW128244   1.269   1.363   0.679  0.2174 -1.6913 -0.6849
 5536SOL    HW228245   1.348   1.242   0.704  0.4842 -0.2985  2.1712
 5537SOL     OW28246   3.380   1.121   6.879 -0.1810 -0.1608  0.3571
 5537SOL    HW128247   3.450   1.119   6.813  0.0924 -0.9408  0.6669
 5537SOL    HW228248   3.434   1.121   6.958 -0.4066  0.0120  0.5112
 5538SOL     OW28249   1.000   1.221  12.008  1.0054 -0.2818 -0.3200
 5538SOL    HW128250   0.974   1.306  12.043  1.0941  0.4209 -1.9786
 5538SOL    HW228251   1.091   1.238  11.986  1.6997 -0.7574  2.1453
 5539SOL     OW28252   4.039   3.576   3.832  0.0788 -0.0679  0.2217
 5539SOL    HW128253   4.094   3.550   3.758 -2.5648  1.5542 -2.2722
 5539SOL    HW228254   3.993   3.650   3.794 -1.5707  0.9054  4.0512
 5540SOL     OW28255   1.878   0.052  12.186  0.6663 -0.0655  0.0040
 5540SOL    HW128256   1.858   4.716  12.243  1.1913 -0.1787  0.0372
 5540SOL    HW228257   1.970   0.046  12.162  0.3531  0.1198 -1.2121
 5541SOL     OW28258   3.231   2.211   6.366  0.6725 -0.1713  0.0431
 5541SOL    HW128259   3.203   2.120   6.378 -0.7908  0.0016 -2.0113
 5541SOL    HW228260   3.304   2.214   6.428  1.7331 -1.2237 -1.1428
 5542SOL     OW28261   4.156   4.719   7.068  0.3291 -0.0600 -0.3225
 5542SOL    HW128262   4.159   4.627   7.042 -0.2689 -0.1815  0.0365
 5542SOL    HW228263   4.156   4.721   7.164 -1.5067 -2.4822 -0.3006
 5543SOL     OW28264   1.372   3.447  14.125 -0.2770  0.0094  0.0688
 5543SOL    HW128265   1.286   3.451  14.084 -1.5978 -1.0776  2.7563
 5543SOL    HW228266   1.422   3.518  14.084  0.5262 -0.9941 -0.6749
 5544SOL     OW28267   3.245   2.842   4.413 -0.5430 -0.3638 -0.1236
 5544SOL    HW128268   3.325   2.880   4.448 -1.7770  0.0000  2.2823
 5544SOL    HW228269   3.212   2.920   4.368  1.8503 -0.0115 -1.2809
 5545SOL     OW28270   0.569   2.759   7.352  0.0559 -0.2911 -0.6119
 5545SOL    HW128271   0.573   2.854   7.346 -1.0664 -0.3132 -1.8117
 5545SOL    HW228272   0.628   2.737   7.280  1.7143  2.3496 -0.0455
 5546SOL     OW28273   4.261   4.006   6.161  0.2319  0.4449  0.3973
 5546SOL    HW128274   4.344   4.054   6.156  0.0601  0.7902  0.8591
 5546SOL    HW228275   4.251   4.020   6.255 -1.0447  1.0755  0.1625
 5547SOL     OW28276   3.687   3.079   7.996  0.2916 -0.1244 -0.1080
 5547SOL    HW128277   3.664   3.005   8.051  0.7307  1.2612  1.9473
 5547SOL    HW228278   3.744   3.133   8.051 -1.2191 -0.0306  1.3957
 5548SOL     OW28279   1.425   2.763   6.246 -0.5872  0.1318  0.2815
 5548SOL    HW128280   1.486   2.823   6.205 -1.7378  1.8770  1.0953
 5548SOL    HW228281   1.442   2.765   6.341 -1.9352  1.5106  0.5033
 5549SOL     OW28282   4.502   1.035   8.879 -0.1266  0.3296  0.2147
 5549SOL    HW128283   4.480   1.128   8.869 -1.3033  0.2015  1.6366
 5549SOL    HW228284   4.597   1.031   8.864 -0.0860  0.6550  0.3984
 5550SOL     OW28285   2.249   0.094  14.664  0.3248 -0.5838 -0.4292
 5550SOL    HW128286   2.287   0.015  14.626 -1.1889 -2.1227  1.2554
 5550SOL    HW228287   2.155   0.077  14.655  0.3739 -0.3378 -1.3971
 5551SOL     OW28288   0.319   4.425   9.788 -0.1706  0.1729  0.0685
 5551SOL    HW128289   0.302   4.515   9.758  0.7124  0.1746 -0.4341
 5551SOL    HW228290   0.247   4.379   9.746  0.2429  0.4896 -0.9790
 5552SOL     OW28291   3.933   3.811   8.949 -0.7922  0.1488 -0.3222
 5552SOL    HW128292   3.907   3.724   8.982  0.2026 -0.8504 -2.2111
 5552SOL    HW228293   3.848   3.856   8.942  0.2623  1.9682 -1.3355
 5553SOL     OW28294   0.518   3.248   8.415 -0.1858 -0.1646  0.1953
 5553SOL    HW128295   0.597   3.259   8.362  1.2950 -1.0946  2.2097
 5553SOL    HW228296   0.504   3.338   8.444  3.5294 -0.3451  2.5672
 5554SOL     OW28297   0.340   2.743   8.191 -0.2359 -0.3907 -0.0733
 5554SOL    HW128298   0.415   2.695   8.154  0.8104  0.8282  0.4675
 5554SOL    HW228299   0.345   2.704   8.278  1.3124  0.4653  0.2201
 5555SOL     OW28300   0.622   1.165   3.803 -0.3071 -0.0292  0.3570
 5555SOL    HW128301   0.571   1.157   3.883 -2.7671  0.4322 -1.1589
 5555SOL    HW228302   0.569   1.113   3.743 -1.5412 -0.1885  1.5971
 5556SOL     OW28303   4.735   1.193   5.493 -0.4454  0.2755 -0.4267
 5556SOL    HW128304   0.059   1.221   5.425 -1.5430  1.0602 -1.1049
 5556SOL    HW228305   4.678   1.270   5.498 -0.1580  0.2566  3.1080
 5557SOL     OW28306   4.095   3.598   7.983  0.1362  0.0039 -0.2262
 5557SOL    HW128307   4.179   3.591   8.030  0.8342 -0.1397 -1.5006
 5557SOL    HW228308   4.129   3.581   7.895  0.6126  2.6980 -0.5431
 5558SOL     OW28309   3.980   3.377   6.555 -0.0715  0.1469 -0.2614
 5558SOL    HW128310   3.960   3.325   6.478 -0.6174 -1.3311  0.8692
 5558SOL    HW228311   4.074   3.381   6.540  0.0722  0.9574  0.8503
 5559SOL     OW28312   3.253   3.260   3.270  0.5514 -0.0099  0.2211
 5559SOL    HW128313   3.346   3.271   3.290  0.1365  2.2724  0.9637
 5559SOL    HW228314   3.249   3.165   3.263  1.2096  0.0826 -1.3331
 5560SOL     OW28315   0.017   1.126   6.903  0.0506 -0.0737  0.1117
 5560SOL    HW128316   4.669   1.159   6.930  1.2916  3.1158  0.2018
 5560SOL    HW228317   0.003   1.031   6.908  1.0939 -0.2113  0.3970
 5561SOL     OW28318   3.629   2.673   7.922  0.7882  0.8650  0.0680
 5561SOL    HW128319   3.550   2.628   7.891  0.8748  2.5418 -2.5281
 5561SOL    HW228320   3.586   2.755   7.946  2.4604  1.3314  1.4315
 5562SOL     OW28321   3.633   4.038  12.320 -0.0401 -0.4449  0.0476
 5562SOL    HW128322   3.608   3.980  12.248 -1.2345  0.4998 -0.3023
 5562SOL    HW228323   3.556   4.027  12.375 -0.1417  2.5618  0.5269
 5563SOL     OW28324   3.403   1.799  12.901  0.1244  0.9064  0.3727
 5563SOL    HW128325   3.369   1.885  12.928  0.7736  1.4272 -0.4409
 5563SOL    HW228326   3.340   1.741  12.943  1.0310 -0.6040 -0.3442
 5564SOL     OW28327   2.630   2.352  15.616 -0.1208  0.2205 -0.6988
 5564SOL    HW128328   2.620   2.379  15.525 -0.1643 -1.1431 -1.0927
 5564SOL    HW228329   2.601   2.261  15.610 -0.3056  0.2695 -0.5412
 5565SOL     OW28330   1.489   0.152   7.249 -1.0181 -0.1732 -0.0507
 5565SOL    HW128331   1.552   0.165   7.319 -1.9975 -2.0659  1.1804
 5565SOL    HW228332   1.518   0.068   7.214  0.7944 -0.4866  2.2890
 5566SOL     OW28333   4.331   0.988   9.896  0.0533  0.5591 -0.4023
 5566SOL    HW128334   4.343   0.894   9.884  0.8562  0.3447  2.0439
 5566SOL    HW228335   4.270   1.001   9.823 -0.2920 -3.3790 -0.8066
 5567SOL     OW28336   3.903   0.285   4.372  0.0218 -0.2166 -0.0423
 5567SOL    HW128337   3.978   0.286   4.431 -0.4589 -2.0996  0.6232
 5567SOL    HW228338   3.838   0.297   4.442  0.4013 -2.5385  0.7362
 5568SOL     OW28339   0.164   1.962   1.193 -0.5846 -0.2965  0.1481
 5568SOL    HW128340   0.136   1.963   1.285 -1.0146  1.6354 -0.0181
 5568SOL    HW228341   0.244   1.911   1.183 -0.5172 -0.6950  2.5639
 5569SOL     OW28342   2.248   0.678   8.165 -0.0211  0.0565 -0.0155
 5569SOL    HW128343   2.315   0.745   8.182 -1.2558  1.1384  0.6197
 5569SOL    HW228344   2.181   0.744   8.144  0.2791  0.3212 -0.1407
 5570SOL     OW28345   1.852   2.057   4.761  0.4825 -0.0841  0.3772
 5570SOL    HW128346   1.773   2.104   4.735  1.4684  0.9284 -0.8077
 5570SOL    HW228347   1.878   2.105   4.840  0.1085 -0.4106  0.6995
 5571SOL     OW28348   2.015   1.457  10.505 -0.6672 -0.3684 -0.1452
 5571SOL    HW128349   2.023   1.400  10.428  1.6546 -2.5336  1.7061
 5571SOL    HW228350   1.983   1.535  10.458 -0.6976 -0.3470 -0.0885
 5572SOL     OW28351   1.608   1.311   2.309 -0.1304  0.1648 -0.8093
 5572SOL    HW128352   1.659   1.309   2.390  0.8716  0.7010 -1.4146
 5572SOL    HW228353   1.526   1.280   2.346  0.3368 -0.6150 -0.4191
 5573SOL     OW28354   1.532   1.409   3.989  0.4438  0.1965  0.1754
 5573SOL    HW128355   1.540   1.366   4.074 -1.6812  0.5191  0.5526
 5573SOL    HW228356   1.448   1.455   3.996 -0.6093 -1.9352  1.6073
 5574SOL     OW28357   4.525   4.089   6.184  0.1636  0.1736  0.4573
 5574SOL    HW128358   4.564   4.011   6.222  0.5083 -0.9139 -2.1327
 5574SOL    HW228359   4.583   4.138   6.125 -1.7876 -0.6039 -2.1406
 5575SOL     OW28360   0.593   2.230   9.427 -0.3921  0.6644  0.1230
 5575SOL    HW128361   0.568   2.225   9.334 -1.6589  2.5177  0.3626
 5575SOL    HW228362   0.609   2.323   9.447  0.7281  0.7683 -1.2703
 5576SOL     OW28363   1.571   1.891   6.435  0.5702 -0.6094 -0.6783
 5576SOL    HW128364   1.495   1.895   6.377  2.1381  0.0023 -2.6855
 5576SOL    HW228365   1.528   1.858   6.513 -0.4942  1.0221 -0.5549
 5577SOL     OW28366   2.224   0.191   4.721 -0.3431  0.7139 -0.4753
 5577SOL    HW128367   2.307   0.145   4.716 -0.1002  1.1161 -0.1765
 5577SOL    HW228368   2.258   0.266   4.770 -1.0562 -0.1511  1.3420
 5578SOL     OW28369   4.154   1.797  10.849  0.6393 -0.1572  0.1437
 5578SOL    HW128370   4.226   1.791  10.911  2.8564 -1.4812 -2.5363
 5578SOL    HW228371   4.201   1.760  10.774  0.6355 -0.6245  0.3732
 5579SOL     OW28372   1.413   2.286   7.341 -0.4693 -0.5298 -0.5793
 5579SOL    HW128373   1.394   2.304   7.249 -1.4107 -0.7852 -0.4392
 5579SOL    HW228374   1.344   2.341   7.379  1.3035  1.2490  0.0444
 5580SOL     OW28375   1.221   3.825   4.257 -0.3536  0.0810 -0.2370
 5580SOL    HW128376   1.140   3.873   4.238 -0.5655 -0.2204 -0.0883
 5580SOL    HW228377   1.266   3.899   4.297 -0.1220 -0.0815 -0.1985
 5581SOL     OW28378   0.512   2.912   9.178 -0.1020  0.0776  0.6792
 5581SOL    HW128379   0.602   2.926   9.205  0.1777  0.1089 -0.2773
 5581SOL    HW228380   0.500   2.987   9.120 -1.7684  1.3328  2.6615
 5582SOL     OW28381   3.011   2.424  16.448 -0.0399 -0.4733 -0.5317
 5582SOL    HW128382   2.918   2.442  16.463  0.4696  0.7798  1.1306
 5582SOL    HW228383   3.016   2.443  16.354  2.3276 -1.3134 -0.5824
 5583SOL     OW28384   3.012   0.408   5.245 -0.2343 -0.1684 -0.3823
 5583SOL    HW128385   3.031   0.475   5.179  2.2276  2.6716  3.1645
 5583SOL    HW228386   2.956   0.349   5.194 -0.9791 -1.3970  1.8840
 5584SOL     OW28387   2.491   0.771   3.644 -0.0486 -0.3183 -0.0716
 5584SOL    HW128388   2.492   0.862   3.614  0.3480 -0.3598 -0.1871
 5584SOL    HW228389   2.542   0.778   3.725  0.8475  2.3359 -0.8681
 5585SOL     OW28390   0.393   1.525   4.730 -0.1395  0.8375 -0.0360
 5585SOL    HW128391   0.400   1.436   4.766 -1.9707 -0.4311 -2.7971
 5585SOL    HW228392   0.478   1.534   4.686  0.6978  1.0175  1.6186
 5586SOL     OW28393   0.474   2.882   5.201 -0.6400 -0.2528  0.5480
 5586SOL    HW128394   0.505   2.849   5.116  0.1904 -0.1434  0.8130
 5586SOL    HW228395   0.473   2.976   5.182 -1.4795 -0.0184  1.7886
 5587SOL     OW28396   3.232   2.628   4.213  0.3599 -0.6762  0.0193
 5587SOL    HW128397   3.257   2.557   4.272  2.4382 -2.2663 -2.7978
 5587SOL    HW228398   3.236   2.699   4.278  0.4945 -1.1839  0.5658
 5588SOL     OW28399   4.561   4.690   4.017  0.2345 -0.2553 -0.2289
 5588SOL    HW128400   4.593   0.017   4.079  0.5028  0.9732 -1.6469
 5588SOL    HW228401   4.500   4.738   3.961 -0.8890  0.5698  1.6957
 5589SOL     OW28402   0.533   3.553  13.166  0.0686  0.0592  0.0740
 5589SOL    HW128403   0.505   3.522  13.080 -1.3961  0.4413  0.4109
 5589SOL    HW228404   0.620   3.515  13.174  0.6134  1.0689 -1.1512
 5590SOL     OW28405   1.144   3.951   5.645 -0.3356  0.6213  0.4142
 5590SOL    HW128406   1.083   3.885   5.612  0.0888  0.5504 -0.2219
 5590SOL    HW228407   1.195   3.969   5.567  0.4426  0.0017  0.7841
 5591SOL     OW28408   1.683   3.081   6.284  0.6416  0.2758 -0.1654
 5591SOL    HW128409   1.626   3.140   6.235  2.9554  2.9974  0.4649
 5591SOL    HW228410   1.665   2.997   6.242 -2.0322  0.2191  1.0649
 5592SOL     OW28411   1.071   1.942   6.022  0.3089 -0.1913 -0.0082
 5592SOL    HW128412   1.081   2.036   6.011  0.6756 -0.1193  0.9693
 5592SOL    HW228413   1.039   1.933   6.111  0.4039  0.4992  0.0906
 5593SOL     OW28414   1.197   0.111   3.263  0.0032  0.4297  0.0832
 5593SOL    HW128415   1.218   0.099   3.356  1.0154  1.0896 -0.0559
 5593SOL    HW228416   1.107   0.078   3.257  0.1491 -0.6331  3.5778
 5594SOL     OW28417   2.609   1.838   7.079 -0.3130  0.0309 -0.0352
 5594SOL    HW128418   2.610   1.854   7.173 -0.3895 -0.1500 -0.0044
 5594SOL    HW228419   2.697   1.802   7.066  0.8690  2.3641  1.3906
 5595SOL     OW28420   2.147   3.353   3.648 -0.3358  0.3875  0.1257
 5595SOL    HW128421   2.190   3.268   3.651  0.9222  1.1290  2.6138
 5595SOL    HW228422   2.130   3.371   3.740 -2.5077  0.8860 -0.3764
 5596SOL     OW28423   1.620   2.961   1.622  0.0925 -0.4498  0.0543
 5596SOL    HW128424   1.711   2.934   1.633 -0.1773  0.7779  5.0174
 5596SOL    HW228425   1.586   2.965   1.711 -1.7984  1.3369 -0.7457
 5597SOL     OW28426   2.525   4.699  15.451 -0.1367 -0.1997 -0.0999
 5597SOL    HW128427   2.539   0.035  15.392 -0.7219  0.7119  0.9307
 5597SOL    HW228428   2.486   4.630  15.397  2.6535 -1.5896 -0.3564
 5598SOL     OW28429   1.472   0.491   2.456 -0.2702  0.2613 -0.5768
 5598SOL    HW128430   1.445   0.480   2.547 -0.4420 -1.2472 -0.8013
 5598SOL    HW228431   1.549   0.436   2.468  0.6717  1.3025 -1.8495
 5599SOL     OW28432   3.543   2.554   2.084  0.4528 -0.4679 -0.3679
 5599SOL    HW128433   3.625   2.586   2.047  0.9186 -0.9972  0.2314
 5599SOL    HW228434   3.479   2.624   2.068 -0.2108 -0.7172  1.2397
 5600SOL     OW28435   4.290   0.157   3.647  0.0612 -0.3215  0.2853
 5600SOL    HW128436   4.245   0.092   3.592 -1.6631  0.1311  1.1743
 5600SOL    HW228437   4.334   0.211   3.581 -2.2598 -1.0986 -1.9038
 5601SOL     OW28438   0.149   3.347   8.311  0.2034 -0.2197 -0.4033
 5601SOL    HW128439   0.144   3.370   8.219  1.0382  0.9345 -0.1593
 5601SOL    HW228440   0.092   3.416   8.345 -0.1850  0.2570 -2.0170
 5602SOL     OW28441   3.203   2.227   3.988  0.1460 -0.1041 -0.6547
 5602SOL    HW128442   3.141   2.155   3.988 -0.7680  0.6872 -0.0456
 5602SOL    HW228443   3.140   2.299   3.986 -1.4290 -1.4341  1.3908
 5603SOL     OW28444   2.851   0.010   2.776 -0.5607  0.1095 -0.0252
 5603SOL    HW128445   2.932   0.040   2.736 -1.0180  2.5081  0.8750
 5603SOL    HW228446   2.793   0.083   2.753  1.0592  0.6210 -2.4865
 5604SOL     OW28447   4.364   1.198  16.256  0.4277  0.1276  0.7177
 5604SOL    HW128448   4.385   1.287  16.226  0.9571 -0.3472 -0.3481
 5604SOL    HW228449   4.444   1.146  16.245 -0.5839 -0.7196 -2.8408
 5605SOL     OW28450   3.503   4.630   2.120  0.2022 -0.2170  0.6603
 5605SOL    HW128451   3.540   4.580   2.193  0.0665  0.9847  1.5458
 5605SOL    HW228452   3.579   4.683   2.096  0.1286 -1.7683 -2.9457
 5606SOL     OW28453   3.720   0.573   8.984  0.2863 -0.8350 -0.9501
 5606SOL    HW128454   3.714   0.485   9.020  0.8341 -0.2182  0.6501
 5606SOL    HW228455   3.649   0.620   9.028 -0.1227  0.1793 -2.6838
 5607SOL     OW28456   4.180   4.163  17.421 -0.0170 -0.2171 -0.0543
 5607SOL    HW128457   4.255   4.130  17.371 -0.6790 -1.9178  0.0662
 5607SOL    HW228458   4.161   4.108  17.497 -1.4733  0.5949  0.1504
 5608SOL     OW28459   2.724   0.792   3.403  0.2603  0.5696 -0.3430
 5608SOL    HW128460   2.743   0.795   3.309  1.4772  4.6103  0.0202
 5608SOL    HW228461   2.664   0.867   3.404 -0.1712  0.1800  1.6748
 5609SOL     OW28462   1.947   4.468  10.003 -0.0975  0.7468  0.0491
 5609SOL    HW128463   1.858   4.462  10.038 -0.3396 -1.7171 -0.9831
 5609SOL    HW228464   1.975   4.385   9.966 -0.3771  0.5785  0.2092
 5610SOL     OW28465   3.244   2.514  13.707  0.4264  0.6821  0.1415
 5610SOL    HW128466   3.166   2.528  13.654 -0.4885 -0.1478  1.2799
 5610SOL    HW228467   3.296   2.456  13.652 -1.6232  1.0209 -2.1314
 5611SOL     OW28468   1.926   4.576   8.249 -0.4311 -0.1382 -0.3729
 5611SOL    HW128469   1.930   4.664   8.211  1.1411  0.1135  0.3553
 5611SOL    HW228470   1.892   4.599   8.335  0.4551  1.4325 -0.4442
 5612SOL     OW28471   2.889   4.554   0.278 -0.3104 -0.5197  0.4894
 5612SOL    HW128472   2.811   4.609   0.282  1.1235  1.4119  1.7955
 5612SOL    HW228473   2.944   4.581   0.351  1.1318  0.6776 -1.0482
 5613SOL     OW28474   4.214   3.590   1.506  0.3231  0.1556 -0.3819
 5613SOL    HW128475   4.227   3.550   1.592 -2.8580  0.1752  0.1353
 5613SOL    HW228476   4.264   3.535   1.446 -1.8916 -1.9644 -0.2816
 5614SOL     OW28477   3.608   1.127  11.332 -0.1366  0.7725 -0.7700
 5614SOL    HW128478   3.557   1.070  11.275 -0.0174  2.0641 -2.1922
 5614SOL    HW228479   3.659   1.058  11.374 -0.8833  0.8462  0.2674
 5615SOL     OW28480   3.493   1.551  15.646  0.0492 -0.3480 -0.4378
 5615SOL    HW128481   3.459   1.620  15.704  0.5064 -0.5415  0.0566
 5615SOL    HW228482   3.517   1.483  15.709  1.0194  0.7457  0.3799
 5616SOL     OW28483   3.558   2.482   8.325  0.4119 -0.4155  0.1667
 5616SOL    HW128484   3.639   2.498   8.277  0.6785 -0.0242  0.7551
 5616SOL    HW228485   3.562   2.405   8.382 -3.7776 -1.0812 -0.3917
 5617SOL     OW28486   1.735   1.880   2.159  0.4076  0.1426 -0.4997
 5617SOL    HW128487   1.653   1.881   2.110  0.3743  2.1965 -0.4303
 5617SOL    HW228488   1.775   1.796   2.139  0.6542  0.5723 -1.7565
 5618SOL     OW28489   3.012   1.793   8.664 -0.3316  0.3600  0.1617
 5618SOL    HW128490   3.065   1.863   8.702  1.7180  0.7794 -3.5324
 5618SOL    HW228491   3.064   1.717   8.689  0.7192  1.6089  1.7650
 5619SOL     OW28492   2.199   1.690   6.059 -0.3175 -0.7212  0.0995
 5619SOL    HW128493   2.147   1.614   6.034 -1.0265 -0.9476  2.2204
 5619SOL    HW228494   2.250   1.645   6.126 -1.4668 -1.2929  0.5962
 5620SOL     OW28495   0.669   3.826  10.197 -0.0338  0.6133  0.2279
 5620SOL    HW128496   0.585   3.870  10.211 -1.2605 -1.3701 -0.8728
 5620SOL    HW228497   0.658   3.745  10.246  1.3988  0.4144  0.2089
 5621SOL     OW28498   0.279   2.946   9.321 -0.1836 -0.7281 -0.5114
 5621SOL    HW128499   0.365   2.913   9.294 -0.4812  0.3964 -2.7971
 5621SOL    HW228500   0.281   3.040   9.304  0.2920 -0.4740  0.9364
 5622SOL     OW28501   2.540   1.398   7.365 -0.5728  0.2945  0.6418
 5622SOL    HW128502   2.505   1.392   7.276 -0.0181 -0.5334  0.4860
 5622SOL    HW228503   2.572   1.488   7.362  2.0874 -0.7399 -2.3754
 5623SOL     OW28504   3.335   4.588   8.540 -0.5153 -0.2919  0.1333
 5623SOL    HW128505   3.344   4.571   8.446 -0.7138  1.0573 -0.1361
 5623SOL    HW228506   3.256   4.534   8.549  1.0152 -2.3981  0.7638
 5624SOL     OW28507   2.251   2.662   6.784 -0.0424 -0.3084 -0.4626
 5624SOL    HW128508   2.186   2.665   6.854 -0.3471 -1.6718 -0.6894
 5624SOL    HW228509   2.323   2.617   6.828 -0.1687  1.5466  1.6026
 5625SOL     OW28510   0.680   2.694  11.372  0.2584 -0.1830  0.2219
 5625SOL    HW128511   0.595   2.674  11.332  0.0311 -0.1877  0.6987
 5625SOL    HW228512   0.712   2.759  11.310  1.5315  2.6810  3.8772
 5626SOL     OW28513   2.500   3.890   4.876  0.2278 -0.1864  0.3000
 5626SOL    HW128514   2.561   3.958   4.904 -0.0888  0.1783  0.0983
 5626SOL    HW228515   2.500   3.839   4.957  0.7363  2.5564  2.0013
 5627SOL     OW28516   3.210   1.581  15.903 -0.2185 -0.4926  0.0259
 5627SOL    HW128517   3.257   1.523  15.963  1.6502  1.3795  0.3885
 5627SOL    HW228518   3.278   1.648  15.891 -1.0534 -0.1576 -2.7459
 5628SOL     OW28519   0.928   4.145  17.366  0.3587  0.7740  0.2916
 5628SOL    HW128520   0.947   4.169  17.456 -0.4092  1.7202  0.1972
 5628SOL    HW228521   0.968   4.058  17.366  4.2911  2.6137  1.6100
 5629SOL     OW28522   3.057   2.255   7.392  0.2858  0.3372 -0.5218
 5629SOL    HW128523   3.107   2.177   7.418 -0.5093  0.4718  1.4175
 5629SOL    HW228524   2.984   2.253   7.453  1.7404  0.9687  1.2229
 5630SOL     OW28525   4.543   4.328   1.806  0.0176  0.4156 -0.0397
 5630SOL    HW128526   4.636   4.351   1.816 -0.3500  2.1209 -0.5356
 5630SOL    HW228527   4.500   4.409   1.835  1.1881  1.6579 -1.7575
 5631SOL     OW28528   1.799   1.008   3.433 -0.5211  0.3342 -0.3871
 5631SOL    HW128529   1.855   1.080   3.462  3.2198 -2.9394  0.5430
 5631SOL    HW228530   1.856   0.966   3.368 -1.2834  0.1052 -0.9170
 5632SOL     OW28531   0.936   3.332   5.677  0.0050  0.0785  0.0637
 5632SOL    HW128532   0.944   3.286   5.594 -2.4312  0.9153 -0.6235
 5632SOL    HW228533   0.920   3.422   5.651  1.2605 -0.2692 -1.9224
 5633SOL     OW28534   3.140   4.456  14.080 -0.7556  0.0088  0.2688
 5633SOL    HW128535   3.061   4.402  14.070 -0.6361  0.1565 -1.4894
 5633SOL    HW228536   3.146   4.501  13.996  2.7202  0.0888  0.5822
 5634SOL     OW28537   0.503   4.546   2.930 -0.1341  0.7160 -0.3700
 5634SOL    HW128538   0.430   4.561   2.991 -0.1567 -0.5018 -0.0966
 5634SOL    HW228539   0.571   4.588   2.982  0.1857  1.4675 -1.4296
 5635SOL     OW28540   4.262   0.129  12.372 -0.2851  0.6179 -0.0741
 5635SOL    HW128541   4.168   0.141  12.385 -0.2978  0.3342  0.1052
 5635SOL    HW228542   4.270   0.088  12.458 -0.0871  0.0904 -0.3393
 5636SOL     OW28543   2.188   2.796   6.567 -0.8038  0.3658 -0.3924
 5636SOL    HW128544   2.148   2.719   6.528 -0.3367  0.9670 -2.0465
 5636SOL    HW228545   2.232   2.758   6.644  1.1859 -0.7424 -2.0783
 5637SOL     OW28546   0.165   0.253  15.548 -0.3630 -0.4659  0.7152
 5637SOL    HW128547   0.243   0.299  15.578  0.2863 -0.5835 -0.7978
 5637SOL    HW228548   0.114   0.258  15.629 -1.9452 -1.2864 -0.2221
 5638SOL     OW28549   4.618   1.009   0.456  0.5734  0.1977 -0.4659
 5638SOL    HW128550   4.600   0.980   0.367  1.9526  0.5272 -0.8563
 5638SOL    HW228551   4.655   0.928   0.492 -2.3926 -2.2024 -2.8492
 5639SOL     OW28552   3.862   2.719  11.203  0.2342  0.1131 -0.1201
 5639SOL    HW128553   3.938   2.772  11.177  1.6788 -1.6713  0.4898
 5639SOL    HW228554   3.817   2.784  11.257 -1.1966 -0.5653 -0.5177
 5640SOL     OW28555   0.207   1.666   8.327 -0.5567 -0.9849 -0.4004
 5640SOL    HW128556   0.277   1.716   8.369 -1.2760 -0.9906  0.8030
 5640SOL    HW228557   0.174   1.735   8.269  0.4457 -0.4256 -0.3080
 5641SOL     OW28558   3.947   0.196   2.600 -0.0294  0.7432  0.2561
 5641SOL    HW128559   3.905   0.154   2.675  1.9910  0.1791  1.0951
 5641SOL    HW228560   4.036   0.171   2.626  0.2301  1.7020  0.2690
 5642SOL     OW28561   4.057   4.635   3.737 -0.0116 -0.3463  0.1261
 5642SOL    HW128562   4.001   4.690   3.792  0.3132  0.0606  0.0479
 5642SOL    HW228563   3.997   4.600   3.671 -1.5645  0.8700  0.8849
 5643SOL     OW28564   1.432   4.418  15.623  0.0107 -0.1367  0.6044
 5643SOL    HW128565   1.413   4.410  15.530  0.8877  3.6388  0.0874
 5643SOL    HW228566   1.426   4.513  15.639 -1.1526  0.2620 -2.3587
 5644SOL     OW28567   1.063   0.886   3.056 -0.5180  0.2770 -0.1559
 5644SOL    HW128568   1.026   0.854   3.139 -0.5436 -3.2564 -1.5513
 5644SOL    HW228569   1.025   0.974   3.061 -0.2659  0.3234  1.0660
 5645SOL     OW28570   4.225   0.188  13.810  0.1254 -0.1316  0.2539
 5645SOL    HW128571   4.182   0.122  13.864 -2.9417  0.5662 -1.3276
 5645SOL    HW228572   4.204   0.147  13.726 -0.6215 -0.5120  0.6239
 5646SOL     OW28573   0.008   0.909  14.457  0.1111 -0.4300 -0.4738
 5646SOL    HW128574   0.044   0.861  14.531 -1.7152  1.2937  1.5421
 5646SOL    HW228575   0.080   0.915  14.394  1.2589  1.2151  1.0037
 5647SOL     OW28576   2.053   4.457   8.648 -0.4187  0.1820 -0.1441
 5647SOL    HW128577   2.008   4.512   8.712 -0.6801  0.3365 -0.4618
 5647SOL    HW228578   2.020   4.487   8.563 -1.4308 -1.4459 -0.3300
 5648SOL     OW28579   4.690   3.117   4.218 -0.0770  0.3445  0.4616
 5648SOL    HW128580   4.602   3.151   4.200  0.6362  1.2543 -1.2924
 5648SOL    HW228581   4.713   3.089   4.129  0.6081  2.0058  0.1164
 5649SOL     OW28582   2.425   4.081   9.014  0.6411  0.0403 -0.1132
 5649SOL    HW128583   2.403   3.988   9.026 -1.1936  0.6456  1.2693
 5649SOL    HW228584   2.519   4.079   9.031  0.4147 -0.3775  1.1267
 5650SOL     OW28585   2.584   1.546  16.447  0.1487  0.0126  0.4038
 5650SOL    HW128586   2.515   1.539  16.381  0.9371  0.1146 -0.4426
 5650SOL    HW228587   2.550   1.526  16.534 -2.7143  1.0784 -0.4638
 5651SOL     OW28588   1.410   1.936   1.593  0.2952 -0.8635 -0.0995
 5651SOL    HW128589   1.453   1.885   1.663  2.8808  0.6193 -0.5859
 5651SOL    HW228590   1.320   1.913   1.617  0.3807 -1.6465 -0.5110
 5652SOL     OW28591   1.577   2.174   0.920  0.3782  0.2417  0.1292
 5652SOL    HW128592   1.620   2.255   0.946 -0.7937 -0.4861  4.3550
 5652SOL    HW228593   1.625   2.160   0.839  0.2188 -2.6521  0.5210
 5653SOL     OW28594   1.160   3.808  17.676  0.2128  0.7350  0.3544
 5653SOL    HW128595   1.223   3.763  17.619  0.4313  0.4569  0.8096
 5653SOL    HW228596   1.098   3.739  17.700 -2.3413  2.4839 -1.2396
 5654SOL     OW28597   3.187   0.364   6.291  0.8826 -0.0181  0.1407
 5654SOL    HW128598   3.115   0.404   6.339  1.9147  1.3528  0.5406
 5654SOL    HW228599   3.215   0.431   6.228 -0.7637 -1.5946 -2.2368
 5655SOL     OW28600   3.484   4.613   7.079 -0.1206 -0.0670 -0.0175
 5655SOL    HW128601   3.506   4.561   7.156 -0.9425  0.8530  0.8320
 5655SOL    HW228602   3.556   4.582   7.025  0.9651 -0.9245  1.9283
 5656SOL     OW28603   1.022   1.770   7.130  0.0059  0.0399 -0.3497
 5656SOL    HW128604   1.113   1.752   7.105  0.0589  0.7733 -0.6764
 5656SOL    HW228605   1.027   1.844   7.191  1.5558  2.5910 -3.5323
 5657SOL     OW28606   3.215   1.163  15.253  0.8418  0.0336 -0.0015
 5657SOL    HW128607   3.152   1.091  15.248 -0.0011  0.9474 -2.6085
 5657SOL    HW228608   3.266   1.140  15.175  0.4390 -2.3861  0.4428
 5658SOL     OW28609   2.204   1.804   5.090  0.5219 -0.0066 -0.3398
 5658SOL    HW128610   2.241   1.889   5.064  0.6535 -0.4008 -1.4205
 5658SOL    HW228611   2.213   1.750   5.011  2.3371 -2.2556  1.4076
 5659SOL     OW28612   2.423   2.616   6.995  0.4883  0.2527  0.4438
 5659SOL    HW128613   2.496   2.669   6.963 -0.2671 -0.4370 -2.4785
 5659SOL    HW228614   2.399   2.658   7.078  0.8420  3.2684 -0.9752
 5660SOL     OW28615   1.927   0.156   8.578  0.3637  0.2512  0.3657
 5660SOL    HW128616   1.904   0.248   8.564 -0.0131  0.2486  0.9815
 5660SOL    HW228617   1.963   0.166   8.666  3.7204  0.8676 -1.0456
 5661SOL     OW28618   0.544   0.648   0.167 -0.0652 -0.0872 -0.5592
 5661SOL    HW128619   0.516   0.737   0.188 -0.4819 -0.6585  1.2980
 5661SOL    HW228620   0.462   0.610   0.198 -0.6582  3.7919  2.7067
 5662SOL     OW28621   4.237   0.706   6.693 -0.3446 -0.0454  0.2353
 5662SOL    HW128622   4.305   0.700   6.761 -0.4774 -1.7570  0.2156
 5662SOL    HW228623   4.215   0.613   6.694 -0.7203  0.0441  0.3451
 5663SOL     OW28624   0.525   1.200   2.001 -0.0109  0.4610 -0.2290
 5663SOL    HW128625   0.613   1.205   1.963  0.6371  1.0376  1.3660
 5663SOL    HW228626   0.539   1.244   2.085 -0.0239 -0.4360  0.2400
 5664SOL     OW28627   2.272   4.512   0.451 -0.7447 -0.6025 -0.1948
 5664SOL    HW128628   2.219   4.501   0.372 -1.6470  1.6303  0.0928
 5664SOL    HW228629   2.354   4.484   0.412 -0.9121 -0.1508 -0.8798
 5665SOL     OW28630   1.097   0.610  14.735  0.5034  0.1524 -0.1841
 5665SOL    HW128631   1.111   0.518  14.717  1.9850 -0.1835  2.6730
 5665SOL    HW228632   1.030   0.613  14.804 -0.3407  0.4557 -1.0209
 5666SOL     OW28633   2.826   3.707   5.153 -0.0562  0.0431  0.1575
 5666SOL    HW128634   2.893   3.752   5.102  2.8094 -1.6493  2.4489
 5666SOL    HW228635   2.824   3.618   5.120  3.1570  0.4681 -1.1456
 5667SOL     OW28636   0.419   0.724   1.957 -0.2047  0.2593  0.5090
 5667SOL    HW128637   0.513   0.734   1.970 -0.4563  1.1958  1.5854
 5667SOL    HW228638   0.419   0.638   2.000  2.5915  0.2241  0.4726
 5668SOL     OW28639   4.491   4.619   5.290  0.1640 -0.2055  0.9343
 5668SOL    HW128640   4.576   4.662   5.294  0.0419 -0.0538  2.0384
 5668SOL    HW228641   4.515   4.550   5.228  0.3329  0.3563  0.3698
 5669SOL     OW28642   0.611   1.609   7.987  0.0207 -0.5217 -0.1286
 5669SOL    HW128643   0.639   1.645   7.903  0.6817 -0.3987  0.1446
 5669SOL    HW228644   0.516   1.622   7.986  0.0902 -0.1434 -1.5082
 5670SOL     OW28645   2.468   2.632  16.039  0.2926  0.4894  1.1138
 5670SOL    HW128646   2.483   2.584  15.958 -1.1172  0.9749  0.5813
 5670SOL    HW228647   2.433   2.564  16.096  0.5313 -0.0996  0.5493
 5671SOL     OW28648   3.368   1.028   8.483  0.5663  0.6056  0.0220
 5671SOL    HW128649   3.399   1.066   8.565 -1.9631 -0.1650  1.3264
 5671SOL    HW228650   3.346   0.939   8.511 -2.0312  1.4158  0.5013
 5672SOL     OW28651   0.364   2.475   1.340 -0.6374 -0.5480 -0.3529
 5672SOL    HW128652   0.364   2.545   1.274  0.2316 -0.5478 -0.3473
 5672SOL    HW228653   0.449   2.434   1.322  1.7965  3.5175  1.9795
 5673SOL     OW28654   4.034   1.631  11.376  0.6240  0.4103  0.5037
 5673SOL    HW128655   4.059   1.705  11.321  1.5296  2.4996  3.7444
 5673SOL    HW228656   3.973   1.664  11.443  0.4183 -1.4490  1.2228
 5674SOL     OW28657   3.320   0.205  11.780 -0.7244 -0.8150 -0.0003
 5674SOL    HW128658   3.306   0.110  11.773 -0.0638 -1.0367  1.8227
 5674SOL    HW228659   3.353   0.219  11.869 -0.0520 -0.9102 -0.2275
 5675SOL     OW28660   0.876   1.711  12.812  0.3166 -0.9856  0.2152
 5675SOL    HW128661   0.937   1.673  12.749  1.4696 -0.3390  0.9312
 5675SOL    HW228662   0.931   1.756  12.877 -1.4728  0.4106  0.7504
 5676SOL     OW28663   3.817   0.203   2.309 -0.7174 -0.5317 -0.3503
 5676SOL    HW128664   3.870   0.277   2.340 -2.7054  0.9118 -0.3979
 5676SOL    HW228665   3.742   0.208   2.367 -0.7115  0.9295 -0.4632
 5677SOL     OW28666   0.175   2.869  16.422 -0.4302  0.1728 -0.0615
 5677SOL    HW128667   0.098   2.919  16.394 -0.2460  0.9987  0.9250
 5677SOL    HW228668   0.135   2.786  16.448 -1.1170  1.1698  2.1367
 5678SOL     OW28669   0.064   3.963   5.468  0.6746  0.2731  0.3425
 5678SOL    HW128670   0.042   3.930   5.380  1.0072 -1.7529  1.0075
 5678SOL    HW228671   0.143   4.006   5.437  0.6942  0.3489  0.4974
 5679SOL     OW28672   0.144   1.019   6.587  0.3263  0.3486 -0.2840
 5679SOL    HW128673   0.144   0.954   6.657  0.2175  1.4524  0.7206
 5679SOL    HW228674   0.139   0.964   6.508 -0.5850 -0.1837  0.1424
 5680SOL     OW28675   2.176   0.708   4.971  0.0175  0.4650  0.6149
 5680SOL    HW128676   2.265   0.700   4.937  0.3681  3.0143  0.9977
 5680SOL    HW228677   2.195   0.755   5.052  1.2055 -0.9560  1.1842
 5681SOL     OW28678   3.347   4.535  15.811 -0.2486 -0.5334  0.0578
 5681SOL    HW128679   3.280   4.589  15.853  1.3197  1.0028  0.6111
 5681SOL    HW228680   3.400   4.602  15.766 -0.7759 -0.4473 -0.4379
 5682SOL     OW28681   0.910   4.706   3.606 -0.1881 -0.0505  0.5969
 5682SOL    HW128682   0.975   4.646   3.643  0.7706  0.3580 -0.4043
 5682SOL    HW228683   0.837   4.681   3.662  0.6997 -1.5376  1.0871
 5683SOL     OW28684   0.045   0.468   8.532  0.2718 -0.6490  0.2002
 5683SOL    HW128685   4.705   0.461   8.478  0.5638  2.3002 -0.6436
 5683SOL    HW228686   0.041   0.559   8.562 -0.9355 -0.5069 -0.4111
 5684SOL     OW28687   4.555   0.458   2.035  0.8877 -0.1506 -0.3853
 5684SOL    HW128688   4.523   0.418   2.116 -0.6913  0.9663 -0.4607
 5684SOL    HW228689   4.575   0.545   2.069 -1.2189 -0.4267  1.5206
 5685SOL     OW28690   2.689   4.448   2.851 -0.5931  0.0791 -0.1400
 5685SOL    HW128691   2.666   4.540   2.867 -0.1714  0.6726 -2.9123
 5685SOL    HW228692   2.769   4.433   2.902  1.0369  1.0680 -2.4080
 5686SOL     OW28693   2.983   3.905  17.280  0.0502  0.0216 -0.3382
 5686SOL    HW128694   2.957   3.831  17.335 -2.0733  1.7656  1.0410
 5686SOL    HW228695   2.908   3.965  17.276 -0.8996 -1.1769 -0.4729
 5687SOL     OW28696   4.039   3.009   3.670  0.4807  0.4675  0.7240
 5687SOL    HW128697   4.095   2.947   3.716 -0.4929  1.4027  3.1493
 5687SOL    HW228698   3.950   2.984   3.697  1.8533 -2.7481  2.2591
 5688SOL     OW28699   3.248   3.055  17.112 -0.2122  0.2048 -1.0325
 5688SOL    HW128700   3.337   3.085  17.132  0.0543 -0.1733 -1.6627
 5688SOL    HW228701   3.197   3.113  17.169 -1.4344 -0.1843 -1.7360
 5689SOL     OW28702   3.064   4.365   4.007  0.1145  0.1634  0.1140
 5689SOL    HW128703   3.008   4.368   4.085  1.6227  3.5017  1.0935
 5689SOL    HW228704   3.002   4.358   3.935 -0.3980  0.5067  0.5218
 5690SOL     OW28705   4.698   3.134   5.236 -0.2702 -0.4204 -0.0961
 5690SOL    HW128706   0.048   3.095   5.233  0.3121  0.8818 -0.0415
 5690SOL    HW228707   4.687   3.199   5.167 -2.0762 -1.1100 -0.4607
 5691SOL     OW28708   1.696   4.440   7.413  0.1033 -0.2836 -0.8660
 5691SOL    HW128709   1.692   4.360   7.360 -0.6318 -2.2229  2.0731
 5691SOL    HW228710   1.632   4.420   7.482 -3.6472 -0.0623 -4.2649
 5692SOL     OW28711   0.816   4.327  13.837 -0.0076 -0.3580 -0.1493
 5692SOL    HW128712   0.879   4.387  13.796 -0.4824  0.8817  0.9601
 5692SOL    HW228713   0.837   4.246  13.790 -1.2644 -1.8590  1.9331
 5693SOL     OW28714   2.615   4.478  17.356  0.5265 -0.6118 -0.4301
 5693SOL    HW128715   2.666   4.449  17.280  0.8329 -1.8020  0.2289
 5693SOL    HW228716   2.553   4.540  17.319  0.0912 -0.9714 -0.3079
 5694SOL     OW28717   2.898   3.372  13.807 -0.1365 -0.4711 -0.0662
 5694SOL    HW128718   2.857   3.459  13.809 -2.6906 -1.6764 -0.4722
 5694SOL    HW228719   2.981   3.393  13.850 -0.4040  0.1552  0.1460
 5695SOL     OW28720   2.237   1.841   7.701 -0.1184 -0.2450 -0.3381
 5695SOL    HW128721   2.319   1.868   7.660 -0.8684  1.7681 -0.5007
 5695SOL    HW228722   2.266   1.766   7.753 -0.6046 -0.5689 -0.5330
 5696SOL     OW28723   4.490   1.139  17.366  0.2789  0.0162 -0.0642
 5696SOL    HW128724   4.446   1.179  17.291 -0.4492 -0.0712  0.3124
 5696SOL    HW228725   4.472   1.205  17.433 -1.5128  0.1608 -0.6925
 5697SOL     OW28726   3.112   2.584   3.063  0.8620 -0.1914  0.3988
 5697SOL    HW128727   3.186   2.621   3.016  0.1769 -1.5213 -1.7539
 5697SOL    HW228728   3.149   2.495   3.065  0.3641 -0.4135 -0.2683
 5698SOL     OW28729   1.160   4.624   7.633 -0.2801 -0.0817  0.7740
 5698SOL    HW128730   1.240   4.596   7.678  1.2935  3.3544  0.0924
 5698SOL    HW228731   1.175   4.715   7.608  0.4160  0.0039  1.4942
 5699SOL     OW28732   0.649   1.095   6.873  0.1101 -0.4397 -0.0106
 5699SOL    HW128733   0.555   1.103   6.885  0.0375 -0.2977 -0.6974
 5699SOL    HW228734   0.653   1.130   6.785 -0.4592 -0.3754 -0.0091
 5700SOL     OW28735   2.501   3.484   6.204  0.3260  0.3836  0.0541
 5700SOL    HW128736   2.580   3.538   6.195 -0.6946  1.8869  0.0144
 5700SOL    HW228737   2.472   3.525   6.286  1.7065 -1.4749  1.4673
 5701SOL     OW28738   3.969   3.386   2.197 -0.2569 -0.2957  0.1524
 5701SOL    HW128739   4.011   3.457   2.245 -2.8336  1.8168 -0.7149
 5701SOL    HW228740   3.915   3.334   2.257  0.5181 -0.0606  1.0648
 5702SOL     OW28741   4.416   1.549   5.336  0.4913  0.4694 -0.5094
 5702SOL    HW128742   4.378   1.496   5.266  0.4969  0.4502 -0.4978
 5702SOL    HW228743   4.457   1.481   5.389  1.2522 -0.6465 -2.5046
 5703SOL     OW28744   2.629   3.219   1.112 -0.2274  0.2298  0.4595
 5703SOL    HW128745   2.723   3.232   1.120 -0.3451  2.0198 -1.1458
 5703SOL    HW228746   2.629   3.152   1.044 -1.2681  0.5896  0.0984
 5704SOL     OW28747   2.033   2.838   4.082 -0.3282 -0.4722  0.3859
 5704SOL    HW128748   2.035   2.811   4.174 -0.0953  1.4328  0.9432
 5704SOL    HW228749   2.125   2.841   4.056 -0.4486  0.5517  0.0416
 5705SOL     OW28750   1.509   0.749   8.206 -1.0891  0.0498  0.1953
 5705SOL    HW128751   1.523   0.786   8.118  0.8318 -0.5699  0.2414
 5705SOL    HW228752   1.417   0.722   8.201 -2.3091  4.1188  0.3675
 5706SOL     OW28753   2.306   2.041   3.778  0.1389 -0.3524 -0.2487
 5706SOL    HW128754   2.219   2.075   3.759  0.8492  0.7726 -1.4421
 5706SOL    HW228755   2.339   2.106   3.839 -0.0905  1.4552 -2.0532
 5707SOL     OW28756   0.953   1.105   1.459  0.3383  0.4139 -0.2266
 5707SOL    HW128757   1.020   1.068   1.402 -0.5699 -1.7554  0.1260
 5707SOL    HW228758   0.992   1.098   1.546  1.9111  0.6490 -0.9240
 5708SOL     OW28759   2.815   0.553  15.226 -0.2146  0.4494 -0.5029
 5708SOL    HW128760   2.796   0.640  15.189  1.9382  2.0937  2.2394
 5708SOL    HW228761   2.729   0.512  15.215  0.9825 -1.7261 -1.7030
 5709SOL     OW28762   3.753   2.009  15.515 -0.0896 -0.1332  0.4594
 5709SOL    HW128763   3.841   1.998  15.477 -0.2785 -1.7644  0.4828
 5709SOL    HW228764   3.709   1.976  15.437 -0.9830 -0.0771  0.9471
 5710SOL     OW28765   3.059   3.507   7.054 -0.7461  0.0849  0.0869
 5710SOL    HW128766   3.151   3.516   7.029 -1.1541 -0.8419 -1.7997
 5710SOL    HW228767   3.028   3.486   6.966 -2.0372  0.7854  0.3751
 5711SOL     OW28768   4.393   3.544   3.272 -0.3435  0.0029  0.5248
 5711SOL    HW128769   4.339   3.613   3.310 -2.4789 -1.1577 -0.4283
 5711SOL    HW228770   4.328   3.474   3.265 -0.7964  0.5265 -0.5431
 5712SOL     OW28771   2.116   3.278   2.284 -0.1371 -0.0979 -0.3724
 5712SOL    HW128772   2.054   3.253   2.353  0.1061 -0.2931 -0.2251
 5712SOL    HW228773   2.069   3.349   2.240  0.0294 -0.9421 -1.9389
 5713SOL     OW28774   4.027   4.005   9.924  0.0838 -0.1347  0.1636
 5713SOL    HW128775   4.020   3.945   9.997  1.2273 -0.0793  0.3204
 5713SOL    HW228776   4.078   4.074   9.966  0.7517 -1.7293  1.9276
 5714SOL     OW28777   1.760   2.788   9.905 -0.0859 -0.0262 -0.1464
 5714SOL    HW128778   1.676   2.825   9.934 -0.1944  0.8840 -1.6192
 5714SOL    HW228779   1.816   2.864   9.889  0.0915 -0.0132  0.5438
 5715SOL     OW28780   3.301   2.305  11.894 -0.3407  0.0751 -0.2750
 5715SOL    HW128781   3.386   2.268  11.868 -0.0590 -1.2529  2.4658
 5715SOL    HW228782   3.289   2.393  11.861 -1.4956 -0.4221 -1.1822
 5716SOL     OW28783   2.622   2.761   4.284 -0.4030  0.4257  0.2810
 5716SOL    HW128784   2.569   2.802   4.215 -1.1161 -0.8277  0.0688
 5716SOL    HW228785   2.576   2.795   4.361  0.5396 -0.7679  1.3768
 5717SOL     OW28786   3.436   0.169   1.588  0.5525  0.0453  0.4255
 5717SOL    HW128787   3.458   0.077   1.603  0.5806 -0.5074 -2.9021
 5717SOL    HW228788   3.447   0.207   1.675 -0.9041  1.7729 -0.1535
 5718SOL     OW28789   1.823   2.022   6.454 -0.2087  0.7220 -0.1353
 5718SOL    HW128790   1.819   1.981   6.540  1.3087  2.3285  0.6885
 5718SOL    HW228791   1.745   1.980   6.418  0.2674  1.3770 -1.9348
 5719SOL     OW28792   4.419   3.908   2.931 -0.0757  0.3486 -0.1601
 5719SOL    HW128793   4.429   3.972   3.001  2.2042  1.1260 -1.1687
 5719SOL    HW228794   4.452   3.829   2.975 -0.9002 -0.7591 -1.5194
 5720SOL     OW28795   1.465   4.015   2.172 -0.5396  0.5678 -0.1912
 5720SOL    HW128796   1.493   4.092   2.222 -0.1773  0.1930  0.1826
 5720SOL    HW228797   1.372   3.999   2.184 -0.8136  1.3053 -1.3880
 5721SOL     OW28798   2.771   0.603   4.541  0.2885  0.6731  0.2154
 5721SOL    HW128799   2.709   0.623   4.611  0.1456  0.7269  0.0759
 5721SOL    HW228800   2.752   0.668   4.473  2.8374 -1.2402 -2.3767
 5722SOL     OW28801   1.819   2.041  11.844  0.3486  0.0403 -0.0877
 5722SOL    HW128802   1.870   2.115  11.810 -0.0598  0.9537  1.2620
 5722SOL    HW228803   1.772   2.017  11.764 -0.3884 -1.0459  0.6689
 5723SOL     OW28804   3.379   0.586  13.699  0.0980  0.3592 -0.6003
 5723SOL    HW128805   3.436   0.648  13.744  1.0358  0.8984 -2.5498
 5723SOL    HW228806   3.365   0.623  13.612 -3.2617  1.3857  0.3831
 5724SOL     OW28807   3.010   3.035   2.354  0.3788  0.2498  0.3368
 5724SOL    HW128808   3.041   2.958   2.401  0.1248 -0.1614 -0.1623
 5724SOL    HW228809   2.931   3.054   2.404  0.3776  2.2282 -0.4461
 5725SOL     OW28810   3.265   1.366  10.708 -1.2780 -0.0348 -0.4439
 5725SOL    HW128811   3.348   1.356  10.661 -0.3491  3.0804  0.5018
 5725SOL    HW228812   3.289   1.331  10.793 -0.8740  1.8427  0.2214
 5726SOL     OW28813   3.686   2.212   0.326  0.4993 -0.4835  0.1707
 5726SOL    HW128814   3.662   2.163   0.248 -1.4550  1.0244 -0.1734
 5726SOL    HW228815   3.763   2.164   0.356  1.2100  0.3927 -0.2532
 5727SOL     OW28816   3.527   4.513   4.999  0.1117  0.1388 -0.2077
 5727SOL    HW128817   3.589   4.519   5.072 -0.6584 -0.6129  0.5046
 5727SOL    HW228818   3.462   4.453   5.035  1.9646 -1.8623 -0.1913
 5728SOL     OW28819   2.644   3.785   1.253  0.4583  0.4174 -0.0682
 5728SOL    HW128820   2.586   3.861   1.267  0.6584  0.1083  2.5053
 5728SOL    HW228821   2.606   3.718   1.310  1.2658  1.1207  1.2920
 5729SOL     OW28822   2.186   3.167   4.407  0.0950 -0.3955  0.5807
 5729SOL    HW128823   2.103   3.154   4.361  1.1887 -2.3292 -0.8435
 5729SOL    HW228824   2.150   3.178   4.495  1.2810  0.8076  0.9201
 5730SOL     OW28825   4.120   1.695   0.786 -0.2431 -0.0305  0.4919
 5730SOL    HW128826   4.081   1.626   0.841 -0.5163 -1.2566 -1.2402
 5730SOL    HW228827   4.048   1.706   0.725 -1.0158 -2.2700  0.9746
 5731SOL     OW28828   4.512   1.787   9.509  0.0366  0.1135 -0.4418
 5731SOL    HW128829   4.522   1.812   9.600 -0.0616  2.7684 -1.1631
 5731SOL    HW228830   4.520   1.874   9.470  0.2430 -0.7320 -2.2790
 5732SOL     OW28831   2.736   3.618   6.239 -0.1007 -0.0537  0.0469
 5732SOL    HW128832   2.810   3.629   6.179  0.4764  0.6166  0.8966
 5732SOL    HW228833   2.739   3.701   6.286  3.2721 -0.0323 -0.2043
 5733SOL     OW28834   3.004   3.133   6.277 -0.3230 -0.3038  0.2655
 5733SOL    HW128835   3.051   3.108   6.197 -0.2652 -0.9981  0.5180
 5733SOL    HW228836   2.976   3.223   6.264  2.3543  0.6994  1.7045
 5734SOL     OW28837   3.997   3.597   3.267  0.3893 -0.0218 -0.5184
 5734SOL    HW128838   4.047   3.517   3.254  0.6880  0.1417 -0.3829
 5734SOL    HW228839   4.050   3.645   3.331 -2.4308 -0.9575  2.5299
 5735SOL     OW28840   4.009   0.965   4.947 -0.1774 -0.2067  0.1977
 5735SOL    HW128841   4.029   1.041   4.893 -0.0642  0.4125  1.1271
 5735SOL    HW228842   3.926   0.981   4.990 -1.2648 -0.9921 -1.5972
 5736SOL     OW28843   3.848   2.989   6.438  0.1982  0.4544  0.5850
 5736SOL    HW128844   3.776   2.927   6.422  0.1003  0.4943  0.8649
 5736SOL    HW228845   3.806   3.063   6.481 -1.4100  0.6560 -1.3599
 5737SOL     OW28846   2.720   3.722  17.186 -0.0352  0.0316  0.3984
 5737SOL    HW128847   2.809   3.688  17.177 -0.2613 -0.5991  0.5239
 5737SOL    HW228848   2.671   3.645  17.159 -1.0872 -0.7369  4.3916
 5738SOL     OW28849   2.315   2.696   7.547 -0.0946 -0.3614  0.8096
 5738SOL    HW128850   2.277   2.715   7.633  0.3537 -0.0746  0.9453
 5738SOL    HW228851   2.249   2.729   7.487  2.0923  1.9948 -0.2808
 5739SOL     OW28852   1.876   1.796   4.681  0.4751  0.2681 -0.3197
 5739SOL    HW128853   1.955   1.761   4.642  1.2389  1.8969 -0.2182
 5739SOL    HW228854   1.891   1.890   4.691 -1.0321  0.3059  1.9028
 5740SOL     OW28855   4.689   4.241   3.427  0.6570  0.3050 -0.1902
 5740SOL    HW128856   0.001   4.252   3.508 -1.9939  0.3208  1.4528
 5740SOL    HW228857   4.610   4.195   3.456 -0.1022  2.3326  0.9224
 5741SOL     OW28858   0.423   4.343   6.829  0.1578 -0.1102 -0.2493
 5741SOL    HW128859   0.405   4.257   6.867 -0.8000  0.9115  1.6301
 5741SOL    HW228860   0.365   4.351   6.753 -1.2850  1.1747  0.9865
 5742SOL     OW28861   3.314   0.758  10.767  0.4043 -0.5862 -0.4586
 5742SOL    HW128862   3.241   0.715  10.723  1.0707 -2.9578  0.7890
 5742SOL    HW228863   3.320   0.704  10.845 -0.9017  0.4304  0.3461
 5743SOL     OW28864   4.275   2.449   4.976 -0.6317  0.1796  0.2814
 5743SOL    HW128865   4.234   2.461   4.890  0.3909 -1.5404 -0.4564
 5743SOL    HW228866   4.348   2.390   4.957 -0.7181  0.7896 -2.0034
 5744SOL     OW28867   0.047   3.940  14.857 -0.9242 -0.0801  0.7447
 5744SOL    HW128868   0.116   4.006  14.854 -0.5171 -0.5448  0.1135
 5744SOL    HW228869   0.096   3.865  14.824 -1.4550 -1.4939  3.2060
 5745SOL     OW28870   2.218   1.218   6.523  0.1924 -0.1722 -0.6323
 5745SOL    HW128871   2.240   1.280   6.593  0.9415 -1.9463  0.7173
 5745SOL    HW228872   2.221   1.143   6.583 -0.0114  0.9214  0.7450
 5746SOL     OW28873   0.480   1.748   6.531  0.2343  0.0146 -0.5335
 5746SOL    HW128874   0.565   1.792   6.526 -1.2600  2.3956 -4.5736
 5746SOL    HW228875   0.429   1.818   6.572  0.1568 -0.1874 -0.2862
 5747SOL     OW28876   3.500   3.241  15.398 -0.2559  0.1636 -0.0100
 5747SOL    HW128877   3.536   3.313  15.449  0.7754 -0.3150 -0.0541
 5747SOL    HW228878   3.552   3.170  15.435 -0.5411  0.2583  0.5712
 5748SOL     OW28879   3.468   2.367   5.763  0.4481 -0.5016 -0.2284
 5748SOL    HW128880   3.393   2.329   5.718  1.3048  1.0479 -2.9858
 5748SOL    HW228881   3.521   2.395   5.689 -1.3586 -0.5963 -1.5541
 5749SOL     OW28882   4.684   2.763   7.314  0.7797  0.0242 -0.1403
 5749SOL    HW128883   4.698   2.707   7.238 -1.3916  0.5224 -0.9017
 5749SOL    HW228884   4.605   2.722   7.348  1.3645  0.0282  1.2246
 5750SOL     OW28885   3.927   1.234   7.306 -0.5074 -0.5390  0.1299
 5750SOL    HW128886   3.948   1.147   7.271  2.8313  0.3968 -0.1772
 5750SOL    HW228887   3.844   1.244   7.259  1.2587  0.0518 -2.8586
 5751SOL     OW28888   0.776   4.257  14.096  0.6576 -0.1790  1.1201
 5751SOL    HW128889   0.776   4.286  14.004  0.3718 -0.1406  1.1312
 5751SOL    HW228890   0.792   4.345  14.128 -0.4494 -0.8009  3.4000
 5752SOL     OW28891   2.779   4.668  14.644 -0.0065  0.4443  0.2478
 5752SOL    HW128892   2.793   4.713  14.727 -1.1574  0.1864  0.5803
 5752SOL    HW228893   2.868   4.675  14.609 -0.6687 -0.3323 -1.6172
 5753SOL     OW28894   2.093   3.028   2.102  0.2424 -0.0674  0.2104
 5753SOL    HW128895   2.038   3.002   2.177  1.0997  0.3366  0.9772
 5753SOL    HW228896   2.100   3.123   2.104  0.6275 -0.0612 -1.9792
 5754SOL     OW28897   2.856   4.127  17.748  0.0672  0.4576 -0.1142
 5754SOL    HW128898   2.882   4.219  17.750  0.2156  0.4107  0.2215
 5754SOL    HW228899   2.937   4.094   0.037 -0.2231  1.9875  1.7351
 5755SOL     OW28900   0.209   3.002   5.537 -0.8730  0.4203 -0.4157
 5755SOL    HW128901   0.284   3.001   5.597 -1.4585 -0.8672  0.2965
 5755SOL    HW228902   0.143   3.042   5.593  0.4781  4.4181 -1.7426
 5756SOL     OW28903   3.572   2.309   7.889  0.4368 -0.3454  0.8533
 5756SOL    HW128904   3.598   2.239   7.829 -0.0626 -1.1910  1.6290
 5756SOL    HW228905   3.607   2.382   7.839 -0.0826  0.3710  1.5455
 5757SOL     OW28906   3.392   0.257   2.317  0.2167  0.0567 -0.4686
 5757SOL    HW128907   3.414   0.345   2.348  0.7703 -0.8138  1.5400
 5757SOL    HW228908   3.384   0.210   2.399  4.3211  0.8663  0.3968
 5758SOL     OW28909   0.213   0.336  13.047 -0.2402  0.0351 -0.3165
 5758SOL    HW128910   0.171   0.264  13.094 -0.0733  0.2122  0.1066
 5758SOL    HW228911   0.227   0.285  12.968  1.5672  0.8919 -0.5507
 5759SOL     OW28912   1.193   2.122   6.916  0.6706  0.1458  0.5592
 5759SOL    HW128913   1.109   2.158   6.944 -0.2418 -1.2013 -0.4589
 5759SOL    HW228914   1.215   2.166   6.834  1.4755  0.7590  1.1149
 5760SOL     OW28915   3.803   1.994   2.195 -0.3125 -1.1134 -0.3591
 5760SOL    HW128916   3.797   2.045   2.115 -0.1360  0.0969  0.4082
 5760SOL    HW228917   3.718   1.950   2.197 -0.3610 -1.1180 -2.1809
 5761SOL     OW28918   2.030   3.434   6.790  0.1014  0.2619 -0.1781
 5761SOL    HW128919   2.054   3.400   6.704  0.0757 -1.1746  0.3918
 5761SOL    HW228920   2.001   3.353   6.831  0.7405  1.0365  1.8245
 5762SOL     OW28921   4.334   3.132   6.648 -0.2364 -0.5115  0.2608
 5762SOL    HW128922   4.353   3.077   6.724  1.1968  0.0734  0.3297
 5762SOL    HW228923   4.264   3.088   6.600 -2.7128  3.3965  0.3687
 5763SOL     OW28924   0.639   4.144   3.451 -0.2348 -0.5891 -0.4096
 5763SOL    HW128925   0.550   4.179   3.454 -0.3589 -1.0920  1.5803
 5763SOL    HW228926   0.642   4.095   3.533  1.1648  0.6525  0.3027
 5764SOL     OW28927   0.342   0.378   5.565  0.1860  0.0480 -0.0874
 5764SOL    HW128928   0.340   0.474   5.571 -2.1885  0.1947 -3.1615
 5764SOL    HW228929   0.436   0.364   5.560  0.3299  0.9918 -0.0622
 5765SOL     OW28930   1.214   2.449   7.497 -0.5186  0.0974  0.5372
 5765SOL    HW128931   1.254   2.498   7.569  1.5506  0.2553 -0.6904
 5765SOL    HW228932   1.123   2.445   7.524 -0.1613  0.2118  1.7590
 5766SOL     OW28933   1.853   4.239   6.313  0.1225  0.5424 -0.1130
 5766SOL    HW128934   1.798   4.317   6.323 -0.1272  0.3717 -0.1833
 5766SOL    HW228935   1.809   4.172   6.364  0.3359  0.9740  0.6475
 5767SOL     OW28936   1.180   2.856   4.472 -0.0375 -0.4790  0.0692
 5767SOL    HW128937   1.235   2.933   4.457 -1.4951 -0.1412 -3.5922
 5767SOL    HW228938   1.094   2.885   4.443 -0.4354  0.2959  2.0524
 5768SOL     OW28939   3.582   2.838   3.516  0.5167  0.1722 -0.5247
 5768SOL    HW128940   3.581   2.768   3.451 -1.9609  0.2162 -0.5398
 5768SOL    HW228941   3.596   2.783   3.593  0.1509  0.9252  0.0885
 5769SOL     OW28942   2.910   1.912   3.388 -0.3664 -0.5059  0.1836
 5769SOL    HW128943   2.952   1.936   3.305  0.1172  0.6169  0.7494
 5769SOL    HW228944   2.924   1.998   3.428  2.2571 -0.7941 -0.0669
 5770SOL     OW28945   3.751   0.868   2.482 -0.0114  0.1003 -0.2390
 5770SOL    HW128946   3.805   0.920   2.424 -1.2051 -0.2336 -1.6498
 5770SOL    HW228947   3.729   0.945   2.534  4.7950  0.5647  1.0817
 5771SOL     OW28948   2.357   2.339   3.772 -0.4267  0.4601 -0.5677
 5771SOL    HW128949   2.326   2.356   3.683  1.7457  1.0121 -1.1985
 5771SOL    HW228950   2.274   2.296   3.797 -0.4486  0.4882 -0.5918
 5772SOL     OW28951   4.618   0.439   3.240 -0.5945  0.4634  0.1121
 5772SOL    HW128952   4.680   0.373   3.210 -0.6828  0.3621  0.1511
 5772SOL    HW228953   4.546   0.441   3.177  0.4684 -0.7800 -1.1537
 5773SOL     OW28954   0.659   1.335   8.244  0.6306 -0.3215 -0.0441
 5773SOL    HW128955   0.719   1.409   8.249 -1.4806  1.2200  2.1070
 5773SOL    HW228956   0.622   1.343   8.156 -3.5298 -1.0226  1.6567
 5774SOL     OW28957   4.480   1.319   1.451 -0.0832 -0.5499  0.2144
 5774SOL    HW128958   4.425   1.373   1.394 -0.6150 -1.5455 -0.2103
 5774SOL    HW228959   4.560   1.298   1.402 -0.5452 -0.5725 -0.5295
 5775SOL     OW28960   1.124   2.871  13.223 -0.2927 -0.2269 -0.4250
 5775SOL    HW128961   1.073   2.916  13.156 -1.4011 -1.1613 -0.2059
 5775SOL    HW228962   1.170   2.809  13.167  0.0893  0.9209 -1.3734
 5776SOL     OW28963   2.964   1.532   8.937  0.4597  0.3426  0.4601
 5776SOL    HW128964   2.963   1.628   8.939  1.0660  0.3326  1.3755
 5776SOL    HW228965   3.058   1.523   8.954  0.7370 -1.3888 -2.0871
 5777SOL     OW28966   4.722   0.807  17.538  0.1754  0.0134  0.4607
 5777SOL    HW128967   0.031   0.883  17.506  3.1411 -1.1298  2.0814
 5777SOL    HW228968   4.635   0.847  17.529 -0.1163 -0.2689  1.9247
 5778SOL     OW28969   4.635   2.218   7.825  0.0165  0.7043  0.2482
 5778SOL    HW128970   4.707   2.262   7.782 -0.0335 -1.3704 -1.9739
 5778SOL    HW228971   4.570   2.257   7.767 -0.6834  0.1659  0.6577
 5779SOL     OW28972   4.737   3.126   5.691 -0.4680 -0.6568  0.1278
 5779SOL    HW128973   4.676   3.117   5.618  0.4686 -2.6349 -0.4090
 5779SOL    HW228974   4.707   3.204   5.737  0.8842  0.5955 -1.1246
 5780SOL     OW28975   2.645   0.021  12.700 -0.3304  0.1750  0.1080
 5780SOL    HW128976   2.741   0.015  12.699 -0.4447 -1.7400  0.7559
 5780SOL    HW228977   2.621   0.024  12.792 -0.4183 -2.2744  0.1796
 5781SOL     OW28978   1.887   4.675   4.278  0.1239 -0.5087 -0.6804
 5781SOL    HW128979   1.881   4.642   4.188  0.4322 -1.5515 -0.3152
 5781SOL    HW228980   1.959   4.736   4.267 -2.1942  2.6655  1.8105
 5782SOL     OW28981   1.290   1.002   0.576  0.3873  0.3821  0.4160
 5782SOL    HW128982   1.228   0.945   0.531 -1.9529 -0.0558  4.2311
 5782SOL    HW228983   1.231   1.071   0.609 -0.3728  0.1064 -0.3534
 5783SOL     OW28984   2.312   2.014   4.232 -0.9425  0.0381  0.5539
 5783SOL    HW128985   2.356   2.098   4.244 -0.5046 -0.0742 -0.2693
 5783SOL    HW228986   2.262   2.045   4.157 -0.6609 -0.4287  0.1746
 5784SOL     OW28987   3.178   0.490   9.511 -0.2374  0.0592 -0.3283
 5784SOL    HW128988   3.212   0.411   9.469  1.1032  0.1579  0.5617
 5784SOL    HW228989   3.198   0.563   9.452  0.0323 -0.7592 -1.2558
 5785SOL     OW28990   3.743   2.619  12.699 -0.2357  0.6285  0.1504
 5785SOL    HW128991   3.774   2.681  12.764 -0.0011  0.9045 -0.2258
 5785SOL    HW228992   3.652   2.603  12.725 -0.0090  0.1325  0.6266
 5786SOL     OW28993   1.109   1.865   6.775 -0.4509  0.3605  0.0318
 5786SOL    HW128994   1.085   1.791   6.831  1.1783 -0.3779 -0.2342
 5786SOL    HW228995   1.117   1.927   6.847 -2.2704  2.2891 -1.4415
 5787SOL     OW28996   2.182   0.040   9.824  0.3618  0.1790  0.0921
 5787SOL    HW128997   2.132   0.028   9.905  0.7839  1.0014  0.4652
 5787SOL    HW228998   2.168   0.130   9.797  1.4053  0.0304 -0.9412
 5788SOL     OW28999   0.496   3.380  15.596 -0.4340 -0.1720  0.3738
 5788SOL    HW129000   0.436   3.444  15.558 -1.1999  0.0642  2.0099
 5788SOL    HW229001   0.432   3.312  15.615  0.0842 -0.3966  1.3015
 5789SOL     OW29002   3.478   2.783   7.142 -0.1985 -0.8727 -0.0847
 5789SOL    HW129003   3.449   2.795   7.051  1.0199 -0.0472 -0.3642
 5789SOL    HW229004   3.413   2.828   7.195  2.6244 -0.8362  3.4048
 5790SOL     OW29005   2.787   1.637   2.542  0.2156  0.2187  0.1921
 5790SOL    HW129006   2.826   1.706   2.596 -0.6793  1.1610 -0.3704
 5790SOL    HW229007   2.720   1.698   2.512  0.8286 -0.1778 -1.9742
 5791SOL     OW29008   0.235   2.605  17.247  0.4053 -0.3113 -0.3328
 5791SOL    HW129009   0.319   2.570  17.218  1.3289  2.2244 -0.7362
 5791SOL    HW229010   0.211   2.549  17.321  0.2129 -0.6141 -0.6218
 5792SOL     OW29011   2.386   2.514   8.353 -0.5057  0.3505  0.3383
 5792SOL    HW129012   2.467   2.566   8.350 -0.5656  0.4338  0.0965
 5792SOL    HW229013   2.415   2.443   8.410  1.2223  0.6454 -0.1600
 5793SOL     OW29014   4.363   4.024   9.856 -0.4891  0.6150 -0.6910
 5793SOL    HW129015   4.312   4.013   9.775 -0.2458 -0.9688 -0.6155
 5793SOL    HW229016   4.452   4.031   9.823 -0.8818 -2.3301 -2.3251
 5794SOL     OW29017   3.626   1.232  14.569 -0.1941  0.1629  0.8766
 5794SOL    HW129018   3.661   1.311  14.613  1.6816  1.3086 -2.6862
 5794SOL    HW229019   3.668   1.167  14.626 -1.8873 -0.6791  1.1617
 5795SOL     OW29020   2.653   1.742   6.572  0.1891  0.8360  0.2859
 5795SOL    HW129021   2.631   1.709   6.659 -2.5667 -0.7917 -1.0204
 5795SOL    HW229022   2.570   1.744   6.525  2.3495 -0.2684 -3.5724
 5796SOL     OW29023   0.450   3.746   2.296 -0.4025  0.3166  0.4514
 5796SOL    HW129024   0.430   3.739   2.389 -2.3792  0.8330  0.0682
 5796SOL    HW229025   0.375   3.706   2.253  0.3585  0.2574 -0.8335
 5797SOL     OW29026   3.591   1.405   5.749  0.3939  0.5814  0.0286
 5797SOL    HW129027   3.554   1.331   5.797  2.0671 -1.1224 -1.3096
 5797SOL    HW229028   3.682   1.405   5.777  0.1552  2.2765  0.8110
 5798SOL     OW29029   4.624   0.694   2.209 -0.1252  0.1068 -0.5007
 5798SOL    HW129030   4.705   0.745   2.215  0.3974 -0.3719 -3.4121
 5798SOL    HW229031   4.627   0.653   2.295  2.3664  0.7746 -0.2592
 5799SOL     OW29032   0.695   3.611   7.355  0.0645 -0.1853 -0.4298
 5799SOL    HW129033   0.679   3.640   7.445  0.1717  3.0387 -1.4453
 5799SOL    HW229034   0.605   3.587   7.335  0.4324 -2.3594  0.5393
 5800SOL     OW29035   0.964   4.393   2.558 -0.0452  0.1832  0.2834
 5800SOL    HW129036   1.031   4.430   2.616 -0.7031  0.9793  0.5228
 5800SOL    HW229037   0.893   4.383   2.621  0.8867 -3.4722  0.8110
 5801SOL     OW29038   4.242   4.555  14.342 -0.1712 -0.4159 -0.7168
 5801SOL    HW129039   4.289   4.537  14.423 -2.4194  1.0289  0.8986
 5801SOL    HW229040   4.210   4.468  14.318 -0.6330 -0.6397  0.7340
 5802SOL     OW29041   1.264   1.902  11.102  0.0481 -0.4632 -0.4831
 5802SOL    HW129042   1.316   1.822  11.104  0.6020 -0.0774  0.8287
 5802SOL    HW229043   1.179   1.860  11.112 -0.9925  1.7637  0.1252
 5803SOL     OW29044   4.099   3.411  13.301  0.2997  0.4550  0.3308
 5803SOL    HW129045   4.107   3.328  13.348  1.4371  0.2219 -0.2865
 5803SOL    HW229046   4.021   3.444  13.345  0.6536  1.1507  0.4330
 5804SOL     OW29047   1.375   4.597   6.646 -0.0931 -0.4111 -0.0642
 5804SOL    HW129048   1.349   4.640   6.728  2.0402 -1.0227  0.9412
 5804SOL    HW229049   1.445   4.652   6.613  0.7931 -0.9558  0.9072
 5805SOL     OW29050   2.611   4.048  12.267 -0.1312  0.2039 -0.1610
 5805SOL    HW129051   2.696   4.004  12.262 -0.9526 -1.0604 -3.5025
 5805SOL    HW229052   2.629   4.124  12.212  1.1288  1.0011  1.3456
 5806SOL     OW29053   0.982   1.845   7.703  0.2678  0.0893 -0.1874
 5806SOL    HW129054   1.014   1.759   7.732  0.6789  0.3286  0.0515
 5806SOL    HW229055   0.940   1.865   7.787  0.9957  2.0259 -0.2855
 5807SOL     OW29056   0.388   4.715   6.147  0.2643  0.2087 -0.0932
 5807SOL    HW129057   0.328   0.022   6.088  0.5399  0.6763 -0.0175
 5807SOL    HW229058   0.415   0.052   6.200 -0.7131  0.5131 -0.0332
 5808SOL     OW29059   4.559   4.675   3.617 -0.5577 -0.1558 -0.6521
 5808SOL    HW129060   4.606   4.600   3.654  0.2298  0.3904 -0.5527
 5808SOL    HW229061   4.466   4.651   3.621 -0.3088 -0.8586  1.1253
 5809SOL     OW29062   1.272   3.149   2.275 -0.1986  0.1023 -0.3462
 5809SOL    HW129063   1.213   3.102   2.334 -0.1899 -0.6214 -0.9078
 5809SOL    HW229064   1.265   3.239   2.305  1.4904  0.4157 -0.8694
 5810SOL     OW29065   3.051   3.708   5.636  0.5325  0.2080 -0.1501
 5810SOL    HW129066   3.016   3.689   5.549  0.1928 -2.1982  0.5277
 5810SOL    HW229067   2.975   3.683   5.689  0.0113 -0.5734 -1.2638
 5811SOL     OW29068   0.990   1.086   0.418  0.2738  0.8258 -0.0304
 5811SOL    HW129069   1.015   1.016   0.478 -1.3994  1.1143  1.0061
 5811SOL    HW229070   0.941   1.032   0.356  3.0900 -2.8845  0.9851
 5812SOL     OW29071   4.039   1.568   0.431  0.2912  0.1650 -0.1448
 5812SOL    HW129072   3.997   1.601   0.352  1.0351 -0.6375 -0.8693
 5812SOL    HW229073   4.006   1.632   0.494  3.6194  3.8983 -2.2355
 5813SOL     OW29074   2.356   2.915   2.147 -0.0303 -0.1198 -0.0116
 5813SOL    HW129075   2.306   2.835   2.160 -0.2914  0.1881  0.9359
 5813SOL    HW229076   2.289   2.974   2.112  0.0395  0.4473  0.7988
 5814SOL     OW29077   4.344   0.524   3.652 -0.2260 -0.4178 -0.4045
 5814SOL    HW129078   4.343   0.449   3.592  1.2179 -2.2364  1.8271
 5814SOL    HW229079   4.429   0.567   3.647 -1.6912  2.3248 -2.2190
 5815SOL     OW29080   1.350   2.369  13.870  0.3884  0.4739 -0.4039
 5815SOL    HW129081   1.416   2.419  13.918  1.1064 -0.3280 -0.5535
 5815SOL    HW229082   1.314   2.436  13.813 -0.3607  0.2707 -0.1682
 5816SOL     OW29083   0.459   3.273   6.524  0.0605  0.2432  0.0302
 5816SOL    HW129084   0.490   3.239   6.440  2.1618 -0.8135  1.2247
 5816SOL    HW229085   0.537   3.262   6.579 -1.8974 -1.3890  2.5323
 5817SOL     OW29086   3.391   3.155   7.160  0.5815 -0.1350 -0.2423
 5817SOL    HW129087   3.429   3.104   7.231 -2.4093 -0.6542  1.0104
 5817SOL    HW229088   3.379   3.245   7.190 -5.3231 -0.9338 -0.1219
 5818SOL     OW29089   3.358   2.947   4.919  0.1975  0.0894  0.5446
 5818SOL    HW129090   3.287   2.981   4.864 -0.7433  0.4290  1.9734
 5818SOL    HW229091   3.374   2.865   4.872 -1.5037 -0.0831  0.2986
 5819SOL     OW29092   3.068   2.373   4.583  0.3610  0.1288 -0.4856
 5819SOL    HW129093   3.013   2.300   4.557 -0.2371  1.8369 -3.9546
 5819SOL    HW229094   3.052   2.373   4.678  0.3611 -0.3237 -0.4828
 5820SOL     OW29095   3.232   4.386  11.755  0.3639  0.4847 -0.2407
 5820SOL    HW129096   3.154   4.414  11.706  0.3963 -0.0131 -0.5760
 5820SOL    HW229097   3.197   4.350  11.836  2.1371  0.5228  0.5417
 5821SOL     OW29098   0.141   0.278  12.800 -0.2598  0.3444  0.7097
 5821SOL    HW129099   0.184   0.354  12.760  0.4190 -1.5577 -2.1957
 5821SOL    HW229100   0.055   0.312  12.821 -0.4916  0.1381  0.0739
 5822SOL     OW29101   4.184   4.368   1.192 -0.3734 -0.3206  0.1518
 5822SOL    HW129102   4.212   4.328   1.274 -1.7004 -0.5150  0.5076
 5822SOL    HW229103   4.164   4.456   1.224  0.9296  0.3913 -0.9683
 5823SOL     OW29104   3.862   4.244   5.165 -0.4277  0.1348  0.0751
 5823SOL    HW129105   3.839   4.154   5.189  0.7094 -0.5296 -1.3485
 5823SOL    HW229106   3.957   4.240   5.174 -0.6532 -2.6353  1.2114
 5824SOL     OW29107   4.557   3.004   6.474 -0.7760 -0.1548  0.4090
 5824SOL    HW129108   4.508   2.981   6.553 -0.7527 -3.1606 -0.4788
 5824SOL    HW229109   4.516   3.084   6.441  0.5133 -0.1128 -1.0821
 5825SOL     OW29110   3.912   0.154   0.124  0.4845  0.9111  0.5731
 5825SOL    HW129111   3.957   0.087   0.073  0.4545  0.8216  0.6631
 5825SOL    HW229112   3.951   0.226   0.074  0.1193  1.7035  1.4273
 5826SOL     OW29113   0.764   3.144   4.586  0.2715  0.9466  0.2632
 5826SOL    HW129114   0.775   3.157   4.492  2.6423 -1.6777  0.1587
 5826SOL    HW229115   0.827   3.204   4.626  0.4142  1.3738 -0.6028
 5827SOL     OW29116   0.239   2.252   9.570  0.4404  0.2908 -0.2288
 5827SOL    HW129117   0.248   2.325   9.509 -0.1744 -0.5737 -1.3584
 5827SOL    HW229118   0.298   2.282   9.639 -4.0903  1.3207  3.2688
 5828SOL     OW29119   3.756   0.989  12.541 -0.2449  0.3636  0.0540
 5828SOL    HW129120   3.700   1.040  12.599  0.4927  0.2283  0.8958
 5828SOL    HW229121   3.789   1.045  12.471  1.6744 -0.5821  0.1767
 5829SOL     OW29122   3.337   3.603   5.708  0.2585 -0.1919  0.1764
 5829SOL    HW129123   3.251   3.645   5.701  0.3061  0.0148  0.8366
 5829SOL    HW229124   3.382   3.685   5.687  2.7402 -1.8928 -1.0062
 5830SOL     OW29125   3.041   0.823   6.755  0.1142 -0.1614 -0.3755
 5830SOL    HW129126   3.034   0.746   6.699 -2.2945  0.2714 -0.6593
 5830SOL    HW229127   3.045   0.786   6.843 -0.3680 -1.6533 -0.9828
 5831SOL     OW29128   2.796   4.596  11.848  0.3572 -1.1546 -0.3531
 5831SOL    HW129129   2.714   4.631  11.883  1.2189  0.8866 -0.4072
 5831SOL    HW229130   2.790   4.626  11.757  1.7626  3.5801  1.1197
 5832SOL     OW29131   2.804   4.655   6.032 -0.1032  0.4122  0.0382
 5832SOL    HW129132   2.758   4.735   6.007 -0.2674  0.4480  0.4565
 5832SOL    HW229133   2.845   4.686   6.113  1.8275 -0.3561 -0.6229
 5833SOL     OW29134   3.513   4.533   7.815  0.4276  0.5983  0.2974
 5833SOL    HW129135   3.482   4.460   7.761 -0.2955 -0.0955  1.6476
 5833SOL    HW229136   3.593   4.562   7.772  0.7371  0.4046  0.7338
 5834SOL     OW29137   0.952   3.317   5.167  0.8313 -0.0857  0.7569
 5834SOL    HW129138   0.975   3.345   5.079  0.2250 -1.3833  0.1799
 5834SOL    HW229139   1.002   3.236   5.159  2.2360  0.8883 -0.2375
 5835SOL     OW29140   1.943   0.751   2.413 -0.1872 -0.6281 -0.0513
 5835SOL    HW129141   1.869   0.696   2.387 -1.7883  1.2223  0.6188
 5835SOL    HW229142   1.972   0.706   2.492 -0.4941 -0.2309  0.2876
 5836SOL     OW29143   2.844   1.140   8.980  0.3605  0.0093  0.9329
 5836SOL    HW129144   2.770   1.200   8.967 -0.5991 -1.0595  1.4656
 5836SOL    HW229145   2.796   1.058   8.974  1.2012 -0.4477  0.4879
 5837SOL     OW29146   1.105   2.153   4.315 -0.5726 -0.4186  0.1176
 5837SOL    HW129147   1.132   2.165   4.406  0.6462  0.1557 -0.3193
 5837SOL    HW229148   1.189   2.136   4.273 -1.5119  2.1291 -2.8292
 5838SOL     OW29149   4.669   0.670  11.478  0.0004 -0.1276  0.3051
 5838SOL    HW129150   4.654   0.685  11.571 -1.4779 -1.0051  0.2159
 5838SOL    HW229151   0.012   0.619  11.481  0.1450  0.0699 -0.2980
 5839SOL     OW29152   0.653   1.586   5.421  0.2927  0.0124  0.1990
 5839SOL    HW129153   0.610   1.502   5.405  0.5633 -0.7334  3.5279
 5839SOL    HW229154   0.664   1.597   5.515 -2.3426  0.3498  0.4522
 5840SOL     OW29155   3.177   1.754   3.102  0.2889  0.1389 -0.0151
 5840SOL    HW129156   3.219   1.751   3.187  2.1598 -2.9753 -1.0653
 5840SOL    HW229157   3.247   1.762   3.038  0.6877 -2.6893  0.0855
 5841SOL     OW29158   2.178   2.147   8.356  0.1136  0.8165 -0.1872
 5841SOL    HW129159   2.178   2.084   8.428  2.3819 -0.2814 -1.1299
 5841SOL    HW229160   2.154   2.091   8.281 -0.5792 -1.2310  1.5543
 5842SOL     OW29161   4.392   0.485  14.139  0.0840  0.9972 -0.1784
 5842SOL    HW129162   4.398   0.399  14.181  1.4276  0.5163 -1.3488
 5842SOL    HW229163   4.382   0.451  14.049  2.2588  0.0737 -0.0566
 5843SOL     OW29164   4.594   4.333   2.211 -0.7211  0.2989 -0.2408
 5843SOL    HW129165   4.669   4.331   2.271 -0.1264 -2.2233 -1.0552
 5843SOL    HW229166   4.643   4.339   2.130  2.4463 -1.1634  1.5582
 5844SOL     OW29167   2.551   1.512  12.889 -0.3996 -0.4400  0.1523
 5844SOL    HW129168   2.488   1.570  12.930  1.2473 -0.1212  2.1943
 5844SOL    HW229169   2.505   1.429  12.874  0.4999 -0.7063 -1.2628
 5845SOL     OW29170   0.573   0.158   6.579  0.2805  0.0734 -0.0795
 5845SOL    HW129171   0.537   0.134   6.664 -0.2319 -0.2787 -0.3980
 5845SOL    HW229172   0.552   0.250   6.565  0.9136  0.2917  0.4006
 5846SOL     OW29173   4.556   1.703   2.927 -0.0616  0.0256  0.2992
 5846SOL    HW129174   4.468   1.741   2.924 -0.2757 -0.5275 -0.6522
 5846SOL    HW229175   4.603   1.764   2.870 -0.4992 -1.2520 -1.4511
 5847SOL     OW29176   0.033   1.124   4.369  0.1167 -0.1112 -0.2807
 5847SOL    HW129177   0.081   1.164   4.296 -1.2842 -0.3225 -1.3216
 5847SOL    HW229178   4.703   1.089   4.311 -0.0988  1.0912 -0.7667
 5848SOL     OW29179   0.141   3.611   3.682  0.2638 -0.2634 -0.0903
 5848SOL    HW129180   0.177   3.597   3.594  0.4534 -0.2413 -0.0160
 5848SOL    HW229181   0.094   3.529   3.696  2.0868 -0.8952  2.2668
 5849SOL     OW29182   1.393   0.534   0.693 -0.6014 -0.5238 -0.4590
 5849SOL    HW129183   1.459   0.603   0.680 -0.7078 -0.4670 -0.6951
 5849SOL    HW229184   1.322   0.571   0.640 -0.5206  1.2880  0.6855
 5850SOL     OW29185   0.135   3.027   2.753 -0.1412 -0.2783 -0.0861
 5850SOL    HW129186   0.189   2.976   2.814  0.0977  1.1721  0.9422
 5850SOL    HW229187   0.195   3.101   2.746  0.9287 -1.2620 -1.2247
 5851SOL     OW29188   3.269   4.613  10.236  0.2170 -0.0206 -0.5161
 5851SOL    HW129189   3.264   4.649  10.324 -1.3827  0.6811 -0.9007
 5851SOL    HW229190   3.355   4.647  10.212  1.0857 -0.2968  2.2356
 5852SOL     OW29191   1.660   3.297   4.464  0.0902  0.0094  0.0593
 5852SOL    HW129192   1.611   3.299   4.546  0.4718 -1.0061  0.3197
 5852SOL    HW229193   1.711   3.378   4.469  0.6012 -0.4266  1.8856
 5853SOL     OW29194   3.711   3.485   3.865 -0.7408  0.3867  0.4731
 5853SOL    HW129195   3.625   3.522   3.884 -0.8973 -0.0788  0.6814
 5853SOL    HW229196   3.737   3.468   3.955 -2.3794 -0.8060  0.7222
 5854SOL     OW29197   2.939   2.923   2.808 -0.3252 -0.2090  0.5249
 5854SOL    HW129198   2.945   2.830   2.783 -0.9727  0.0251 -0.4955
 5854SOL    HW229199   2.858   2.926   2.860  0.4685 -2.9376  1.9894
 5855SOL     OW29200   3.080   2.566   9.921 -0.7969  0.1255  0.2694
 5855SOL    HW129201   3.027   2.593   9.997 -1.9403  0.0570 -0.4977
 5855SOL    HW229202   3.020   2.566   9.847 -0.4141 -0.3782 -0.0337
 5856SOL     OW29203   3.323   0.074   5.828 -0.5037 -0.0948  0.0304
 5856SOL    HW129204   3.240   0.053   5.784 -0.7936  0.6157  0.2417
 5856SOL    HW229205   3.334   0.169   5.821  0.6746 -0.1816  0.8330
 5857SOL     OW29206   0.247   4.410  13.391 -0.5521 -0.2565 -0.8484
 5857SOL    HW129207   0.204   4.453  13.317  0.5911 -1.5249 -2.2382
 5857SOL    HW229208   0.304   4.483  13.415  0.9096 -1.9474  0.8432
 5858SOL     OW29209   3.832   3.611   0.411  0.2200  0.4037 -0.4179
 5858SOL    HW129210   3.907   3.558   0.385  0.4075 -0.6391  2.2555
 5858SOL    HW229211   3.866   3.672   0.476  0.3213 -0.6775  0.5557
 5859SOL     OW29212   3.609   0.785  13.399  0.3497 -0.1299 -0.1015
 5859SOL    HW129213   3.539   0.721  13.384  0.8424 -0.4664 -0.9798
 5859SOL    HW229214   3.575   0.847  13.464 -1.0963  1.1197 -2.0012
 5860SOL     OW29215   4.259   3.386   6.550 -0.0176  0.2152 -0.2228
 5860SOL    HW129216   4.296   3.301   6.573  0.8028  0.0746 -2.0146
 5860SOL    HW229217   4.336   3.437   6.525  0.7201 -0.0599  1.5221
 5861SOL     OW29218   1.102   3.800  12.203 -0.0320  0.1816  0.1135
 5861SOL    HW129219   1.032   3.823  12.142 -0.1358  0.8955  0.4997
 5861SOL    HW229220   1.165   3.748  12.154  0.9867  0.1850  1.4306
 5862SOL     OW29221   1.973   3.956   5.422  0.0715 -0.0439  0.3854
 5862SOL    HW129222   1.931   3.962   5.336 -1.6105  1.4643  1.3184
 5862SOL    HW229223   1.909   3.898   5.464 -0.5032  1.1568  1.1468
 5863SOL     OW29224   3.968   3.496   6.204  0.4837 -0.3725  0.2387
 5863SOL    HW129225   4.050   3.539   6.181 -0.0516  0.2113 -0.5862
 5863SOL    HW229226   3.904   3.562   6.229  0.7733 -0.2522  0.6487
 5864SOL     OW29227   4.409   0.184   7.297  0.2863  0.1243  0.2955
 5864SOL    HW129228   4.375   0.265   7.336 -0.1299  0.6682 -1.2073
 5864SOL    HW229229   4.446   0.149   7.378 -0.8827  1.0864  1.2488
 5865SOL     OW29230   3.866   4.411   7.283  0.3925  0.6951 -0.1082
 5865SOL    HW129231   3.886   4.318   7.294  0.0355  0.3441 -2.4288
 5865SOL    HW229232   3.945   4.440   7.238  0.4688 -0.0264 -0.4495
 5866SOL     OW29233   1.870   1.773   0.044  0.2904 -0.1976 -0.0256
 5866SOL    HW129234   1.783   1.791   0.008  0.1952  0.9246  0.7502
 5866SOL    HW229235   1.882   1.679   0.032  1.2476  0.1896 -1.9636
 5867SOL     OW29236   4.435   3.670  15.723 -0.3296  0.2807  0.0170
 5867SOL    HW129237   4.410   3.651  15.632 -1.7964  1.9316  0.0749
 5867SOL    HW229238   4.530   3.667  15.733 -0.5021  0.8130  1.8571
 5868SOL     OW29239   0.122   3.663   8.689  0.3076 -0.3392 -0.1673
 5868SOL    HW129240   0.099   3.745   8.732  0.9463 -0.0203 -0.4275
 5868SOL    HW229241   0.187   3.699   8.628 -0.6885  0.6879 -0.6108
 5869SOL     OW29242   4.338   3.749   8.169  0.6947 -0.1422 -0.8373
 5869SOL    HW129243   4.404   3.693   8.127 -0.1372  0.2934 -2.7614
 5869SOL    HW229244   4.306   3.697   8.242 -1.2965  0.5429 -1.2376
 5870SOL     OW29245   3.599   3.431  15.562 -0.5958 -0.2482  0.0887
 5870SOL    HW129246   3.675   3.463  15.611 -0.8769 -0.3856  0.6141
 5870SOL    HW229247   3.571   3.508  15.512  0.0211  0.3189  0.6101
 5871SOL     OW29248   2.773   3.903  12.929  0.1356  0.1479 -0.2895
 5871SOL    HW129249   2.753   3.937  12.841  1.0716 -0.3636 -0.7029
 5871SOL    HW229250   2.765   3.974  12.992  0.9271  0.1505 -0.2035
 5872SOL     OW29251   4.699   4.433   9.273  0.5169  0.2263 -0.1589
 5872SOL    HW129252   4.675   4.500   9.209  0.7374  0.8333  0.3958
 5872SOL    HW229253   4.611   4.396   9.274  1.0857 -1.1269  0.5545
 5873SOL     OW29254   4.256   3.959   7.187  0.0669 -0.2985 -0.2251
 5873SOL    HW129255   4.199   3.970   7.263 -0.1429  0.8073 -0.5322
 5873SOL    HW229256   4.337   3.999   7.219  0.2664  1.0298 -2.4025
 5874SOL     OW29257   3.936   3.370   5.436 -0.4536 -0.1970  0.1074
 5874SOL    HW129258   3.976   3.317   5.368 -0.7634  2.6124 -2.2936
 5874SOL    HW229259   3.909   3.303   5.499 -0.3072 -0.4830 -0.1354
 5875SOL     OW29260   1.481   1.758   5.280  0.8072 -0.0199  0.4336
 5875SOL    HW129261   1.460   1.707   5.202 -1.9166  0.7002  0.7008
 5875SOL    HW229262   1.412   1.720   5.334  0.5061 -0.5106 -0.2997
 5876SOL     OW29263   1.357   2.178  16.103  0.5072 -0.1060 -0.2727
 5876SOL    HW129264   1.357   2.175  16.199  0.1675  0.3833 -0.2609
 5876SOL    HW229265   1.267   2.199  16.078  0.1092  0.6290  1.7446
 5877SOL     OW29266   3.221   3.636   5.120 -0.5017 -0.6370  0.3427
 5877SOL    HW129267   3.289   3.608   5.060 -1.6070 -1.3099 -0.5959
 5877SOL    HW229268   3.163   3.668   5.051 -1.4358 -0.4384  1.2020
 5878SOL     OW29269   0.349   4.145  17.519  0.0942 -0.1226 -0.2817
 5878SOL    HW129270   0.383   4.213  17.578  0.1698  1.1562 -1.7777
 5878SOL    HW229271   0.430   4.099  17.497  0.2573  0.9943 -2.0777
 5879SOL     OW29272   3.090   1.264   4.955  0.2516 -0.3188  0.2889
 5879SOL    HW129273   3.175   1.218   4.956 -0.0590 -0.8723  2.9638
 5879SOL    HW229274   3.026   1.193   4.956  0.6358 -0.6647  2.7297
 5880SOL     OW29275   3.322   2.855   8.154 -0.4117  0.1507  0.0452
 5880SOL    HW129276   3.321   2.949   8.171  0.8646  0.0524  0.6370
 5880SOL    HW229277   3.369   2.826   8.232  1.1455 -1.6495 -1.5734
 5881SOL     OW29278   3.377   0.250   7.036 -0.5592  0.0791  0.2803
 5881SOL    HW129279   3.352   0.157   7.034  2.4771 -0.7090 -0.1177
 5881SOL    HW229280   3.469   0.247   7.061 -0.4747  0.0873 -0.0243
 5882SOL     OW29281   1.228   3.294   5.507 -0.4586  0.0256 -0.1073
 5882SOL    HW129282   1.292   3.287   5.578 -0.0136 -2.6691 -0.7962
 5882SOL    HW229283   1.160   3.238   5.544  0.6360 -1.6072 -0.5592
 5883SOL     OW29284   0.646   0.050  11.366 -0.3176 -0.5838  0.0954
 5883SOL    HW129285   0.660   0.126  11.309  0.8175 -0.7713  0.1143
 5883SOL    HW229286   0.601   0.090  11.441 -2.0569  0.7265 -1.6499
 5884SOL     OW29287   4.510   1.711   5.131  0.3828  0.6673  0.8172
 5884SOL    HW129288   4.454   1.668   5.195 -2.3939  0.7076 -1.5734
 5884SOL    HW229289   4.510   1.646   5.060 -1.8279  2.2726 -0.6737
 5885SOL     OW29290   4.070   3.240   1.195 -0.4007  0.1811  0.1427
 5885SOL    HW129291   3.983   3.279   1.199  0.4808  2.2512 -0.9978
 5885SOL    HW229292   4.116   3.307   1.145 -1.4586 -1.2933 -2.7613
 5886SOL     OW29293   2.558   2.433   3.368 -0.2422  0.4251  0.5070
 5886SOL    HW129294   2.573   2.406   3.278 -1.9217  0.6778  0.1559
 5886SOL    HW229295   2.482   2.487   3.345 -2.1586 -2.3189  0.4449
 5887SOL     OW29296   1.149   1.602   2.049 -0.0186 -0.7185 -0.0446
 5887SOL    HW129297   1.167   1.563   2.135  0.4961  2.4928  1.2906
 5887SOL    HW229298   1.122   1.690   2.075  0.4634 -1.0010  1.4671
 5888SOL     OW29299   1.568   0.604  10.700 -0.5932  0.4515  0.2159
 5888SOL    HW129300   1.549   0.514  10.671  2.5015 -0.0052 -0.3199
 5888SOL    HW229301   1.656   0.599  10.735  0.3632  1.6690 -2.0097
 5889SOL     OW29302   1.643   2.729   2.228 -0.1543  0.5388  0.4686
 5889SOL    HW129303   1.557   2.688   2.218 -0.0694  0.2264  0.9946
 5889SOL    HW229304   1.616   2.796   2.291  1.5270  1.3229  0.3581
 5890SOL     OW29305   1.080   2.733   4.165 -0.2630 -0.0447 -0.4305
 5890SOL    HW129306   1.008   2.746   4.228 -1.0447 -2.2834 -0.8563
 5890SOL    HW229307   1.039   2.678   4.099 -0.3079  0.1292 -0.5471
 5891SOL     OW29308   2.185   1.296   5.868  0.4802  0.0282  0.0203
 5891SOL    HW129309   2.136   1.375   5.890 -0.4469 -0.1903 -1.2441
 5891SOL    HW229310   2.128   1.234   5.824  1.6130 -1.4184  0.5913
 5892SOL     OW29311   2.390   0.573  11.595 -0.0837 -0.1671 -0.4025
 5892SOL    HW129312   2.409   0.651  11.544  0.4634 -1.2236 -1.8269
 5892SOL    HW229313   2.432   0.596  11.678 -2.2946 -0.2796  0.7446
 5893SOL     OW29314   4.720   0.404  13.558  0.4281  0.1207  0.7989
 5893SOL    HW129315   0.023   0.466  13.617 -1.4068  1.9747  0.1081
 5893SOL    HW229316   0.068   0.379  13.524 -0.0812 -0.4267 -0.0919
 5894SOL     OW29317   3.961   0.948   7.985 -0.0594 -0.8534  0.0501
 5894SOL    HW129318   3.943   0.862   8.023 -1.0470 -1.5998 -2.1068
 5894SOL    HW229319   4.045   0.927   7.945  1.0370  2.0391  0.8663
 5895SOL     OW29320   0.844   0.873   6.614 -0.0643  0.4790  0.3326
 5895SOL    HW129321   0.877   0.788   6.640 -2.2684 -0.4534  0.0585
 5895SOL    HW229322   0.861   0.921   6.695  0.9329 -1.8989  1.5231
 5896SOL     OW29323   3.738   4.182   9.518  0.1116  0.4967  0.1128
 5896SOL    HW129324   3.772   4.097   9.493  1.4743  1.4165 -1.1770
 5896SOL    HW229325   3.809   4.233   9.558  0.2073  0.8351 -0.4902
 5897SOL     OW29326   4.237   1.730   2.025  0.3864 -0.7252 -0.2794
 5897SOL    HW129327   4.178   1.762   2.093  1.4730  0.5822  0.0411
 5897SOL    HW229328   4.307   1.704   2.084 -1.1026  0.9412  2.2152
 5898SOL     OW29329   4.424   1.395   6.654 -0.2423 -0.4341  0.3440
 5898SOL    HW129330   4.361   1.354   6.712  0.2699  1.5301  2.3058
 5898SOL    HW229331   4.500   1.338   6.640  0.6953  1.0403 -0.5745
 5899SOL     OW29332   2.597   3.087   0.869  0.0752  0.2599  0.2507
 5899SOL    HW129333   2.573   3.040   0.789 -0.5701 -0.6704  0.9860
 5899SOL    HW229334   2.519   3.143   0.875  0.5737  1.1332 -1.2256
 5900SOL     OW29335   0.321   2.250  15.199  0.2450 -0.4023  0.0611
 5900SOL    HW129336   0.319   2.341  15.171  0.5938 -0.3025  0.3541
 5900SOL    HW229337   0.408   2.241  15.238  1.4272  0.7941 -2.3174
 5901SOL     OW29338   2.399   4.606   8.043  0.2421 -0.5687  0.3026
 5901SOL    HW129339   2.469   4.664   8.071  1.6337 -1.7810 -0.6817
 5901SOL    HW229340   2.410   4.543   8.114 -0.1364  0.1848  1.0169
 5902SOL     OW29341   0.474   3.835   0.926  0.8490  0.1614 -0.2082
 5902SOL    HW129342   0.567   3.856   0.923  0.9214 -0.3093 -1.2347
 5902SOL    HW229343   0.457   3.788   0.844 -0.5200 -1.0251  0.7594
 5903SOL     OW29344   3.893   3.687  13.878 -0.5306  0.0844  0.5054
 5903SOL    HW129345   3.978   3.643  13.871 -2.3844 -3.2806 -0.6337
 5903SOL    HW229346   3.885   3.729  13.792  1.1282 -1.5491 -0.4404
 5904SOL     OW29347   3.798   4.145  10.438 -0.5983 -0.2747 -0.5400
 5904SOL    HW129348   3.755   4.072  10.484  1.2295  0.2881  2.0233
 5904SOL    HW229349   3.847   4.195  10.503  0.0540  0.4397 -1.5787
 5905SOL     OW29350   4.124   1.014   6.061 -0.0798 -0.4520  0.0587
 5905SOL    HW129351   4.076   1.031   5.980  1.0204 -0.5760 -0.6301
 5905SOL    HW229352   4.130   0.918   6.061  0.1508 -0.4490 -1.3489
 5906SOL     OW29353   1.623   1.470   3.624 -0.2000 -0.1822 -0.5098
 5906SOL    HW129354   1.628   1.471   3.528 -0.6967 -2.4043 -0.5573
 5906SOL    HW229355   1.541   1.421   3.629  0.1813 -0.7530  0.0553
 5907SOL     OW29356   4.687   3.403   9.031  0.3965  0.4804  0.2257
 5907SOL    HW129357   4.677   3.308   9.030  0.8878  0.4402 -0.4718
 5907SOL    HW229358   4.648   3.427   8.947 -2.7640 -0.1360  1.5225
 5908SOL     OW29359   1.594   0.166   2.928 -0.0930 -0.0276  0.2230
 5908SOL    HW129360   1.509   0.125   2.940 -0.6880  0.7835 -1.1513
 5908SOL    HW229361   1.653   0.097   2.957  0.0684  0.1908  0.4168
 5909SOL     OW29362   3.438   3.854   5.760  0.5794  0.2695  0.0455
 5909SOL    HW129363   3.513   3.911   5.745 -0.0937  1.3018  0.6007
 5909SOL    HW229364   3.366   3.915   5.745 -0.3976 -0.5764  1.2657
 5910SOL     OW29365   1.056   3.291   4.577 -0.2115 -0.3596  1.0951
 5910SOL    HW129366   1.083   3.219   4.520  2.3595  1.9487 -0.6325
 5910SOL    HW229367   1.136   3.306   4.628  1.3110 -1.6253 -0.8835
 5911SOL     OW29368   1.696   3.600  13.301 -0.0497  0.1474  0.9218
 5911SOL    HW129369   1.651   3.673  13.344 -0.0090  0.3707  0.5831
 5911SOL    HW229370   1.643   3.520  13.301  1.2877 -0.7432 -0.6622
 5912SOL     OW29371   0.513   0.249  12.584 -0.3338 -0.1920 -0.0612
 5912SOL    HW129372   0.526   0.230  12.677  2.1605 -2.4487 -0.8878
 5912SOL    HW229373   0.497   0.343  12.595 -0.4347 -0.0801 -1.1914
 5913SOL     OW29374   0.435   1.514   2.345  0.5093 -0.0958  1.0535
 5913SOL    HW129375   0.429   1.570   2.267  2.7489 -1.6301 -0.2087
 5913SOL    HW229376   0.357   1.460   2.331 -0.4292  0.6282  3.6202
 5914SOL     OW29377   0.181   0.149   1.895  0.0432  0.3077  0.2413
 5914SOL    HW129378   0.134   0.081   1.847 -1.2185  0.2931  1.4985
 5914SOL    HW229379   0.184   0.217   1.828  1.0228 -1.4219 -1.4749
 5915SOL     OW29380   2.469   3.587  10.350  0.6022  0.1664  0.1184
 5915SOL    HW129381   2.444   3.513  10.406 -1.1702  0.6371 -0.0484
 5915SOL    HW229382   2.429   3.659  10.400 -2.4323 -0.7823 -0.9286
 5916SOL     OW29383   3.951   4.412  15.253 -0.0220 -0.8642 -0.0737
 5916SOL    HW129384   3.968   4.447  15.340  1.1347  1.1412 -1.1026
 5916SOL    HW229385   3.858   4.390  15.262 -1.0551  1.6317 -4.3655
 5917SOL     OW29386   3.594   3.728   8.547  0.5990 -0.6190  0.3335
 5917SOL    HW129387   3.610   3.639   8.579  0.8002 -1.1524 -1.2802
 5917SOL    HW229388   3.661   3.727   8.479  1.0518  2.0208  0.7194
 5918SOL     OW29389   2.423   3.024  11.524 -0.0748 -0.0723 -0.4965
 5918SOL    HW129390   2.497   2.964  11.519 -0.7989 -1.0724  0.7818
 5918SOL    HW229391   2.389   2.992  11.607 -1.7439 -0.2768 -1.2547
 5919SOL     OW29392   1.610   0.128   8.518  0.1406  0.4520  0.5835
 5919SOL    HW129393   1.549   0.082   8.460  0.7383  1.2947 -0.7112
 5919SOL    HW229394   1.608   0.215   8.478  0.5802  0.9383  1.6445
 5920SOL     OW29395   2.030   1.536   6.295  0.4305 -0.6413  0.0006
 5920SOL    HW129396   2.126   1.543   6.298  0.3237  1.7338 -1.3623
 5920SOL    HW229397   2.023   1.460   6.352 -1.3075 -1.4812 -1.3144
 5921SOL     OW29398   4.270   0.256  15.586  0.8020  0.1027  0.6305
 5921SOL    HW129399   4.363   0.254  15.561  0.7581 -0.4473  0.5221
 5921SOL    HW229400   4.231   0.197  15.522  3.8965  0.0517 -1.2452
 5922SOL     OW29401   2.902   3.710   0.456 -0.3583 -0.1253  0.9471
 5922SOL    HW129402   2.822   3.700   0.405  0.1110 -1.8612  0.5574
 5922SOL    HW229403   2.909   3.804   0.442 -0.8056 -0.6333 -2.6092
 5923SOL     OW29404   2.219   3.261   3.055 -0.4074 -0.0565  0.5681
 5923SOL    HW129405   2.300   3.223   3.091  0.5337  1.3895 -0.0483
 5923SOL    HW229406   2.157   3.212   3.110 -2.7543 -0.3301 -2.3202
 5924SOL     OW29407   0.797   3.860   9.507  0.0451 -0.4150  0.2144
 5924SOL    HW129408   0.812   3.904   9.423  0.0730  0.2388  0.5661
 5924SOL    HW229409   0.757   3.929   9.559 -2.4748 -0.6585 -1.3834
 5925SOL     OW29410   2.925   2.425   4.272  0.3704 -0.4875 -0.0553
 5925SOL    HW129411   2.962   2.350   4.318  0.4188 -0.9676 -0.8721
 5925SOL    HW229412   2.930   2.481   4.349 -0.7326 -0.4414 -0.0151
 5926SOL     OW29413   3.113   0.095  12.583 -0.1167 -0.4325  0.0869
 5926SOL    HW129414   3.174   0.041  12.633  1.4112 -0.0896 -1.3651
 5926SOL    HW229415   3.058   0.024  12.552  0.4318 -0.3314 -1.1525
 5927SOL     OW29416   3.319   1.421  11.955  0.1178 -0.4258  0.2325
 5927SOL    HW129417   3.409   1.429  11.985 -0.7915  4.3963  1.6120
 5927SOL    HW229418   3.320   1.502  11.904 -1.5684 -1.4301 -1.4185
 5928SOL     OW29419   0.337   0.439   0.192 -0.2147 -0.1035 -0.0337
 5928SOL    HW129420   0.345   0.416   0.100 -1.5165 -1.3422  0.1619
 5928SOL    HW229421   0.375   0.360   0.229 -0.6926 -0.6230 -0.6653
 5929SOL     OW29422   0.495   4.451  13.045  0.2912  0.1018 -0.2911
 5929SOL    HW129423   0.579   4.491  13.068  0.7325 -0.0994 -1.5275
 5929SOL    HW229424   0.491   4.487  12.957 -2.2131  2.2239  0.6885
 5930SOL     OW29425   3.592   3.618   2.107  0.0170  0.0116  0.5011
 5930SOL    HW129426   3.568   3.698   2.060  1.9610 -0.2934 -1.0219
 5930SOL    HW229427   3.519   3.559   2.091 -1.0106  1.3599  0.2532
 5931SOL     OW29428   1.567   0.940  11.886  0.4662  0.2867 -0.1969
 5931SOL    HW129429   1.598   0.908  11.802  0.2840 -0.2985 -0.0398
 5931SOL    HW229430   1.636   0.899  11.937  1.6964  0.8848 -1.3857
 5932SOL     OW29431   0.173   3.422   5.235  0.1506  0.3133  0.3647
 5932SOL    HW129432   0.235   3.442   5.166  0.1086 -3.1401 -0.7098
 5932SOL    HW229433   0.176   3.500   5.290 -0.1608  0.7754 -0.2662
 5933SOL     OW29434   0.331   1.548   6.396 -0.2820 -0.3627 -0.6512
 5933SOL    HW129435   0.258   1.585   6.444  0.7830  1.0431 -0.1335
 5933SOL    HW229436   0.406   1.590   6.440  0.4375 -2.0288 -0.2640
 5934SOL     OW29437   1.005   1.485   5.459 -0.1433  0.0872 -0.0377
 5934SOL    HW129438   0.981   1.415   5.399  1.5159 -0.1083 -0.4796
 5934SOL    HW229439   0.934   1.548   5.448 -0.5081  0.0417  2.0540
 5935SOL     OW29440   3.408   4.580  10.617 -0.1732  0.1282  0.3233
 5935SOL    HW129441   3.418   4.644  10.688 -2.7393  0.4855  0.3558
 5935SOL    HW229442   3.490   4.530  10.621  1.4869  2.9993  2.3396
 5936SOL     OW29443   1.893   0.479  17.336  0.2900 -0.6195 -0.4695
 5936SOL    HW129444   1.849   0.440  17.412  1.1021  0.6358  0.6528
 5936SOL    HW229445   1.840   0.559  17.334  3.5996  1.5399 -2.5116
 5937SOL     OW29446   0.445   1.423   6.845 -0.8458 -0.2714 -0.1893
 5937SOL    HW129447   0.351   1.404   6.845 -0.7709 -0.6708  0.7987
 5937SOL    HW229448   0.472   1.383   6.762  0.0200 -0.8568  0.3686
 5938SOL     OW29449   3.347   1.061   7.730  0.1953 -0.6042 -0.6523
 5938SOL    HW129450   3.337   1.154   7.751 -0.8121 -0.6493 -0.9710
 5938SOL    HW229451   3.437   1.063   7.697  0.4148  0.1193 -0.0274
 5939SOL     OW29452   2.505   0.162  15.605 -0.3542 -0.1693  0.4447
 5939SOL    HW129453   2.514   0.079  15.559  1.0208  1.3335 -2.0129
 5939SOL    HW229454   2.581   0.211  15.574  0.5438 -0.6832  1.8374
 5940SOL     OW29455   3.187   0.646  17.128  0.2130  0.1523  0.1903
 5940SOL    HW129456   3.141   0.619  17.207  1.0861 -0.3505  0.5262
 5940SOL    HW229457   3.131   0.716  17.094 -0.4490 -0.1740  0.6233
 5941SOL     OW29458   3.275   2.575  11.865 -0.6220 -0.1191 -0.1694
 5941SOL    HW129459   3.204   2.597  11.925  1.7600  2.1059  1.8064
 5941SOL    HW229460   3.348   2.610  11.916 -2.3820  2.0164  0.8729
 5942SOL     OW29461   4.546   4.245   7.988 -0.3229  0.0176  0.1189
 5942SOL    HW129462   4.630   4.284   8.015  0.0753 -0.8092  0.0706
 5942SOL    HW229463   4.568   4.202   7.906 -1.9397  0.6686 -0.6391
 5943SOL     OW29464   1.497   2.289  11.000 -0.0527 -0.5939  0.2140
 5943SOL    HW129465   1.556   2.333  11.061  0.3352 -2.8313  1.4566
 5943SOL    HW229466   1.439   2.360  10.971  0.7390 -0.4147 -0.9373
 5944SOL     OW29467   4.200   3.659   3.472  0.6431  0.1706  0.1745
 5944SOL    HW129468   4.124   3.666   3.530  0.9856 -0.7943  0.7411
 5944SOL    HW229469   4.254   3.621   3.541 -1.7241 -1.2051  1.2852
 5945SOL     OW29470   2.142   0.597  12.916  0.1029  0.4209 -0.0229
 5945SOL    HW129471   2.149   0.636  13.003  1.0674  1.1217 -0.4121
 5945SOL    HW229472   2.077   0.530  12.933  0.7454 -0.4198 -0.8826
 5946SOL     OW29473   3.310   2.040  15.032  0.6882  0.4207 -0.4124
 5946SOL    HW129474   3.310   1.949  15.062  0.7338  0.0898 -1.4187
 5946SOL    HW229475   3.404   2.046  15.017  1.0089 -3.4985 -0.0103
 5947SOL     OW29476   1.312   3.034   6.301  0.0439 -0.0028  0.0795
 5947SOL    HW129477   1.262   3.012   6.380 -1.7173 -2.2652 -1.6653
 5947SOL    HW229478   1.323   3.128   6.311  1.1993 -0.1546  0.3236
 5948SOL     OW29479   3.421   0.498  12.200  0.5902  0.0527  0.1453
 5948SOL    HW129480   3.509   0.535  12.193  1.6702 -2.3311  1.0946
 5948SOL    HW229481   3.399   0.517  12.292 -0.6853 -1.8486  0.2297
 5949SOL     OW29482   2.695   1.266  13.999 -0.6426  0.5924  0.0011
 5949SOL    HW129483   2.720   1.177  13.977  0.6549  0.5968  1.4513
 5949SOL    HW229484   2.602   1.265  13.976 -1.2260 -0.3416  2.4556
 5950SOL     OW29485   3.266   3.662   9.710 -0.1136 -0.7460  0.3862
 5950SOL    HW129486   3.260   3.673   9.615  0.9441 -1.1597  0.2712
 5950SOL    HW229487   3.215   3.737   9.739  0.8436 -0.4747  1.3697
 5951SOL     OW29488   1.506   1.467   5.418 -0.0993 -0.3928 -0.5243
 5951SOL    HW129489   1.416   1.496   5.404  0.0963  0.8025  0.6914
 5951SOL    HW229490   1.504   1.398   5.484 -1.7067  0.6080  0.4782
 5952SOL     OW29491   3.431   2.636  16.651 -0.3183  0.4197 -0.8390
 5952SOL    HW129492   3.373   2.603  16.720  1.6498 -2.5896 -0.6253
 5952SOL    HW229493   3.362   2.659  16.588  0.3425  1.3104 -1.2307
 5953SOL     OW29494   4.085   0.499  16.885 -0.1729  0.1938  0.2026
 5953SOL    HW129495   4.115   0.533  16.801  0.8886  1.6601  1.1816
 5953SOL    HW229496   4.164   0.465  16.928 -1.2846 -1.6349  0.7945
 5954SOL     OW29497   1.638   3.463  16.625  0.3882 -0.2454  0.8450
 5954SOL    HW129498   1.584   3.392  16.589  1.3758 -1.0886  1.0345
 5954SOL    HW229499   1.601   3.489  16.710  1.8079  0.1967  1.3306
 5955SOL     OW29500   1.522   3.894   3.979  0.0210 -0.5091  0.1856
 5955SOL    HW129501   1.487   3.982   3.987  0.5021 -0.4953  2.2793
 5955SOL    HW229502   1.493   3.875   3.890  1.7698  1.0281 -0.7155
 5956SOL     OW29503   2.331   0.725   6.287 -0.0861  0.0079  0.1433
 5956SOL    HW129504   2.266   0.657   6.303 -1.0556  0.6232 -1.2464
 5956SOL    HW229505   2.280   0.805   6.294 -0.0854  0.0922 -0.8265
 5957SOL     OW29506   3.132   1.441   2.645 -0.1365 -0.0055 -0.4645
 5957SOL    HW129507   3.058   1.409   2.698  1.0415 -0.4005  0.9363
 5957SOL    HW229508   3.204   1.441   2.708 -0.3930  0.1790 -0.1687
 5958SOL     OW29509   3.245   1.883  11.303 -0.0441  0.0639  0.6612
 5958SOL    HW129510   3.193   1.959  11.276 -0.8397 -0.1043  1.7341
 5958SOL    HW229511   3.255   1.844  11.216 -0.2508  0.0399  0.6480
 5959SOL     OW29512   2.245   1.351   6.770  0.1862  0.0704 -0.1020
 5959SOL    HW129513   2.202   1.435   6.780  1.2956  0.4386  1.4401
 5959SOL    HW229514   2.239   1.323   6.861 -2.5865  1.8122  0.2419
 5960SOL     OW29515   2.779   1.493   7.179  0.2609 -0.3994 -0.6327
 5960SOL    HW129516   2.810   1.551   7.109  0.5119 -0.4934 -0.5986
 5960SOL    HW229517   2.758   1.553   7.250  0.8991 -1.7309  0.6578
 5961SOL     OW29518   1.016   1.523   3.006  0.1016 -0.0122  0.3913
 5961SOL    HW129519   0.958   1.469   3.059 -1.6179 -0.2209 -1.7303
 5961SOL    HW229520   0.959   1.581   2.955  2.1014  1.0041 -0.6702
 5962SOL     OW29521   3.029   1.776   2.365  0.3091  0.0931  0.7106
 5962SOL    HW129522   2.976   1.851   2.393 -1.0946 -1.0576  1.1401
 5962SOL    HW229523   3.075   1.816   2.291 -1.4882 -0.1246 -0.5313
 5963SOL     OW29524   3.280   2.499   1.529  0.1572  0.8936  0.3088
 5963SOL    HW129525   3.293   2.570   1.592  1.7035 -0.8931  2.0089
 5963SOL    HW229526   3.229   2.434   1.578  0.7349  0.7848  0.7660
 5964SOL     OW29527   1.062   2.640  10.207 -0.5847  0.1101 -0.5045
 5964SOL    HW129528   1.026   2.660  10.294 -0.9792  0.5282 -0.7693
 5964SOL    HW229529   1.024   2.556  10.178 -0.0639 -0.5158  0.6135
 5965SOL     OW29530   1.651   2.147   6.655  0.2679 -0.6065  0.4002
 5965SOL    HW129531   1.709   2.142   6.579  0.9732  2.2937  0.7270
 5965SOL    HW229532   1.564   2.160   6.617  0.3765  1.4111  0.8348
 5966SOL     OW29533   1.755   4.018  14.105 -0.1522  0.4381 -0.2032
 5966SOL    HW129534   1.735   3.940  14.158  1.5109 -0.2483 -0.5911
 5966SOL    HW229535   1.727   3.991  14.018  3.1246 -2.8031 -0.2477
 5967SOL     OW29536   0.822   3.593   4.816 -0.0304 -0.1989 -0.0769
 5967SOL    HW129537   0.791   3.504   4.827 -0.7394  0.4049  2.8536
 5967SOL    HW229538   0.770   3.637   4.884  1.1821  0.9122  0.1391
 5968SOL     OW29539   0.458   1.308  15.930  0.0271 -0.2120 -0.4231
 5968SOL    HW129540   0.481   1.398  15.953  0.2828 -0.4095  0.0922
 5968SOL    HW229541   0.524   1.285  15.865  0.8959  1.8923 -0.2769
 5969SOL     OW29542   3.667   3.764   1.763 -0.8619  0.2360 -0.4733
 5969SOL    HW129543   3.594   3.775   1.824 -0.5079 -0.4366  0.0712
 5969SOL    HW229544   3.620   3.766   1.679 -2.5733  3.0885  0.5393
 5970SOL     OW29545   3.908   3.600  14.664 -0.4605 -0.5264  0.4030
 5970SOL    HW129546   3.827   3.586  14.615 -0.3415  0.6808 -0.1481
 5970SOL    HW229547   3.878   3.576  14.752  1.3907 -2.7540  0.4100
 5971SOL     OW29548   0.626   1.189   4.125 -0.0635  0.7171  0.1593
 5971SOL    HW129549   0.611   1.284   4.131  0.7728  0.9259 -1.2236
 5971SOL    HW229550   0.620   1.162   4.217  0.5487  0.2827  0.0717
 5972SOL     OW29551   4.647   2.882  16.521  0.1116  0.3019 -0.3471
 5972SOL    HW129552   4.704   2.957  16.538 -2.2558  2.1554 -0.5021
 5972SOL    HW229553   4.567   2.934  16.529 -0.7440 -1.1102  0.1915
 5973SOL     OW29554   3.737   3.766  13.209 -0.2166  0.9799 -0.0437
 5973SOL    HW129555   3.651   3.735  13.181 -0.1486  1.5576 -0.8950
 5973SOL    HW229556   3.738   3.739  13.300 -1.6646  0.3082 -0.2346
 5974SOL     OW29557   0.014   0.991   1.941 -0.2621 -1.0043 -0.7609
 5974SOL    HW129558   0.025   0.897   1.926  1.5540 -0.9405  0.2057
 5974SOL    HW229559   0.106   1.011   1.926  0.1570 -0.6583  2.4320
 5975SOL     OW29560   2.558   2.702  15.292 -0.1494  0.3968 -0.0197
 5975SOL    HW129561   2.492   2.745  15.345  1.2872  2.0626  0.4328
 5975SOL    HW229562   2.509   2.653  15.226 -1.1057 -1.8668  2.4009
 5976SOL     OW29563   4.716   3.963   7.553 -0.4633  0.6676 -0.2501
 5976SOL    HW129564   4.707   3.868   7.553  1.1426  0.5130 -3.0164
 5976SOL    HW229565   4.629   3.979   7.517 -0.3135  1.2386 -0.3622
 5977SOL     OW29566   2.931   0.408   8.692 -0.1105  0.0809  0.4867
 5977SOL    HW129567   2.864   0.359   8.645  0.9932 -0.9289 -0.0236
 5977SOL    HW229568   2.950   0.347   8.763 -0.8071  0.6294  1.1399
 5978SOL     OW29569   1.567   1.511   7.108 -0.1282 -0.1642 -0.3556
 5978SOL    HW129570   1.605   1.431   7.145  0.4092 -0.6685 -1.9994
 5978SOL    HW229571   1.546   1.481   7.020  0.2002 -0.1812 -0.4285
 5979SOL     OW29572   2.847   2.425   9.102  0.2400 -0.0059 -0.0896
 5979SOL    HW129573   2.940   2.419   9.077  0.2222 -1.1858  0.1161
 5979SOL    HW229574   2.826   2.335   9.078  0.7480 -0.2985  0.5517
 5980SOL     OW29575   3.631   1.362   7.848 -0.2935  0.0257  0.1229
 5980SOL    HW129576   3.639   1.288   7.908 -0.2044  0.3063  0.4549
 5980SOL    HW229577   3.562   1.414   7.889 -1.0695  0.0431 -1.2114
 5981SOL     OW29578   1.263   0.384  11.832  0.0425 -0.4915  0.0959
 5981SOL    HW129579   1.294   0.311  11.885  1.6768 -0.2288 -0.4628
 5981SOL    HW229580   1.178   0.400  11.871  0.0596  0.6361 -0.3154
 5982SOL     OW29581   1.840   1.799   8.517 -0.3652  0.0494 -0.3693
 5982SOL    HW129582   1.932   1.797   8.489  0.1336 -1.4817  1.3784
 5982SOL    HW229583   1.829   1.885   8.558  0.9646  1.4353 -2.9168
 5983SOL     OW29584   3.570   2.228   6.853  0.3913 -0.1367 -0.0779
 5983SOL    HW129585   3.597   2.252   6.765  1.7540 -0.4886  0.2492
 5983SOL    HW229586   3.582   2.314   6.894 -1.7675  1.5472 -2.9707
 5984SOL     OW29587   0.722   3.896   0.904 -0.3532 -0.0956  0.0972
 5984SOL    HW129588   0.779   3.885   0.828 -0.5009  2.6678 -0.4170
 5984SOL    HW229589   0.704   3.990   0.895  3.1364  0.7193  1.7488
 5985SOL     OW29590   3.024   1.326  17.143 -0.4405  0.2040  0.1449
 5985SOL    HW129591   3.068   1.241  17.142  1.3405  1.1337  0.8749
 5985SOL    HW229592   3.109   1.369  17.142 -0.3802  0.1077  0.8283
 5986SOL     OW29593   3.736   1.414   7.609 -0.3681  0.1775 -0.2272
 5986SOL    HW129594   3.695   1.402   7.694  0.4611  0.5740  0.2307
 5986SOL    HW229595   3.743   1.510   7.608 -1.3386  0.2447 -1.8140
 5987SOL     OW29596   4.351   0.105   5.240  0.0900  0.1071 -0.1565
 5987SOL    HW129597   4.385   0.015   5.243 -0.5290 -0.1043  0.5493
 5987SOL    HW229598   4.269   0.082   5.196 -1.1829  0.9526  1.7956
 5988SOL     OW29599   4.023   4.590   6.272 -0.4541 -0.3331 -0.2064
 5988SOL    HW129600   4.002   4.499   6.250  0.8374 -0.2950 -1.6111
 5988SOL    HW229601   4.110   4.594   6.233  0.7860  2.3606  2.8038
 5989SOL     OW29602   3.210   1.943   6.873  0.3399  0.2234  0.0007
 5989SOL    HW129603   3.159   2.000   6.931 -0.0774 -0.2846  0.1281
 5989SOL    HW229604   3.212   2.010   6.804 -1.8342 -0.0289 -0.3130
 5990SOL     OW29605   4.467   3.480   2.327 -0.1210  0.2509 -0.1298
 5990SOL    HW129606   4.489   3.559   2.277  0.5886  0.0117 -0.1925
 5990SOL    HW229607   4.428   3.517   2.406 -1.9283  1.1301 -1.4096
 5991SOL     OW29608   4.112   0.712   6.074 -0.3328  0.0439 -0.0334
 5991SOL    HW129609   4.034   0.723   6.130  0.1195 -2.0857  1.0265
 5991SOL    HW229610   4.149   0.634   6.115 -0.6449  0.1332  0.4217
 5992SOL     OW29611   3.725   1.694   6.896 -0.8200 -0.3331  0.0510
 5992SOL    HW129612   3.811   1.680   6.934 -0.2328  0.3571 -1.0166
 5992SOL    HW229613   3.702   1.786   6.880  0.6925 -0.1180 -0.9049
 5993SOL     OW29614   2.536   2.489   2.594  0.1134 -0.6191 -0.0787
 5993SOL    HW129615   2.510   2.569   2.548  1.0986 -0.0490  0.3531
 5993SOL    HW229616   2.501   2.422   2.535 -0.0797 -0.9291  0.3855
 5994SOL     OW29617   3.867   0.701   7.616 -0.2103 -0.4413 -0.0548
 5994SOL    HW129618   3.794   0.739   7.664 -0.5618 -0.1190 -0.8345
 5994SOL    HW229619   3.843   0.608   7.621  1.7643 -0.8874  1.0115
 5995SOL     OW29620   1.090   0.996   8.108  0.0538 -0.6267  0.4148
 5995SOL    HW129621   1.114   1.050   8.183  2.6510  0.3500 -1.1298
 5995SOL    HW229622   1.063   1.062   8.045  0.1689  0.9890  2.0805
 5996SOL     OW29623   1.192   3.428   6.451 -0.4410  0.4380  0.5993
 5996SOL    HW129624   1.130   3.451   6.520  0.1659  1.2507  0.8734
 5996SOL    HW229625   1.272   3.401   6.497 -0.0819  1.5909  0.6496
 5997SOL     OW29626   3.192   0.922   8.075  0.1078 -0.3538  0.1547
 5997SOL    HW129627   3.234   0.885   7.997  0.3621 -0.7434  0.4744
 5997SOL    HW229628   3.171   0.847   8.130  1.1211 -1.1212 -0.4993
 5998SOL     OW29629   3.350   3.706   7.012  0.5579 -0.5430  0.1859
 5998SOL    HW129630   3.418   3.700   6.945  2.1838  0.4224  1.7391
 5998SOL    HW229631   3.408   3.744   7.078  0.4161 -0.5564  0.3191
 5999SOL     OW29632   0.260   0.948   8.763  0.1590  0.6384  0.0562
 5999SOL    HW129633   0.264   1.029   8.814  2.7271 -0.0708  1.0217
 5999SOL    HW229634   0.222   0.984   8.683  0.3587  1.3295  0.2704
 6000SOL     OW29635   2.050   4.588   1.710  0.7506 -0.2669  0.2785
 6000SOL    HW129636   2.076   4.661   1.766 -2.4284  1.0343  0.0246
 6000SOL    HW229637   2.074   4.510   1.761 -0.9906 -1.2365 -0.3603
 6001SOL     OW29638   3.707   1.744   3.386  0.6851 -0.5380 -1.0769
 6001SOL    HW129639   3.698   1.834   3.419  0.4195 -0.9241 -0.1086
 6001SOL    HW229640   3.620   1.729   3.348  0.2017 -3.0310  1.0499
 6002SOL     OW29641   4.542   2.653   7.630 -0.2871  0.3572  0.2307
 6002SOL    HW129642   4.607   2.666   7.700  1.0994 -0.9366 -0.8031
 6002SOL    HW229643   4.528   2.743   7.602 -0.6686  1.0439  2.6160
 6003SOL     OW29644   2.836   2.281   7.208  0.2591 -0.2119 -0.8140
 6003SOL    HW129645   2.914   2.258   7.257 -0.0549  1.4752  0.4699
 6003SOL    HW229646   2.832   2.376   7.217 -1.6992 -0.4535  0.7943
 6004SOL     OW29647   2.697   0.081   5.374  0.3357  0.2042 -0.5685
 6004SOL    HW129648   2.677   0.062   5.466  0.9044 -1.2194 -0.7431
 6004SOL    HW229649   2.773   0.138   5.386  1.3282 -1.4135  0.8174
 6005SOL     OW29650   3.216   4.231   1.644  0.6888 -0.1911  0.1463
 6005SOL    HW129651   3.285   4.286   1.681 -0.2770  1.3856 -0.4059
 6005SOL    HW229652   3.263   4.148   1.657  0.4903 -0.4283 -0.6351
 6006SOL     OW29653   4.121   3.363   5.131 -0.0419 -0.0657 -0.6869
 6006SOL    HW129654   4.165   3.354   5.215  1.2214 -0.4809 -1.3957
 6006SOL    HW229655   4.064   3.288   5.121 -0.0011 -0.2312  0.3492
 6007SOL     OW29656   1.584   1.797   6.033  0.5538 -0.4762 -0.1556
 6007SOL    HW129657   1.667   1.750   6.027  1.5454  1.5705 -2.3986
 6007SOL    HW229658   1.530   1.720   6.018  0.9888 -1.1591  1.7942
 6008SOL     OW29659   0.502   0.761   4.880 -0.3089  0.4246 -0.6587
 6008SOL    HW129660   0.496   0.760   4.784 -1.3365  0.0725 -0.5830
 6008SOL    HW229661   0.522   0.669   4.897 -1.0382  0.2947 -0.5316
 6009SOL     OW29662   4.240   3.521  16.528 -0.0446 -0.2664 -0.4998
 6009SOL    HW129663   4.150   3.549  16.511 -0.0165  0.4756  0.5001
 6009SOL    HW229664   4.262   3.563  16.612 -1.6107 -1.0414  0.3017
 6010SOL     OW29665   1.576   3.116  17.485 -0.0032  0.3021  0.1628
 6010SOL    HW129666   1.620   3.080  17.407 -0.2565 -1.0717  0.6727
 6010SOL    HW229667   1.658   3.152  17.520  0.4864  0.4987 -1.1807
 6011SOL     OW29668   4.554   0.512  12.944 -0.4709 -0.6912  0.0316
 6011SOL    HW129669   4.507   0.443  12.991  0.2620  0.1584  2.0139
 6011SOL    HW229670   4.619   0.536  13.009 -0.2560  0.5706 -0.6452
 6012SOL     OW29671   1.126   1.654   3.231 -0.3973 -0.5467  0.4211
 6012SOL    HW129672   1.222   1.657   3.234 -0.3649  0.2950 -1.4541
 6012SOL    HW229673   1.097   1.597   3.159 -0.6115  2.3716 -1.8070
 6013SOL     OW29674   0.825   1.938   2.974 -0.3272  0.1069  0.1969
 6013SOL    HW129675   0.861   2.020   2.943 -0.7477  0.3418  0.3311
 6013SOL    HW229676   0.734   1.946   2.946  0.0141 -0.7539 -1.1858
 6014SOL     OW29677   2.626   2.829   5.714  0.3781  0.3950  0.1178
 6014SOL    HW129678   2.664   2.910   5.681  0.0315  1.1992  1.6633
 6014SOL    HW229679   2.645   2.818   5.807  0.8497 -0.0341 -0.0283
 6015SOL     OW29680   1.453   3.841   3.738 -1.1814 -0.1455 -0.2196
 6015SOL    HW129681   1.463   3.754   3.700 -0.1032  0.0176 -0.3093
 6015SOL    HW229682   1.366   3.860   3.704 -0.8879 -1.8573 -1.9034
 6016SOL     OW29683   1.815   4.697  12.610  0.0452  0.1779 -0.5120
 6016SOL    HW129684   1.820   4.638  12.535 -0.1150  2.3102 -2.2315
 6016SOL    HW229685   1.814   0.039  12.557  2.1797 -0.2917 -1.2598
 6017SOL     OW29686   2.333   2.844   3.016 -0.1979  0.0307 -0.3360
 6017SOL    HW129687   2.417   2.807   2.989  0.7538  0.2627  2.2896
 6017SOL    HW229688   2.289   2.759   3.016 -1.5936  0.7360 -1.7155
 6018SOL     OW29689   4.629   2.459   5.504 -0.2983 -0.1510  0.6237
 6018SOL    HW129690   4.716   2.447   5.542 -0.9322 -0.8484  1.8337
 6018SOL    HW229691   4.650   2.413   5.422 -4.2376  0.2495 -0.6226
 6019SOL     OW29692   2.783   3.124   5.408 -0.0356  0.2280 -0.2169
 6019SOL    HW129693   2.753   3.190   5.345 -1.1067 -0.9997 -0.9882
 6019SOL    HW229694   2.877   3.142   5.413 -0.3965  1.6933  1.2577
 6020SOL     OW29695   3.227   2.206  11.286  0.2142  0.3168  0.5033
 6020SOL    HW129696   3.297   2.248  11.336  0.9844 -0.9403  0.4748
 6020SOL    HW229697   3.192   2.141  11.347 -3.1899  1.7168  0.0722
 6021SOL     OW29698   2.628   0.161   2.362  0.2877 -0.3208 -0.2215
 6021SOL    HW129699   2.657   0.077   2.328 -1.3623 -0.8682 -0.2789
 6021SOL    HW229700   2.603   0.139   2.452 -0.9675  2.2761  0.0710
 6022SOL     OW29701   2.099   1.222  14.264  0.1915 -0.2870  0.5311
 6022SOL    HW129702   2.069   1.307  14.299  1.2719  0.6972 -0.9351
 6022SOL    HW229703   2.029   1.202  14.201 -0.1599 -0.3588  0.9410
 6023SOL     OW29704   3.331   3.957  12.710 -0.3997  0.5743 -0.5228
 6023SOL    HW129705   3.387   4.034  12.721 -0.2063  0.7302 -2.5231
 6023SOL    HW229706   3.398   3.889  12.717 -2.4587 -1.5656 -1.6405
 6024SOL     OW29707   2.768   0.272  13.594  0.1604  0.0199  0.2046
 6024SOL    HW129708   2.810   0.277  13.508  0.2187  1.5016  0.3209
 6024SOL    HW229709   2.822   0.318  13.658  2.0293  1.5921 -2.5392
 6025SOL     OW29710   0.837   2.887   8.092  0.2084  0.4121 -0.7464
 6025SOL    HW129711   0.887   2.863   8.014 -1.1271 -2.0967 -0.8121
 6025SOL    HW229712   0.800   2.802   8.116  1.3462  0.0232 -0.3551
 6026SOL     OW29713   0.765   1.399   3.884  1.2547  0.0535 -0.2981
 6026SOL    HW129714   0.722   1.484   3.885  0.3598 -0.3874 -1.2464
 6026SOL    HW229715   0.692   1.337   3.875  1.5818 -0.5437  1.0234
 6027SOL     OW29716   4.602   2.926  12.488  0.2703  0.1617 -0.4949
 6027SOL    HW129717   4.533   2.950  12.427 -0.0360 -1.8721 -0.9196
 6027SOL    HW229718   4.637   2.854  12.436  0.5441 -0.2852  0.3084
 6028SOL     OW29719   3.408   2.099   2.917  0.3711  0.7087  0.2587
 6028SOL    HW129720   3.333   2.147   2.953 -1.0116 -0.1808 -1.4328
 6028SOL    HW229721   3.382   2.091   2.825  0.7161 -0.4439  0.2640
 6029SOL     OW29722   1.199   3.067   9.101  0.4534 -0.5859 -0.0494
 6029SOL    HW129723   1.148   3.144   9.126  1.7520 -0.3661  1.8683
 6029SOL    HW229724   1.231   3.042   9.187  0.2347  3.0466  1.1094
 6030SOL     OW29725   0.826   2.590   8.093 -0.0941 -0.4371  0.4816
 6030SOL    HW129726   0.822   2.495   8.101  0.0829 -0.5423 -0.7461
 6030SOL    HW229727   0.903   2.595   8.036 -1.6222 -1.5766 -1.6783
 6031SOL     OW29728   3.786   2.301  11.780  0.3279  0.2634  0.6074
 6031SOL    HW129729   3.703   2.254  11.793  2.1685 -2.9368  0.8590
 6031SOL    HW229730   3.786   2.315  11.686 -2.2698  0.7326  0.6735
 6032SOL     OW29731   3.116   1.895  11.819 -0.4380 -1.0486 -0.0435
 6032SOL    HW129732   3.137   1.811  11.860  0.1756  0.3879  2.5724
 6032SOL    HW229733   3.021   1.896  11.834 -0.8074 -2.5523 -2.2543
 6033SOL     OW29734   0.895   0.215  14.858  0.1164  0.2860 -0.4976
 6033SOL    HW129735   0.821   0.203  14.798  0.4252 -0.2014 -0.7773
 6033SOL    HW229736   0.958   0.146  14.837 -0.6549  0.1458 -2.3427
 6034SOL     OW29737   2.758   3.565  13.955 -0.0152  0.0689  0.7923
 6034SOL    HW129738   2.786   3.528  14.039  1.9184 -0.2805 -0.0184
 6034SOL    HW229739   2.789   3.655  13.959 -0.6997  0.3291  0.0829
 6035SOL     OW29740   2.363   4.442   3.383  0.1670  0.6526 -0.0044
 6035SOL    HW129741   2.369   4.487   3.298 -1.7126 -1.7668 -1.4180
 6035SOL    HW229742   2.299   4.490   3.436 -0.8659  0.4689 -1.0757
 6036SOL     OW29743   2.463   4.629   3.862  0.4906 -0.0617 -0.1235
 6036SOL    HW129744   2.506   4.711   3.888  0.9750  0.0508 -1.2704
 6036SOL    HW229745   2.378   4.663   3.832 -0.6138 -1.1249  1.8168
 6037SOL     OW29746   1.281   1.083   4.887 -0.5073  0.4462 -0.1421
 6037SOL    HW129747   1.352   1.144   4.911  0.0074  0.4599 -1.7295
 6037SOL    HW229748   1.289   1.023   4.961  2.0235  1.4306  0.3933
 6038SOL     OW29749   0.841   4.467   1.849  0.2508 -0.0910 -0.1756
 6038SOL    HW129750   0.922   4.486   1.802  0.8962 -1.7429  0.2358
 6038SOL    HW229751   0.798   4.405   1.789 -1.2404  0.2644  0.5432
 6039SOL     OW29752   2.875   0.228   8.111 -0.1300  0.0496 -1.0721
 6039SOL    HW129753   2.896   0.265   8.197  1.7025  1.3217 -2.0673
 6039SOL    HW229754   2.862   0.140   8.147 -3.1414  1.5602  1.5061
 6040SOL     OW29755   0.627   4.016   4.317 -0.7508 -0.8223 -0.1616
 6040SOL    HW129756   0.654   3.983   4.403  0.0354 -0.8483 -0.4208
 6040SOL    HW229757   0.692   3.974   4.262  1.0100  0.3051  1.0596
 6041SOL     OW29758   0.762   3.420  13.175  0.0877  0.3575 -0.5130
 6041SOL    HW129759   0.742   3.327  13.177  0.3137  0.3307  0.7971
 6041SOL    HW229760   0.832   3.434  13.239  0.2549 -0.9616 -0.4056
 6042SOL     OW29761   3.493   1.526   2.441 -0.1466  0.1908 -0.3666
 6042SOL    HW129762   3.508   1.436   2.411  0.0785 -0.3678  1.4430
 6042SOL    HW229763   3.401   1.539   2.421 -0.1088 -2.6536 -2.4183
 6043SOL     OW29764   1.253   3.390  15.936 -0.1288 -0.5771 -0.2862
 6043SOL    HW129765   1.289   3.309  15.973  2.3562  1.5161  1.8733
 6043SOL    HW229766   1.264   3.367  15.844  2.2762 -0.4997 -0.0220
 6044SOL     OW29767   0.108   4.280   9.635  0.4389 -0.2576 -0.7126
 6044SOL    HW129768   0.067   4.262   9.551 -2.2310 -1.1369  0.7949
 6044SOL    HW229769   0.199   4.269   9.606  0.6589 -2.0540  0.6399
 6045SOL     OW29770   0.774   2.032   4.632 -0.6513  0.0687  0.3209
 6045SOL    HW129771   0.697   2.046   4.688 -2.6421  0.5064 -2.4755
 6045SOL    HW229772   0.751   2.080   4.552 -0.7958  1.1478  1.0184
 6046SOL     OW29773   3.922   0.811  12.628 -0.0683 -0.3980  0.0404
 6046SOL    HW129774   3.870   0.870  12.574 -1.0542 -1.2422  0.0699
 6046SOL    HW229775   3.871   0.808  12.709 -1.1207 -0.7210 -0.6362
 6047SOL     OW29776   2.619   1.283   2.640  0.2983 -0.1323  0.5676
 6047SOL    HW129777   2.565   1.303   2.564 -2.0963 -0.7811  2.0853
 6047SOL    HW229778   2.705   1.306   2.606  0.1528 -0.4726 -0.0325
 6048SOL     OW29779   3.665   3.003   7.072  0.1592 -0.4439 -0.1660
 6048SOL    HW129780   3.611   2.947   7.128  0.4323 -2.2492 -1.7171
 6048SOL    HW229781   3.748   2.956   7.060  1.8213  2.1701  1.1066
 6049SOL     OW29782   3.559   2.858  15.193 -0.2272  0.0972 -0.5348
 6049SOL    HW129783   3.534   2.942  15.231  3.0347  0.7923  0.0371
 6049SOL    HW229784   3.484   2.805  15.222  0.1219  0.3003  0.7160
 6050SOL     OW29785   0.639   0.200   0.108  0.2423  0.6491  0.1624
 6050SOL    HW129786   0.704   0.132   0.122 -1.2190 -0.7305  0.2123
 6050SOL    HW229787   0.688   0.282   0.118  0.4115  0.2709  2.2668
 6051SOL     OW29788   3.371   3.876   4.895 -0.1958  0.0265 -0.1409
 6051SOL    HW129789   3.334   3.821   4.825 -0.1286  1.0516 -0.9729
 6051SOL    HW229790   3.430   3.806   4.925 -1.4975 -0.6412  0.8600
 6052SOL     OW29791   4.486   0.510   8.719 -0.0661  0.1105  0.0997
 6052SOL    HW129792   4.392   0.529   8.717  0.1284  1.0434 -0.1003
 6052SOL    HW229793   4.517   0.579   8.661 -1.6429 -1.7744 -2.9773
 6053SOL     OW29794   3.854   3.290   6.855  0.3198 -0.0095 -0.0376
 6053SOL    HW129795   3.910   3.212   6.854 -0.4090 -0.5322  0.2251
 6053SOL    HW229796   3.812   3.286   6.941  0.9086  0.8130  0.2909
 6054SOL     OW29797   2.309   0.162   8.357 -0.2845 -0.1559 -0.7160
 6054SOL    HW129798   2.310   0.207   8.442  1.6377 -0.7077 -0.4432
 6054SOL    HW229799   2.288   0.235   8.299 -2.9940 -0.9911 -0.7858
 6055SOL     OW29800   4.015   4.224   8.408  0.6598 -0.4815  0.2345
 6055SOL    HW129801   4.021   4.164   8.333 -0.1107 -0.8049  0.4372
 6055SOL    HW229802   4.067   4.168   8.465 -1.8865 -2.9287  0.1331
 6056SOL     OW29803   2.572   4.163  10.366 -0.0339 -0.3166 -0.2212
 6056SOL    HW129804   2.577   4.258  10.381  0.1033  0.1309 -3.1358
 6056SOL    HW229805   2.651   4.144  10.315 -0.7283  0.2634 -1.5145
 6057SOL     OW29806   3.853   1.147  13.141  0.0814  0.3282 -0.0684
 6057SOL    HW129807   3.888   1.130  13.054 -0.3979  0.8843 -0.3704
 6057SOL    HW229808   3.761   1.164  13.123  0.2171  0.3518 -0.7234
 6058SOL     OW29809   1.719   2.600  14.163  0.4250 -0.3288  0.3166
 6058SOL    HW129810   1.690   2.509  14.175 -0.4641  0.2731  2.5345
 6058SOL    HW229811   1.662   2.638  14.229 -0.4659 -0.6041 -0.3013
 6059SOL     OW29812   2.985   1.873   0.205  0.3776 -0.1078 -0.5980
 6059SOL    HW129813   2.895   1.904   0.208  0.0537 -1.2313  1.1095
 6059SOL    HW229814   2.975   1.802   0.141 -0.3122 -0.7242  0.1923
 6060SOL     OW29815   1.854   4.333   7.751 -0.0099  0.4694 -0.3689
 6060SOL    HW129816   1.801   4.279   7.692  0.6996 -0.3401 -0.2712
 6060SOL    HW229817   1.830   4.295   7.836 -1.8796  1.6802 -0.3604
 6061SOL     OW29818   2.077   3.907  12.859 -0.4521  0.1971  0.8974
 6061SOL    HW129819   2.009   3.925  12.794 -1.3256  0.4574  1.8922
 6061SOL    HW229820   2.115   3.996  12.861 -1.4428  0.5897  1.7302
 6062SOL     OW29821   1.763   1.091   2.003 -0.1748 -0.0723 -0.0789
 6062SOL    HW129822   1.700   1.020   1.990 -1.9246  1.5386 -0.2411
 6062SOL    HW229823   1.748   1.138   1.922  0.0649 -1.0766 -0.7106
 6063SOL     OW29824   2.980   2.529   0.866 -0.5052 -0.4952  0.0328
 6063SOL    HW129825   3.001   2.457   0.926  0.1546  0.3425  0.7965
 6063SOL    HW229826   3.062   2.542   0.818 -1.1608  2.0346 -0.4025
 6064SOL     OW29827   2.870   4.254   0.351 -0.3739 -0.3749  0.4345
 6064SOL    HW129828   2.823   4.295   0.423 -0.5162 -1.6425  1.0762
 6064SOL    HW229829   2.807   4.250   0.279 -0.4494  2.3384  0.3623
 6065SOL     OW29830   3.876   3.194   5.026  0.2649 -0.4324  0.0907
 6065SOL    HW129831   3.873   3.125   5.092 -1.2802 -1.9769 -1.5782
 6065SOL    HW229832   3.785   3.222   5.012  0.0988 -1.0554 -0.0768
 6066SOL     OW29833   4.347   3.244  15.918 -0.4121  0.3889 -0.2248
 6066SOL    HW129834   4.418   3.273  15.861  0.7966 -0.7222  0.7080
 6066SOL    HW229835   4.316   3.162  15.879 -0.7744 -0.0849  1.0689
 6067SOL     OW29836   4.098   4.036   2.975 -0.0259 -0.1054  0.6334
 6067SOL    HW129837   4.131   3.946   2.969 -1.5875 -0.7010  0.9292
 6067SOL    HW229838   4.059   4.043   3.062 -0.9598  0.2090  0.1833
 6068SOL     OW29839   2.018   4.370  13.835 -0.5471 -0.5354 -0.0690
 6068SOL    HW129840   2.089   4.333  13.888 -0.6890 -0.7624 -0.0407
 6068SOL    HW229841   1.949   4.333  13.889  1.5394  0.4984  3.3002
 6069SOL     OW29842   4.557   3.809  12.709 -0.2342 -0.5042  0.3673
 6069SOL    HW129843   4.579   3.855  12.791 -1.3159 -1.3081  1.1039
 6069SOL    HW229844   4.526   3.881  12.654 -0.8612 -0.9075  0.1894
 6070SOL     OW29845   2.341   2.678   4.760  0.0461  0.0766 -0.5518
 6070SOL    HW129846   2.249   2.657   4.776  0.0857 -2.2237 -3.0921
 6070SOL    HW229847   2.346   2.661   4.666  3.7248  0.2105 -0.3703
 6071SOL     OW29848   3.352   3.455   6.251 -0.1302  0.9076 -0.0732
 6071SOL    HW129849   3.346   3.483   6.159  0.9460 -0.6977 -0.6178
 6071SOL    HW229850   3.265   3.477   6.284 -1.4003 -2.3679 -1.2725
 6072SOL     OW29851   1.084   1.289   2.504 -0.6384  0.4418  0.0468
 6072SOL    HW129852   1.035   1.207   2.504 -1.1128  0.7249 -0.7423
 6072SOL    HW229853   1.030   1.342   2.563 -0.5165  0.4811  0.1227
 6073SOL     OW29854   0.841   2.674   4.879  0.1695  0.3111 -0.2829
 6073SOL    HW129855   0.898   2.698   4.805 -0.9211 -1.3295 -1.6434
 6073SOL    HW229856   0.871   2.585   4.897 -1.6653 -0.0611  0.8847
 6074SOL     OW29857   0.062   4.116   5.103 -0.1629 -0.0838  0.1392
 6074SOL    HW129858   0.024   4.195   5.141  1.6954  1.0537 -0.3525
 6074SOL    HW229859   0.093   4.142   5.016  0.1440 -2.0254 -0.3356
 6075SOL     OW29860   4.186   3.458   1.762  0.6539 -0.1718 -0.4335
 6075SOL    HW129861   4.215   3.439   1.851 -1.4365  0.7355  0.4438
 6075SOL    HW229862   4.124   3.530   1.779 -0.0094 -0.8307 -0.0795
 6076SOL     OW29863   0.824   2.797   7.195  0.0735 -0.0936  0.8246
 6076SOL    HW129864   0.887   2.728   7.214  2.0022  0.8518 -2.0907
 6076SOL    HW229865   0.856   2.860   7.260 -2.2139  0.5490  1.3071
 6077SOL     OW29866   4.162   3.784   2.971  0.1650  0.6276 -0.6642
 6077SOL    HW129867   4.067   3.770   2.968  0.6991 -2.9456 -1.0685
 6077SOL    HW229868   4.193   3.693   2.969 -2.4825 -0.3129  0.8543
 6078SOL     OW29869   0.984   1.457   0.804  0.3410  0.0756 -0.3470
 6078SOL    HW129870   0.935   1.376   0.790 -1.7973  1.1238  0.9479
 6078SOL    HW229871   0.913   1.520   0.787  0.6476  0.0879 -1.6300
 6079SOL     OW29872   3.200   3.114   0.906  0.1887  0.1321  0.1311
 6079SOL    HW129873   3.242   3.199   0.910 -0.4752  0.5920 -3.2119
 6079SOL    HW229874   3.126   3.141   0.852  0.6442  1.6816  0.2982
 6080SOL     OW29875   1.019   0.791   4.275  0.1295 -0.1324  0.1408
 6080SOL    HW129876   0.947   0.853   4.268 -1.0729 -1.2633  2.4890
 6080SOL    HW229877   1.081   0.808   4.204 -0.6045  1.3840 -0.1302
 6081SOL     OW29878   2.795   0.540   0.473 -0.1068  0.1051  0.0295
 6081SOL    HW129879   2.819   0.481   0.546  1.2240 -0.5526 -0.9297
 6081SOL    HW229880   2.877   0.534   0.424 -0.9743 -3.1100 -1.0141
 6082SOL     OW29881   3.987   3.739  17.035  0.1210  0.1274 -0.3793
 6082SOL    HW129882   4.066   3.699  17.073 -0.2167 -1.6288 -1.5321
 6082SOL    HW229883   4.022   3.828  17.039  0.4422  0.0338 -1.0661
 6083SOL     OW29884   1.379   4.149   3.936 -0.1814 -0.4238  0.3481
 6083SOL    HW129885   1.297   4.174   3.893 -0.5655  0.0301  1.3677
 6083SOL    HW229886   1.372   4.208   4.011 -0.9272 -1.5516  1.1650
 6084SOL     OW29887   0.417   1.223   5.903  0.0931 -0.0931  0.0838
 6084SOL    HW129888   0.491   1.187   5.951 -0.3457 -1.0093  0.0768
 6084SOL    HW229889   0.421   1.201   5.810 -0.1299 -0.0138  0.0551
 6085SOL     OW29890   1.445   3.085  13.284  0.4345 -0.0579  0.0333
 6085SOL    HW129891   1.465   3.112  13.374 -0.5152  1.5354 -0.2300
 6085SOL    HW229892   1.471   2.994  13.298  3.1223  0.7340  0.2844
 6086SOL     OW29893   1.823   3.757   6.910 -0.0181 -0.5187 -0.3151
 6086SOL    HW129894   1.766   3.752   6.834  0.4299  0.2146 -0.6999
 6086SOL    HW229895   1.782   3.827   6.961  0.3817  0.5153 -1.4311
 6087SOL     OW29896   1.730   4.501   1.326 -0.1736 -0.6409 -0.0865
 6087SOL    HW129897   1.675   4.535   1.397  0.9370 -3.1327  1.9589
 6087SOL    HW229898   1.754   4.573   1.268 -1.8218  0.7439  0.9665
 6088SOL     OW29899   3.991   0.523   6.582 -0.1320  0.7724 -0.1731
 6088SOL    HW129900   3.973   0.483   6.497  2.1690 -0.5803 -0.0084
 6088SOL    HW229901   3.992   0.615   6.556  1.7261  1.4136  2.2148
 6089SOL     OW29902   4.723   2.792   2.738  0.8500  0.2683  0.4119
 6089SOL    HW129903   0.049   2.858   2.714  0.9390  0.5635  1.4745
 6089SOL    HW229904   0.024   2.711   2.707 -0.6212 -0.6819  1.0180
 6090SOL     OW29905   3.415   0.892  14.419 -0.0745  0.5823 -0.3366
 6090SOL    HW129906   3.439   0.860  14.506  0.6702  1.5207 -0.2004
 6090SOL    HW229907   3.394   0.983  14.437 -0.2184  0.1588  1.5494
 6091SOL     OW29908   3.553   3.642   6.876  0.1817 -0.4190  0.6992
 6091SOL    HW129909   3.544   3.628   6.782  0.6751 -3.1685  1.0518
 6091SOL    HW229910   3.644   3.616   6.888  0.6586  2.0322  2.3836
 6092SOL     OW29911   1.302   1.721   3.684 -0.0274  0.2822  0.4342
 6092SOL    HW129912   1.393   1.742   3.702  0.0662 -0.8260  1.2008
 6092SOL    HW229913   1.299   1.626   3.681 -2.8429  0.2978  2.5486
 6093SOL     OW29914   2.267   3.675   8.670  0.0995  0.4254 -0.5118
 6093SOL    HW129915   2.363   3.666   8.676 -0.3479 -4.8835 -1.2414
 6093SOL    HW229916   2.238   3.651   8.758  1.6697 -0.9997 -0.3721
 6094SOL     OW29917   3.230   4.058   4.725  0.2131 -0.4933  0.0215
 6094SOL    HW129918   3.252   4.123   4.658  1.8433 -0.4277  0.6272
 6094SOL    HW229919   3.307   4.067   4.781  0.3695  0.9903 -0.4317
 6095SOL     OW29920   1.943   0.571  15.734  0.3572  0.1589  0.0515
 6095SOL    HW129921   2.031   0.607  15.746  0.0997  1.7045 -2.5909
 6095SOL    HW229922   1.953   0.480  15.761  0.0605 -0.3036 -1.3897
 6096SOL     OW29923   1.893   2.287  10.749  0.1001  0.1890 -0.0069
 6096SOL    HW129924   1.819   2.245  10.705  0.3719 -0.7284  0.4183
 6096SOL    HW229925   1.969   2.273  10.693  0.0441  3.4401 -0.8830
 6097SOL     OW29926   1.697   3.973   6.359  0.1412 -0.7706 -0.0686
 6097SOL    HW129927   1.627   3.908   6.353 -0.8048  0.1795  0.7075
 6097SOL    HW229928   1.704   3.980   6.454 -3.7302 -1.2241  0.2422
 6098SOL     OW29929   3.056   0.353   6.906 -0.0052 -0.2895 -0.1618
 6098SOL    HW129930   2.970   0.395   6.901  0.3865  0.4148 -1.0148
 6098SOL    HW229931   3.034   0.270   6.948  0.3350 -1.5854 -2.5924
 6099SOL     OW29932   0.941   2.736   2.128 -0.7219  0.2173 -0.1192
 6099SOL    HW129933   0.979   2.679   2.061 -0.2279  0.9816 -0.4886
 6099SOL    HW229934   0.999   2.721   2.202 -1.7540  0.6909  0.7968
 6100SOL     OW29935   1.527   1.295   4.231  0.1539  0.0764 -0.5861
 6100SOL    HW129936   1.542   1.370   4.289 -1.2501 -1.6049  2.0001
 6100SOL    HW229937   1.599   1.235   4.248 -0.7795 -1.0607 -0.6350
 6101SOL     OW29938   0.787   3.141  11.676 -0.0204 -0.0430  0.2625
 6101SOL    HW129939   0.779   3.226  11.718 -0.1790  0.3420 -0.5400
 6101SOL    HW229940   0.745   3.151  11.590  1.8740  0.0517 -0.6365
 6102SOL     OW29941   4.172   0.553   5.197  0.2877  0.1212  0.8131
 6102SOL    HW129942   4.126   0.637   5.187 -1.3920 -0.8587  0.4100
 6102SOL    HW229943   4.213   0.563   5.283  0.7750  0.5806  0.5324
 6103SOL     OW29944   3.841   1.079   9.041 -0.1142  0.0748  0.4564
 6103SOL    HW129945   3.847   1.175   9.039  1.2437 -0.0691 -3.4130
 6103SOL    HW229946   3.884   1.060   8.958 -0.6091 -1.9699  0.6853
 6104SOL     OW29947   2.981   1.865   5.665  0.5144 -0.1810 -0.1748
 6104SOL    HW129948   2.948   1.848   5.577 -0.8982  0.6245  0.2107
 6104SOL    HW229949   2.950   1.954   5.681  1.4746 -0.0591  1.0566
 6105SOL     OW29950   2.351   0.269  12.376 -0.6419  0.3838 -0.3158
 6105SOL    HW129951   2.353   0.231  12.288  0.6996 -2.3663  0.9241
 6105SOL    HW229952   2.444   0.275  12.399 -0.6073 -0.1985 -0.3133
 6106SOL     OW29953   2.555   4.035   1.342  0.0405  0.1006 -0.3517
 6106SOL    HW129954   2.512   4.008   1.424  1.0348 -1.9431 -0.5022
 6106SOL    HW229955   2.595   4.113   1.380  0.1647  0.4864 -1.2822
 6107SOL     OW29956   0.420   2.271   5.288 -0.6649 -0.3514 -0.4622
 6107SOL    HW129957   0.479   2.267   5.212 -1.9804  0.5583 -1.5368
 6107SOL    HW229958   0.362   2.346   5.273 -0.1931  0.1446  0.1712
 6108SOL     OW29959   2.290   3.256  13.569  0.2112 -0.3460  0.5998
 6108SOL    HW129960   2.276   3.316  13.643  0.7373 -0.7160  0.9973
 6108SOL    HW229961   2.254   3.300  13.492  2.4715  0.3854 -0.0105
 6109SOL     OW29962   3.692   1.705   5.836 -0.1451  0.1754 -0.2786
 6109SOL    HW129963   3.628   1.741   5.897  1.4061  2.7942 -0.2187
 6109SOL    HW229964   3.647   1.693   5.752 -0.9485  0.3786  0.1217
 6110SOL     OW29965   0.251   2.444   8.319 -0.4639 -0.3720 -0.2178
 6110SOL    HW129966   0.201   2.499   8.380  2.2494 -0.2863  1.9830
 6110SOL    HW229967   0.336   2.482   8.344 -0.1833  0.3927 -2.3589
 6111SOL     OW29968   2.081   0.574   3.734  0.2017  0.5203 -0.3107
 6111SOL    HW129969   2.134   0.498   3.712 -0.7051 -0.5246  1.1070
 6111SOL    HW229970   1.996   0.534   3.750 -0.8454  2.8026 -0.1586
 6112SOL     OW29971   2.561   2.217  14.250  0.1304  0.2835  0.4927
 6112SOL    HW129972   2.548   2.289  14.312 -1.9267  1.2007 -0.9978
 6112SOL    HW229973   2.653   2.194  14.262  0.2115  0.9106  1.0659
 6113SOL     OW29974   4.387   2.337   8.534  0.3595 -0.2889  0.1509
 6113SOL    HW129975   4.339   2.418   8.551  2.4459  0.8316  0.6988
 6113SOL    HW229976   4.384   2.342   8.439 -0.2031 -1.8901  0.0860
 6114SOL     OW29977   4.656   2.661   3.207 -0.3388  0.2504  0.2141
 6114SOL    HW129978   4.574   2.695   3.242  0.0046  1.6793 -0.3907
 6114SOL    HW229979   4.652   2.699   3.120  0.2193  2.4183  1.1433
 6115SOL     OW29980   1.619   0.372   5.514  0.0719 -0.6474  0.0540
 6115SOL    HW129981   1.541   0.372   5.458  0.9083  0.9788 -1.1155
 6115SOL    HW229982   1.599   0.455   5.557  0.2407  0.1120 -1.3241
 6116SOL     OW29983   1.649   2.322  14.771  0.0036 -0.5633  1.1797
 6116SOL    HW129984   1.638   2.356  14.683  1.3632 -1.9343  0.4727
 6116SOL    HW229985   1.577   2.368  14.813  0.1317 -1.0999  1.9994
 6117SOL     OW29986   0.363   0.399  17.242 -0.0497 -0.0697  0.6086
 6117SOL    HW129987   0.293   0.465  17.243  0.1388  0.1295  0.7603
 6117SOL    HW229988   0.397   0.413  17.154 -3.1125  1.1233 -0.4000
 6118SOL     OW29989   3.045   4.424  13.729 -0.0943 -0.0836 -0.4409
 6118SOL    HW129990   2.953   4.426  13.756 -0.9334 -0.5337 -3.2517
 6118SOL    HW229991   3.070   4.512  13.756 -0.8580 -0.1881  0.6289
 6119SOL     OW29992   3.075   1.304   6.092 -0.0599  0.2532  0.4166
 6119SOL    HW129993   3.098   1.218   6.128 -1.3544  0.1930  1.1329
 6119SOL    HW229994   3.005   1.332   6.151 -1.4587  1.5897 -1.8432
 6120SOL     OW29995   3.810   3.926   7.173  0.0314 -0.4509 -0.4954
 6120SOL    HW129996   3.862   3.849   7.150  1.2605  0.5937 -1.2288
 6120SOL    HW229997   3.855   3.962   7.250  2.7507  1.0279 -2.8165
 6121SOL     OW29998   0.340   2.998   2.986  0.1863  0.2067 -0.1524
 6121SOL    HW129999   0.275   2.979   3.054 -0.5608  1.4016 -0.5180
 6121SOL    HW230000   0.381   3.074   3.028  1.0698 -0.5236  0.3023
 6122SOL     OW30001   2.862   4.162  16.295  0.1623  0.1187 -0.0236
 6122SOL    HW130002   2.884   4.202  16.379  0.3150 -2.3091  1.0778
 6122SOL    HW230003   2.780   4.208  16.277  0.6355  1.5992  1.5707
 6123SOL     OW30004   3.273   0.340   4.993  0.5378  0.0705  0.2590
 6123SOL    HW130005   3.262   0.328   5.087 -1.4933  0.2066  0.0394
 6123SOL    HW230006   3.273   0.249   4.965 -1.7197 -0.2325  1.2315
 6124SOL     OW30007   4.553   2.638  10.864  0.9494  0.6254 -0.0831
 6124SOL    HW130008   4.608   2.710  10.834 -0.9263  1.8437 -0.5272
 6124SOL    HW230009   4.625   2.575  10.860 -0.8319 -1.2915 -2.1261
 6125SOL     OW30010   4.090   3.281   6.288  0.0985 -0.2377 -0.1525
 6125SOL    HW130011   4.151   3.322   6.350  0.5787 -1.0770 -0.0650
 6125SOL    HW230012   4.043   3.362   6.269 -2.0862 -1.4417  0.1345
 6126SOL     OW30013   1.184   2.726   1.207  0.2653  0.1313 -0.3875
 6126SOL    HW130014   1.108   2.770   1.244 -0.1791 -0.2279 -0.8709
 6126SOL    HW230015   1.159   2.669   1.134 -3.0033 -1.2665  1.7968
 6127SOL     OW30016   4.554   4.366   0.716  0.2794 -0.0408 -0.4500
 6127SOL    HW130017   4.618   4.296   0.726 -1.3319 -1.1191  2.1684
 6127SOL    HW230018   4.534   4.385   0.807  2.8407 -0.4475  0.2047
 6128SOL     OW30019   1.236   2.893   2.772 -0.5815 -0.1882  0.1741
 6128SOL    HW130020   1.216   2.887   2.678  1.5241 -0.7963 -0.2589
 6128SOL    HW230021   1.320   2.847   2.778 -1.2691 -1.3035  1.3778
 6129SOL     OW30022   0.824   0.623   5.019  0.2112 -0.2617 -0.1134
 6129SOL    HW130023   0.744   0.616   5.070 -0.1425  2.1617 -0.3280
 6129SOL    HW230024   0.835   0.529   5.009  1.6359 -0.4267  2.6796
 6130SOL     OW30025   0.619   3.030   7.389 -0.1904 -0.0677  0.2898
 6130SOL    HW130026   0.690   3.078   7.431 -0.6140  1.2787 -0.5472
 6130SOL    HW230027   0.540   3.062   7.433  1.7703 -0.4584  4.0944
 6131SOL     OW30028   2.058   4.324   0.202 -0.2912 -0.3240 -0.0168
 6131SOL    HW130029   2.052   4.247   0.258 -0.2412  0.5983  1.2711
 6131SOL    HW230030   2.064   4.286   0.115 -0.9318 -1.2030  0.3300
 6132SOL     OW30031   2.320   3.556   3.613 -0.2616 -0.4898 -0.1238
 6132SOL    HW130032   2.263   3.480   3.625  1.3790 -1.9586 -1.7786
 6132SOL    HW230033   2.329   3.557   3.518  0.6067  2.8219 -0.0039
 6133SOL     OW30034   4.030   1.551  13.425 -0.0870  0.5009  0.9100
 6133SOL    HW130035   3.974   1.486  13.382 -1.2375  0.8424  1.8833
 6133SOL    HW230036   4.015   1.534  13.518 -0.8894  0.4970  0.7793
 6134SOL     OW30037   1.831   0.641   1.766 -0.4498 -0.2376  0.4145
 6134SOL    HW130038   1.735   0.644   1.757  0.0533  0.4278 -4.2456
 6134SOL    HW230039   1.853   0.730   1.792 -0.1677 -0.2176  0.1019
 6135SOL     OW30040   3.283   4.689   6.083 -0.4990  0.1270  0.2391
 6135SOL    HW130041   3.283   4.670   5.989  1.4083  1.1229  0.0319
 6135SOL    HW230042   3.341   0.026   6.068 -0.7030  0.7609  2.6233
 6136SOL     OW30043   2.145   0.726  13.153  0.5337 -0.0999 -0.6612
 6136SOL    HW130044   2.152   0.813  13.193 -3.0248 -0.7419  1.3377
 6136SOL    HW230045   2.173   0.674  13.228  0.9683  1.8706  0.5335
 6137SOL     OW30046   0.851   3.946  17.632 -0.0343 -0.1550  0.6679
 6137SOL    HW130047   0.857   3.855  17.602  1.6770 -0.3490  1.6178
 6137SOL    HW230048   0.940   3.980  17.626  0.0358 -0.7945 -1.8337
 6138SOL     OW30049   0.237   2.994  15.706  0.3703 -0.4394 -0.0050
 6138SOL    HW130050   0.149   3.029  15.721  1.9868  3.4747  0.5769
 6138SOL    HW230051   0.300   3.065  15.719 -0.4129  0.6354 -1.9896
 6139SOL     OW30052   3.522   0.970  16.292 -0.0676  0.7904 -0.0990
 6139SOL    HW130053   3.600   0.943  16.243 -1.0459  1.4454 -2.0180
 6139SOL    HW230054   3.569   0.999  16.370  2.8978 -0.1300 -1.5216
 6140SOL     OW30055   1.266   0.622   8.785 -0.3622 -0.3058  0.1393
 6140SOL    HW130056   1.295   0.531   8.782 -0.1268 -0.3139  2.5845
 6140SOL    HW230057   1.188   0.619   8.841 -0.3141 -1.8072  0.1100
 6141SOL     OW30058   3.237   0.028  12.089 -0.2766  0.0521  0.3447
 6141SOL    HW130059   3.158   4.732  12.046  1.2578  0.6728 -2.9801
 6141SOL    HW230060   3.211   0.097  12.149 -0.8829  0.2634 -0.1574
 6142SOL     OW30061   2.520   2.545   1.401 -0.2739 -0.3316  0.3878
 6142SOL    HW130062   2.434   2.524   1.363 -0.1096 -1.1912  0.4778
 6142SOL    HW230063   2.584   2.493   1.352 -1.0313  0.0627 -1.0119
 6143SOL     OW30064   3.995   0.408   7.525  0.5704 -0.0535  0.1877
 6143SOL    HW130065   3.975   0.315   7.539  1.1972 -0.3524 -0.9633
 6143SOL    HW230066   4.036   0.441   7.605  3.0510 -1.1309 -0.6709
 6144SOL     OW30067   3.757   2.796  12.937 -0.5659  0.2696  0.1510
 6144SOL    HW130068   3.691   2.860  12.965 -3.1400 -1.4335 -2.0882
 6144SOL    HW230069   3.839   2.833  12.969  0.5334 -3.0475  1.0661
 6145SOL     OW30070   4.375   2.938  16.386 -0.2134  0.4820 -0.6309
 6145SOL    HW130071   4.389   2.979  16.301  1.7182  1.8073  0.2894
 6145SOL    HW230072   4.318   2.866  16.361  0.4492  0.5542 -2.3193
 6146SOL     OW30073   2.307   3.550   2.519 -0.0017  0.1915 -0.5840
 6146SOL    HW130074   2.291   3.476   2.461 -2.2400 -1.9140  2.7137
 6146SOL    HW230075   2.245   3.611   2.478 -0.5145  0.7597  1.0583
 6147SOL     OW30076   3.143   4.508   2.714 -0.5199  0.2462  0.5841
 6147SOL    HW130077   3.072   4.571   2.729 -0.2906  0.4009  1.0063
 6147SOL    HW230078   3.162   4.521   2.621 -5.5588 -0.2105 -0.5077
 6148SOL     OW30079   3.229   1.819   5.487 -0.3173 -0.2355 -0.0672
 6148SOL    HW130080   3.246   1.740   5.538  2.0589  0.7008  0.6241
 6148SOL    HW230081   3.165   1.862   5.543 -0.4619  1.1502 -1.2962
 6149SOL     OW30082   3.309   0.306   9.362 -0.5092 -1.0054 -0.1441
 6149SOL    HW130083   3.295   0.346   9.276 -0.0941  0.5496  0.5280
 6149SOL    HW230084   3.387   0.250   9.357 -0.1896 -0.4617 -1.2111
 6150SOL     OW30085   1.519   4.725   5.355  0.0348  0.2134 -0.3598
 6150SOL    HW130086   1.546   4.647   5.405  0.5649  0.6812  0.0802
 6150SOL    HW230087   1.596   0.000   5.300  1.6707 -0.0333  1.8627
 6151SOL     OW30088   0.150   3.758  16.888  0.0152  0.8603 -0.8879
 6151SOL    HW130089   0.146   3.851  16.909 -0.9739  0.8640 -1.0877
 6151SOL    HW230090   0.066   3.723  16.920  1.0222 -2.1786 -1.5550
 6152SOL     OW30091   2.490   0.530   4.026 -0.6947  0.1573  0.0341
 6152SOL    HW130092   2.580   0.518   4.056 -0.3930  0.5311 -0.7185
 6152SOL    HW230093   2.505   0.515   3.933 -1.8518 -0.9145  0.0238
 6153SOL     OW30094   1.245   0.820   1.120 -0.0663 -0.5581  0.4212
 6153SOL    HW130095   1.178   0.753   1.111  0.3179 -0.6833 -1.4955
 6153SOL    HW230096   1.207   0.884   1.059  1.5008  1.0061  1.0660
 6154SOL     OW30097   3.273   0.071   4.416  0.3635 -0.5429 -0.3300
 6154SOL    HW130098   3.356   0.084   4.463 -0.3375 -1.0829  1.0492
 6154SOL    HW230099   3.215   0.045   4.487 -0.7696 -0.3379 -1.1977
 6155SOL     OW30100   4.401   1.295  17.573 -0.4451  0.2214  0.5124
 6155SOL    HW130101   4.348   1.341  17.637  0.6872 -2.5337  3.4615
 6155SOL    HW230102   4.400   1.355  17.499 -2.0280  0.4292  0.6935
 6156SOL     OW30103   3.936   4.143   4.104 -0.0290  0.5991  0.4030
 6156SOL    HW130104   3.980   4.226   4.120  1.7459 -0.0286 -1.1835
 6156SOL    HW230105   3.978   4.086   4.168  2.6734 -1.0841 -2.8783
 6157SOL     OW30106   0.614   3.343  14.406  0.3692 -0.3918  0.7939
 6157SOL    HW130107   0.551   3.367  14.475 -0.1523  2.2342 -0.5991
 6157SOL    HW230108   0.612   3.416  14.344  0.7868  1.3631  2.7949
 6158SOL     OW30109   3.716   4.484   6.085  0.0984 -0.6432 -0.5421
 6158SOL    HW130110   3.639   4.462   6.032  1.7536 -0.3887 -3.0310
 6158SOL    HW230111   3.777   4.413   6.066 -2.0212 -2.2840 -1.3295
 6159SOL     OW30112   4.037   2.172   5.470  0.3136 -0.2798  1.1362
 6159SOL    HW130113   4.126   2.165   5.505  0.6774 -0.3931  0.1945
 6159SOL    HW230114   4.052   2.256   5.428  2.6921 -0.8569  0.8375
 6160SOL     OW30115   2.355   1.807  16.444  0.0951  0.0659  0.4452
 6160SOL    HW130116   2.421   1.809  16.375  0.9864  1.8848  1.3444
 6160SOL    HW230117   2.333   1.714  16.441 -0.0974  0.0899  1.3262
 6161SOL     OW30118   2.140   3.517   2.791  0.3638 -0.5718  0.1733
 6161SOL    HW130119   2.088   3.590   2.827 -0.4363 -1.2619  0.4125
 6161SOL    HW230120   2.196   3.556   2.724 -1.6901 -1.2032 -1.9197
 6162SOL     OW30121   2.490   1.392   3.627  0.4312  0.1424  0.3433
 6162SOL    HW130122   2.492   1.313   3.680 -0.5671 -0.6049 -0.7143
 6162SOL    HW230123   2.456   1.461   3.684  1.2070  0.1528  0.7830
 6163SOL     OW30124   2.690   0.833   5.385 -0.0767  0.9827  0.3950
 6163SOL    HW130125   2.617   0.811   5.327  1.4023  1.0749 -1.4772
 6163SOL    HW230126   2.688   0.754   5.440 -1.7881  0.6474 -0.1204
 6164SOL     OW30127   3.938   2.583   8.556  0.0852 -0.8263  0.1343
 6164SOL    HW130128   3.884   2.587   8.635  0.4036  1.1615  0.2578
 6164SOL    HW230129   4.017   2.630   8.583 -0.2518  0.3048 -0.8607
 6165SOL     OW30130   1.697   3.909  11.038 -0.4223 -0.6083  0.5483
 6165SOL    HW130131   1.650   3.919  11.121 -1.9437 -1.0327 -0.2672
 6165SOL    HW230132   1.704   4.000  11.010  1.5848 -0.9511 -0.0324
 6166SOL     OW30133   2.845   0.968  16.777 -0.1205  0.1222  0.2270
 6166SOL    HW130134   2.912   1.035  16.786 -1.0790  1.6676 -4.2871
 6166SOL    HW230135   2.909   0.897  16.770  0.3167  0.4353  1.0606
 6167SOL     OW30136   4.270   1.373  11.676  0.0113  0.0471  0.1734
 6167SOL    HW130137   4.206   1.442  11.694  2.3585  2.4342 -0.5932
 6167SOL    HW230138   4.350   1.391  11.726  1.1063 -0.1227 -1.4921
 6168SOL     OW30139   1.475   2.514   5.315  0.1318 -0.2247 -0.6654
 6168SOL    HW130140   1.569   2.530   5.324 -0.0066 -1.0355  2.1614
 6168SOL    HW230141   1.471   2.423   5.343  1.1691 -0.6647 -1.9748
 6169SOL     OW30142   3.991   4.128   8.112  0.2062 -0.2647 -0.3682
 6169SOL    HW130143   3.919   4.101   8.055 -0.4346  0.3744  0.1318
 6169SOL    HW230144   4.056   4.080   8.062  1.1886  1.8339 -1.1106
 6170SOL     OW30145   3.523   0.218  11.440 -0.0142  0.1051  0.3092
 6170SOL    HW130146   3.606   0.192  11.479 -0.6517 -2.5729 -0.1692
 6170SOL    HW230147   3.457   0.159  11.476 -1.9208  1.8302 -0.3490
 6171SOL     OW30148   2.440   0.017   7.475  0.8163 -0.5529  0.0250
 6171SOL    HW130149   2.447   4.679   7.532 -0.8013  3.1689  5.1629
 6171SOL    HW230150   2.346   0.034   7.475  0.8675 -0.2744  0.1029
 6172SOL     OW30151   0.100   4.494   4.208 -0.1804 -0.0332 -0.4096
 6172SOL    HW130152   0.093   4.401   4.228  2.4280  0.1674  1.4789
 6172SOL    HW230153   0.021   4.538   4.240 -2.6426 -2.2794 -3.4437
 6173SOL     OW30154   0.957   4.380   9.511  0.3025  0.0795  0.2878
 6173SOL    HW130155   1.037   4.382   9.458 -1.1945  0.8185 -1.9653
 6173SOL    HW230156   0.948   4.464   9.555  0.7846  1.7661 -2.8185
 6174SOL     OW30157   2.313   1.542   6.237  0.3723 -0.2925 -0.1951
 6174SOL    HW130158   2.392   1.493   6.215  0.4250  0.4495 -1.6358
 6174SOL    HW230159   2.341   1.591   6.314 -0.4054  0.9234 -0.6920
 6175SOL     OW30160   0.852   1.048   4.068 -0.4012 -0.1926  0.6433
 6175SOL    HW130161   0.779   1.110   4.065  1.5112  2.2097  3.9788
 6175SOL    HW230162   0.825   1.002   3.988  1.6743  2.3074 -1.5220
 6176SOL     OW30163   0.048   4.716   7.600  0.0534  0.2418 -0.0516
 6176SOL    HW130164   0.059   0.060   7.648  0.8919  0.6322 -0.9098
 6176SOL    HW230165   0.033   4.653   7.671  2.0102  2.5098  2.4166
 6177SOL     OW30166   3.538   0.585  12.907  0.1329 -0.2878  0.3413
 6177SOL    HW130167   3.496   0.513  12.860 -0.8262  1.6939 -1.8155
 6177SOL    HW230168   3.533   0.657  12.845  2.4716  1.3931  2.0915
 6178SOL     OW30169   3.593   2.639   5.811  0.1548  0.0132  0.2072
 6178SOL    HW130170   3.535   2.566   5.789  1.6565 -1.2266  0.4110
 6178SOL    HW230171   3.638   2.625   5.894 -0.7593 -0.4427  0.6208
 6179SOL     OW30172   2.107   1.422  13.186  0.4168  0.3316 -0.2659
 6179SOL    HW130173   2.130   1.382  13.270  0.5085 -1.7077 -1.2721
 6179SOL    HW230174   2.016   1.450  13.195  0.1003 -0.8620  0.1197
 6180SOL     OW30175   4.593   4.101   5.345 -0.4882  0.6942 -0.5862
 6180SOL    HW130176   4.582   4.028   5.284 -0.6875 -0.9925  1.4688
 6180SOL    HW230177   4.658   4.071   5.408 -1.2139 -0.7434 -0.5196
 6181SOL     OW30178   2.685   1.277   5.140 -0.3949  0.6075  0.2981
 6181SOL    HW130179   2.661   1.324   5.220 -1.0885  1.7565 -0.5884
 6181SOL    HW230180   2.713   1.347   5.081 -0.6768  1.6526  1.4103
 6182SOL     OW30181   4.492   1.132   9.551 -0.0321  0.4305  0.0630
 6182SOL    HW130182   4.528   1.170   9.471  0.1692 -0.6270 -0.3506
 6182SOL    HW230183   4.564   1.117   9.612 -0.0828 -1.5428 -0.3756
 6183SOL     OW30184   3.286   4.091  14.648 -0.7736  0.1517  0.3733
 6183SOL    HW130185   3.333   4.018  14.688  1.9346  1.0676 -1.1624
 6183SOL    HW230186   3.305   4.094  14.554  1.1954 -2.1519  0.7095
 6184SOL     OW30187   0.080   2.350   9.004 -0.4737  0.1170 -0.4342
 6184SOL    HW130188   0.161   2.398   8.989  1.9877 -3.7889  0.4812
 6184SOL    HW230189   0.106   2.309   9.087  1.5456  0.6292 -0.8094
 6185SOL     OW30190   4.162   1.885   2.951 -0.2967  0.0532  0.5311
 6185SOL    HW130191   4.249   1.918   2.929 -0.0756 -0.6297  0.3780
 6185SOL    HW230192   4.131   1.959   3.002  1.1372  3.3220 -3.3974
 6186SOL     OW30193   4.465   1.578   4.210 -0.7188  0.0396 -0.4593
 6186SOL    HW130194   4.432   1.657   4.168  2.1162  1.3966 -0.1497
 6186SOL    HW230195   4.394   1.532   4.255 -0.9539 -0.0188 -0.8961
 6187SOL     OW30196   0.414   1.603   5.810  0.2654  0.4691  0.1780
 6187SOL    HW130197   0.357   1.558   5.873 -1.0518  1.2856 -0.4227
 6187SOL    HW230198   0.350   1.624   5.742  0.1818 -0.6132 -0.0793
 6188SOL     OW30199   1.842   3.420   1.797  0.4982  0.3446 -0.1115
 6188SOL    HW130200   1.753   3.413   1.762  0.2373  1.9849  0.2236
 6188SOL    HW230201   1.873   3.500   1.754  1.4174 -0.3723 -0.7731
 6189SOL     OW30202   0.617   1.376   9.759 -0.1391 -1.1025 -0.1483
 6189SOL    HW130203   0.545   1.329   9.802  0.1323 -0.7730  0.6715
 6189SOL    HW230204   0.662   1.302   9.717 -0.3820 -0.5348 -1.3835
 6190SOL     OW30205   3.794   2.724   9.335 -0.0213  0.0427  0.2572
 6190SOL    HW130206   3.842   2.747   9.415 -1.6393 -0.7696  1.4709
 6190SOL    HW230207   3.869   2.725   9.276  0.3983 -0.5762  0.7702
 6191SOL     OW30208   1.785   4.551  15.096 -0.1546 -0.1562 -0.3923
 6191SOL    HW130209   1.759   4.597  15.016 -0.5055 -0.4137 -0.4276
 6191SOL    HW230210   1.767   4.620  15.159 -1.2394  1.5233 -2.5358
 6192SOL     OW30211   1.021   0.113  16.719 -0.3300 -0.1171 -0.1907
 6192SOL    HW130212   1.044   0.031  16.763 -2.3189 -1.2703 -1.3043
 6192SOL    HW230213   1.094   0.112  16.657 -0.5551  1.6662 -0.4936
 6193SOL     OW30214   3.270   3.423   7.979 -0.3520  0.6471 -0.1820
 6193SOL    HW130215   3.326   3.462   8.045 -0.2707 -1.4667  0.9908
 6193SOL    HW230216   3.319   3.434   7.897 -2.6229  1.1770 -1.4716
 6194SOL     OW30217   2.310   3.393   7.593 -0.0792  0.1843 -0.3313
 6194SOL    HW130218   2.273   3.480   7.605  1.1701  0.9044 -1.6211
 6194SOL    HW230219   2.288   3.341   7.670 -2.3882  1.2377 -0.2851
 6195SOL     OW30220   1.878   1.545  13.194 -0.0696 -0.3592 -0.0089
 6195SOL    HW130221   1.796   1.520  13.237 -1.1923  0.3583 -1.7476
 6195SOL    HW230222   1.848   1.556  13.104  2.2435  2.6251 -0.4476
 6196SOL     OW30223   4.269   3.634   8.843 -0.3203  0.1951 -0.0049
 6196SOL    HW130224   4.223   3.550   8.839 -0.9335  0.4455  1.6536
 6196SOL    HW230225   4.358   3.606   8.822  0.0232  0.2261  1.4520
 6197SOL     OW30226   0.667   1.640   8.834  0.8026  0.4348  0.5246
 6197SOL    HW130227   0.670   1.547   8.810  0.3069  0.3172  0.9404
 6197SOL    HW230228   0.698   1.645   8.924  2.5639 -1.1285  0.0173
 6198SOL     OW30229   2.368   0.467  14.548  0.9424 -0.3804  0.0717
 6198SOL    HW130230   2.307   0.445  14.478  1.0009 -1.7105  0.4398
 6198SOL    HW230231   2.422   0.538  14.513  0.5302 -0.5955 -0.9850
 6199SOL     OW30232   2.216   2.334   8.048  0.2688 -0.1429  0.2262
 6199SOL    HW130233   2.308   2.328   8.076  0.2064 -0.7264  0.3087
 6199SOL    HW230234   2.231   2.334   7.953  0.4802 -2.5541  0.2706
 6200SOL     OW30235   1.252   2.350   2.325  0.2082 -0.0261 -0.6727
 6200SOL    HW130236   1.342   2.342   2.293 -0.2211  1.1506 -2.2212
 6200SOL    HW230237   1.264   2.398   2.406  2.0946  0.7500 -1.4166
 6201SOL     OW30238   0.483   3.907   7.505  0.2247  0.0769 -0.4620
 6201SOL    HW130239   0.528   3.825   7.528  1.5645  1.2209  0.9949
 6201SOL    HW230240   0.498   3.955   7.586  2.1389  0.8526 -1.2608
 6202SOL     OW30241   2.098   1.879  16.520  0.1011 -0.4282 -0.3489
 6202SOL    HW130242   2.098   1.909  16.612  2.9184 -1.9958  0.1812
 6202SOL    HW230243   2.190   1.851  16.514  0.4337  0.6814 -0.5711
 6203SOL     OW30244   2.170   2.423  15.203 -0.1213  0.2141  0.0242
 6203SOL    HW130245   2.169   2.342  15.253  0.9040  2.1985  3.2843
 6203SOL    HW230246   2.176   2.485  15.276 -2.1158  1.2934 -0.7332
 6204SOL     OW30247   4.265   4.662   7.866 -0.2582 -0.6310 -0.3506
 6204SOL    HW130248   4.237   4.726   7.932  0.0797  0.7204 -1.5036
 6204SOL    HW230249   4.190   4.603   7.876 -2.1738  1.2060 -3.7160
 6205SOL     OW30250   3.818   0.640   2.607 -0.3738  0.4498  0.4682
 6205SOL    HW130251   3.774   0.712   2.562 -0.5087  0.3832  0.4922
 6205SOL    HW230252   3.850   0.690   2.682  0.9064  0.1297  0.1248
 6206SOL     OW30253   2.244   3.503   5.062  0.1902  0.2924  0.3180
 6206SOL    HW130254   2.167   3.446   5.064  0.6177 -0.3220 -0.7548
 6206SOL    HW230255   2.307   3.455   5.116 -0.1934 -0.9031 -0.2846
 6207SOL     OW30256   3.890   1.500   7.865  0.7030 -0.6165 -0.1937
 6207SOL    HW130257   3.912   1.407   7.859  2.3294 -0.0713 -2.2877
 6207SOL    HW230258   3.806   1.493   7.912  1.2506  2.4033  1.2904
 6208SOL     OW30259   0.461   4.649  14.584  0.1749 -0.2249  0.4249
 6208SOL    HW130260   0.382   4.641  14.530 -0.8977  0.1628  1.9524
 6208SOL    HW230261   0.458   0.001  14.616 -3.2133 -0.0539 -0.2951
 6209SOL     OW30262   3.085   1.684  14.989  0.4951  0.2748  0.5471
 6209SOL    HW130263   3.110   1.592  14.994  0.9283  0.2730 -1.5769
 6209SOL    HW230264   3.167   1.722  15.021  0.0166  1.7574  0.0103
 6210SOL     OW30265   3.311   4.670  11.806 -0.5143 -0.7170  0.5656
 6210SOL    HW130266   3.378   4.629  11.862 -0.5329 -1.6958 -0.1259
 6210SOL    HW230267   3.255   4.594  11.790  0.0410 -1.2722  1.2577
 6211SOL     OW30268   4.094   1.457   6.534 -0.5195 -0.3364  0.1573
 6211SOL    HW130269   4.022   1.505   6.575 -0.5470 -0.6592  0.4861
 6211SOL    HW230270   4.081   1.474   6.441 -2.3545 -0.3112  0.4252
 6212SOL     OW30271   2.128   3.012   8.450  0.0816 -0.1415 -0.0140
 6212SOL    HW130272   2.153   3.020   8.542 -0.8336 -0.4770  0.2599
 6212SOL    HW230273   2.136   3.103   8.419 -2.5514 -0.3268 -1.1712
 6213SOL     OW30274   0.743   1.673  13.086  0.4533  0.4008 -0.1807
 6213SOL    HW130275   0.650   1.689  13.074 -0.0026  0.0518  2.8298
 6213SOL    HW230276   0.773   1.636  13.003  3.3252 -0.0371  1.0307
 6214SOL     OW30277   3.208   4.283   7.287  0.5150 -0.0753 -0.1417
 6214SOL    HW130278   3.210   4.256   7.379  0.4829 -0.9044 -0.3783
 6214SOL    HW230279   3.293   4.325   7.277  0.5933 -0.4343 -1.0508
 6215SOL     OW30280   3.848   2.889   5.725 -0.1789  0.1210 -0.3606
 6215SOL    HW130281   3.777   2.890   5.661 -0.6811  0.0899  0.1938
 6215SOL    HW230282   3.817   2.949   5.793  0.8810 -0.7098  0.8390
 6216SOL     OW30283   2.419   0.161  12.145 -0.1474  0.0031 -0.1912
 6216SOL    HW130284   2.492   0.222  12.149 -0.0525 -0.2534  1.8943
 6216SOL    HW230285   2.428   0.121  12.058 -0.5347 -3.1331  1.1960
 6217SOL     OW30286   3.250   3.200   2.682 -0.2232 -0.2094 -0.5621
 6217SOL    HW130287   3.208   3.189   2.767  0.4937 -0.3584 -0.2280
 6217SOL    HW230288   3.252   3.113   2.644 -1.9275 -1.0623  1.3035
 6218SOL     OW30289   1.308   1.670   7.107 -0.3642 -0.0392 -0.4249
 6218SOL    HW130290   1.324   1.604   7.175  0.5084  0.6439  0.0442
 6218SOL    HW230291   1.393   1.715   7.110 -0.1223 -0.4989 -0.3582
 6219SOL     OW30292   2.724   0.904   8.301  0.6934  0.0351 -0.0372
 6219SOL    HW130293   2.727   0.843   8.227 -2.5754 -0.1649 -0.0271
 6219SOL    HW230294   2.794   0.963   8.273  0.5629 -1.2050 -2.9651
 6220SOL     OW30295   0.123   1.669   2.153 -0.2776 -0.3689 -0.0253
 6220SOL    HW130296   0.065   1.593   2.146 -2.0157  0.9145  0.4592
 6220SOL    HW230297   0.093   1.720   2.077 -2.5430  0.1599  1.2068
 6221SOL     OW30298   0.173   1.600   7.043 -0.0525  0.1350 -0.2134
 6221SOL    HW130299   0.189   1.518   6.997  0.6994  0.3148 -0.2593
 6221SOL    HW230300   0.133   1.655   6.976  1.1443  2.8547  1.3090
 6222SOL     OW30301   4.569   4.683   7.074 -0.1746 -0.3469  0.4460
 6222SOL    HW130302   4.662   4.696   7.056 -0.0123 -2.3038 -0.1187
 6222SOL    HW230303   4.541   0.031   7.043 -2.3814 -0.5870  1.8215
 6223SOL     OW30304   2.518   4.276   4.344 -0.8188  0.3509  0.0911
 6223SOL    HW130305   2.493   4.346   4.404  0.5496 -0.6429  1.7776
 6223SOL    HW230306   2.465   4.206   4.382 -0.1432  1.3736  2.9012
 6224SOL     OW30307   4.043   1.227   0.743 -0.0294  0.2821  0.7171
 6224SOL    HW130308   4.137   1.205   0.742 -0.0010  0.4993 -1.4451
 6224SOL    HW230309   4.043   1.241   0.648  4.1832 -0.7657  0.5490
 6225SOL     OW30310   1.629   1.719  16.449 -0.3209 -0.3089  0.1803
 6225SOL    HW130311   1.689   1.789  16.425  1.7703 -2.3974 -0.6762
 6225SOL    HW230312   1.646   1.659  16.376 -2.0092 -0.9195  0.2680
 6226SOL     OW30313   3.632   1.148  13.880 -0.0629 -0.2900 -0.0167
 6226SOL    HW130314   3.683   1.101  13.946 -0.3664 -1.5689 -0.7057
 6226SOL    HW230315   3.680   1.127  13.800  0.2334  0.8994 -0.1616
 6227SOL     OW30316   2.582   4.016   2.528 -0.4256  0.1903 -1.0627
 6227SOL    HW130317   2.509   3.958   2.553  1.1327 -0.7320  1.3319
 6227SOL    HW230318   2.646   3.948   2.505  0.2679 -0.5619  3.0832
 6228SOL     OW30319   0.387   4.095   4.965 -0.0791  0.6566 -0.2128
 6228SOL    HW130320   0.453   4.163   4.976  0.6285 -0.3819  1.9257
 6228SOL    HW230321   0.310   4.138   4.928 -0.0735 -1.1123 -2.3424
 6229SOL     OW30322   2.592   3.570   8.621  0.3366  0.6130 -0.1953
 6229SOL    HW130323   2.592   3.609   8.534 -1.5517 -0.0528 -0.5072
 6229SOL    HW230324   2.641   3.635   8.672 -0.5203 -1.4958  3.3543
 6230SOL     OW30325   3.591   1.734   1.412 -0.0622 -0.6669 -0.2213
 6230SOL    HW130326   3.612   1.757   1.503 -2.9090 -1.2214  0.5521
 6230SOL    HW230327   3.651   1.662   1.391  0.1284  0.0255 -2.0717
 6231SOL     OW30328   0.915   2.145   4.135 -1.3135  0.3540 -0.5297
 6231SOL    HW130329   0.979   2.119   4.201 -0.9765 -0.2027 -1.0692
 6231SOL    HW230330   0.937   2.084   4.064  1.4688  2.8183 -1.7936
 6232SOL     OW30331   4.453   1.412   3.517 -0.2339 -0.4406 -0.1016
 6232SOL    HW130332   4.454   1.330   3.566  0.9353  0.4191  1.2977
 6232SOL    HW230333   4.362   1.438   3.529  0.1813  1.0328 -0.1801
 6233SOL     OW30334   4.558   2.056   4.850  0.2558  0.2634 -0.4496
 6233SOL    HW130335   4.482   2.044   4.794 -1.0225 -0.3813  1.3970
 6233SOL    HW230336   4.625   2.005   4.805  0.1102  1.0225 -1.5260
 6234SOL     OW30337   2.144   2.862  12.722 -0.2580 -0.1667  0.1969
 6234SOL    HW130338   2.225   2.844  12.768  1.3950 -0.2189 -2.7136
 6234SOL    HW230339   2.079   2.828  12.783  1.8692  0.1011  2.5800
 6235SOL     OW30340   3.668   0.458   2.792  0.1824 -0.0770  0.2341
 6235SOL    HW130341   3.578   0.478   2.766 -0.4550 -2.4805  0.6605
 6235SOL    HW230342   3.718   0.509   2.727  1.7516  1.2013  2.4245
 6236SOL     OW30343   4.476   4.118  13.223  0.0721  0.1283  0.0911
 6236SOL    HW130344   4.472   4.202  13.177 -1.3852 -0.8444 -1.5475
 6236SOL    HW230345   4.547   4.145  13.281 -0.3063  2.4509 -0.4973
 6237SOL     OW30346   0.785   1.992   7.624 -0.4377  0.4820  0.3883
 6237SOL    HW130347   0.754   1.981   7.714 -0.6559  0.1162  0.2697
 6237SOL    HW230348   0.860   1.933   7.626 -1.1803 -0.5746 -2.3497
 6238SOL     OW30349   4.032   1.478   0.936  0.4687 -0.3530  0.4664
 6238SOL    HW130350   4.116   1.433   0.944  0.7467 -0.1044 -1.1433
 6238SOL    HW230351   4.042   1.524   1.020 -1.4834 -0.4486  0.7468
 6239SOL     OW30352   0.959   1.398   7.744  0.9671  0.0323 -0.1252
 6239SOL    HW130353   0.880   1.423   7.697 -1.3173  0.4525  3.8863
 6239SOL    HW230354   0.982   1.330   7.681  0.8256 -0.3242  0.2006
 6240SOL     OW30355   0.772   2.914  12.811 -0.4631  0.1909  0.0441
 6240SOL    HW130356   0.734   2.862  12.741  0.8483 -0.7360  0.0272
 6240SOL    HW230357   0.749   2.862  12.887  0.4541  1.0889  0.9458
 6241SOL     OW30358   2.012   3.222   1.658 -0.0809 -0.1141 -0.4157
 6241SOL    HW130359   2.088   3.184   1.702  0.0077 -0.2040 -0.6469
 6241SOL    HW230360   1.984   3.299   1.708 -1.7908  1.6895 -4.0493
 6242SOL     OW30361   1.730   3.790   3.560  0.7222 -0.0134  0.0445
 6242SOL    HW130362   1.635   3.776   3.558  0.9350 -1.3172 -1.5427
 6242SOL    HW230363   1.752   3.813   3.469 -1.4705  0.3431 -0.4114
 6243SOL     OW30364   3.732   4.690  10.671  0.5080  0.1137  0.9646
 6243SOL    HW130365   3.794   0.017  10.704 -1.6931  2.5203  0.3786
 6243SOL    HW230366   3.648   4.730  10.696 -0.3972 -0.2990 -1.4448
 6244SOL     OW30367   4.329   3.856   5.128 -0.2282 -0.0025  0.7371
 6244SOL    HW130368   4.419   3.848   5.162  0.7188  2.5291 -1.1492
 6244SOL    HW230369   4.329   3.797   5.052  1.6811  1.9851 -0.8012
 6245SOL     OW30370   4.506   0.927   6.709  0.4474 -0.2720 -0.2020
 6245SOL    HW130371   4.491   0.855   6.770  1.0624  2.0543  2.7233
 6245SOL    HW230372   4.441   0.990   6.738  1.0067  0.0485  0.3581
 6246SOL     OW30373   2.046   0.250   3.791  0.3046 -0.3193 -0.4331
 6246SOL    HW130374   2.098   0.293   3.723 -1.3383 -0.6616 -1.9257
 6246SOL    HW230375   1.958   0.264   3.754  0.1528 -1.5446 -0.5238
 6247SOL     OW30376   4.445   2.740   2.687  0.1116  0.1573 -0.1057
 6247SOL    HW130377   4.529   2.785   2.691 -0.9352  2.1613 -0.8988
 6247SOL    HW230378   4.473   2.655   2.654  0.4822  0.4197 -0.4564
 6248SOL     OW30379   2.624   4.432  14.638  0.2184 -0.3994 -0.0104
 6248SOL    HW130380   2.696   4.493  14.624  1.2671 -1.8959 -1.1892
 6248SOL    HW230381   2.650   4.398  14.724  1.1996  0.5443  0.0663
 6249SOL     OW30382   2.486   1.556  14.252  0.5074  0.3322  0.5271
 6249SOL    HW130383   2.464   1.624  14.189 -1.0319 -0.4903  0.1875
 6249SOL    HW230384   2.400   1.528  14.282  0.5320 -0.3014  0.0040
 6250SOL     OW30385   1.495   3.777   2.045  0.4994  0.2222 -0.4174
 6250SOL    HW130386   1.453   3.719   2.108  1.1429 -0.3228 -0.4984
 6250SOL    HW230387   1.472   3.861   2.085  2.8003  1.1773 -1.1006
 6251SOL     OW30388   0.431   0.437   3.854 -0.0084 -0.1726 -0.5542
 6251SOL    HW130389   0.452   0.370   3.919 -0.2653  0.8855  0.6349
 6251SOL    HW230390   0.410   0.379   3.781  2.0409 -1.4540 -0.1084
 6252SOL     OW30391   4.138   0.507   7.753  0.1466  0.0333  0.4761
 6252SOL    HW130392   4.130   0.524   7.847 -1.5530 -0.5985  0.4422
 6252SOL    HW230393   4.193   0.429   7.752  0.1939  0.0818 -0.7073
 6253SOL     OW30394   3.809   2.679   2.933  0.5574 -0.3175  1.1597
 6253SOL    HW130395   3.723   2.661   2.896  0.4618  0.1873  1.1367
 6253SOL    HW230396   3.808   2.774   2.939  0.8972 -0.2929  0.8228
 6254SOL     OW30397   2.581   0.781  10.506  0.4799  0.4306  0.1914
 6254SOL    HW130398   2.513   0.843  10.479 -0.9577 -0.1071  2.5404
 6254SOL    HW230399   2.550   0.759  10.594 -0.8171 -2.7941 -1.0648
 6255SOL     OW30400   2.570   1.809  16.686  0.1977  0.3139 -0.0669
 6255SOL    HW130401   2.656   1.772  16.671 -0.2241 -1.2263  1.3359
 6255SOL    HW230402   2.540   1.822  16.596 -0.1862 -2.1766 -0.2799
 6256SOL     OW30403   0.291   1.100   4.625 -0.3436  0.4619 -0.1137
 6256SOL    HW130404   0.284   1.183   4.579 -0.9349  0.2669 -0.3845
 6256SOL    HW230405   0.374   1.104   4.672 -0.4104 -1.3375  0.1788
 6257SOL     OW30406   2.762   4.331  17.156  0.1406  0.4423  0.6170
 6257SOL    HW130407   2.715   4.378  17.088 -0.3471 -1.4205 -0.3393
 6257SOL    HW230408   2.848   4.373  17.155 -0.3963  1.5158 -0.0790
 6258SOL     OW30409   4.726   4.735   5.378  0.4598  0.0193  0.4333
 6258SOL    HW130410   0.079   0.006   5.350  0.8542 -3.1313  0.6865
 6258SOL    HW230411   4.732   0.038   5.464 -1.8822  2.1881 -0.4423
 6259SOL     OW30412   2.586   1.384   6.495 -0.6332 -0.4343  0.7235
 6259SOL    HW130413   2.656   1.408   6.434 -1.3341 -1.7546 -0.5955
 6259SOL    HW230414   2.527   1.336   6.438  0.4999  1.6504 -2.1681
 6260SOL     OW30415   1.291   0.989   2.084 -0.0102 -0.5249  0.6057
 6260SOL    HW130416   1.314   0.917   2.024 -0.4607 -0.0281 -0.1748
 6260SOL    HW230417   1.319   0.958   2.169 -1.8832  1.2604  1.8722
 6261SOL     OW30418   2.845   3.186  13.619 -0.3351  0.4309 -0.0501
 6261SOL    HW130419   2.876   3.240  13.691 -2.5522 -1.9156  2.6466
 6261SOL    HW230420   2.825   3.252  13.553  0.5799 -0.1756 -0.9389
 6262SOL     OW30421   4.490   2.251  15.250  0.3145 -0.3343  0.1500
 6262SOL    HW130422   4.437   2.273  15.173  0.3722 -1.5654 -0.2302
 6262SOL    HW230423   4.494   2.156  15.246  1.7625 -0.3379  2.0629
 6263SOL     OW30424   3.065   2.761   8.274  0.6379  0.1094  0.3362
 6263SOL    HW130425   3.100   2.672   8.275  0.9019  0.2220  0.8030
 6263SOL    HW230426   3.131   2.813   8.228 -0.2596 -2.4271 -3.8833
 6264SOL     OW30427   1.600   0.518  15.354 -0.2449  0.5633 -0.2068
 6264SOL    HW130428   1.615   0.543  15.263 -0.2060  1.1598 -0.0372
 6264SOL    HW230429   1.685   0.531  15.395 -0.1003 -0.8355 -0.0601
 6265SOL     OW30430   0.486   3.627   3.762 -0.4282  0.6589  0.8063
 6265SOL    HW130431   0.446   3.583   3.837  0.7325  0.0460  1.0670
 6265SOL    HW230432   0.517   3.560   3.701  0.3020  0.9158  0.8908
 6266SOL     OW30433   4.223   0.543  15.666  0.1413  0.2524  0.1964
 6266SOL    HW130434   4.236   0.449  15.679  2.1785  0.3004 -1.5015
 6266SOL    HW230435   4.313   0.575  15.674  0.2464 -0.5897  2.2915
 6267SOL     OW30436   0.977   2.302   3.794 -0.4493  0.2211  0.2118
 6267SOL    HW130437   1.069   2.327   3.799 -0.1272 -0.7539 -0.8210
 6267SOL    HW230438   0.941   2.388   3.817  1.4203  0.9264  0.4994
 6268SOL     OW30439   4.592   2.625   9.152 -0.6720  0.4709 -0.4258
 6268SOL    HW130440   4.686   2.639   9.166 -0.5558 -0.2930 -0.4171
 6268SOL    HW230441   4.563   2.573   9.227  1.3001  0.9646  0.6962
 6269SOL     OW30442   3.948   2.273   6.511  0.1897 -0.0537  0.1055
 6269SOL    HW130443   3.988   2.355   6.540 -1.9398  1.8003 -2.2131
 6269SOL    HW230444   4.031   2.236   6.479 -0.1100  0.1570 -0.9100
 6270SOL     OW30445   4.458   0.071   7.531  0.2110  0.0010 -0.0347
 6270SOL    HW130446   4.397   0.000   7.553 -0.1730  0.1416 -0.6421
 6270SOL    HW230447   4.489   0.106   7.614 -0.6604 -2.3435  1.2912
 6271SOL     OW30448   2.120   1.831   7.449  0.7880  0.5756  0.2302
 6271SOL    HW130449   2.150   1.917   7.422  0.0103  0.8847  0.3517
 6271SOL    HW230450   2.155   1.831   7.538  0.3088 -0.8424  0.4174
 6272SOL     OW30451   2.593   0.153   7.251  0.9157  0.2914  0.4322
 6272SOL    HW130452   2.546   0.162   7.333 -0.1538 -2.8127  0.1250
 6272SOL    HW230453   2.526   0.104   7.203  0.3555 -0.4338  1.9667
 6273SOL     OW30454   1.602   0.964   8.306 -0.4076 -0.2521  0.7020
 6273SOL    HW130455   1.553   0.883   8.292 -0.2537 -0.1032 -0.6805
 6273SOL    HW230456   1.543   1.005   8.370 -1.9859 -0.4497 -0.6200
 6274SOL     OW30457   3.765   4.164  10.120 -0.0423 -0.1526 -0.4689
 6274SOL    HW130458   3.743   4.082  10.076 -0.3408  0.0752 -0.7410
 6274SOL    HW230459   3.799   4.211  10.044  0.6562  1.5738  0.9138
 6275SOL     OW30460   3.507   3.160   0.324 -0.3776  0.3213 -0.6054
 6275SOL    HW130461   3.577   3.223   0.343 -1.5580  1.6698 -0.6924
 6275SOL    HW230462   3.433   3.198   0.372  1.8770  0.6035  2.5925
 6276SOL     OW30463   1.801   3.514   7.888 -0.3766  0.3145 -0.3382
 6276SOL    HW130464   1.791   3.428   7.848 -0.2874  0.8256 -1.4757
 6276SOL    HW230465   1.825   3.490   7.978 -0.3997 -0.7245 -0.6151
 6277SOL     OW30466   0.176   4.009  15.290  0.6059  0.9595  0.0038
 6277SOL    HW130467   0.118   3.961  15.231 -0.0958 -0.4441  1.8587
 6277SOL    HW230468   0.213   4.078  15.235  0.3695  0.1466 -1.1875
 6278SOL     OW30469   4.463   2.414   5.878  0.4892  0.0562  0.1001
 6278SOL    HW130470   4.418   2.436   5.795 -1.8020 -0.6465  1.1529
 6278SOL    HW230471   4.396   2.361   5.921  1.7090  0.3227  2.2961
 6279SOL     OW30472   1.520   3.492   7.349 -0.4087  0.6184 -0.4573
 6279SOL    HW130473   1.483   3.520   7.265  0.6805 -0.5466 -1.3385
 6279SOL    HW230474   1.610   3.483   7.316 -0.0644  1.1259  0.3427
 6280SOL     OW30475   1.547   4.275   8.779  0.1229 -0.1210  0.4322
 6280SOL    HW130476   1.455   4.296   8.759 -0.2389 -1.4271  0.7608
 6280SOL    HW230477   1.584   4.241   8.698  0.7608 -1.8115  1.4577
 6281SOL     OW30478   0.240   2.637   2.427  0.2678  0.3376 -0.5276
 6281SOL    HW130479   0.218   2.728   2.409 -2.8222 -0.3369 -0.0806
 6281SOL    HW230480   0.166   2.594   2.471 -1.2844 -0.8119 -4.2984
 6282SOL     OW30481   1.465   0.625  16.523 -0.0532  0.4339 -0.4150
 6282SOL    HW130482   1.395   0.591  16.578  0.6866  0.6055  0.6201
 6282SOL    HW230483   1.472   0.561  16.452  1.2156  1.7658 -1.5020
 6283SOL     OW30484   2.531   2.107   2.063 -0.6531 -0.3760  0.2249
 6283SOL    HW130485   2.526   2.195   2.026  0.4832  0.2294  1.5391
 6283SOL    HW230486   2.574   2.040   2.010 -3.3011  0.3080 -2.8009
 6284SOL     OW30487   1.047   3.234   0.601 -0.1343  0.0568 -0.3482
 6284SOL    HW130488   1.046   3.317   0.553 -0.6182 -1.9076 -3.7748
 6284SOL    HW230489   1.041   3.276   0.687  2.7231  0.7801 -0.5146
 6285SOL     OW30490   3.253   2.392   2.460  0.1022 -0.1918 -0.0584
 6285SOL    HW130491   3.282   2.347   2.380  0.1507 -0.1066 -0.0885
 6285SOL    HW230492   3.199   2.325   2.503  1.5652 -0.8323  0.7786
 6286SOL     OW30493   2.260   4.311   7.483 -0.3896  0.6272  0.0553
 6286SOL    HW130494   2.318   4.236   7.494 -0.8087 -0.0977 -2.5559
 6286SOL    HW230495   2.228   4.305   7.573 -0.5425  0.0104 -0.0413
 6287SOL     OW30496   0.635   2.039   4.009  0.3423 -0.0286  0.2623
 6287SOL    HW130497   0.706   2.094   3.975  2.0026 -3.0764 -1.1814
 6287SOL    HW230498   0.685   1.965   4.043 -0.7106 -1.0341 -0.4231
 6288SOL     OW30499   4.714   1.082   3.320 -0.3210  0.4070 -0.4412
 6288SOL    HW130500   4.690   1.155   3.263  0.7216  0.1092 -1.2558
 6288SOL    HW230501   0.047   1.118   3.371  1.3944  0.7661 -3.1086
 6289SOL     OW30502   3.716   2.419   4.425 -0.0158 -0.1916 -0.2141
 6289SOL    HW130503   3.696   2.366   4.502  1.7504  3.2242  2.6066
 6289SOL    HW230504   3.635   2.467   4.406  0.5540  1.6156  1.8351
 6290SOL     OW30505   4.378   4.330   3.737 -0.4881  0.4759 -0.2810
 6290SOL    HW130506   4.426   4.359   3.814 -0.0195 -0.0666 -0.3667
 6290SOL    HW230507   4.432   4.272   3.683  1.6062 -0.5084  2.8883
 6291SOL     OW30508   3.610   0.597   9.680 -0.7073  0.2721  0.1017
 6291SOL    HW130509   3.689   0.557   9.643  0.1220  0.3428  1.8092
 6291SOL    HW230510   3.561   0.517   9.699 -3.3072  1.2869 -2.4378
 6292SOL     OW30511   2.432   1.627   7.160  0.1403 -0.3690 -0.0168
 6292SOL    HW130512   2.511   1.672   7.130 -0.2758 -0.8819 -1.8958
 6292SOL    HW230513   2.367   1.697   7.164  1.1921  0.6428 -0.6278
 6293SOL     OW30514   3.707   1.476  15.021 -0.0081 -0.2085 -0.6220
 6293SOL    HW130515   3.792   1.473  15.063  0.1071 -4.1536 -1.0749
 6293SOL    HW230516   3.737   1.512  14.938  3.4659  1.3083  1.3002
 6294SOL     OW30517   1.626   1.986   5.238 -0.3098 -0.2457 -0.9026
 6294SOL    HW130518   1.546   2.026   5.273  0.7670 -0.2336  1.5532
 6294SOL    HW230519   1.582   1.902   5.242  2.0990 -1.5095 -1.1966
 6295SOL     OW30520   2.965   1.154   4.360 -0.4167  0.0761  0.3525
 6295SOL    HW130521   2.977   1.245   4.388  1.3656 -1.4659  4.5566
 6295SOL    HW230522   2.883   1.130   4.404 -0.8329  0.0258 -0.4486
 6296SOL     OW30523   0.694   4.455   2.150  0.5969 -0.3078  0.8676
 6296SOL    HW130524   0.743   4.471   2.069  0.3829  0.2414  0.8451
 6296SOL    HW230525   0.734   4.504   2.221  0.1406  0.2704  0.7287
 6297SOL     OW30526   0.407   3.495   3.292 -0.3156  0.2320 -0.3224
 6297SOL    HW130527   0.430   3.582   3.257  1.0765  0.5684  1.4151
 6297SOL    HW230528   0.468   3.485   3.366  0.8988  0.7816 -1.2384
 6298SOL     OW30529   3.682   3.713   5.235  0.2303  0.1111 -0.1015
 6298SOL    HW130530   3.652   3.684   5.322  0.9413 -1.0592 -0.2571
 6298SOL    HW230531   3.776   3.729   5.243  0.1582  0.8338 -0.7715
 6299SOL     OW30532   3.990   0.768   6.410  0.1018 -0.3710 -0.0233
 6299SOL    HW130533   4.014   0.860   6.416  0.4627 -0.4988  0.4601
 6299SOL    HW230534   3.897   0.781   6.388  0.4715  1.3052 -0.5627
 6300SOL     OW30535   2.617   4.491  14.172  0.2830  0.1211 -0.7910
 6300SOL    HW130536   2.551   4.422  14.181 -3.0910  3.2831 -1.2073
 6300SOL    HW230537   2.575   4.561  14.222 -1.3722 -0.1909 -1.7356
 6301SOL     OW30538   3.041   0.831   4.986  0.1889 -0.0052 -0.1757
 6301SOL    HW130539   2.980   0.900   5.014  0.1721  0.1147 -0.5148
 6301SOL    HW230540   3.115   0.884   4.955  0.6102  0.1124  1.0343
 6302SOL     OW30541   0.159   1.674   2.672  0.6205 -0.4067  0.0718
 6302SOL    HW130542   0.134   1.589   2.709 -1.6945 -0.5826 -1.9154
 6302SOL    HW230543   0.252   1.658   2.655  0.4874 -0.2005 -0.8274
 6303SOL     OW30544   1.234   3.921   5.136 -0.0489  0.0782 -0.0873
 6303SOL    HW130545   1.185   3.997   5.105 -0.5730 -0.6628 -1.0623
 6303SOL    HW230546   1.176   3.848   5.116  0.9716 -0.6413 -0.4017
 6304SOL     OW30547   3.421   2.070   3.644  0.7885 -0.0712  0.0413
 6304SOL    HW130548   3.445   1.989   3.600 -2.6891 -0.9715 -0.2080
 6304SOL    HW230549   3.347   2.034   3.693 -0.4552  0.6398 -1.3155
 6305SOL     OW30550   1.187   1.454   5.126 -0.4930 -0.2293 -0.0858
 6305SOL    HW130551   1.246   1.464   5.050 -0.0983  0.9589  0.3725
 6305SOL    HW230552   1.105   1.438   5.078 -0.6040  1.3182 -0.4093
 6306SOL     OW30553   3.664   1.232  15.756 -0.3817 -0.2812  0.0692
 6306SOL    HW130554   3.686   1.195  15.841 -0.9033  0.8344  0.7006
 6306SOL    HW230555   3.716   1.310  15.774 -1.2974  0.4659 -0.5007
 6307SOL     OW30556   4.390   2.237   6.533 -0.3198  0.3079  0.2752
 6307SOL    HW130557   4.470   2.261   6.487 -0.0577 -2.4289 -0.6866
 6307SOL    HW230558   4.396   2.142   6.539 -2.0294  0.1783 -0.2007
 6308SOL     OW30559   3.413   2.639  10.789  0.0463  0.3287  0.2714
 6308SOL    HW130560   3.413   2.670  10.698 -0.3041  1.8607  0.7850
 6308SOL    HW230561   3.367   2.556  10.779  0.6405  0.1341 -0.8679
 6309SOL     OW30562   2.696   3.661  16.889 -0.4094 -0.1242  0.4434
 6309SOL    HW130563   2.751   3.620  16.955  1.0391  1.1747  0.0393
 6309SOL    HW230564   2.761   3.676  16.820 -2.6188  0.5339 -1.5253
 6310SOL     OW30565   1.037   2.507   6.683 -0.4305  0.2249 -0.4975
 6310SOL    HW130566   1.044   2.511   6.778  0.9419 -0.1976 -0.5945
 6310SOL    HW230567   1.045   2.600   6.661  1.7165  0.4195  1.1699
 6311SOL     OW30568   0.405   0.953   2.281 -0.6675  0.0562 -0.0222
 6311SOL    HW130569   0.430   0.913   2.364 -2.0283  1.8087  1.2398
 6311SOL    HW230570   0.493   0.977   2.254 -0.4651 -0.6341  0.0402
 6312SOL     OW30571   0.705   4.528   3.685  0.0671 -0.0167  0.1196
 6312SOL    HW130572   0.673   4.519   3.775 -1.6048 -1.1432 -0.5832
 6312SOL    HW230573   0.625   4.511   3.634  1.5893 -0.6875 -2.0704
 6313SOL     OW30574   1.034   0.316   0.829 -0.6575  0.3213 -0.6151
 6313SOL    HW130575   0.965   0.265   0.873 -0.2003 -0.4034 -0.7346
 6313SOL    HW230576   1.031   0.261   0.751  0.9565 -0.2647 -0.2622
 6314SOL     OW30577   2.446   4.096  17.216 -0.8807  0.3718  0.4901
 6314SOL    HW130578   2.440   4.186  17.183  0.1076  0.2560 -0.0141
 6314SOL    HW230579   2.355   4.087  17.244  0.2055 -1.1010  3.5179
 6315SOL     OW30580   3.765   3.674   6.553 -0.6999  0.5586  0.4670
 6315SOL    HW130581   3.834   3.730   6.519 -0.3070 -0.6640 -0.7464
 6315SOL    HW230582   3.696   3.739   6.562 -0.3907  1.0154 -0.5579
 6316SOL     OW30583   0.869   1.903  10.658  0.4500 -0.9654 -0.0433
 6316SOL    HW130584   0.847   1.994  10.638 -0.4860 -0.9504  1.0104
 6316SOL    HW230585   0.958   1.915  10.693 -0.3782  0.8531  1.4101
 6317SOL     OW30586   3.932   1.307  13.333 -0.0815 -0.2676  0.1720
 6317SOL    HW130587   4.016   1.279  13.370 -0.5623 -1.2654  0.5103
 6317SOL    HW230588   3.915   1.244  13.263  0.9380 -0.6779  0.2891
 6318SOL     OW30589   3.866   0.150   6.687  0.2491  0.1108  0.3502
 6318SOL    HW130590   3.915   0.114   6.613  1.0679 -1.1659  1.5016
 6318SOL    HW230591   3.803   0.080   6.699  0.7929 -0.3269  0.6621
 6319SOL     OW30592   3.199   3.994   1.931 -0.1830  0.4595  0.4753
 6319SOL    HW130593   3.167   4.053   1.999 -3.8973 -1.4757  0.4503
 6319SOL    HW230594   3.113   3.973   1.893 -0.0338 -0.4067  0.6165
 6320SOL     OW30595   1.582   0.840   6.473  0.1695 -0.2906  0.4572
 6320SOL    HW130596   1.527   0.884   6.538  1.7160  1.2309  0.7452
 6320SOL    HW230597   1.663   0.814   6.517 -0.3301 -3.5928 -0.5974
 6321SOL     OW30598   1.092   1.396   1.493  0.4202 -0.3418 -0.3132
 6321SOL    HW130599   1.049   1.319   1.455 -0.9483  0.7809 -1.0307
 6321SOL    HW230600   1.098   1.463   1.425 -1.3021 -0.6084 -0.7424
 6322SOL     OW30601   1.179   0.579   6.129  0.7278 -0.6694 -0.3411
 6322SOL    HW130602   1.259   0.604   6.082  1.3311  2.0647  2.1622
 6322SOL    HW230603   1.141   0.517   6.067 -1.6721  0.1084  0.3726
 6323SOL     OW30604   1.340   2.912   4.863 -0.0715  0.0422 -0.1769
 6323SOL    HW130605   1.409   2.937   4.801  1.1577 -1.7375  0.4576
 6323SOL    HW230606   1.306   2.836   4.816 -2.8165  1.0869  0.1230
 6324SOL     OW30607   3.224   4.275   2.993  0.2163 -0.5040  0.6885
 6324SOL    HW130608   3.239   4.221   2.915  0.3209  0.2167  0.2013
 6324SOL    HW230609   3.171   4.207   3.035 -0.3532  0.3212  1.2983
 6325SOL     OW30610   0.284   4.443  16.284  0.1279 -0.0253  0.4040
 6325SOL    HW130611   0.254   4.360  16.323 -0.5305 -0.2029 -0.4755
 6325SOL    HW230612   0.337   4.483  16.352  1.0126 -0.9386  0.2508
 6326SOL     OW30613   0.599   4.033  15.945  0.0375  0.0875 -0.2623
 6326SOL    HW130614   0.598   3.937  15.956  0.8508  0.0872 -0.2477
 6326SOL    HW230615   0.507   4.055  15.960 -0.1486  1.3786 -3.3111
 6327SOL     OW30616   1.853   0.344   5.855 -0.1182 -0.4210 -0.1032
 6327SOL    HW130617   1.771   0.357   5.809 -0.4610 -1.8101  0.1064
 6327SOL    HW230618   1.859   0.251   5.879  1.9686  0.3192  2.3108
 6328SOL     OW30619   2.968   0.262   3.696 -0.2428 -0.4379 -0.0894
 6328SOL    HW130620   2.894   0.240   3.640 -0.3859 -3.7002  1.3931
 6328SOL    HW230621   2.979   0.353   3.670  0.5055 -0.6962 -0.6751
 6329SOL     OW30622   3.421   3.110   0.059  0.0500 -0.2965 -0.0611
 6329SOL    HW130623   3.336   3.151   0.042  0.3409  0.2113 -0.2959
 6329SOL    HW230624   3.441   3.135   0.150  0.6656  4.0866 -1.3826
 6330SOL     OW30625   1.632   2.404   7.550  0.1808 -0.4759 -0.0978
 6330SOL    HW130626   1.659   2.421   7.460  0.2468 -0.1636 -0.0197
 6330SOL    HW230627   1.561   2.468   7.552 -1.0255 -1.7604 -1.5485
 6331SOL     OW30628   0.218   1.001   9.602 -0.1200 -0.0573 -0.0693
 6331SOL    HW130629   0.311   0.989   9.625  0.3572 -0.2929 -2.0318
 6331SOL    HW230630   0.172   1.028   9.681 -0.4160 -0.7997  0.0153
 6332SOL     OW30631   2.994   2.303  11.902  0.3564  0.1324 -0.3277
 6332SOL    HW130632   3.082   2.265  11.896  0.0992 -0.2768 -1.5800
 6332SOL    HW230633   2.951   2.237  11.848 -0.5340  0.4035  0.0602
 6333SOL     OW30634   3.605   4.426   3.421 -0.7709 -0.3189 -0.0241
 6333SOL    HW130635   3.677   4.372   3.389 -0.0855  1.1309 -0.9191
 6333SOL    HW230636   3.546   4.395   3.352 -0.8968  0.7424 -0.4046
 6334SOL     OW30637   0.312   2.591   7.092  0.4551  0.0010 -0.5677
 6334SOL    HW130638   0.389   2.536   7.076 -0.7310 -1.5212 -0.9905
 6334SOL    HW230639   0.306   2.638   7.009 -0.3488  0.6323 -0.1514
 6335SOL     OW30640   2.151   2.635   8.628  0.2940  0.6737 -0.0503
 6335SOL    HW130641   2.226   2.687   8.659  0.1889  0.8696 -0.1242
 6335SOL    HW230642   2.195   2.610   8.547 -0.1986 -0.4634  0.0362
 6336SOL     OW30643   1.842   3.440   2.899 -0.5807  0.3933  0.3174
 6336SOL    HW130644   1.865   3.498   2.826  1.8072  0.1272  0.8813
 6336SOL    HW230645   1.775   3.384   2.860 -0.4866  0.0907  0.5860
 6337SOL     OW30646   1.201   2.433   5.861 -0.1678 -0.5560  0.3589
 6337SOL    HW130647   1.152   2.482   5.795  3.3881  0.0343 -1.8319
 6337SOL    HW230648   1.239   2.497   5.921 -0.9968 -0.0768  0.3693
 6338SOL     OW30649   2.964   3.446   5.077 -0.5428  0.0510  0.0830
 6338SOL    HW130650   3.059   3.435   5.075 -0.4439  0.6748  2.2590
 6338SOL    HW230651   2.948   3.429   4.983  0.9142  0.9003 -0.3079
 6339SOL     OW30652   3.028   3.469   8.212 -0.5549 -0.0323 -0.1418
 6339SOL    HW130653   2.969   3.539   8.240 -0.7202  0.7022 -2.2931
 6339SOL    HW230654   3.105   3.512   8.250  0.5516 -0.5017 -1.8640
 6340SOL     OW30655   2.031   1.327   8.830  0.0458 -0.3141 -0.5531
 6340SOL    HW130656   2.048   1.370   8.914 -1.8426  0.9563 -0.8234
 6340SOL    HW230657   1.945   1.289   8.847  0.1621 -0.9935 -1.4745
 6341SOL     OW30658   4.424   0.421   5.127 -0.6485 -0.0405 -0.5226
 6341SOL    HW130659   4.331   0.439   5.115 -0.7753 -0.7932 -0.6804
 6341SOL    HW230660   4.451   0.513   5.129 -0.7154 -0.0341  0.2249
 6342SOL     OW30661   2.142   3.783   2.829  0.3618 -0.1988 -0.0272
 6342SOL    HW130662   2.092   3.845   2.776  2.6969  0.7747 -1.1021
 6342SOL    HW230663   2.170   3.842   2.899  0.4759 -1.5504  1.0738
 6343SOL     OW30664   4.207   1.951   4.427  0.8253  0.2732  0.0472
 6343SOL    HW130665   4.149   1.899   4.371 -0.0542  0.7598  0.5227
 6343SOL    HW230666   4.213   2.028   4.370 -1.3444 -0.0798 -0.6659
 6344SOL     OW30667   3.595   3.638   5.844  0.2357 -0.3592  0.5096
 6344SOL    HW130668   3.679   3.673   5.814  0.9457 -1.8094  0.7957
 6344SOL    HW230669   3.537   3.709   5.818 -0.0959  0.0021  2.2498
 6345SOL     OW30670   3.397   3.768   6.350  0.1069  0.1313  0.1939
 6345SOL    HW130671   3.359   3.853   6.330 -0.3237  0.3044  1.7376
 6345SOL    HW230672   3.325   3.714   6.383 -1.0446  3.0221  2.3223
 6346SOL     OW30673   2.260   3.796   6.004 -0.1338 -0.4672  0.5283
 6346SOL    HW130674   2.274   3.701   6.005  0.8891 -0.2809  2.6827
 6346SOL    HW230675   2.351   3.819   6.022 -0.7971  2.7577 -0.1983
 6347SOL     OW30676   1.065   3.224   3.050 -0.2703  0.3646 -0.7994
 6347SOL    HW130677   0.992   3.185   3.098 -1.0860  3.5268  0.5440
 6347SOL    HW230678   1.097   3.143   3.009  2.5562  0.9023  0.3084
 6348SOL     OW30679   4.289   0.915   5.366  0.1617  0.1650  0.3648
 6348SOL    HW130680   4.257   0.964   5.442 -0.4685  0.2489  0.0449
 6348SOL    HW230681   4.368   0.865   5.387 -0.0113 -1.5100 -3.0326
 6349SOL     OW30682   3.826   0.929   4.212  0.8484  0.1374  0.2609
 6349SOL    HW130683   3.754   0.985   4.240  2.1540  2.6899 -1.5956
 6349SOL    HW230684   3.907   0.955   4.256  2.6128  1.8079 -4.0326
 6350SOL     OW30685   2.347   0.430   4.778 -0.2603 -0.1831 -0.2601
 6350SOL    HW130686   2.314   0.520   4.785 -0.1704 -0.1241 -0.6312
 6350SOL    HW230687   2.441   0.436   4.794  0.3064 -0.7231 -3.4159
 6351SOL     OW30688   3.259   0.111   7.648 -0.3364 -0.2973  0.5593
 6351SOL    HW130689   3.292   0.201   7.656  1.0904 -0.8890  1.4164
 6351SOL    HW230690   3.317   0.059   7.592 -0.4270 -0.6242  0.7691
 6352SOL     OW30691   1.483   3.196   4.266 -0.6920 -0.2666  0.4000
 6352SOL    HW130692   1.529   3.228   4.188 -2.8045 -1.2990 -1.2591
 6352SOL    HW230693   1.535   3.245   4.330 -0.4372 -1.8006  1.3633
 6353SOL     OW30694   1.251   4.690   3.999 -0.3892 -0.0090 -0.0149
 6353SOL    HW130695   1.311   4.733   4.060  1.6208  1.3832 -2.9869
 6353SOL    HW230696   1.248   0.012   3.925 -2.9399 -0.2779 -0.1270
 6354SOL     OW30697   1.912   3.280   7.806  0.0641 -0.6310  0.0355
 6354SOL    HW130698   1.903   3.229   7.887  0.5750  0.2458  0.6318
 6354SOL    HW230699   1.975   3.227   7.758 -1.1627 -2.3688  0.3089
 6355SOL     OW30700   0.013   1.402   9.669 -0.7701 -1.1190  0.0110
 6355SOL    HW130701   0.073   1.376   9.739 -0.8882  0.5598  0.7209
 6355SOL    HW230702   0.066   1.360   9.602 -2.6320  1.2232 -2.9131
 6356SOL     OW30703   1.162   0.004   5.763 -0.4023  0.0563  0.3142
 6356SOL    HW130704   1.181   4.656   5.799  0.4714 -0.2472 -0.8783
 6356SOL    HW230705   1.104   0.037   5.832 -0.0071 -0.5214  0.9230
 6357SOL     OW30706   3.603   1.020  13.560  0.4590 -0.1503 -0.0991
 6357SOL    HW130707   3.670   1.086  13.541  1.4685 -1.3650 -0.7923
 6357SOL    HW230708   3.528   1.050  13.509  1.8261 -2.4595 -3.4258
 6358SOL     OW30709   1.604   1.259   5.938 -0.3421 -0.5162  0.3110
 6358SOL    HW130710   1.690   1.243   5.976 -0.0873  0.6245  0.2102
 6358SOL    HW230711   1.560   1.178   5.965 -0.8554 -0.6917 -1.0755
 6359SOL     OW30712   4.542   0.250  15.554 -0.2489  0.0966 -0.3757
 6359SOL    HW130713   4.597   0.285  15.624  0.4836 -2.6159  0.3909
 6359SOL    HW230714   4.607   0.200  15.506  0.7510  1.8658 -0.8447
 6360SOL     OW30715   2.884   4.021  16.082 -0.4995  0.2519 -0.2263
 6360SOL    HW130716   2.886   4.070  16.164  0.6701 -0.2352  0.0451
 6360SOL    HW230717   2.800   4.054  16.049 -2.1323 -1.4595  2.2988
 6361SOL     OW30718   2.051   0.852   0.983 -0.5912 -0.3491 -0.1719
 6361SOL    HW130719   2.116   0.852   0.913  1.0871 -1.4812  1.3822
 6361SOL    HW230720   2.032   0.758   0.991 -0.8653 -0.2966 -0.2019
 6362SOL     OW30721   0.112   2.325   7.674 -0.3737  0.3291  0.3854
 6362SOL    HW130722   0.144   2.414   7.691 -0.5776  0.3548  0.6542
 6362SOL    HW230723   0.126   2.312   7.581  1.8776 -3.0019  1.1972
 6363SOL     OW30724   0.590   1.993   2.844  0.1199 -0.2445 -0.6482
 6363SOL    HW130725   0.567   2.083   2.819  2.6422  0.0258 -2.0199
 6363SOL    HW230726   0.620   1.969   2.757  0.4266  0.8936 -0.8556
 6364SOL     OW30727   0.441   1.932   2.073 -0.7111  0.2145  0.1909
 6364SOL    HW130728   0.371   1.962   2.131  0.3370  0.9993  1.0236
 6364SOL    HW230729   0.449   2.009   2.017 -0.0599 -1.6338 -2.2673
 6365SOL     OW30730   4.341   0.407  13.882  0.0840  0.6551 -0.1404
 6365SOL    HW130731   4.392   0.409  13.801 -0.0911 -1.0573 -0.2801
 6365SOL    HW230732   4.306   0.320  13.868  2.1294  0.0427 -1.3736
 6366SOL     OW30733   2.489   4.100   3.913  0.3453 -0.2257 -0.3445
 6366SOL    HW130734   2.481   4.086   3.818  2.5401 -1.4050 -0.3557
 6366SOL    HW230735   2.400   4.086   3.945 -0.2573  1.9581 -1.0604
 6367SOL     OW30736   2.117   1.478   3.285 -0.2148  0.7177  0.0731
 6367SOL    HW130737   2.141   1.433   3.366 -2.9011  3.2920  2.3167
 6367SOL    HW230738   2.058   1.416   3.244  0.9683 -1.1653  1.2293
 6368SOL     OW30739   2.603   0.897   2.266  0.2450 -0.5628  0.5301
 6368SOL    HW130740   2.529   0.955   2.282 -0.2358 -0.9628 -0.2367
 6368SOL    HW230741   2.605   0.886   2.171 -1.0482 -1.6239  0.6407
 6369SOL     OW30742   0.099   0.970   7.245 -0.1639  0.2613 -0.1924
 6369SOL    HW130743   0.154   1.047   7.252  0.4226  0.1869 -3.7160
 6369SOL    HW230744   0.142   0.903   7.297 -2.0478  0.9382  2.2305
 6370SOL     OW30745   0.568   4.492  15.341  0.1140  0.2152  0.4688
 6370SOL    HW130746   0.641   4.431  15.353 -1.5198 -1.2988  2.7104
 6370SOL    HW230747   0.608   4.578  15.330  1.2325 -0.7052 -2.6281
 6371SOL     OW30748   4.405   0.008   8.860 -0.5103  0.5478  0.0225
 6371SOL    HW130749   4.321   0.051   8.843 -2.0774 -2.2199  0.6229
 6371SOL    HW230750   4.433   4.726   8.771 -3.3757 -0.2822 -0.7056
 6372SOL     OW30751   2.207   3.154   5.487 -0.8583  0.2115 -0.4339
 6372SOL    HW130752   2.261   3.142   5.565 -0.2917  1.8247 -0.5620
 6372SOL    HW230753   2.213   3.250   5.481 -1.3624  0.2242 -0.6714
 6373SOL     OW30754   2.295   3.594   3.036  0.1196 -0.0932 -0.1126
 6373SOL    HW130755   2.212   3.584   3.083  0.2817  1.0291  0.4178
 6373SOL    HW230756   2.277   3.580   2.943 -0.3038 -2.0008  0.2562
 6374SOL     OW30757   4.626   3.268   9.409  0.0112 -0.3282 -0.0308
 6374SOL    HW130758   4.707   3.308   9.380 -1.0231 -0.0633 -2.5612
 6374SOL    HW230759   4.609   3.307   9.495  0.2336 -1.1254  0.3786
 6375SOL     OW30760   2.645   1.919   1.925 -0.4082 -1.0453 -0.0315
 6375SOL    HW130761   2.741   1.922   1.924 -0.4550  0.6837  2.5259
 6375SOL    HW230762   2.632   1.885   1.836  1.6143  0.9215 -1.0614
 6376SOL     OW30763   1.965   4.186   3.811 -0.0278  0.4706  0.2422
 6376SOL    HW130764   1.981   4.281   3.817 -0.5327  0.6334 -0.9197
 6376SOL    HW230765   1.948   4.181   3.717 -0.7410 -2.3931  0.5261
 6377SOL     OW30766   2.491   3.367   6.668  0.0161 -0.4384 -0.4566
 6377SOL    HW130767   2.492   3.418   6.749 -0.1034 -4.0159  1.8193
 6377SOL    HW230768   2.573   3.319   6.682  0.0755 -0.1227  0.3006
 6378SOL     OW30769   1.785   1.872   0.313  0.2403  0.8763 -0.1866
 6378SOL    HW130770   1.777   1.782   0.344 -0.5339  1.0482  0.1161
 6378SOL    HW230771   1.819   1.861   0.224 -1.2864  2.4172 -0.9673
 6379SOL     OW30772   1.896   2.828  10.606 -0.8566 -0.0092  0.2164
 6379SOL    HW130773   1.887   2.740  10.644 -3.5274  0.1099 -0.1497
 6379SOL    HW230774   1.991   2.839  10.597 -1.1054  0.9901 -1.1450
 6380SOL     OW30775   2.806   3.904   1.081 -0.0512  0.2194 -0.1560
 6380SOL    HW130776   2.897   3.892   1.109  0.5058  1.1773 -1.5668
 6380SOL    HW230777   2.766   3.867   1.160 -2.3340  1.4884 -0.7119
 6381SOL     OW30778   4.004   3.963   5.543  0.3845  0.0817  0.0857
 6381SOL    HW130779   4.051   3.881   5.560 -1.4863 -0.9206  0.3959
 6381SOL    HW230780   4.056   4.012   5.607  0.2536  1.8943 -1.2136
 6382SOL     OW30781   1.651   1.803  15.995  0.4194 -0.2421  0.2512
 6382SOL    HW130782   1.701   1.841  16.068 -0.7526  0.5697  0.6336
 6382SOL    HW230783   1.667   1.870  15.928  0.0023 -0.8408 -0.4472
 6383SOL     OW30784   1.366   3.513   4.387  0.0192  0.2611 -0.6436
 6383SOL    HW130785   1.407   3.574   4.325 -1.2342  1.4433 -0.3083
 6383SOL    HW230786   1.375   3.553   4.474  3.6379 -1.3241 -0.2768
 6384SOL     OW30787   2.136   2.685  10.845  0.1180  0.7697  0.2383
 6384SOL    HW130788   2.171   2.750  10.784  1.1494  0.4200  0.4454
 6384SOL    HW230789   2.059   2.649  10.802  0.2395  0.6329  0.1354
 6385SOL     OW30790   3.018   0.463   4.530 -0.2127 -0.1808  0.2078
 6385SOL    HW130791   2.927   0.488   4.519  0.7001  2.0039 -2.3532
 6385SOL    HW230792   3.061   0.512   4.460  0.4038  1.3535  1.6732
 6386SOL     OW30793   2.453   0.252   3.761 -0.0580  0.5247  0.0033
 6386SOL    HW130794   2.459   0.212   3.848 -0.7132  1.1691  0.3359
 6386SOL    HW230795   2.504   0.332   3.768  1.4943 -0.3439 -1.3286
 6387SOL     OW30796   3.601   4.377   9.882 -0.6196  0.1791 -0.1996
 6387SOL    HW130797   3.546   4.317   9.932  1.1620 -1.4615 -0.2625
 6387SOL    HW230798   3.674   4.321   9.859 -0.6169  1.0066 -2.2694
 6388SOL     OW30799   4.475   3.576  15.155 -0.1692  0.2299  0.1820
 6388SOL    HW130800   4.400   3.521  15.135 -0.1866  0.3529 -0.0927
 6388SOL    HW230801   4.544   3.546  15.097  0.6872  1.0095  0.8017
 6389SOL     OW30802   3.181   1.657   9.057  0.4795 -0.3262 -0.2177
 6389SOL    HW130803   3.145   1.746   9.054 -3.5194 -1.8821  0.6978
 6389SOL    HW230804   3.220   1.651   8.970 -0.4644  0.8553 -0.7215
 6390SOL     OW30805   3.170   3.109  14.889  0.6744  0.2098  0.2634
 6390SOL    HW130806   3.139   3.122  14.979  0.9095  0.6608  0.2803
 6390SOL    HW230807   3.136   3.021  14.874 -0.1599  0.4777  0.5377
 6391SOL     OW30808   1.238   3.942   3.620 -0.0530 -0.1910 -0.1954
 6391SOL    HW130809   1.237   4.038   3.629 -0.0988 -0.2035 -0.0690
 6391SOL    HW230810   1.145   3.922   3.615  0.0548 -1.0208  1.3780
 6392SOL     OW30811   4.135   3.168   5.350 -0.0086 -0.1479 -0.0609
 6392SOL    HW130812   4.170   3.139   5.434 -3.4441 -0.0774  1.4283
 6392SOL    HW230813   4.209   3.143   5.295 -0.8821 -0.6105 -1.0386
 6393SOL     OW30814   0.972   3.222   6.347  0.0133 -0.4597 -0.2573
 6393SOL    HW130815   0.999   3.301   6.300 -0.3356 -0.1914 -0.0024
 6393SOL    HW230816   0.886   3.222   6.306  0.4956  0.6759 -1.2820
 6394SOL     OW30817   0.504   1.196   3.077  0.2542  0.0543 -0.2539
 6394SOL    HW130818   0.499   1.219   3.170  1.3974 -3.0413  0.5883
 6394SOL    HW230819   0.417   1.226   3.052  0.9361 -0.1227 -2.7945
 6395SOL     OW30820   0.911   0.619   8.369  0.3809 -0.1257  0.1659
 6395SOL    HW130821   0.975   0.677   8.409 -0.3400  0.8035 -0.0356
 6395SOL    HW230822   0.835   0.655   8.417 -0.2119  0.9595 -1.6097
 6396SOL     OW30823   1.308   4.555   2.168  0.2562 -0.4488 -0.2300
 6396SOL    HW130824   1.238   4.501   2.205 -0.3135 -0.3606 -1.1841
 6396SOL    HW230825   1.313   4.534   2.075 -0.0486  1.6308 -0.7235
 6397SOL     OW30826   3.546   0.541   9.366  0.6282  0.2957 -0.3132
 6397SOL    HW130827   3.559   0.523   9.459  1.0899 -1.1318 -0.6582
 6397SOL    HW230828   3.607   0.610   9.342  0.9995 -0.7471 -2.3022
 6398SOL     OW30829   3.489   1.760   4.962  0.1744 -0.3243 -0.2424
 6398SOL    HW130830   3.421   1.796   5.018  0.9877  2.6639 -1.2042
 6398SOL    HW230831   3.547   1.834   4.943 -0.9209  0.0856 -1.9302
 6399SOL     OW30832   2.208   3.782  16.460 -0.1917 -0.0782  0.2968
 6399SOL    HW130833   2.288   3.735  16.435  1.0314  1.3428  1.5588
 6399SOL    HW230834   2.166   3.726  16.525  1.8992 -1.0650  0.8101
 6400SOL     OW30835   3.287   2.210   3.436  0.4878 -0.0400 -0.3860
 6400SOL    HW130836   3.292   2.149   3.510 -0.4477  0.3880  0.0336
 6400SOL    HW230837   3.378   2.236   3.418  0.4467  1.2573  1.2531
 6401SOL     OW30838   1.917   0.877   1.873 -0.0074 -0.0730 -0.0356
 6401SOL    HW130839   1.847   0.934   1.906 -0.2987 -0.6105  0.2819
 6401SOL    HW230840   1.979   0.866   1.945  0.5774 -0.3526 -0.5839
 6402SOL     OW30841   2.692   0.487   3.045  0.2860 -0.7635 -0.0332
 6402SOL    HW130842   2.776   0.492   3.091 -0.0704 -0.6704  0.6106
 6402SOL    HW230843   2.702   0.396   3.018 -3.0918 -1.0897 -0.1815
 6403SOL     OW30844   0.266   2.655   5.490  0.1074  0.6751 -0.6432
 6403SOL    HW130845   0.182   2.666   5.534  1.8419  1.6216  2.3693
 6403SOL    HW230846   0.317   2.639   5.569  0.0222 -0.4776 -0.8130
 6404SOL     OW30847   2.953   3.369  10.952  0.0674  0.3789 -0.0510
 6404SOL    HW130848   2.947   3.438  10.885 -0.8578 -1.9845 -2.3955
 6404SOL    HW230849   2.864   3.353  10.985  0.5629 -0.9560  0.6038
 6405SOL     OW30850   3.453   1.221   5.932  0.1122  0.4448 -0.6699
 6405SOL    HW130851   3.451   1.296   5.992 -0.0235  1.1007 -1.4973
 6405SOL    HW230852   3.465   1.154   5.999 -0.5388 -0.2685 -1.2752
 6406SOL     OW30853   2.572   2.760  15.687 -0.0261  0.2061 -0.2353
 6406SOL    HW130854   2.505   2.829  15.680  1.3686  1.8014  2.0559
 6406SOL    HW230855   2.614   2.799  15.764 -0.0630 -0.5441  0.1581
 6407SOL     OW30856   4.087   4.353   3.083  0.0512 -0.2610 -0.5329
 6407SOL    HW130857   4.004   4.307   3.073  0.2574 -0.8091  0.3052
 6407SOL    HW230858   4.083   4.410   3.006  2.1334  1.0983  0.3612
 6408SOL     OW30859   2.902   2.548   9.706 -0.2954 -0.2400 -0.5341
 6408SOL    HW130860   2.874   2.607   9.636 -0.6473  0.8951  0.5693
 6408SOL    HW230861   2.835   2.480   9.702  1.4306 -2.0669  1.4590
 6409SOL     OW30862   3.340   2.728   8.879 -0.3055 -0.0136 -0.3640
 6409SOL    HW130863   3.390   2.647   8.880  2.1481  1.5139  1.6837
 6409SOL    HW230864   3.322   2.741   8.972 -0.0119  0.8916 -0.4333
 6410SOL     OW30865   3.157   1.088   2.841 -0.3649  0.2947  0.6537
 6410SOL    HW130866   3.144   1.162   2.900  0.2905  2.4628 -1.9227
 6410SOL    HW230867   3.110   1.125   2.766  0.2607  0.9449  0.5827
 6411SOL     OW30868   0.997   0.338   8.781 -0.0621 -0.0783 -0.3166
 6411SOL    HW130869   1.019   0.247   8.762 -1.4288 -0.7547  1.3446
 6411SOL    HW230870   0.996   0.341   8.876  0.1946  1.2374 -0.3652
 6412SOL     OW30871   0.329   1.490  14.540  0.3116 -0.1666 -0.5041
 6412SOL    HW130872   0.406   1.535  14.505  0.7911 -0.0359  0.7269
 6412SOL    HW230873   0.287   1.550  14.602  0.8036  0.9393 -1.2364
 6413SOL     OW30874   2.357   4.000   4.675 -0.0333  0.3288  0.6401
 6413SOL    HW130875   2.422   3.950   4.726  0.1126 -1.8086 -1.6236
 6413SOL    HW230876   2.270   3.977   4.707 -0.6473  0.9314 -0.5946
 6414SOL     OW30877   3.924   2.567  13.131 -0.5434 -0.8099 -0.2853
 6414SOL    HW130878   3.934   2.662  13.120  0.5604 -1.0280 -1.1882
 6414SOL    HW230879   4.016   2.539  13.123 -0.2177  0.3686 -0.7310
 6415SOL     OW30880   3.126   1.514   4.367 -0.3880  0.2555  0.2728
 6415SOL    HW130881   3.040   1.502   4.406  0.1747  0.5414  1.6110
 6415SOL    HW230882   3.179   1.465   4.431  0.8235 -0.3121 -1.1570
 6416SOL     OW30883   4.307   1.433   0.983 -0.3640 -0.3092 -0.0754
 6416SOL    HW130884   4.378   1.399   0.928 -0.1236  0.0350  0.0189
 6416SOL    HW230885   4.326   1.527   0.990  0.1533 -0.3648 -0.7628
 6417SOL     OW30886   3.672   2.140   3.786 -0.5478  0.4120  0.2760
 6417SOL    HW130887   3.602   2.129   3.722 -0.4792 -1.0684  0.4686
 6417SOL    HW230888   3.629   2.128   3.870  1.3255  0.9912  1.3244
 6418SOL     OW30889   2.824   1.564   2.222  0.7693 -0.5472 -0.2295
 6418SOL    HW130890   2.863   1.622   2.288  1.2595 -3.3897  1.9724
 6418SOL    HW230891   2.745   1.608   2.192 -0.7749 -2.9808  0.3476
 6419SOL     OW30892   3.246   0.998   7.427  0.1205 -0.1301  0.2142
 6419SOL    HW130893   3.232   0.998   7.522  0.1734 -0.9460  0.2227
 6419SOL    HW230894   3.169   1.050   7.404  0.4022 -1.1387 -2.9657
 6420SOL     OW30895   0.383   4.676  11.990 -0.1609 -0.4160 -0.0034
 6420SOL    HW130896   0.428   4.634  12.063 -1.5038  0.5393  1.3749
 6420SOL    HW230897   0.314   4.727  12.033 -0.6129 -1.7358  0.8454
 6421SOL     OW30898   3.497   4.387  16.014 -0.0156  0.3054  0.3812
 6421SOL    HW130899   3.577   4.438  16.024 -0.4905  0.9077  1.1485
 6421SOL    HW230900   3.462   4.439  15.941 -0.4883 -1.0395 -0.3460
 6422SOL     OW30901   4.198   3.886   8.907 -0.1567  0.0071 -0.1480
 6422SOL    HW130902   4.104   3.884   8.924  0.1125 -0.3830  1.3659
 6422SOL    HW230903   4.225   3.799   8.877 -1.7755 -0.0139 -1.5199
 6423SOL     OW30904   3.480   4.292   6.054 -0.1173  0.1290 -0.6495
 6423SOL    HW130905   3.478   4.197   6.042  1.3584  0.2043 -1.5213
 6423SOL    HW230906   3.478   4.320   5.963 -0.2602  1.0534 -0.3574
 6424SOL     OW30907   4.300   3.325   5.580 -0.2722 -0.1179  0.2423
 6424SOL    HW130908   4.266   3.237   5.596  1.3106 -0.8830 -0.6556
 6424SOL    HW230909   4.246   3.379   5.638 -0.1570  0.6409 -0.3654
 6425SOL     OW30910   3.821   3.798   5.773  0.3167  0.1351 -0.2757
 6425SOL    HW130911   3.907   3.841   5.775 -0.0094  0.7884 -0.4251
 6425SOL    HW230912   3.835   3.750   5.691 -2.3702  0.5676 -0.9769
 6426SOL     OW30913   0.208   3.820   7.998 -0.0066  0.0251 -0.0565
 6426SOL    HW130914   0.151   3.895   8.010  0.8104  0.5612  0.4615
 6426SOL    HW230915   0.174   3.779   8.078 -0.5793 -1.2263 -0.9445
 6427SOL     OW30916   1.956   1.057  16.005 -0.4677 -0.2635  0.3928
 6427SOL    HW130917   1.911   1.074  16.088 -1.6281 -0.0877 -0.2709
 6427SOL    HW230918   1.887   1.019  15.951 -0.1768  1.3926 -1.1477
 6428SOL     OW30919   2.865   1.455   8.461 -0.2862 -0.3816 -0.1422
 6428SOL    HW130920   2.863   1.414   8.547 -2.8750  0.6765  0.2928
 6428SOL    HW230921   2.954   1.489   8.450 -0.6856  0.9846  0.7875
 6429SOL     OW30922   2.372   3.857   7.759 -0.1696 -0.2712 -0.2886
 6429SOL    HW130923   2.317   3.851   7.837 -0.6356  0.1301 -0.5899
 6429SOL    HW230924   2.407   3.945   7.773 -1.7001  0.4359 -0.9971
 6430SOL     OW30925   4.687   1.074  14.025  0.0563 -0.0890 -0.2750
 6430SOL    HW130926   4.709   0.998  13.972 -3.2694 -1.6597  0.6208
 6430SOL    HW230927   4.632   1.033  14.092 -2.4658 -0.1675 -2.4275
 6431SOL     OW30928   2.770   0.397   7.922 -0.1069  0.9292 -0.3200
 6431SOL    HW130929   2.708   0.330   7.892 -0.3265  0.2147  1.7139
 6431SOL    HW230930   2.819   0.337   7.978 -1.4249 -1.3909 -1.6462
 6432SOL     OW30931   3.826   0.874  10.987 -0.0686 -0.3737  0.2056
 6432SOL    HW130932   3.829   0.790  10.942 -0.4979  0.1952 -0.8773
 6432SOL    HW230933   3.919   0.895  10.994 -0.2785  0.3990  0.6317
 6433SOL     OW30934   2.088   2.222   3.081 -1.1428  0.0274  0.1478
 6433SOL    HW130935   2.158   2.286   3.070 -1.1126 -0.3544 -1.9161
 6433SOL    HW230936   2.052   2.211   2.993 -1.6941 -1.7399  0.5928
 6434SOL     OW30937   2.729   3.716   4.012 -0.4895  0.0577  0.0366
 6434SOL    HW130938   2.664   3.728   3.943 -0.0299 -0.5008 -0.4932
 6434SOL    HW230939   2.672   3.752   4.080  0.3438  0.6869  0.4099
 6435SOL     OW30940   0.640   3.771   6.857 -0.7354 -0.2515  0.2618
 6435SOL    HW130941   0.718   3.806   6.814  0.2913 -3.7819 -0.7688
 6435SOL    HW230942   0.664   3.765   6.949 -0.0042 -1.3368  0.0111
 6436SOL     OW30943   0.197   1.129   2.289 -0.0523 -0.0151  0.0490
 6436SOL    HW130944   0.159   1.088   2.210 -1.7219 -2.3505  2.0552
 6436SOL    HW230945   0.279   1.081   2.298 -1.8370 -2.6355  2.2340
 6437SOL     OW30946   3.374   1.875   8.095 -0.0477 -0.3829 -0.1492
 6437SOL    HW130947   3.394   1.950   8.152 -0.2929  0.3172 -0.9817
 6437SOL    HW230948   3.293   1.905   8.052 -0.5725  0.0468  1.1315
 6438SOL     OW30949   3.285   0.540  12.439 -0.0240  0.3164 -0.4319
 6438SOL    HW130950   3.212   0.584  12.396 -1.4076  1.1885  2.7947
 6438SOL    HW230951   3.229   0.482  12.491  0.6371 -0.7846 -0.9558
 6439SOL     OW30952   3.709   3.913   0.834  0.0949  0.8347 -0.4122
 6439SOL    HW130953   3.752   3.937   0.916  1.0109  0.5865 -0.8160
 6439SOL    HW230954   3.623   3.955   0.842 -1.2790 -2.0972  0.2246
 6440SOL     OW30955   3.286   1.565   7.024 -0.0961  0.0510  0.0621
 6440SOL    HW130956   3.264   1.514   7.102  0.9241 -0.0263  0.3081
 6440SOL    HW230957   3.364   1.522   6.988 -0.3941  0.1743 -0.7258
 6441SOL     OW30958   3.545   2.231   3.312  0.3170  0.6889 -0.0288
 6441SOL    HW130959   3.577   2.250   3.224  0.0239  1.5750  0.0574
 6441SOL    HW230960   3.614   2.189   3.363  2.3945  0.9691 -2.5960
 6442SOL     OW30961   3.626   1.022  17.156 -0.2167  0.3110  0.2205
 6442SOL    HW130962   3.693   0.955  17.170 -2.2888 -1.9164 -0.5046
 6442SOL    HW230963   3.560   0.986  17.215 -0.3935 -1.3213 -0.9642
 6443SOL     OW30964   4.149   2.142   6.372  0.2111 -0.5414  0.3397
 6443SOL    HW130965   4.227   2.131   6.426  1.0129  1.1066 -0.4630
 6443SOL    HW230966   4.148   2.051   6.345 -0.2060 -0.8538  1.4181
 6444SOL     OW30967   1.732   1.202   9.963 -0.3217  0.0839  0.5019
 6444SOL    HW130968   1.660   1.221   9.903  0.9497  1.1213 -0.6853
 6444SOL    HW230969   1.683   1.173  10.040  1.0737  2.4655  2.2920
 6445SOL     OW30970   0.108   2.089   3.294 -0.5662  1.3708 -0.1857
 6445SOL    HW130971   0.098   2.178   3.261  1.8626  1.9200  0.6027
 6445SOL    HW230972   0.080   2.045   3.214  1.4848 -1.4850  0.6643
 6446SOL     OW30973   2.128   3.731   8.447  0.0061 -0.8789  0.2940
 6446SOL    HW130974   2.203   3.772   8.404 -0.9276  0.1817 -0.3228
 6446SOL    HW230975   2.159   3.739   8.537 -1.9523  1.6048  0.7504
 6447SOL     OW30976   3.077   2.444  11.399  0.7712  0.3635 -0.0092
 6447SOL    HW130977   2.999   2.416  11.350 -1.7407  2.9369  2.4829
 6447SOL    HW230978   3.129   2.494  11.336 -0.5988  0.5636 -0.9955
 6448SOL     OW30979   0.004   0.354   4.010 -0.0139 -0.1754 -0.0311
 6448SOL    HW130980   4.649   0.373   4.019 -0.5609 -1.5052 -2.7906
 6448SOL    HW230981   0.050   0.435   4.032 -1.3427  0.3686  0.7204
 6449SOL     OW30982   3.228   1.226  17.379 -0.0086 -0.1441  0.0776
 6449SOL    HW130983   3.249   1.164  17.449 -0.2123 -0.5522 -0.2198
 6449SOL    HW230984   3.225   1.169  17.302  0.0967  0.3703 -0.3060
 6450SOL     OW30985   2.964   4.035   6.375 -0.5449 -0.3364 -0.2276
 6450SOL    HW130986   2.998   4.097   6.439 -1.7676 -0.5626  0.6298
 6450SOL    HW230987   2.933   4.095   6.307  0.4193 -0.9416 -1.2095
 6451SOL     OW30988   1.858   0.702  13.146 -0.5180 -0.0086  0.0675
 6451SOL    HW130989   1.839   0.608  13.136 -1.6026 -0.0787  2.7855
 6451SOL    HW230990   1.949   0.710  13.119 -0.1252 -0.6849  1.1663
 6452SOL     OW30991   1.860   0.246   7.701  0.6104  0.3208  0.2639
 6452SOL    HW130992   1.928   0.181   7.719  0.6503 -0.0131 -1.0474
 6452SOL    HW230993   1.909   0.295   7.636  2.4045 -1.7659  0.0416
 6453SOL     OW30994   4.570   3.061   3.089  0.3833 -0.2782 -0.1892
 6453SOL    HW130995   4.622   3.116   3.030  0.7076  0.8924  1.1821
 6453SOL    HW230996   4.635   3.044   3.158  0.7959  0.6501 -0.3483
 6454SOL     OW30997   4.405   3.904   7.780  0.0628 -0.3057  0.1503
 6454SOL    HW130998   4.412   3.982   7.724  1.4953 -0.5638 -0.0352
 6454SOL    HW230999   4.318   3.874   7.756  0.0599 -0.7606  0.7338
 6455SOL     OW31000   2.916   4.329   2.147 -0.1484 -0.1962  0.1860
 6455SOL    HW131001   2.908   4.391   2.219 -0.1635 -0.4560  0.4096
 6455SOL    HW231002   2.827   4.295   2.144  0.3711 -1.5849  0.1752
 6456SOL     OW31003   3.949   2.049   1.409 -0.1829  0.0981  0.1438
 6456SOL    HW131004   3.964   2.117   1.344  0.9698  2.7759  3.2632
 6456SOL    HW231005   3.854   2.036   1.415 -0.1218  0.0581  0.9616
 6457SOL     OW31006   4.422   1.340   6.089  0.2060  0.2314  0.6878
 6457SOL    HW131007   4.332   1.309   6.077  0.2044  0.6177 -0.3749
 6457SOL    HW231008   4.437   1.305   6.176 -0.9107 -1.3702  0.2379
 6458SOL     OW31009   0.183   4.431   5.570  0.1066 -0.1245 -0.2950
 6458SOL    HW131010   0.221   4.517   5.591 -0.7377 -0.1556  1.3494
 6458SOL    HW231011   0.241   4.366   5.611 -0.4163  0.2159  1.0000
 6459SOL     OW31012   0.135   1.899   4.887 -0.4392  0.0005  0.3964
 6459SOL    HW131013   0.213   1.950   4.910 -0.1283  0.4086 -1.5351
 6459SOL    HW231014   0.129   1.930   4.796  1.0021  1.2840  0.7329
 6460SOL     OW31015   1.353   0.657   4.466 -0.0663  0.1720 -0.3987
 6460SOL    HW131016   1.377   0.652   4.374 -0.8947 -0.7482 -0.5674
 6460SOL    HW231017   1.259   0.636   4.470  0.2393 -1.1982 -0.3353
 6461SOL     OW31018   1.395   3.293   3.200  0.4389 -0.4113 -0.0875
 6461SOL    HW131019   1.340   3.338   3.137 -2.8237 -1.1096  2.2611
 6461SOL    HW231020   1.481   3.299   3.159  1.0862  0.0719  1.3224
 6462SOL     OW31021   2.616   4.488   3.467 -0.3312 -0.0262 -0.1807
 6462SOL    HW131022   2.610   4.414   3.527 -0.3849 -2.6458 -3.4251
 6462SOL    HW231023   2.528   4.524   3.460  0.0896  1.7421  3.6965
 6463SOL     OW31024   0.358   0.280   9.001  0.2324  0.0316  0.2573
 6463SOL    HW131025   0.340   0.351   8.938  0.5352 -0.5549 -0.4878
 6463SOL    HW231026   0.454   0.280   9.000  0.2179 -1.4989 -1.4636
 6464SOL     OW31027   4.381   0.748   4.656 -0.8767  0.4712  0.1302
 6464SOL    HW131028   4.289   0.757   4.680 -0.1692  0.1463  3.0016
 6464SOL    HW231029   4.415   0.806   4.724 -1.3809 -0.1427  0.9093
 6465SOL     OW31030   2.409   2.461  13.830  0.1919 -0.7239  0.4334
 6465SOL    HW131031   2.474   2.420  13.886  0.1103 -0.1666  0.9347
 6465SOL    HW231032   2.330   2.454  13.884  0.4886  0.5159  1.0125
 6466SOL     OW31033   0.890   0.680   3.984  0.1731  0.6303  0.1120
 6466SOL    HW131034   0.884   0.594   4.026 -1.0692  1.2118  1.1485
 6466SOL    HW231035   0.984   0.677   3.967  0.3110  1.0484  0.7600
 6467SOL     OW31036   3.877   3.423   7.840 -0.2907  0.3638 -0.1408
 6467SOL    HW131037   3.888   3.395   7.931 -0.4471 -2.3317 -0.9621
 6467SOL    HW231038   3.969   3.424   7.816 -0.7468  0.0876 -1.8699
 6468SOL     OW31039   2.388   4.563   5.448 -0.4338  0.4181 -0.2948
 6468SOL    HW131040   2.370   4.469   5.451  2.8778 -0.2600 -2.0089
 6468SOL    HW231041   2.417   4.576   5.539  0.7677 -0.0715 -0.6041
 6469SOL     OW31042   3.193   3.035   1.893  0.0585  0.4588 -0.0880
 6469SOL    HW131043   3.250   3.111   1.893  0.5828  0.0646  0.9615
 6469SOL    HW231044   3.186   3.007   1.985  1.8269  0.8147  0.1590
 6470SOL     OW31045   0.489   3.310  11.466  0.2501 -0.5657 -0.2598
 6470SOL    HW131046   0.477   3.402  11.490  0.5949 -0.7205  0.5036
 6470SOL    HW231047   0.430   3.302  11.391 -0.7828 -1.5181  0.6629
 6471SOL     OW31048   4.149   1.109  16.382  0.3597 -0.6085  0.1658
 6471SOL    HW131049   4.224   1.148  16.335 -0.2192 -0.0428 -0.2959
 6471SOL    HW231050   4.159   1.171  16.454 -2.1641 -0.2589  0.2210
 6472SOL     OW31051   3.578   4.581   8.122 -0.2671 -0.1895 -0.3192
 6472SOL    HW131052   3.584   4.498   8.170 -0.4076  0.5216  0.9452
 6472SOL    HW231053   3.577   4.571   8.027  1.9855  1.7009 -0.5524
 6473SOL     OW31054   3.039   3.308   2.267 -0.4204  0.2608  0.1269
 6473SOL    HW131055   3.124   3.320   2.226  0.1774 -0.7544  1.0485
 6473SOL    HW231056   3.066   3.238   2.326 -1.9254  0.2584  0.8287
 6474SOL     OW31057   0.461   3.564   8.494  0.3334 -0.3633 -0.1211
 6474SOL    HW131058   0.507   3.620   8.555 -0.9079  1.2414 -0.6601
 6474SOL    HW231059   0.469   3.483   8.544 -3.1349 -1.5187 -1.4411
 6475SOL     OW31060   2.257   1.944   6.169 -0.1266 -0.3867 -0.1342
 6475SOL    HW131061   2.348   1.929   6.143 -0.0557 -1.4871  0.7411
 6475SOL    HW231062   2.214   1.863   6.143  0.1536 -0.5335 -0.1429
 6476SOL     OW31063   4.100   3.111   4.856 -0.2535 -0.0155  0.2376
 6476SOL    HW131064   4.042   3.047   4.816 -1.2667  0.2908  1.2476
 6476SOL    HW231065   4.039   3.181   4.878 -0.8163 -0.8134  1.2178
 6477SOL     OW31066   2.776   0.237   8.574  0.0890  0.0108  0.7827
 6477SOL    HW131067   2.777   0.147   8.542  0.8527  0.5625 -0.7506
 6477SOL    HW231068   2.698   0.277   8.537 -1.5966 -3.6009  0.5383
 6478SOL     OW31069   0.912   2.329   4.446 -0.0259  0.2677 -0.3305
 6478SOL    HW131070   0.928   2.241   4.411 -0.8723  0.4147 -1.0857
 6478SOL    HW231071   0.817   2.336   4.436  0.0269  2.2108  0.5886
 6479SOL     OW31072   3.182   0.512  12.076 -0.0890 -0.5699 -0.5026
 6479SOL    HW131073   3.271   0.508  12.111  0.1208 -1.6385 -1.1384
 6479SOL    HW231074   3.183   0.603  12.049 -0.4878 -0.5859 -0.5702
 6480SOL     OW31075   2.453   2.323   6.310  0.4619  0.5002  0.0452
 6480SOL    HW131076   2.479   2.273   6.387 -1.0889 -0.1480  0.1433
 6480SOL    HW231077   2.507   2.401   6.322 -0.5905  1.0357  1.3021
 6481SOL     OW31078   1.967   3.476   4.140  0.0888 -0.0336 -0.1389
 6481SOL    HW131079   1.933   3.432   4.218  1.6426 -0.5469  0.2333
 6481SOL    HW231080   1.950   3.567   4.163 -0.0873  0.1605 -1.0253
 6482SOL     OW31081   1.010   3.717   8.563  0.6804 -0.4505 -0.0410
 6482SOL    HW131082   0.915   3.716   8.545  0.4051  3.5699  1.1352
 6482SOL    HW231083   1.043   3.679   8.482  2.0380  2.9950 -1.1112
 6483SOL     OW31084   1.809   2.124   2.534  0.6607 -0.2338  0.4083
 6483SOL    HW131085   1.904   2.116   2.527  0.3845 -1.2632 -2.3960
 6483SOL    HW231086   1.800   2.215   2.506 -0.7746 -0.3940  0.3664
 6484SOL     OW31087   1.504   0.208  15.332  0.3263  0.3181  0.5926
 6484SOL    HW131088   1.486   0.186  15.423  1.1111  0.7477  0.8493
 6484SOL    HW231089   1.516   0.302  15.345 -0.5878  0.3234  1.3904
 6485SOL     OW31090   1.336   2.558  12.109  0.0880  0.5395 -0.1451
 6485SOL    HW131091   1.326   2.643  12.152  0.4125  0.8312 -0.6484
 6485SOL    HW231092   1.364   2.502  12.181 -1.8901  0.1483  0.3206
 6486SOL     OW31093   2.776   4.376   8.790  0.4543  0.2730  0.7261
 6486SOL    HW131094   2.782   4.466   8.758  0.5988 -0.2514 -0.7367
 6486SOL    HW231095   2.855   4.326   8.772  0.6744  1.1311 -0.6634
 6487SOL     OW31096   4.490   3.490   6.481 -0.4943 -0.7571 -0.1066
 6487SOL    HW131097   4.489   3.584   6.461  0.5414 -0.5953  0.5802
 6487SOL    HW231098   4.536   3.504   6.564  2.6292 -1.5172 -1.7169
 6488SOL     OW31099   0.814   2.699   4.336  0.0992 -0.3149 -0.7090
 6488SOL    HW131100   0.725   2.736   4.340 -0.4931 -1.6358 -1.8362
 6488SOL    HW231101   0.787   2.608   4.333  2.7663 -1.1843  1.1605
 6489SOL     OW31102   0.015   1.216   7.617 -0.0678 -0.6489 -0.0914
 6489SOL    HW131103   4.668   1.255   7.598 -1.4413 -1.3564  4.5354
 6489SOL    HW231104   0.008   1.122   7.605  2.5805 -0.7515 -0.7393
 6490SOL     OW31105   2.034   3.545   7.450  0.2903 -0.1178  0.4872
 6490SOL    HW131106   2.084   3.601   7.391 -0.8138  0.7186  0.3317
 6490SOL    HW231107   2.004   3.615   7.509  3.0392  0.0657  1.6349
 6491SOL     OW31108   3.901   4.584   4.690  0.0926  0.0997  0.1786
 6491SOL    HW131109   3.994   4.601   4.675  0.0527  1.5685  1.5779
 6491SOL    HW231110   3.875   4.677   4.687  0.9312  0.4095  2.2157
 6492SOL     OW31111   3.008   3.075   4.538  0.0850 -0.5093  0.7305
 6492SOL    HW131112   2.972   3.030   4.462 -2.1381  0.2619  1.3449
 6492SOL    HW231113   2.932   3.129   4.558 -0.4190 -0.7846 -0.4287
 6493SOL     OW31114   1.661   4.307   6.894 -0.2100 -0.5131 -0.0840
 6493SOL    HW131115   1.730   4.328   6.957 -0.3685 -1.2983  0.3600
 6493SOL    HW231116   1.599   4.372   6.927  2.4109  2.1018 -0.3740
 6494SOL     OW31117   3.906   0.475  11.482  0.1596 -0.4380 -0.3803
 6494SOL    HW131118   3.858   0.506  11.559  1.2972 -1.4134  0.7140
 6494SOL    HW231119   3.981   0.430  11.520  0.2615  0.9085  1.0315
 6495SOL     OW31120   0.041   2.924   9.123  0.0569 -0.4361  0.2922
 6495SOL    HW131121   0.015   2.939   9.213 -2.4156  0.8534 -0.6316
 6495SOL    HW231122   0.120   2.874   9.143  0.3663  0.6117  1.7049
 6496SOL     OW31123   3.433   4.283   7.057 -0.1283 -0.3521 -0.0217
 6496SOL    HW131124   3.396   4.199   7.031  2.0476 -0.5921 -2.2805
 6496SOL    HW231125   3.373   4.342   7.011 -2.3611 -0.3489  2.8373
 6497SOL     OW31126   0.723   3.302   6.186  0.0928  0.3380  0.3070
 6497SOL    HW131127   0.651   3.267   6.238  1.0379 -1.4138  0.4277
 6497SOL    HW231128   0.676   3.306   6.103 -0.1303 -1.8964  0.3282
 6498SOL     OW31129   1.903   2.271   5.308 -0.9292 -0.3912  0.3103
 6498SOL    HW131130   1.966   2.276   5.380  1.6269 -0.1369 -1.9597
 6498SOL    HW231131   1.906   2.176   5.297 -2.0575 -0.4919  0.7659
 6499SOL     OW31132   4.009   2.711   5.862 -0.6024 -0.4055 -0.3037
 6499SOL    HW131133   3.957   2.757   5.796 -2.7661 -2.0071  0.2691
 6499SOL    HW231134   4.059   2.780   5.906 -0.2378 -2.2662  2.1773
 6500SOL     OW31135   3.736   2.166   3.511 -0.6895  0.0924  0.3219
 6500SOL    HW131136   3.736   2.178   3.606  1.6941 -0.4244  0.3815
 6500SOL    HW231137   3.797   2.092   3.503 -1.8297 -0.5957 -1.8927
 6501SOL     OW31138   3.743   2.780   6.666 -0.5458 -0.4081 -0.2156
 6501SOL    HW131139   3.797   2.848   6.706  0.3903 -1.2658 -0.0268
 6501SOL    HW231140   3.665   2.832   6.687  0.9715  1.6070  0.4598
 6502SOL     OW31141   0.297   3.997   6.563  0.2216  0.2413 -0.1426
 6502SOL    HW131142   0.205   3.973   6.566  0.2331  0.2162  0.0531
 6502SOL    HW231143   0.328   3.941   6.634  1.4880  0.0264 -0.8624
 6503SOL     OW31144   2.422   0.550   2.968 -0.1257  0.0490 -0.2596
 6503SOL    HW131145   2.507   0.509   2.981 -0.1746  0.3302  0.9618
 6503SOL    HW231146   2.443   0.639   2.996  0.4879 -0.9012  2.2742
 6504SOL     OW31147   3.379   2.492   3.230 -0.1180 -0.4660 -0.0227
 6504SOL    HW131148   3.369   2.449   3.315 -0.2811 -1.1278 -0.3769
 6504SOL    HW231149   3.379   2.420   3.167 -0.9324 -0.3278 -0.1763
 6505SOL     OW31150   3.970   1.659  11.001  0.2901  0.0174  0.5247
 6505SOL    HW131151   3.942   1.707  11.079 -2.9478  1.4613 -1.5094
 6505SOL    HW231152   4.028   1.718  10.953 -1.2630  0.4702 -0.7872
 6506SOL     OW31153   3.665   1.004   4.630  0.8286 -0.3507 -0.1850
 6506SOL    HW131154   3.665   1.068   4.700  1.9009  0.7217 -1.1693
 6506SOL    HW231155   3.751   1.024   4.592  1.6853  0.5992  2.3046
 6507SOL     OW31156   1.471   0.306  11.634 -0.0197  0.2085 -0.3038
 6507SOL    HW131157   1.511   0.266  11.711 -0.3702 -0.1886 -0.3310
 6507SOL    HW231158   1.411   0.362  11.683 -1.1113 -0.6409 -0.6830
 6508SOL     OW31159   3.341   4.737  11.101 -0.2111 -0.0954 -0.3024
 6508SOL    HW131160   3.414   0.061  11.103  0.2553 -0.7283  1.9259
 6508SOL    HW231161   3.330   4.709  11.010 -1.6079  1.6757 -0.6908
 6509SOL     OW31162   4.357   1.423  16.087  0.1604  0.5486  0.0706
 6509SOL    HW131163   4.366   1.395  15.996 -0.8893 -0.7081  0.3588
 6509SOL    HW231164   4.262   1.432  16.090  0.0146 -2.0097  3.0569
 6510SOL     OW31165   2.538   3.701   8.375 -0.2720 -0.1890 -0.7436
 6510SOL    HW131166   2.556   3.746   8.293 -0.8204  1.6323  0.1374
 6510SOL    HW231167   2.504   3.772   8.430 -1.7912 -2.2273  0.9462
 6511SOL     OW31168   0.618   1.806   3.394 -0.2325 -0.1242 -0.1980
 6511SOL    HW131169   0.603   1.753   3.473  3.0399  0.2646  0.6927
 6511SOL    HW231170   0.712   1.820   3.399 -0.0357 -1.2475 -0.7462
 6512SOL     OW31171   4.579   0.672   3.765  0.6642 -1.3755  0.4084
 6512SOL    HW131172   4.628   0.610   3.711 -0.9684 -1.5034 -0.9222
 6512SOL    HW231173   4.565   0.621   3.845 -0.9516 -1.5851 -0.0049
 6513SOL     OW31174   0.352   0.174   6.364 -0.2242  0.0522 -0.2325
 6513SOL    HW131175   0.324   0.151   6.453  0.2552  2.1525  0.4448
 6513SOL    HW231176   0.374   0.264   6.385 -2.5673  0.5602 -0.0204
 6514SOL     OW31177   0.957   0.525  15.906 -0.5172  0.2987 -0.3294
 6514SOL    HW131178   0.978   0.431  15.900 -1.1646  0.0995  0.5521
 6514SOL    HW231179   1.028   0.563  15.854 -1.6182  1.0884 -1.2342
 6515SOL     OW31180   0.536   3.195   5.654 -0.2273 -0.1155  0.3035
 6515SOL    HW131181   0.599   3.171   5.585  0.0188  0.0027  0.4880
 6515SOL    HW231182   0.501   3.110   5.681  1.3029 -0.3228  1.6405
 6516SOL     OW31183   4.242   0.319   3.967 -0.0609 -0.2112  0.0893
 6516SOL    HW131184   4.199   0.378   3.905 -1.1014 -0.6205  0.4269
 6516SOL    HW231185   4.225   0.367   4.048 -2.0722  0.5850 -0.8081
 6517SOL     OW31186   2.578   2.956   3.745 -0.5798  0.0625  0.2487
 6517SOL    HW131187   2.547   2.943   3.834  1.7356  0.6865  1.1392
 6517SOL    HW231188   2.592   3.050   3.743 -2.0531  0.2676 -0.5609
 6518SOL     OW31189   2.006   1.993   3.658  0.1648 -0.7850 -0.0672
 6518SOL    HW131190   1.934   2.049   3.629  0.9744  1.0408  1.5184
 6518SOL    HW231191   1.964   1.913   3.689 -1.4681 -0.1557 -0.6722
 6519SOL     OW31192   4.275   1.370   4.249  0.1035 -0.1869  0.3935
 6519SOL    HW131193   4.281   1.318   4.330  0.3716 -1.5691 -0.5093
 6519SOL    HW231194   4.179   1.376   4.254  0.0665  1.3454 -2.2059
 6520SOL     OW31195   2.947   1.811   9.014 -0.0339  0.7227 -0.0037
 6520SOL    HW131196   2.902   1.788   9.096 -0.2720 -0.1633 -0.3893
 6520SOL    HW231197   2.875   1.848   8.962 -0.1589  0.4329 -0.0335
 6521SOL     OW31198   4.687   0.066  15.402 -0.2497 -0.0478 -0.1434
 6521SOL    HW131199   0.041   0.067  15.377 -0.0582  3.2282  0.7266
 6521SOL    HW231200   4.694   4.737  15.469  1.1159 -0.2391 -0.4801
 6522SOL     OW31201   4.042   4.603   4.408 -0.1326 -0.0477 -0.4760
 6522SOL    HW131202   4.024   4.692   4.378 -2.7496 -0.5642 -0.4787
 6522SOL    HW231203   3.959   4.564   4.380 -1.2098  1.1085  1.0456
 6523SOL     OW31204   2.802   1.560   6.398 -0.2325 -0.2440  0.0085
 6523SOL    HW131205   2.767   1.601   6.477 -0.1129 -1.2599  0.5997
 6523SOL    HW231206   2.894   1.584   6.406  0.6925 -3.0527 -1.9758
 6524SOL     OW31207   3.994   0.010   1.802 -0.1788 -0.0882  0.7736
 6524SOL    HW131208   3.948   0.080   1.756 -0.4304  0.3461  1.6921
 6524SOL    HW231209   4.056   4.716   1.737 -0.6172  0.3887  0.1203
 6525SOL     OW31210   1.832   2.227  11.062 -0.5654 -0.4362  0.6618
 6525SOL    HW131211   1.871   2.250  10.978 -1.5574 -0.8187  0.0924
 6525SOL    HW231212   1.804   2.313  11.092  0.9112  0.6691 -1.1365
 6526SOL     OW31213   2.214   0.110   0.594  0.4277 -0.1783  0.5247
 6526SOL    HW131214   2.154   0.104   0.519  1.3555 -1.1045 -0.1515
 6526SOL    HW231215   2.201   0.022   0.630  2.4756  0.1383  2.0183
 6527SOL     OW31216   4.049   0.884   6.993 -0.0970 -0.1006 -0.4390
 6527SOL    HW131217   3.992   0.952   6.957  0.7421  0.0603 -1.4412
 6527SOL    HW231218   4.022   0.812   6.936  0.3718 -0.3835 -0.3019
 6528SOL     OW31219   1.609   1.380   5.168  0.2411  0.3826 -0.3074
 6528SOL    HW131220   1.648   1.467   5.173 -1.7819  1.2597  0.1456
 6528SOL    HW231221   1.609   1.349   5.258  0.0735 -0.6096 -0.6446
 6529SOL     OW31222   0.178   2.047  13.618  0.4036 -0.1092 -0.3364
 6529SOL    HW131223   0.105   1.988  13.635  0.2566  0.6754  1.7509
 6529SOL    HW231224   0.136   2.112  13.562  0.9443  0.6472  0.1344
 6530SOL     OW31225   0.284   2.092   7.699 -0.1853 -0.1397 -0.0441
 6530SOL    HW131226   0.255   2.033   7.630 -0.7403 -1.1309  1.0342
 6530SOL    HW231227   0.207   2.148   7.695  0.0450  0.0218 -2.1564
 6531SOL     OW31228   1.981   1.068  16.428  0.0814  0.2255 -0.0616
 6531SOL    HW131229   2.072   1.087  16.405  1.1403  0.1548  4.0848
 6531SOL    HW231230   1.977   1.077  16.523 -0.0439  2.3076 -0.2525
 6532SOL     OW31231   3.897   0.836   2.782  0.7395 -1.0991 -0.3602
 6532SOL    HW131232   3.978   0.804   2.743  0.9689  1.9039 -2.3198
 6532SOL    HW231233   3.932   0.913   2.828 -1.6426 -0.0407 -0.3304
 6533SOL     OW31234   0.203   2.921   5.882 -0.0831 -0.3287  0.5393
 6533SOL    HW131235   0.152   3.001   5.888 -0.6723 -0.4475 -2.7892
 6533SOL    HW231236   0.142   2.860   5.840  1.4913 -0.7924 -1.1013
 6534SOL     OW31237   0.510   1.113  16.814  0.4182  0.1912  0.7587
 6534SOL    HW131238   0.544   1.054  16.882 -0.6947 -0.5424  0.6641
 6534SOL    HW231239   0.452   1.047  16.777 -0.8906  0.7764  1.7810
 6535SOL     OW31240   2.287   1.568  13.028  0.2219 -0.2850  0.6787
 6535SOL    HW131241   2.246   1.513  13.096 -1.5048  0.0888 -0.0494
 6535SOL    HW231242   2.310   1.650  13.072 -0.7358 -1.2126  2.9273
 6536SOL     OW31243   0.355   0.240   3.384 -0.0772  0.0854  0.1520
 6536SOL    HW131244   0.367   0.166   3.443  0.8075 -0.3094 -0.5201
 6536SOL    HW231245   0.435   0.291   3.390  0.2401 -0.3304 -0.5827
 6537SOL     OW31246   3.711   4.528   5.182 -0.6167 -0.2508  0.4198
 6537SOL    HW131247   3.775   4.457   5.181  0.5029  0.7303  2.1314
 6537SOL    HW231248   3.641   4.485   5.231 -1.9067  0.5056 -0.7539
 6538SOL     OW31249   2.204   0.047   6.027 -0.1442 -0.1256 -0.4804
 6538SOL    HW131250   2.118   0.012   6.052 -0.6023  1.7673  0.5480
 6538SOL    HW231251   2.223   0.108   6.098 -2.7321 -1.2909  1.2197
 6539SOL     OW31252   3.352   0.716  16.804  0.5331  0.1197 -0.1122
 6539SOL    HW131253   3.398   0.783  16.855  0.8483 -0.3331  0.2024
 6539SOL    HW231254   3.384   0.719  16.714 -1.9537  0.0357 -0.9844
 6540SOL     OW31255   1.286   3.381   7.406 -0.1557  0.0453  0.5116
 6540SOL    HW131256   1.284   3.367   7.311 -0.0196 -0.3684  0.5691
 6540SOL    HW231257   1.374   3.417   7.412 -1.0240  1.9648  1.3776
 6541SOL     OW31258   3.089   2.921   3.592  0.4711  0.3919 -0.0813
 6541SOL    HW131259   3.170   2.947   3.548  2.2789 -0.9505  2.4718
 6541SOL    HW231260   3.116   2.837   3.631  0.4708 -1.3404 -3.8255
 6542SOL     OW31261   2.853   1.360   6.230 -0.0804 -0.2573 -0.1289
 6542SOL    HW131262   2.790   1.365   6.158  0.2724  0.1379 -0.4065
 6542SOL    HW231263   2.815   1.408   6.303  1.1177 -0.7166  0.7853
 6543SOL     OW31264   2.637   4.290   4.837 -0.5473 -0.1659 -0.1111
 6543SOL    HW131265   2.729   4.299   4.862 -0.6710 -0.3443  0.4166
 6543SOL    HW231266   2.593   4.309   4.920  0.6382 -0.6832  0.6357
 6544SOL     OW31267   3.266   3.876   7.610 -0.0659 -0.0568  0.5666
 6544SOL    HW131268   3.271   3.908   7.519  2.4813 -0.2483  0.6447
 6544SOL    HW231269   3.176   3.842   7.612  0.1252 -0.4732  1.7617
 6545SOL     OW31270   0.066   4.324   0.524  0.4093  0.3353 -0.1758
 6545SOL    HW131271   4.731   4.331   0.462  1.5530  0.6587 -1.4867
 6545SOL    HW231272   0.141   4.324   0.465  1.2567  1.5334  0.8708
 6546SOL     OW31273   0.105   2.966   8.090 -0.9815  0.3106 -0.3586
 6546SOL    HW131274   0.087   3.011   8.007  1.9012 -0.2103 -1.2601
 6546SOL    HW231275   0.034   2.907   8.114 -0.9222  0.7663  0.8914
 6547SOL     OW31276   1.976   0.875   0.022  0.2936 -0.2745 -0.0545
 6547SOL    HW131277   2.064   0.863  17.737  0.9059 -0.6599  1.6219
 6547SOL    HW231278   1.979   0.833   0.108 -0.1900 -1.2435 -0.5083
 6548SOL     OW31279   3.279   1.017  17.595  0.0491  0.1569 -0.6186
 6548SOL    HW131280   3.373   1.032  17.604  0.0877 -0.0025 -0.7580
 6548SOL    HW231281   3.245   1.070  17.667 -0.9899 -1.1379 -0.1591
 6549SOL     OW31282   1.733   4.121   0.051 -0.0706  0.3260  0.1357
 6549SOL    HW131283   1.653   4.118   0.103  0.8693 -2.2127  1.4424
 6549SOL    HW231284   1.796   4.063   0.093 -2.0489  0.5483  3.3550
 6550SOL     OW31285   1.227   0.384  14.132 -0.1099 -0.2707 -0.2251
 6550SOL    HW131286   1.280   0.304  14.132  1.4726  0.7876 -0.8724
 6550SOL    HW231287   1.288   0.443  14.089 -0.0698  0.1884  0.4782
 6551SOL     OW31288   3.707   3.210  14.107 -0.2023  0.1417 -0.3984
 6551SOL    HW131289   3.639   3.151  14.076 -0.2770 -0.4851  0.9537
 6551SOL    HW231290   3.759   3.228  14.029 -1.7725  1.0123 -1.2565
 6552SOL     OW31291   0.984   2.567   5.669 -0.7690 -0.5269 -0.0051
 6552SOL    HW131292   0.996   2.576   5.575 -1.0421 -1.8164 -0.1585
 6552SOL    HW231293   0.951   2.654   5.691  1.2798 -0.1793  1.7455
 6553SOL     OW31294   3.755   0.822  13.678 -0.3516  0.5415  0.7480
 6553SOL    HW131295   3.822   0.821  13.610 -1.4701  2.1365 -0.3568
 6553SOL    HW231296   3.694   0.888  13.646 -0.9219  0.5295  1.7954
 6554SOL     OW31297   2.812   2.897   5.917 -0.6054  0.4221 -0.5971
 6554SOL    HW131298   2.865   2.841   5.974 -0.7062  1.7125  0.7354
 6554SOL    HW231299   2.876   2.931   5.855  1.9578  0.9812  2.3887
 6555SOL     OW31300   4.717   2.309   2.459 -1.2523  0.4458 -0.1143
 6555SOL    HW131301   0.043   2.287   2.526 -0.0907  0.3856 -1.2411
 6555SOL    HW231302   0.007   2.253   2.387 -0.7871  1.7344 -0.9176
 6556SOL     OW31303   1.518   1.393  12.564 -0.4850 -0.7357  0.0719
 6556SOL    HW131304   1.612   1.410  12.551 -0.5376 -0.6325 -0.1853
 6556SOL    HW231305   1.484   1.383  12.475  3.2285  1.9911 -1.6736
 6557SOL     OW31306   2.661   3.006   8.913  0.4198 -0.4837  0.4753
 6557SOL    HW131307   2.712   2.994   8.833  0.9902  0.1212  0.7483
 6557SOL    HW231308   2.594   3.067   8.884 -0.7059 -1.4337  1.0717
 6558SOL     OW31309   2.126   3.188  12.624  0.2598  0.7491 -0.3284
 6558SOL    HW131310   2.084   3.110  12.588  1.1006 -0.1378  0.6019
 6558SOL    HW231311   2.190   3.153  12.686 -2.2616  1.4855  2.7293
 6559SOL     OW31312   0.196   0.679   0.991  0.0779  0.6307  0.2942
 6559SOL    HW131313   0.110   0.705   1.023  0.0225 -0.3269  0.9489
 6559SOL    HW231314   0.193   0.585   1.009 -1.6069 -0.2026 -4.4174
 6560SOL     OW31315   3.589   0.245   9.832 -0.3071  0.0772  0.4056
 6560SOL    HW131316   3.559   0.268   9.920  2.3636  1.2403  1.0190
 6560SOL    HW231317   3.580   0.150   9.835  1.2898 -0.0866  0.1020
 6561SOL     OW31318   3.673   2.203   8.146  0.2340 -0.1337 -0.1309
 6561SOL    HW131319   3.759   2.166   8.126 -0.4150 -1.3530 -0.6512
 6561SOL    HW231320   3.643   2.256   8.072  2.0878  0.4162 -0.4934
 6562SOL     OW31321   0.826   2.906   6.154 -0.1874 -0.1272  0.1907
 6562SOL    HW131322   0.734   2.927   6.169 -0.3712 -0.1416 -0.9101
 6562SOL    HW231323   0.866   2.916   6.241  2.7390 -0.0184 -1.1819
 6563SOL     OW31324   3.980   1.208   0.230 -0.0008  0.7604  0.2105
 6563SOL    HW131325   4.068   1.223   0.197  0.0184  1.1568  0.4445
 6563SOL    HW231326   3.940   1.174   0.150 -0.3875  1.3712  0.1451
 6564SOL     OW31327   1.176   3.952   8.661  0.4655 -0.2572  0.5441
 6564SOL    HW131328   1.106   3.964   8.725 -1.5508 -1.6213 -1.3810
 6564SOL    HW231329   1.134   3.876   8.620 -0.4977  0.5393  0.0375
 6565SOL     OW31330   3.469   3.920  14.766 -0.4713  0.0203  0.3018
 6565SOL    HW131331   3.508   3.841  14.728 -0.5892 -0.1987  0.6304
 6565SOL    HW231332   3.487   3.914  14.860  0.6264  0.6091  0.1253
 6566SOL     OW31333   1.672   0.496   7.438 -0.2322  0.4174 -0.0502
 6566SOL    HW131334   1.689   0.403   7.428  0.2300  0.3574  1.2620
 6566SOL    HW231335   1.753   0.530   7.476  0.1036  0.0898 -0.4791
 6567SOL     OW31336   1.785   0.223   5.122  0.0865  0.2392 -0.1014
 6567SOL    HW131337   1.819   0.153   5.178  3.3646  0.9152 -1.2221
 6567SOL    HW231338   1.795   0.179   5.038 -0.1945 -0.8054  0.4088
 6568SOL     OW31339   2.184   0.813  10.607  0.0028 -1.1173 -0.2748
 6568SOL    HW131340   2.094   0.830  10.637  0.5121  0.5916  0.3039
 6568SOL    HW231341   2.188   0.849  10.518  3.3691 -1.9392 -0.4324
 6569SOL     OW31342   0.383   2.078   5.004  0.2854  0.1179 -0.0510
 6569SOL    HW131343   0.445   2.125   5.060 -0.5272  1.3719 -0.1862
 6569SOL    HW231344   0.436   2.052   4.928 -2.1044 -3.9284 -0.2960
 6570SOL     OW31345   0.808   0.460   0.180  0.3444  0.0260 -0.2078
 6570SOL    HW131346   0.746   0.527   0.151  1.2662  0.7470 -0.5244
 6570SOL    HW231347   0.896   0.494   0.168 -0.1372  2.2372  2.3889
 6571SOL     OW31348   0.618   1.451   5.972  0.1569 -0.5574  0.0522
 6571SOL    HW131349   0.558   1.432   6.045  2.0106  1.5158  2.0959
 6571SOL    HW231350   0.555   1.441   5.900  0.0747 -2.6383  0.3995
 6572SOL     OW31351   3.220   4.614   2.971 -0.1888  0.8340 -0.2427
 6572SOL    HW131352   3.315   4.616   2.960  0.0476  0.8310  1.8987
 6572SOL    HW231353   3.192   4.537   2.921  2.2110 -0.2562  0.0700
 6573SOL     OW31354   3.337   3.734  10.472  0.0097  0.3621 -0.1049
 6573SOL    HW131355   3.271   3.767  10.532 -0.8304 -2.7026  0.6726
 6573SOL    HW231356   3.389   3.674  10.525 -0.7026  1.2206  1.5509
 6574SOL     OW31357   3.175   0.537   4.308 -0.1371 -0.2641 -0.2004
 6574SOL    HW131358   3.120   0.615   4.304 -1.5082 -1.0522  3.0006
 6574SOL    HW231359   3.248   0.573   4.358 -0.9158  0.3360  0.5203
 6575SOL     OW31360   0.442   0.176  14.641  0.5956  0.4884  0.5560
 6575SOL    HW131361   0.410   0.226  14.566  1.5233 -0.3847 -0.4283
 6575SOL    HW231362   0.435   0.248  14.704 -1.3812 -1.6207  2.7552
 6576SOL     OW31363   3.321   1.352   1.954  0.5087  0.2089 -0.4041
 6576SOL    HW131364   3.320   1.257   1.941 -1.2930  0.3388 -1.2744
 6576SOL    HW231365   3.312   1.355   2.049  0.8443 -2.4944 -0.2853
 6577SOL     OW31366   3.583   4.033   8.384 -0.1067  0.2914 -0.4381
 6577SOL    HW131367   3.560   3.956   8.437  0.5266  0.1229 -0.4079
 6577SOL    HW231368   3.661   4.003   8.337 -0.5714  1.6314 -2.0320
 6578SOL     OW31369   2.121   4.691   7.229  0.2380 -0.2792 -0.3011
 6578SOL    HW131370   2.037   4.687   7.275  1.4443 -1.9165  1.7444
 6578SOL    HW231371   2.117   4.612   7.175  0.8651 -0.1611 -0.5208
 6579SOL     OW31372   0.059   3.310   4.823  0.3969  0.6843  0.4170
 6579SOL    HW131373   0.116   3.323   4.747  1.1567 -0.7950  0.7285
 6579SOL    HW231374   0.076   3.217   4.839  1.4692  0.8691  0.3670
 6580SOL     OW31375   2.785   3.863   4.451  0.4851 -0.1743  0.5623
 6580SOL    HW131376   2.710   3.806   4.471 -0.0462 -0.4987 -2.4076
 6580SOL    HW231377   2.763   3.947   4.491 -0.6375  0.8847 -2.2927
 6581SOL     OW31378   3.266   0.781   3.637  0.3696  0.5288  0.2598
 6581SOL    HW131379   3.246   0.846   3.570 -1.1129  0.6097  0.7860
 6581SOL    HW231380   3.305   0.842   3.699 -0.3244 -2.4710  3.6200
 6582SOL     OW31381   0.158   2.082   1.928  0.7756  0.1531 -0.7635
 6582SOL    HW131382   0.171   2.090   1.833  1.1990 -0.5102 -0.7645
 6582SOL    HW231383   0.229   2.136   1.964  0.2501  1.4894 -1.7650
 6583SOL     OW31384   0.082   2.778   9.430  0.1058  0.1455  0.5680
 6583SOL    HW131385   0.104   2.724   9.354 -1.0237  1.2479 -0.5294
 6583SOL    HW231386   0.137   2.853   9.408  1.5986 -1.3401 -0.7611
 6584SOL     OW31387   1.954   0.946   9.110 -0.3112  0.7245  0.7208
 6584SOL    HW131388   1.975   0.899   9.191  0.3503 -0.8103 -0.3441
 6584SOL    HW231389   2.043   0.974   9.087 -1.2373  2.3789 -0.8988
 6585SOL     OW31390   1.821   0.770   6.618  0.1860  0.1438  0.4729
 6585SOL    HW131391   1.913   0.758   6.596 -0.2865 -1.7221 -0.4501
 6585SOL    HW231392   1.814   0.716   6.697  0.7415 -1.1861 -0.4002
 6586SOL     OW31393   0.114   0.856   6.366  0.5218 -0.6337  0.2615
 6586SOL    HW131394   0.047   0.810   6.316  0.3826  2.1286 -2.0710
 6586SOL    HW231395   0.142   0.916   6.297  0.7554 -1.5945 -0.4818
 6587SOL     OW31396   1.938   3.005  12.213 -0.7941  0.2933 -0.0031
 6587SOL    HW131397   1.941   2.932  12.152  0.9505 -1.4945  2.1962
 6587SOL    HW231398   2.006   3.064  12.179 -1.7240  1.9144  0.9380
 6588SOL     OW31399   0.631   0.176   5.958  0.0487 -0.2102 -0.1020
 6588SOL    HW131400   0.677   0.258   5.937  1.2242 -0.6374  0.7724
 6588SOL    HW231401   0.626   0.199   6.051 -0.1632 -0.2311 -0.1080
 6589SOL     OW31402   1.109   4.039   6.806 -0.6011 -0.2989  0.0393
 6589SOL    HW131403   1.182   3.987   6.842 -3.0821 -2.7920  1.4790
 6589SOL    HW231404   1.133   4.124   6.843 -2.3393  0.0901  0.2637
 6590SOL     OW31405   0.325   3.302  13.607  0.5824  0.1666 -0.0708
 6590SOL    HW131406   0.373   3.280  13.527 -0.8223  1.5208 -1.2717
 6590SOL    HW231407   0.275   3.376  13.573 -0.2737 -0.7809 -0.8654
 6591SOL     OW31408   3.713   2.725   5.021  0.2242  0.3770  0.2596
 6591SOL    HW131409   3.676   2.813   5.016 -0.9487 -0.0479  1.5899
 6591SOL    HW231410   3.688   2.697   5.109  0.9315 -0.0434  0.3260
 6592SOL     OW31411   4.322   4.661   8.604 -0.1557 -0.0914  0.4005
 6592SOL    HW131412   4.323   4.572   8.569  2.3842  0.4188 -0.8437
 6592SOL    HW231413   4.344   4.719   8.532 -0.1044 -0.1742  0.3499
 6593SOL     OW31414   0.178   2.942   4.581  0.4160  0.6766 -0.2744
 6593SOL    HW131415   0.102   2.916   4.634  1.8215 -1.0112  0.9178
 6593SOL    HW231416   0.141   3.023   4.546 -3.4293 -1.1917 -0.5041
 6594SOL     OW31417   2.199   2.582   2.875  0.1448 -0.1188 -0.3237
 6594SOL    HW131418   2.199   2.584   2.779 -2.2155 -1.1922 -0.3417
 6594SOL    HW231419   2.107   2.580   2.903 -0.1693  2.5781 -1.1279
 6595SOL     OW31420   1.246   2.106  13.829  0.5452 -0.0408 -0.5561
 6595SOL    HW131421   1.312   2.168  13.799  1.9437 -0.4004  1.7925
 6595SOL    HW231422   1.294   2.068  13.902  0.0058 -0.0102 -0.1792
 6596SOL     OW31423   4.559   3.729   4.505 -0.1533 -0.1945 -0.5413
 6596SOL    HW131424   4.490   3.672   4.470 -2.3842  0.9591  1.9611
 6596SOL    HW231425   4.610   3.653   4.532  0.2073  0.0556 -0.5215
 6597SOL     OW31426   1.594   1.304  12.287 -0.2134 -0.0752  0.1810
 6597SOL    HW131427   1.689   1.302  12.300  0.0673  1.9506 -1.5560
 6597SOL    HW231428   1.586   1.358  12.208 -0.8887 -1.6704 -0.8181
 6598SOL     OW31429   0.140   0.710   8.832 -0.7127  0.5256 -0.1693
 6598SOL    HW131430   0.171   0.798   8.809 -1.4195  1.8046  3.6491
 6598SOL    HW231431   0.095   0.732   8.914 -1.2343 -0.4649 -0.1970
 6599SOL     OW31432   3.152   2.017   3.280 -0.0006 -0.7862  0.2762
 6599SOL    HW131433   3.202   2.077   3.336 -0.3481 -0.3999  0.1776
 6599SOL    HW231434   3.163   1.939   3.334 -0.2912  0.3974  2.0698
 6600SOL     OW31435   0.351   2.415   0.449  0.4109  0.2844  0.4439
 6600SOL    HW131436   0.312   2.333   0.480  1.3094  0.8632  3.0661
 6600SOL    HW231437   0.305   2.478   0.504  0.1783 -1.2305  1.9647
 6601SOL     OW31438   0.087   0.779   0.083 -0.4334  0.3524  0.3865
 6601SOL    HW131439   0.011   0.751   0.033  1.6467 -2.4436 -1.2235
 6601SOL    HW231440   0.133   0.820   0.010 -0.8688  1.3346  0.6666
 6602SOL     OW31441   1.540   2.734   4.387  0.0617 -0.1461 -0.1862
 6602SOL    HW131442   1.484   2.660   4.412 -1.9640  1.6852  0.7407
 6602SOL    HW231443   1.479   2.792   4.342 -1.3427 -3.0094 -2.0054
 6603SOL     OW31444   2.746   1.397   3.491  0.1804 -0.2175 -0.4687
 6603SOL    HW131445   2.701   1.381   3.408  0.2429 -0.3387 -0.4788
 6603SOL    HW231446   2.668   1.404   3.546 -0.1314  0.1882 -0.9658
 6604SOL     OW31447   2.106   3.748   3.236 -0.1641 -0.4163 -0.1584
 6604SOL    HW131448   2.145   3.686   3.297  0.1867 -0.3584 -0.3228
 6604SOL    HW231449   2.181   3.798   3.205 -1.3231  2.6518  2.0364
 6605SOL     OW31450   4.071   3.054   7.882  0.5849 -0.0805  0.0275
 6605SOL    HW131451   4.161   3.038   7.852  1.3420 -1.2469  2.8976
 6605SOL    HW231452   4.081   3.046   7.977  0.5141 -0.7236 -0.0241
 6606SOL     OW31453   3.965   2.769   3.191 -0.3257  0.0455  0.3908
 6606SOL    HW131454   3.949   2.860   3.216  0.6885  0.2041  0.4670
 6606SOL    HW231455   4.059   2.765   3.174 -0.8404 -0.9963 -2.1475
 6607SOL     OW31456   0.334   3.971  16.464 -0.5547 -0.0510  0.0279
 6607SOL    HW131457   0.360   3.926  16.384  2.2907 -1.0615  1.5535
 6607SOL    HW231458   0.319   3.898  16.523 -2.5244 -0.4642 -0.9495
 6608SOL     OW31459   4.682   0.259   6.612  0.5692 -0.2306  0.2969
 6608SOL    HW131460   4.719   0.280   6.526 -0.1115  0.5399  0.1970
 6608SOL    HW231461   4.687   0.350   6.640  1.7934 -0.3398  0.4489
 6609SOL     OW31462   3.696   4.582  16.091 -0.1672  0.6077 -0.1997
 6609SOL    HW131463   3.791   4.598  16.091  0.1383 -1.1829 -0.8634
 6609SOL    HW231464   3.658   4.668  16.074  0.5847  1.3743  2.0376
 6610SOL     OW31465   3.892   1.599   6.171 -0.1695  0.0215  0.2413
 6610SOL    HW131466   3.820   1.626   6.228 -0.3672 -0.3814  0.1812
 6610SOL    HW231467   3.931   1.685   6.157  0.0446  0.0291  0.8799
 6611SOL     OW31468   3.069   0.760   2.743 -0.7157 -0.0669  0.0355
 6611SOL    HW131469   3.128   0.834   2.755 -1.4244  0.8000 -1.9125
 6611SOL    HW231470   3.065   0.736   2.651 -0.1238  1.4776 -0.3915
 6612SOL     OW31471   3.482   4.085   3.550  0.2443 -0.2476 -0.0018
 6612SOL    HW131472   3.482   4.115   3.640 -0.3462 -0.2979  0.0153
 6612SOL    HW231473   3.387   4.077   3.546  0.1819  1.4626 -2.2939
 6613SOL     OW31474   2.165   0.397  12.536 -0.0924  0.3688  0.5342
 6613SOL    HW131475   2.222   0.410  12.612 -0.7278 -0.2931  1.1322
 6613SOL    HW231476   2.227   0.348  12.483 -2.0150 -1.5071  0.0249
 6614SOL     OW31477   4.313   0.775  15.918  0.4513 -0.3916  0.4078
 6614SOL    HW131478   4.252   0.746  15.851 -1.0243 -1.5311  2.2467
 6614SOL    HW231479   4.328   0.698  15.973  2.9978  0.2088  0.5756
 6615SOL     OW31480   0.531   0.298   3.068  0.0160  0.1051  0.7011
 6615SOL    HW131481   0.521   0.372   3.128 -0.8949  0.7782 -0.2962
 6615SOL    HW231482   0.548   0.227   3.130  1.9776  1.0332  1.2196
 6616SOL     OW31483   1.031   0.233  14.450  0.5253  0.4784 -0.1518
 6616SOL    HW131484   0.946   0.231  14.493  0.0192 -0.4124 -1.1645
 6616SOL    HW231485   1.013   0.300  14.384 -0.2879 -0.9947 -1.4375
 6617SOL     OW31486   2.024   0.358   2.382  0.0603  0.1643 -0.1164
 6617SOL    HW131487   2.073   0.421   2.330  1.6000  0.2045  1.3932
 6617SOL    HW231488   1.953   0.345   2.318  0.3940 -0.2221 -0.4100
 6618SOL     OW31489   2.156   3.638   4.428 -0.1533  0.1582 -0.2008
 6618SOL    HW131490   2.123   3.694   4.358 -0.1851  2.3132  1.5195
 6618SOL    HW231491   2.089   3.629   4.496 -0.1590  0.4507 -0.1645
 6619SOL     OW31492   3.856   1.115  17.738 -0.2910  0.3185  0.0044
 6619SOL    HW131493   3.814   1.201  17.741 -1.1064 -0.1168  1.0386
 6619SOL    HW231494   3.886   1.111  17.647 -0.1736  1.7186 -0.0255
 6620SOL     OW31495   0.776   1.206   1.248 -0.1017  0.0854 -0.0703
 6620SOL    HW131496   0.786   1.188   1.341 -2.7948  0.8641  0.3715
 6620SOL    HW231497   0.867   1.206   1.219 -0.1520 -1.6640 -0.1777
 6621SOL     OW31498   0.923   3.617  12.336 -0.3647  0.3822 -0.0797
 6621SOL    HW131499   0.948   3.535  12.294  0.4133  0.2412  0.6449
 6621SOL    HW231500   0.982   3.684  12.304 -1.6070  1.6572  0.2953
 6622SOL     OW31501   4.060   1.107  10.066 -0.6963 -0.4392 -0.5164
 6622SOL    HW131502   4.052   1.171   9.995  0.5024  0.6194  0.2980
 6622SOL    HW231503   3.974   1.126  10.105 -0.6250 -0.7966 -0.1879
 6623SOL     OW31504   4.707   0.079   4.752  0.1003 -0.7636  0.2688
 6623SOL    HW131505   0.012   0.165   4.752 -0.7791 -0.3238  2.6913
 6623SOL    HW231506   4.656   0.082   4.671 -0.2354  1.0018  0.5345
 6624SOL     OW31507   0.015   0.230   0.509  0.2265  0.5278  0.1226
 6624SOL    HW131508   0.087   0.287   0.481 -0.0437  0.1044 -1.4538
 6624SOL    HW231509   0.063   0.187   0.579 -0.9647 -0.9969  0.0088
 6625SOL     OW31510   3.420   1.508   6.730  0.1747 -0.0008  0.5557
 6625SOL    HW131511   3.411   1.603   6.721 -1.6195 -0.2983 -0.8103
 6625SOL    HW231512   3.373   1.498   6.813  0.4043  2.5289  0.9899
 6626SOL     OW31513   3.168   3.628   3.334 -0.2677  0.2856  0.5005
 6626SOL    HW131514   3.217   3.635   3.253 -1.3473  1.7838 -0.0327
 6626SOL    HW231515   3.078   3.615   3.305  0.3921  2.8446 -2.6559
 6627SOL     OW31516   1.490   2.297   2.243  0.8598  0.0557 -0.3663
 6627SOL    HW131517   1.523   2.214   2.278  0.2092  0.5352  1.4004
 6627SOL    HW231518   1.567   2.314   2.189  1.2575  0.7050  0.4024
 6628SOL     OW31519   0.328   1.323   1.240  0.6119  1.0191  0.7065
 6628SOL    HW131520   0.330   1.383   1.315 -0.1467  2.8835 -0.7780
 6628SOL    HW231521   0.366   1.243   1.277 -1.1282 -0.1049  0.0542
 6629SOL     OW31522   2.669   4.419  10.422 -0.1958  0.1041 -0.2467
 6629SOL    HW131523   2.742   4.472  10.388 -0.3337  1.0722  0.9480
 6629SOL    HW231524   2.596   4.481  10.425  1.1409  1.5986  1.4192
 6630SOL     OW31525   2.210   2.802   8.308 -0.2053 -0.5205 -0.1223
 6630SOL    HW131526   2.213   2.883   8.359  0.6393  0.1049 -1.1433
 6630SOL    HW231527   2.304   2.782   8.312 -0.3286 -1.0480  0.0614
 6631SOL     OW31528   0.390   2.197   3.297 -0.5059 -0.0863 -0.4695
 6631SOL    HW131529   0.448   2.124   3.273 -1.9745 -1.5474  0.3592
 6631SOL    HW231530   0.404   2.259   3.226  0.4332  1.4823  1.0985
 6632SOL     OW31531   1.392   2.055  15.871 -0.0725  0.1404 -0.7297
 6632SOL    HW131532   1.301   2.039  15.845  0.0153 -1.2999 -0.1871
 6632SOL    HW231533   1.380   2.094  15.958 -1.2817  0.1425 -0.8901
 6633SOL     OW31534   2.412   1.677   6.782 -0.4539  0.2200  0.1482
 6633SOL    HW131535   2.364   1.746   6.828  0.7858  0.1863  1.4761
 6633SOL    HW231536   2.346   1.664   6.714  0.7133  2.4284 -1.4137
 6634SOL     OW31537   3.208   2.421  16.837 -0.3214  0.3598 -0.2407
 6634SOL    HW131538   3.198   2.512  16.866 -2.5841  0.2332 -0.6463
 6634SOL    HW231539   3.115   2.404  16.828  0.1374 -1.4296 -1.5672
 6635SOL     OW31540   0.740   1.346   3.559  0.2252  0.3363 -0.4381
 6635SOL    HW131541   0.737   1.441   3.551  0.6064  0.2451 -1.6454
 6635SOL    HW231542   0.654   1.326   3.597  0.2010  1.5429  0.1328
 6636SOL     OW31543   2.480   3.775   6.743  0.6540 -0.2717  0.5132
 6636SOL    HW131544   2.448   3.822   6.666  0.7375 -0.2958  0.4647
 6636SOL    HW231545   2.566   3.746   6.713  0.1115 -0.5862 -0.7437
 6637SOL     OW31546   1.124   4.231  17.201 -0.7305 -0.4331 -0.0932
 6637SOL    HW131547   1.155   4.151  17.158  2.1186  0.7813 -0.2960
 6637SOL    HW231548   1.067   4.199  17.271  1.1470 -0.8083  1.2603
 6638SOL     OW31549   4.527   0.147  13.790  0.2790 -0.2765  0.0473
 6638SOL    HW131550   4.434   0.133  13.775 -0.1445  0.6438  1.7483
 6638SOL    HW231551   4.539   0.242  13.788  0.8923 -0.4381 -3.7102
 6639SOL     OW31552   4.063   2.136   8.474 -0.0719 -0.3321  0.4819
 6639SOL    HW131553   4.042   2.064   8.414  0.5284  0.4370 -0.6489
 6639SOL    HW231554   4.084   2.207   8.414 -0.8024 -0.5144  0.0093
 6640SOL     OW31555   3.726   3.641  17.101  0.2397 -0.5587 -0.3863
 6640SOL    HW131556   3.775   3.621  17.181 -2.4523 -1.4839  1.0309
 6640SOL    HW231557   3.793   3.676  17.042 -0.7108  0.3902 -0.8935
 6641SOL     OW31558   3.373   3.776   2.363 -0.3759  0.0752  0.3304
 6641SOL    HW131559   3.328   3.696   2.387  2.2647 -1.1854  1.1642
 6641SOL    HW231560   3.349   3.809   2.276 -1.9010  1.8311  1.4330
 6642SOL     OW31561   2.224   0.787   2.998  0.1517 -0.3728  0.1577
 6642SOL    HW131562   2.186   0.748   2.919 -2.1152 -2.2509  2.1998
 6642SOL    HW231563   2.183   0.874   2.997  1.3382  0.2001  0.8760
 6643SOL     OW31564   1.136   3.135   1.591  0.0746 -0.4347 -0.6064
 6643SOL    HW131565   1.144   3.072   1.663  2.8491  0.2892 -0.2796
 6643SOL    HW231566   1.055   3.180   1.612  0.6537  0.4212 -0.2233
 6644SOL     OW31567   0.682   1.575   1.906 -0.0917 -0.2516  0.3536
 6644SOL    HW131568   0.726   1.552   1.989 -1.7897  2.4840  1.9910
 6644SOL    HW231569   0.594   1.587   1.942 -0.9070 -1.7380 -1.1690
 6645SOL     OW31570   1.239   3.395   4.176  0.0440 -0.1458 -0.3089
 6645SOL    HW131571   1.228   3.472   4.121 -2.8241  1.4680  2.5302
 6645SOL    HW231572   1.280   3.422   4.258  0.6716  0.2024 -0.7362
 6646SOL     OW31573   4.527   3.898   4.740  0.6902 -0.1974  0.3693
 6646SOL    HW131574   4.493   3.839   4.672 -2.1271  1.6480  0.1887
 6646SOL    HW231575   4.442   3.913   4.781  0.0833 -0.5700 -0.7280
 6647SOL     OW31576   0.889   3.684  17.567  0.5916 -0.0367 -0.4614
 6647SOL    HW131577   0.938   3.686  17.485  1.0819 -0.6922 -0.1840
 6647SOL    HW231578   0.844   3.599  17.563  0.6959 -0.1443  0.4912
 6648SOL     OW31579   0.947   3.854  13.988  0.1840 -0.0815  0.1745
 6648SOL    HW131580   0.934   3.912  14.063  0.9734  0.8468 -0.4295
 6648SOL    HW231581   0.905   3.775  14.024 -0.9731  0.5768  0.2532
 6649SOL     OW31582   4.608   4.193   1.571  0.0834 -0.1646 -0.1785
 6649SOL    HW131583   4.574   4.266   1.624  0.5835  2.2846 -3.2046
 6649SOL    HW231584   4.611   4.123   1.636  1.3652 -0.0250 -0.0873
 6650SOL     OW31585   2.363   3.139   7.816  0.3614  0.2546  0.5418
 6650SOL    HW131586   2.297   3.130   7.747  0.6784  0.2532  0.2373
 6650SOL    HW231587   2.440   3.149   7.761 -0.0093 -0.2802 -0.0808
 6651SOL     OW31588   4.152   1.489  10.073  0.2323 -0.0918 -0.3882
 6651SOL    HW131589   4.092   1.496   9.999  0.0667 -1.7176 -0.3915
 6651SOL    HW231590   4.229   1.541  10.052 -0.0553  0.4083 -0.2161
 6652SOL     OW31591   2.857   1.205   0.108  0.2622 -0.0787 -0.2371
 6652SOL    HW131592   2.817   1.253   0.035  0.5857 -1.6831 -1.4665
 6652SOL    HW231593   2.940   1.177   0.069  1.7739  4.0466 -0.0035
 6653SOL     OW31594   1.858   0.655   2.782 -0.0242  0.0152 -0.5414
 6653SOL    HW131595   1.786   0.701   2.738 -0.2271  1.1389  0.9448
 6653SOL    HW231596   1.899   0.592   2.722  1.6444 -0.3894  1.0267
 6654SOL     OW31597   1.919   3.564   7.075  0.4364  0.0890 -0.2751
 6654SOL    HW131598   1.875   3.619   7.010 -2.7580 -1.8523  0.2546
 6654SOL    HW231599   1.849   3.541   7.136 -1.6349 -1.2850 -3.1382
 6655SOL     OW31600   0.515   4.486   9.179 -0.2614 -0.2639 -0.1102
 6655SOL    HW131601   0.433   4.437   9.179  0.5860 -1.6590 -4.1517
 6655SOL    HW231602   0.494   4.556   9.117  0.8446 -1.4226 -1.7947
 6656SOL     OW31603   1.442   2.345   5.929  0.5521 -0.3663 -0.4192
 6656SOL    HW131604   1.466   2.349   5.837  1.4800  0.9404 -0.1216
 6656SOL    HW231605   1.348   2.362   5.920  0.5761 -0.5694 -1.0149
 6657SOL     OW31606   3.654   0.007  11.639  0.7467  0.1328 -0.0969
 6657SOL    HW131607   3.689   4.715  11.723  2.1507  2.4272  0.1354
 6657SOL    HW231608   3.722   0.058  11.594  1.7084  0.0833  1.3137
 6658SOL     OW31609   3.104   0.147   2.781 -0.2827 -0.6150 -0.0130
 6658SOL    HW131610   3.074   0.237   2.781 -0.3477 -0.6112 -3.5124
 6658SOL    HW231611   3.187   0.158   2.828 -1.7772  3.1063  1.7145
 6659SOL     OW31612   1.788   3.974   8.689 -0.0052 -0.5526  0.1857
 6659SOL    HW131613   1.855   4.042   8.685  0.4820 -0.8800  2.8319
 6659SOL    HW231614   1.736   3.988   8.610  0.6723 -0.5706 -0.2647
 6660SOL     OW31615   1.596   1.750   7.207 -0.0326 -0.2111 -0.1854
 6660SOL    HW131616   1.606   1.741   7.301  4.0861  0.2312 -0.5715
 6660SOL    HW231617   1.580   1.658   7.185 -2.7919  0.4109 -0.7274
 6661SOL     OW31618   0.200   4.534   9.022 -0.1829  0.1254 -0.0340
 6661SOL    HW131619   0.274   4.593   9.036 -1.1039  1.3442 -0.2637
 6661SOL    HW231620   0.184   4.492   9.106 -0.5044 -0.7461 -0.5233
 6662SOL     OW31621   3.740   2.703   2.547 -0.0279  0.5056  0.2201
 6662SOL    HW131622   3.801   2.771   2.520 -1.4822  1.6416 -0.2416
 6662SOL    HW231623   3.690   2.747   2.616 -1.7391 -1.4210  0.2234
 6663SOL     OW31624   3.762   1.260   9.804 -0.0698  0.0015 -0.2217
 6663SOL    HW131625   3.684   1.220   9.841  0.1996 -2.9154 -2.8395
 6663SOL    HW231626   3.733   1.282   9.716 -3.4517 -1.7644  0.4476
 6664SOL     OW31627   3.311   2.687   1.708 -0.4199 -0.1220 -0.3173
 6664SOL    HW131628   3.361   2.733   1.776  0.3541 -0.8261 -0.4044
 6664SOL    HW231629   3.237   2.748   1.710 -0.4334 -0.1940  1.3688
 6665SOL     OW31630   0.480   4.242   6.216 -0.1750 -0.4907  0.3937
 6665SOL    HW131631   0.538   4.243   6.139 -2.0179 -1.2961 -1.0143
 6665SOL    HW231632   0.473   4.337   6.229 -1.4316 -0.6370  0.7612
 6666SOL     OW31633   1.914   2.742   9.167  0.2318 -0.1290 -0.0667
 6666SOL    HW131634   1.956   2.755   9.083  0.1282  1.4468  0.1316
 6666SOL    HW231635   1.826   2.714   9.141 -0.1617  0.9303  0.1273
 6667SOL     OW31636   3.114   4.661   5.566 -0.3610  0.1469 -0.8489
 6667SOL    HW131637   3.129   4.696   5.478 -2.3499  1.4418 -0.6633
 6667SOL    HW231638   3.023   4.681   5.589 -0.5828 -1.0614 -0.6785
 6668SOL     OW31639   4.644   3.203   4.568  0.2859 -0.4690  0.2396
 6668SOL    HW131640   4.714   3.186   4.505 -0.3405  1.2709 -0.9346
 6668SOL    HW231641   4.628   3.116   4.604  0.1717 -0.1769  0.8900
 6669SOL     OW31642   3.011   0.806   4.335  0.0739  0.9046 -0.2259
 6669SOL    HW131643   3.094   0.852   4.348  0.6098 -0.5603  1.4640
 6669SOL    HW231644   2.960   0.866   4.280  1.0714  1.6315 -0.3525
 6670SOL     OW31645   3.803   3.189   1.473  0.2671 -0.2373  0.1625
 6670SOL    HW131646   3.843   3.270   1.440  0.4921  0.4737  2.1680
 6670SOL    HW231647   3.882   3.146   1.506 -0.3357 -2.7833 -1.7803
 6671SOL     OW31648   1.778   2.901  11.223  0.2998  0.0165  0.0009
 6671SOL    HW131649   1.732   2.984  11.236  0.1460  0.0058 -0.4607
 6671SOL    HW231650   1.771   2.890  11.128  1.1211  0.4420 -0.1047
 6672SOL     OW31651   4.581   4.276   4.914 -0.0593  0.3630  0.1630
 6672SOL    HW131652   4.583   4.343   4.845 -0.0549 -0.9383 -1.0819
 6672SOL    HW231653   4.545   4.208   4.857  2.4648 -0.8937  0.0787
 6673SOL     OW31654   3.403   3.905   3.052 -0.2659  0.3328 -0.8386
 6673SOL    HW131655   3.368   3.824   3.089 -0.9102  0.5682 -0.9283
 6673SOL    HW231656   3.383   3.974   3.116 -2.5165  0.5813 -1.8055
 6674SOL     OW31657   3.012   1.984   7.188  0.3465 -0.1786 -0.0504
 6674SOL    HW131658   3.088   1.927   7.200 -0.0308  0.2941  4.2940
 6674SOL    HW231659   3.046   2.045   7.122  0.2856 -1.2528 -1.0723
 6675SOL     OW31660   3.864   1.866   4.045 -0.4207 -0.0386 -0.0052
 6675SOL    HW131661   3.908   1.908   3.971  1.3275 -1.0788  0.4545
 6675SOL    HW231662   3.859   1.936   4.110 -0.1689 -0.1632  0.1492
 6676SOL     OW31663   2.789   3.315   7.093 -0.8275  1.2218 -0.5706
 6676SOL    HW131664   2.874   3.312   7.048 -1.3228  5.0625 -1.7788
 6676SOL    HW231665   2.803   3.379   7.163 -1.1550 -0.1127  0.7010
 6677SOL     OW31666   0.847   3.586   9.398 -0.1967 -1.0516 -0.5591
 6677SOL    HW131667   0.818   3.655   9.458  0.2231 -0.4144 -1.0824
 6677SOL    HW231668   0.844   3.511   9.457  1.0319 -1.6217 -1.2268
 6678SOL     OW31669   2.853   2.543   7.226 -0.2127  0.0834  0.5152
 6678SOL    HW131670   2.870   2.630   7.190  0.6199  0.2352  1.2795
 6678SOL    HW231671   2.773   2.565   7.274 -0.4153 -0.3956  0.4010
 6679SOL     OW31672   0.689   1.206   0.911 -0.0537  0.1024  0.4731
 6679SOL    HW131673   0.603   1.180   0.878  0.7032 -0.7912 -0.7983
 6679SOL    HW231674   0.677   1.289   0.957  1.6521  0.8549 -0.4709
 6680SOL     OW31675   3.745   0.596  12.533 -0.4003 -0.5459  0.4747
 6680SOL    HW131676   3.671   0.656  12.542  1.9401  2.2770  0.7493
 6680SOL    HW231677   3.816   0.660  12.537  0.1107 -0.9946 -1.6530
 6681SOL     OW31678   3.478   3.439   2.353  0.5509  0.1532  0.8438
 6681SOL    HW131679   3.425   3.413   2.278 -0.9369 -2.4247  2.7829
 6681SOL    HW231680   3.545   3.498   2.319  0.2740  1.0598  1.8878
 6682SOL     OW31681   2.084   4.131   4.168  0.6894  0.3847 -0.1106
 6682SOL    HW131682   2.093   4.105   4.259 -0.2040  1.3544  0.2509
 6682SOL    HW231683   2.132   4.212   4.183  0.7661 -0.2259  2.7804
 6683SOL     OW31684   3.123   0.588   7.151 -0.3041 -0.9651 -0.5642
 6683SOL    HW131685   3.041   0.581   7.199 -0.2803 -0.4430 -0.4511
 6683SOL    HW231686   3.102   0.648   7.079  0.8366 -0.5256 -0.5380
 6684SOL     OW31687   4.589   4.435  10.139  0.0146 -0.4694  0.1015
 6684SOL    HW131688   4.646   4.386  10.079  0.6436 -0.3832  0.6246
 6684SOL    HW231689   4.508   4.447  10.090 -0.7195 -0.8422  1.2522
 6685SOL     OW31690   2.229   1.503  15.352  0.5584 -0.5901 -0.1989
 6685SOL    HW131691   2.298   1.568  15.362 -0.8349  0.8924 -0.2032
 6685SOL    HW231692   2.228   1.506  15.257  0.3678  1.4609 -0.1246
 6686SOL     OW31693   0.366   2.265   3.965 -0.1657  0.0440  0.5470
 6686SOL    HW131694   0.456   2.265   3.931 -0.9394  1.4837 -1.4954
 6686SOL    HW231695   0.321   2.280   3.882  0.6530 -2.1281 -0.2832
 6687SOL     OW31696   1.783   3.765   7.799  0.1354  0.0410  0.3936
 6687SOL    HW131697   1.793   3.675   7.831  2.9275  0.3623  0.4458
 6687SOL    HW231698   1.857   3.769   7.738 -0.2446 -0.8459 -0.1301
 6688SOL     OW31699   1.775   0.449  16.139  0.0455 -0.0519  0.3563
 6688SOL    HW131700   1.846   0.392  16.108 -0.0531  0.0616 -0.0682
 6688SOL    HW231701   1.697   0.412  16.098  0.0257  1.2915 -0.8111
 6689SOL     OW31702   0.066   4.141   2.087  0.5188  0.4180  0.2121
 6689SOL    HW131703   0.113   4.119   2.006  0.6239 -2.4792  1.0598
 6689SOL    HW231704   0.075   4.063   2.142  1.5754  1.4282  1.4826
 6690SOL     OW31705   2.364   4.701   2.173  0.1524 -0.1736  0.0221
 6690SOL    HW131706   2.372   4.688   2.079  0.1095 -0.5338  0.0648
 6690SOL    HW231707   2.339   0.055   2.178  3.0750  0.6784 -1.2715
 6691SOL     OW31708   3.137   0.718  13.426 -0.0932  0.3867  0.2808
 6691SOL    HW131709   3.166   0.763  13.347 -0.4742 -0.8790 -0.5807
 6691SOL    HW231710   3.198   0.758  13.487  1.0471 -0.4443 -0.3236
 6692SOL     OW31711   0.509   2.323   5.637 -0.6896 -0.1696 -0.1194
 6692SOL    HW131712   0.520   2.228   5.635  2.3629  0.2008 -0.9327
 6692SOL    HW231713   0.431   2.332   5.691 -0.2624 -0.7143  0.5943
 6693SOL     OW31714   0.402   1.809   2.916 -0.6496  0.1961  0.2080
 6693SOL    HW131715   0.473   1.871   2.901 -0.0571 -1.0255 -2.1134
 6693SOL    HW231716   0.442   1.749   2.979  2.0388  1.3217 -0.4514
 6694SOL     OW31717   3.693   3.593   1.395  0.4078 -0.1572 -0.5643
 6694SOL    HW131718   3.772   3.626   1.439  0.7405 -2.2024  0.3917
 6694SOL    HW231719   3.628   3.663   1.406 -1.0108 -1.8360  1.7342
 6695SOL     OW31720   0.285   0.058  12.854  0.1951  0.4514  0.0684
 6695SOL    HW131721   0.211   0.001  12.875 -1.1687  0.9315 -3.3348
 6695SOL    HW231722   0.236   0.138  12.839  0.0385 -0.2186 -2.9993
 6696SOL     OW31723   0.762   1.617   6.764 -0.1765  0.2865  0.2617
 6696SOL    HW131724   0.698   1.622   6.835  1.2371 -1.3548  1.6775
 6696SOL    HW231725   0.797   1.705   6.780  1.6239 -0.0074 -2.0655
 6697SOL     OW31726   1.584   0.778  17.585  0.2918  0.1077 -0.1372
 6697SOL    HW131727   1.582   0.853  17.645 -3.9647 -1.7610  1.9986
 6697SOL    HW231728   1.672   0.788  17.548  0.1535 -1.7054 -0.9392
 6698SOL     OW31729   0.764   2.031   9.611 -0.1320  0.3066 -0.1525
 6698SOL    HW131730   0.859   2.031   9.600 -0.1439  3.2770 -0.3552
 6698SOL    HW231731   0.749   2.111   9.560 -1.5699 -0.2999 -0.7022
 6699SOL     OW31732   4.714   2.974   6.169  0.5683  0.1311 -0.5608
 6699SOL    HW131733   4.691   3.056   6.212 -1.2239 -0.1915 -0.8883
 6699SOL    HW231734   4.714   2.907   6.237 -0.2434  0.0122 -0.6766
 6700SOL     OW31735   1.911   1.800   7.728 -0.4552  0.3661  0.9442
 6700SOL    HW131736   2.003   1.775   7.736 -0.1809  0.2735 -2.3831
 6700SOL    HW231737   1.866   1.717   7.746  0.4326 -0.7118 -1.6512
 6701SOL     OW31738   1.982   4.645   6.949 -0.2222 -0.0040 -0.0905
 6701SOL    HW131739   2.048   4.581   6.922 -1.0909 -0.2708 -1.5632
 6701SOL    HW231740   2.033   4.726   6.961  0.6275 -0.6038  0.3484
 6702SOL     OW31741   1.694   1.889   7.521  0.3912  0.1782 -0.4663
 6702SOL    HW131742   1.615   1.916   7.568  1.6602  1.0620  1.1539
 6702SOL    HW231743   1.699   1.798   7.552 -1.4415  0.1991 -0.1011
 6703SOL     OW31744   0.323   3.343   7.078  0.5577  0.4792 -0.2405
 6703SOL    HW131745   0.251   3.337   7.141 -0.0268  0.6412 -0.8896
 6703SOL    HW231746   0.379   3.404   7.125  0.3512 -0.6310  1.4418
 6704SOL     OW31747   4.406   4.616  10.336  0.4261  0.0437 -0.1574
 6704SOL    HW131748   4.465   4.596  10.263 -0.1998 -0.2588 -0.5925
 6704SOL    HW231749   4.343   4.545  10.322  1.9996 -1.7271  1.6688
 6705SOL     OW31750   0.795   2.053   1.112  0.4230  0.4184  0.0873
 6705SOL    HW131751   0.760   2.131   1.070 -0.6404  0.0186  0.2271
 6705SOL    HW231752   0.812   2.096   1.196 -1.8356 -1.3917  1.4821
 6706SOL     OW31753   1.120   1.205   6.684  0.3960 -0.1587  0.3852
 6706SOL    HW131754   1.071   1.126   6.707  1.4947 -0.7158  0.7978
 6706SOL    HW231755   1.058   1.278   6.690 -0.8299 -1.1811  0.0633
 6707SOL     OW31756   0.605   2.089   8.180  0.2630 -0.8278 -0.0256
 6707SOL    HW131757   0.528   2.086   8.237 -0.3020 -0.2066 -0.7637
 6707SOL    HW231758   0.609   1.994   8.168  0.7676 -0.9422  1.0818
 6708SOL     OW31759   3.300   4.489   6.918  0.2536  0.5097  0.0309
 6708SOL    HW131760   3.282   4.548   6.845  2.6040  0.0243 -0.9382
 6708SOL    HW231761   3.377   4.528   6.961  1.4638  0.8459 -2.4721
 6709SOL     OW31762   2.763   3.358   5.284  0.6273  0.2577 -0.2004
 6709SOL    HW131763   2.847   3.398   5.261  1.7394 -1.8990  0.0217
 6709SOL    HW231764   2.713   3.387   5.208 -1.1703  2.7836  1.9601
 6710SOL     OW31765   3.248   1.198   2.452  0.1614  0.0959  0.4017
 6710SOL    HW131766   3.240   1.246   2.534 -1.5417 -1.6166  1.2340
 6710SOL    HW231767   3.265   1.111   2.487  1.6965  1.7620  3.7858
 6711SOL     OW31768   2.050   0.416  16.303  0.0104 -0.5253 -0.3229
 6711SOL    HW131769   1.972   0.469  16.318  0.2776  0.3392 -1.8905
 6711SOL    HW231770   2.113   0.483  16.276 -1.4910  0.8336 -0.4147
 6712SOL     OW31771   1.824   3.422   8.410  0.8296  0.0093  0.1256
 6712SOL    HW131772   1.786   3.357   8.469 -0.1801  0.1879 -0.3420
 6712SOL    HW231773   1.799   3.505   8.450  1.6010  0.5726 -0.5616
 6713SOL     OW31774   1.032   0.877  16.917 -0.1741 -0.1464 -0.3394
 6713SOL    HW131775   1.078   0.828  16.986  1.1459  2.7320  0.8106
 6713SOL    HW231776   0.971   0.820  16.871  0.8950 -0.9812 -0.7231
 6714SOL     OW31777   3.164   2.157   6.707  0.0084  0.3890  0.3926
 6714SOL    HW131778   3.070   2.171   6.699  0.0781  2.2051  3.0577
 6714SOL    HW231779   3.196   2.232   6.657 -1.6900 -0.8376 -2.5528
 6715SOL     OW31780   0.329   3.552  16.482  0.2179  0.1749  0.2318
 6715SOL    HW131781   0.282   3.624  16.525  1.6916  0.6954  0.9664
 6715SOL    HW231782   0.397   3.604  16.438  0.1909 -0.1454 -0.1918
 6716SOL     OW31783   0.529   1.194   3.380 -0.3618  0.3805 -0.0494
 6716SOL    HW131784   0.537   1.271   3.435 -3.8862 -0.3298  1.4225
 6716SOL    HW231785   0.444   1.217   3.343  1.7454  1.0176 -4.6409
 6717SOL     OW31786   0.402   2.225   6.665 -0.0827  0.3784  0.4228
 6717SOL    HW131787   0.428   2.316   6.679 -0.1532  0.5126 -0.3457
 6717SOL    HW231788   0.491   2.190   6.656  0.6110  2.1794  0.1907
 6718SOL     OW31789   2.673   4.310  13.953  0.1811  0.0791 -0.1614
 6718SOL    HW131790   2.749   4.366  13.965  1.6086 -2.0642  0.8730
 6718SOL    HW231791   2.606   4.365  13.994 -0.7859 -0.8102 -0.5344
 6719SOL     OW31792   0.095   3.856   6.687  0.0396 -0.0268  0.1906
 6719SOL    HW131793   0.132   3.771   6.710 -3.0275 -1.0681  1.2325
 6719SOL    HW231794   0.000   3.849   6.699  0.0376 -1.9956 -1.2175
 6720SOL     OW31795   0.869   2.621   3.180  0.2154 -0.7544  0.0828
 6720SOL    HW131796   0.943   2.569   3.147  0.3947 -0.1461 -0.4709
 6720SOL    HW231797   0.798   2.579   3.131  1.1560 -2.5136  0.2092
 6721SOL     OW31798   1.849   0.239  15.352 -0.1948 -0.1563 -0.3343
 6721SOL    HW131799   1.923   0.290  15.384 -0.5276 -0.4476  0.8846
 6721SOL    HW231800   1.791   0.253  15.427 -1.1847 -1.6140 -0.8446
 6722SOL     OW31801   0.454   3.020   4.866  0.3181 -0.3014 -0.1290
 6722SOL    HW131802   0.467   3.039   4.959 -0.9998  1.5402 -0.3199
 6722SOL    HW231803   0.366   3.050   4.845  0.3829 -1.7546 -2.5488
 6723SOL     OW31804   2.219   0.095  17.134 -0.2143 -0.1215 -0.6393
 6723SOL    HW131805   2.165   0.145  17.196 -1.4816 -1.1003 -0.9494
 6723SOL    HW231806   2.170   0.016  17.109  1.1920 -1.7824  1.8648
 6724SOL     OW31807   0.146   1.894  10.387 -0.6316 -0.1710  0.5749
 6724SOL    HW131808   0.221   1.947  10.413 -1.6717  1.2577  0.6677
 6724SOL    HW231809   0.084   1.925  10.453  1.7295  2.4465  1.5742
 6725SOL     OW31810   0.014   4.315   7.541  0.1320  0.1370 -0.2795
 6725SOL    HW131811   0.047   4.362   7.464 -0.4582  1.0081 -0.0029
 6725SOL    HW231812   4.691   4.373   7.586  0.4277  0.1347  0.1230
 6726SOL     OW31813   4.465   2.816   3.794 -0.1328  0.1761 -0.2213
 6726SOL    HW131814   4.510   2.869   3.860 -1.2870  0.4548  0.3375
 6726SOL    HW231815   4.519   2.737   3.793 -1.0066 -0.4153 -1.0715
 6727SOL     OW31816   1.429   3.834   6.377 -0.2641 -0.1286  0.5232
 6727SOL    HW131817   1.403   3.926   6.384  3.4670  0.8191  1.7665
 6727SOL    HW231818   1.403   3.805   6.465  0.9083  2.4696  1.7453
 6728SOL     OW31819   2.809   4.532   4.068  0.2661  0.6191 -0.0464
 6728SOL    HW131820   2.745   4.595   4.103  2.2299  2.1796  0.7324
 6728SOL    HW231821   2.745   4.494   4.007  0.1024 -1.2656  1.3046
 6729SOL     OW31822   3.394   4.308   0.281  0.0193 -0.5326 -0.3769
 6729SOL    HW131823   3.311   4.275   0.317  0.5698 -0.2245  1.1972
 6729SOL    HW231824   3.372   4.351   0.199 -4.3284 -0.8294  0.6444
 6730SOL     OW31825   1.290   4.524   2.927  0.5389 -0.1989  0.2992
 6730SOL    HW131826   1.376   4.482   2.934  1.7414  2.6015  2.5198
 6730SOL    HW231827   1.318   4.597   2.982 -1.4534  1.2471 -0.6221
 6731SOL     OW31828   3.335   0.459  16.937 -0.5145  0.5217  0.3124
 6731SOL    HW131829   3.323   0.549  16.909  0.3236  0.5059 -0.0970
 6731SOL    HW231830   3.258   0.439  16.990 -0.3038 -1.8654 -0.2699
 6732SOL     OW31831   2.414   4.309  14.241 -0.0406 -0.2924  0.7153
 6732SOL    HW131832   2.438   4.277  14.328  0.4132 -0.2275  0.6167
 6732SOL    HW231833   2.365   4.236  14.204  1.3454  0.2792 -2.1898
 6733SOL     OW31834   4.242   2.800  15.927 -0.5375 -0.6014 -0.0875
 6733SOL    HW131835   4.155   2.759  15.924 -0.0871 -1.5635  0.2835
 6733SOL    HW231836   4.299   2.727  15.951  1.6553  0.8736 -0.8089
 6734SOL     OW31837   2.671   4.097   4.630 -1.2664 -0.2419  0.2848
 6734SOL    HW131838   2.581   4.069   4.647 -2.4407  2.9503 -0.7504
 6734SOL    HW231839   2.678   4.180   4.677  1.7227 -0.5252  0.3155
 6735SOL     OW31840   1.491   3.281  16.503 -0.1763  0.4564  0.7933
 6735SOL    HW131841   1.502   3.287  16.408 -0.6390 -0.0186  0.7087
 6735SOL    HW231842   1.418   3.220  16.511  0.2756 -0.3362 -1.0142
 6736SOL     OW31843   4.012   4.607   5.878  0.0466  0.0729  0.1547
 6736SOL    HW131844   4.003   4.702   5.866  0.4385 -0.1448 -1.9468
 6736SOL    HW231845   4.086   4.587   5.821  0.6662  0.3098  0.8879
 6737SOL     OW31846   1.810   3.874  10.294  0.6444  0.1067  0.5860
 6737SOL    HW131847   1.827   3.915  10.379  0.4503  1.2374  0.0824
 6737SOL    HW231848   1.895   3.843  10.264  1.0208  1.1491  0.5472
 6738SOL     OW31849   0.628   2.873   3.093 -0.2334  0.1658 -0.0471
 6738SOL    HW131850   0.587   2.952   3.058 -2.4325 -0.6165  0.7411
 6738SOL    HW231851   0.603   2.896   3.182 -1.4220  0.9488 -0.5912
 6739SOL     OW31852   2.545   1.262   7.820  0.6644  0.1374 -0.1864
 6739SOL    HW131853   2.614   1.197   7.828  0.3377 -0.1865 -0.0077
 6739SOL    HW231854   2.528   1.281   7.912 -3.3846 -1.9605 -0.4851
 6740SOL     OW31855   4.474   1.127   2.499 -0.0637  0.8396 -0.3635
 6740SOL    HW131856   4.475   1.162   2.410 -1.9345  0.8991 -0.3601
 6740SOL    HW231857   4.531   1.051   2.487  1.0164  1.7339 -0.9055
 6741SOL     OW31858   0.779   2.175   1.357  0.0575  0.2268  0.5189
 6741SOL    HW131859   0.820   2.249   1.402  1.3321  0.4146 -0.9362
 6741SOL    HW231860   0.769   2.117   1.432 -1.0645  0.4412  0.5295
 6742SOL     OW31861   4.573   1.097   9.870 -0.0166 -0.6133 -0.3235
 6742SOL    HW131862   4.574   1.186   9.835  1.8809 -1.1431 -1.5969
 6742SOL    HW231863   4.483   1.068   9.853 -0.0875  1.5971 -3.6071
 6743SOL     OW31864   2.863   2.734   2.446  0.3036  0.6417  0.0738
 6743SOL    HW131865   2.880   2.705   2.357  0.4351  1.0500 -0.0349
 6743SOL    HW231866   2.787   2.791   2.436  1.9305  2.6850 -0.6809
 6744SOL     OW31867   1.675   0.145   0.124  0.0294 -0.1218  0.0378
 6744SOL    HW131868   1.623   0.070   0.095 -1.1729  0.8148 -0.2868
 6744SOL    HW231869   1.615   0.220   0.122  0.5880  0.2936 -1.0241
 6745SOL     OW31870   2.093   0.845   5.280 -0.4323 -0.1656  0.0745
 6745SOL    HW131871   2.006   0.879   5.259 -1.8239 -2.1599  2.6077
 6745SOL    HW231872   2.158   0.896   5.231  0.1669 -0.0187  1.0135
 6746SOL     OW31873   4.549   2.649  16.164 -0.0464 -0.1215 -0.0923
 6746SOL    HW131874   4.457   2.650  16.189 -0.2049 -0.3815 -0.6569
 6746SOL    HW231875   4.588   2.648  16.251 -1.0569 -1.5022  0.3547
 6747SOL     OW31876   2.846   1.278   9.321 -0.2173  0.7751  0.3279
 6747SOL    HW131877   2.790   1.206   9.291  0.9682  1.0628 -2.6035
 6747SOL    HW231878   2.930   1.249   9.283 -0.8658  1.3651 -1.5835
 6748SOL     OW31879   3.076   3.465   4.397  0.6933  0.0625 -0.8902
 6748SOL    HW131880   3.056   3.556   4.377 -1.2891 -0.1839 -0.0433
 6748SOL    HW231881   2.995   3.430   4.359 -1.1010  2.1385  1.0832
 6749SOL     OW31882   4.240   0.143   8.039  0.1676 -0.2903  0.2293
 6749SOL    HW131883   4.276   0.221   8.082 -0.0978  0.0698 -0.1909
 6749SOL    HW231884   4.149   0.164   8.058 -0.3493 -0.0235 -2.5919
 6750SOL     OW31885   2.914   4.009   0.467 -0.0836 -0.0871 -0.2935
 6750SOL    HW131886   2.908   4.075   0.398 -0.2833  2.0610  1.7530
 6750SOL    HW231887   2.836   4.025   0.520  0.1056  0.9711 -0.3438
 6751SOL     OW31888   2.749   1.691   4.225 -0.1478  0.3786  0.0771
 6751SOL    HW131889   2.661   1.714   4.258 -0.2230 -1.9863  1.5578
 6751SOL    HW231890   2.800   1.734   4.294 -0.1088 -3.2586  2.3280
 6752SOL     OW31891   1.853   0.578  15.470  0.2187 -0.7392 -0.4824
 6752SOL    HW131892   1.874   0.569  15.563 -3.8298 -1.2081  0.4123
 6752SOL    HW231893   1.934   0.612  15.432 -0.1965  2.9698  2.0608
 6753SOL     OW31894   3.962   4.381   6.036 -0.2504  0.6961 -0.5689
 6753SOL    HW131895   4.053   4.389   6.065 -0.2370  0.0323 -0.4182
 6753SOL    HW231896   3.964   4.461   5.983  0.3160  1.1927  0.1925
 6754SOL     OW31897   1.373   2.206   1.726  0.0570  0.2891 -0.0028
 6754SOL    HW131898   1.439   2.152   1.682  1.1193  1.5389  0.0219
 6754SOL    HW231899   1.316   2.225   1.651  1.0913 -0.1991 -0.9212
 6755SOL     OW31900   1.365   0.530   5.763 -0.2336  0.2145 -0.1153
 6755SOL    HW131901   1.436   0.582   5.726  0.9700 -2.6169 -1.8270
 6755SOL    HW231902   1.389   0.548   5.854 -0.8889  0.3605  0.0267
 6756SOL     OW31903   4.109   4.310   3.675  0.2389  0.4609  0.3439
 6756SOL    HW131904   4.196   4.286   3.705  0.7614  1.0382 -0.7071
 6756SOL    HW231905   4.128   4.363   3.597  0.5963  2.7501  1.9860
 6757SOL     OW31906   3.053   4.483   6.402 -0.8503 -0.0407 -0.2956
 6757SOL    HW131907   2.996   4.482   6.325 -0.3860 -1.2996 -0.6292
 6757SOL    HW231908   3.103   4.563   6.391 -1.2724  0.0093 -1.8967
 6758SOL     OW31909   1.605   3.180   5.379  0.0811 -0.0409  0.4934
 6758SOL    HW131910   1.595   3.242   5.451  0.6405  1.2668 -0.5708
 6758SOL    HW231911   1.528   3.125   5.393 -1.3573  1.5312 -1.4604
 6759SOL     OW31912   4.360   0.980  10.450  0.5276 -0.1645 -0.2644
 6759SOL    HW131913   4.298   0.956  10.381 -0.6788 -1.1644  1.1460
 6759SOL    HW231914   4.432   1.006  10.393  1.8109 -1.3870  0.7632
 6760SOL     OW31915   0.034   4.108   9.098 -0.1521 -0.3914 -0.0124
 6760SOL    HW131916   4.703   4.125   9.035  0.4964  1.0099 -0.3576
 6760SOL    HW231917   0.108   4.116   9.037 -0.5141 -0.8796 -0.5145
 6761SOL     OW31918   4.430   2.537   5.172  0.2777 -0.0738  0.2896
 6761SOL    HW131919   4.389   2.530   5.086 -2.0841  2.2962  1.2188
 6761SOL    HW231920   4.444   2.446   5.198  1.7578  0.4119  1.1742
 6762SOL     OW31921   2.009   3.474   1.364 -0.7051 -0.5132 -0.3204
 6762SOL    HW131922   1.977   3.555   1.402 -0.7873  0.3701 -2.2577
 6762SOL    HW231923   1.996   3.493   1.271  2.4760  2.4109 -0.1581
 6763SOL     OW31924   4.142   1.338   7.153 -0.0086  0.0231 -0.2236
 6763SOL    HW131925   4.109   1.319   7.241 -2.2384  0.4295 -0.9721
 6763SOL    HW231926   4.067   1.334   7.094  1.1815  0.7953 -1.7862
 6764SOL     OW31927   0.587   2.260   2.807 -0.0784 -0.1230  0.1010
 6764SOL    HW131928   0.540   2.317   2.868 -0.6661  0.5742 -1.0062
 6764SOL    HW231929   0.546   2.286   2.725 -0.8893  1.9643  1.1604
 6765SOL     OW31930   2.138   0.180  17.581 -0.4384 -0.2861 -0.1052
 6765SOL    HW131931   2.120   0.116  17.513  2.0962 -2.9736  1.7455
 6765SOL    HW231932   2.095   0.258  17.547 -0.0061  0.1698  0.3890
 6766SOL     OW31933   0.707   4.019   5.144  0.2948  0.3081 -0.3103
 6766SOL    HW131934   0.741   3.943   5.097  0.0967  0.9044 -1.4234
 6766SOL    HW231935   0.774   4.078   5.110  1.0180 -1.3119 -1.6523
 6767SOL     OW31936   1.404   4.409   7.258 -0.0513  0.1642 -0.5081
 6767SOL    HW131937   1.312   4.434   7.258  0.6014  2.5497 -0.1635
 6767SOL    HW231938   1.421   4.476   7.325  1.8281  0.0790 -0.8987
 6768SOL     OW31939   0.484   0.406   7.799 -0.7750 -0.3684  0.1346
 6768SOL    HW131940   0.447   0.486   7.837 -2.0088 -0.6788 -0.4079
 6768SOL    HW231941   0.488   0.350   7.876  2.7011 -0.8829 -0.4126
 6769SOL     OW31942   2.781   4.582  13.962  0.1216  0.0283  0.2655
 6769SOL    HW131943   2.732   4.575  14.044 -0.8861 -0.6603 -0.4002
 6769SOL    HW231944   2.863   4.623  13.991 -0.2527  1.8840 -1.3676
 6770SOL     OW31945   2.831   4.089   6.705  0.3500 -0.1028 -0.3725
 6770SOL    HW131946   2.768   4.073   6.635  2.5268 -2.5227 -1.7627
 6770SOL    HW231947   2.793   4.166   6.746 -0.1428 -2.0089  2.7559
 6771SOL     OW31948   3.221   4.120   9.533  0.4118  0.2113 -0.7790
 6771SOL    HW131949   3.244   4.091   9.621  1.6550  1.7053 -0.6192
 6771SOL    HW231950   3.312   4.138   9.507  0.5370 -0.2091 -0.6339
 6772SOL     OW31951   2.910   0.205   6.503 -0.2912 -0.3305  0.5544
 6772SOL    HW131952   2.950   0.160   6.577 -0.0432  0.2561  0.7807
 6772SOL    HW231953   2.822   0.167   6.496  1.1838 -3.7673  0.7800
 6773SOL     OW31954   3.729   4.258   0.692  0.5950  0.0931 -0.2959
 6773SOL    HW131955   3.658   4.263   0.757  1.2912  1.2031  0.3693
 6773SOL    HW231956   3.790   4.314   0.740 -0.0966  0.5488  0.0528
 6774SOL     OW31957   1.282   1.833   6.556 -0.0782  0.0696 -0.4457
 6774SOL    HW131958   1.240   1.878   6.629 -0.2630  0.5314 -0.8401
 6774SOL    HW231959   1.324   1.762   6.605  0.6683  0.6275 -0.2853
 6775SOL     OW31960   4.337   1.168   7.741  0.0424 -0.4399  0.1321
 6775SOL    HW131961   4.394   1.122   7.803  1.4365  0.2618 -0.6333
 6775SOL    HW231962   4.392   1.177   7.663 -2.1147  0.3509 -1.2986
 6776SOL     OW31963   1.788   3.310   5.193  0.9382  0.4757 -0.5180
 6776SOL    HW131964   1.764   3.244   5.257 -0.8111 -1.0733 -2.7596
 6776SOL    HW231965   1.715   3.301   5.132 -0.1009  1.8670  0.5301
 6777SOL     OW31966   0.599   1.816   9.478 -0.2664 -0.1392  0.0392
 6777SOL    HW131967   0.631   1.873   9.548 -0.5749 -1.6675  1.4248
 6777SOL    HW231968   0.613   1.732   9.521 -1.3464  0.8681  2.3310
 6778SOL     OW31969   1.249   2.465   8.308  0.6003  0.1752 -0.2734
 6778SOL    HW131970   1.256   2.536   8.244  0.9647  1.8399  1.6251
 6778SOL    HW231971   1.290   2.504   8.385 -0.7813  0.4789  0.3039
 6779SOL     OW31972   2.894   1.091   5.088 -0.2418 -0.7797  0.1826
 6779SOL    HW131973   2.816   1.146   5.092 -0.5514 -1.1843 -0.1536
 6779SOL    HW231974   2.890   1.045   5.172  1.0267 -2.4358 -0.6584
 6780SOL     OW31975   2.916   4.296  16.516 -0.0094 -0.3823 -0.3318
 6780SOL    HW131976   2.836   4.349  16.520  0.5644  0.3757  0.7723
 6780SOL    HW231977   2.987   4.357  16.499 -2.6736  2.6581 -0.6120
 6781SOL     OW31978   1.886   2.587   6.261  0.4813 -0.1126  0.1116
 6781SOL    HW131979   1.864   2.519   6.198 -1.7434 -1.0479  1.8928
 6781SOL    HW231980   1.933   2.645   6.201  1.5577 -0.3773  0.6871
 6782SOL     OW31981   4.496   4.149   4.035 -0.7251  0.0694 -0.1750
 6782SOL    HW131982   4.444   4.228   4.024 -1.4736 -0.5952 -1.3700
 6782SOL    HW231983   4.444   4.101   4.100  0.3647 -2.4886 -1.2024
 6783SOL     OW31984   2.724   3.949   7.699 -0.4392  0.6968  0.1239
 6783SOL    HW131985   2.782   4.008   7.748  0.5411 -0.0087 -0.1700
 6783SOL    HW231986   2.733   3.870   7.752  1.3755  0.2721 -0.7923
 6784SOL     OW31987   4.708   2.617  12.056 -0.5468  0.0057 -0.2647
 6784SOL    HW131988   4.652   2.656  12.123  0.5785  0.6576  0.2901
 6784SOL    HW231989   0.041   2.681  12.051 -2.6054  2.2977  0.2671
 6785SOL     OW31990   4.589   1.999   9.137 -0.0327 -0.1706 -0.2593
 6785SOL    HW131991   4.563   2.020   9.227  1.0261  0.1385 -0.0219
 6785SOL    HW231992   4.539   2.056   9.079 -1.5795 -1.2043  0.0523
 6786SOL     OW31993   2.583   2.977  13.802 -0.9418  0.3432  0.2195
 6786SOL    HW131994   2.575   2.988  13.707 -1.2737 -0.8370  0.1189
 6786SOL    HW231995   2.529   2.899  13.812 -0.6898  0.1065 -0.2751
 6787SOL     OW31996   2.748   1.311   5.974 -0.3851  0.2115 -0.0981
 6787SOL    HW131997   2.772   1.359   5.895 -1.2722  0.4413 -0.2340
 6787SOL    HW231998   2.780   1.222   5.960 -0.8837  0.1319 -0.7057
 6788SOL     OW31999   0.326   0.028   3.063 -0.3449  0.3455  0.0346
 6788SOL    HW132000   0.421   0.018   3.071 -0.2692  0.6546 -0.4816
 6788SOL    HW232001   0.309   0.110   3.108 -4.1792 -0.3349 -0.2118
 6789SOL     OW32002   3.416   4.218   4.922 -0.0834  0.0117  0.2376
 6789SOL    HW132003   3.506   4.247   4.934 -0.1402  0.1878  0.2285
 6789SOL    HW232004   3.368   4.288   4.966 -3.0909 -0.7299 -1.8021
 6790SOL     OW32005   3.564   2.909  14.922  0.4826  0.4844 -0.9752
 6790SOL    HW132006   3.593   2.889  15.011 -1.3568  0.0111 -0.4655
 6790SOL    HW232007   3.529   2.998  14.933  2.0443  0.9346  0.3895
 6791SOL     OW32008   2.907   1.918   6.301  0.0526 -0.2970 -0.4255
 6791SOL    HW132009   2.980   1.890   6.358 -0.4657 -0.7846  0.0078
 6791SOL    HW232010   2.936   1.899   6.212 -0.7526 -0.7162 -0.6037
 6792SOL     OW32011   3.188   0.452  10.569  0.0303 -0.1125 -0.6816
 6792SOL    HW132012   3.138   0.522  10.610 -0.0847 -1.3558  1.2996
 6792SOL    HW232013   3.120   0.431  10.504  0.3363 -0.4779 -0.8843
 6793SOL     OW32014   4.308   3.013   9.018 -0.3960 -0.0351 -0.0566
 6793SOL    HW132015   4.345   3.059   9.093 -0.7631  0.5576 -0.2377
 6793SOL    HW232016   4.371   2.941   9.009  0.7979  1.0488 -0.2764
 6794SOL     OW32017   4.644   3.777   7.867  0.9111  0.6904  0.4725
 6794SOL    HW132018   4.660   3.849   7.927 -0.6050  0.2955  1.3406
 6794SOL    HW232019   4.571   3.814   7.818  1.8670 -0.6557 -2.0355
 6795SOL     OW32020   0.051   1.760   7.419  0.5007 -0.5241  0.1191
 6795SOL    HW132021   0.101   1.829   7.462  0.7813 -0.8521  0.3142
 6795SOL    HW232022   4.702   1.784   7.450  0.4923 -1.3711  0.7448
 6796SOL     OW32023   1.590   1.864  13.794 -0.0852 -0.1760  0.0086
 6796SOL    HW132024   1.545   1.826  13.718 -1.5685 -1.7553  1.6637
 6796SOL    HW232025   1.634   1.935  13.748  0.3013 -1.3922 -1.4938
 6797SOL     OW32026   2.548   4.015   5.798 -0.2034 -0.1246 -0.3381
 6797SOL    HW132027   2.453   4.028   5.796 -0.2940 -0.4065  2.2512
 6797SOL    HW232028   2.577   4.082   5.736 -1.8345 -0.4119 -1.4044
 6798SOL     OW32029   4.150   4.340   8.148 -0.3541 -0.2436  0.6393
 6798SOL    HW132030   4.085   4.271   8.134 -0.6690  0.3749 -0.9160
 6798SOL    HW232031   4.132   4.414   8.090  0.6174 -1.3106 -1.0656
 6799SOL     OW32032   4.194   2.154   8.145  0.4117  0.4202  0.1146
 6799SOL    HW132033   4.266   2.093   8.151  0.3219  0.1488 -1.7868
 6799SOL    HW232034   4.218   2.209   8.071  0.8304 -0.8552 -0.6888
 6800SOL     OW32035   2.065   3.161   1.049  0.5154 -0.0208  0.4420
 6800SOL    HW132036   2.092   3.153   1.141  0.1772 -2.3803  0.3437
 6800SOL    HW232037   2.046   3.074   1.014 -1.9208  1.1247 -1.0947
 6801SOL     OW32038   2.353   2.287  13.197 -0.4113 -0.2059  0.7341
 6801SOL    HW132039   2.411   2.325  13.131  0.0785  1.0969  1.9273
 6801SOL    HW232040   2.265   2.315  13.171 -0.4938  0.1343  1.3693
 6802SOL     OW32041   2.656   0.212   4.337 -0.2135 -0.0664  0.1428
 6802SOL    HW132042   2.734   0.255   4.300  0.3622 -1.3613 -0.1684
 6802SOL    HW232043   2.584   0.241   4.281  0.2910  0.7945 -0.0583
 6803SOL     OW32044   2.841   1.048   6.513  0.0363  0.1522 -0.4784
 6803SOL    HW132045   2.914   1.091   6.469  1.3024 -1.0166  0.4546
 6803SOL    HW232046   2.853   0.956   6.488 -1.3864  0.7832 -3.4875
 6804SOL     OW32047   1.338   4.380  15.252 -0.5889 -0.4039 -0.0551
 6804SOL    HW132048   1.343   4.342  15.164  0.2407  2.4462 -1.2220
 6804SOL    HW232049   1.256   4.336  15.274 -0.3946 -0.8428 -0.2043
 6805SOL     OW32050   2.637   3.759   0.328  0.3720  0.3422  0.0305
 6805SOL    HW132051   2.643   3.797   0.240 -0.1170 -1.7801 -0.9060
 6805SOL    HW232052   2.576   3.820   0.370 -0.4985  1.1913 -2.4535
 6806SOL     OW32053   1.678   0.179   7.434 -0.5155  0.5838  0.2160
 6806SOL    HW132054   1.693   0.165   7.527 -2.8040  1.0895  0.6417
 6806SOL    HW232055   1.743   0.119   7.396 -1.6935 -0.6681  0.1813
 6807SOL     OW32056   4.046   0.529   9.866 -0.2742  0.6588  0.0114
 6807SOL    HW132057   4.057   0.562   9.777  1.4768  0.0918  0.0294
 6807SOL    HW232058   4.100   0.451   9.862 -0.7905  0.2788  0.5019
 6808SOL     OW32059   2.088   1.593   8.313 -0.8366 -0.4250  0.1024
 6808SOL    HW132060   2.014   1.649   8.293 -1.6136 -1.8746 -1.1023
 6808SOL    HW232061   2.163   1.636   8.271 -0.9429  0.4055  0.7631
 6809SOL     OW32062   3.450   3.362   4.861  0.2956  0.7302  0.1538
 6809SOL    HW132063   3.516   3.367   4.930 -1.3158  0.0458  1.7216
 6809SOL    HW232064   3.513   3.343   4.790  1.4583  1.0027  1.1133
 6810SOL     OW32065   2.749   2.711   7.668 -0.2152 -0.0249 -0.1078
 6810SOL    HW132066   2.755   2.617   7.689  2.5489  0.2235  0.1852
 6810SOL    HW232067   2.672   2.741   7.716  0.0873  0.8084 -0.1500
 6811SOL     OW32068   3.675   0.562  13.679 -0.3588  0.0340 -0.0918
 6811SOL    HW132069   3.687   0.556  13.773 -3.2906 -0.8182  0.2123
 6811SOL    HW232070   3.678   0.655  13.658 -0.9754 -0.2676 -1.5776
 6812SOL     OW32071   3.822   0.140   3.632  0.1167 -0.0038  0.2165
 6812SOL    HW132072   3.788   0.088   3.705  0.8397 -1.4883 -0.4845
 6812SOL    HW232073   3.851   0.221   3.673 -0.5949 -0.0427  0.8043
 6813SOL     OW32074   1.207   0.053   9.386  0.1650 -0.2546 -0.1871
 6813SOL    HW132075   1.222   4.721   9.323 -0.1332 -0.4075 -0.0848
 6813SOL    HW232076   1.200   0.010   9.471  2.2645 -0.2022  0.0203
 6814SOL     OW32077   0.315   1.231   9.261 -0.3780  0.2531 -0.0021
 6814SOL    HW132078   0.264   1.156   9.231 -1.0861  0.3184  1.0258
 6814SOL    HW232079   0.281   1.298   9.202  2.3233  1.7421  0.0947
 6815SOL     OW32080   3.930   0.676   9.229  0.4079 -0.3422 -0.4705
 6815SOL    HW132081   4.008   0.709   9.273  0.7390  0.9558 -2.0530
 6815SOL    HW232082   3.946   0.729   9.150 -1.9159 -2.9083 -2.6690
 6816SOL     OW32083   3.163   2.288  16.610  0.0766 -0.4445 -0.1222
 6816SOL    HW132084   3.206   2.348  16.672  0.9183 -0.2341 -0.9077
 6816SOL    HW232085   3.114   2.349  16.555  1.1255 -1.8350 -2.5893
 6817SOL     OW32086   3.020   4.113   4.972 -0.2819 -0.3500  0.0185
 6817SOL    HW132087   3.107   4.076   4.988 -0.5637 -1.4152 -0.9121
 6817SOL    HW232088   2.980   4.043   4.921  0.4057  0.0695 -1.1035
 6818SOL     OW32089   2.045   4.058   5.680  1.0869  0.7562  0.1078
 6818SOL    HW132090   2.025   4.019   5.595  3.7383  1.1758 -0.7343
 6818SOL    HW232091   1.958   4.063   5.719 -0.2467 -1.0537 -2.5821
 6819SOL     OW32092   0.531   0.684   3.848  0.4245  0.6429  0.4359
 6819SOL    HW132093   0.505   0.593   3.838 -1.6203  1.1780  0.8238
 6819SOL    HW232094   0.455   0.726   3.806 -0.4484 -0.8519  0.5177
 6820SOL     OW32095   3.934   0.106   7.253 -0.0568  0.5947 -0.6410
 6820SOL    HW132096   3.905   0.043   7.187 -1.5673  2.2350 -1.5482
 6820SOL    HW232097   4.029   0.093   7.256  0.0063  0.8101 -1.9937
 6821SOL     OW32098   1.091   4.448   2.312 -0.3493 -0.0407  0.0220
 6821SOL    HW132099   1.111   4.365   2.355 -0.2966  0.5381  1.1214
 6821SOL    HW232100   1.066   4.513   2.378 -0.0115 -1.7514  1.8293
 6822SOL     OW32101   1.297   0.907   6.902 -0.2462 -0.0224  0.1166
 6822SOL    HW132102   1.313   0.922   6.809 -0.6527 -0.2087  0.0171
 6822SOL    HW232103   1.239   0.982   6.916  2.8035  2.4846 -0.8462
 6823SOL     OW32104   3.707   3.999  10.640 -0.3569 -0.4831 -0.1622
 6823SOL    HW132105   3.755   3.962  10.714 -1.5726 -1.5349  0.0992
 6823SOL    HW232106   3.631   4.044  10.677  0.5747 -0.3316  1.5590
 6824SOL     OW32107   3.691   2.079   5.682  0.0854  0.4744 -0.3688
 6824SOL    HW132108   3.677   2.151   5.620  1.3978  1.3938  0.3968
 6824SOL    HW232109   3.602   2.044   5.687  0.3253  0.0070  0.5716
 6825SOL     OW32110   1.667   4.255   7.949  0.0881  0.4692 -0.4517
 6825SOL    HW132111   1.689   4.336   7.995  0.2025  0.3203 -0.2426
 6825SOL    HW232112   1.706   4.185   8.002  1.7266 -0.8467 -3.4434
 6826SOL     OW32113   4.005   3.815  15.160  0.3800  0.2492  0.2985
 6826SOL    HW132114   4.002   3.861  15.076 -0.7559 -0.8378 -0.2594
 6826SOL    HW232115   4.053   3.871  15.221 -0.6880  0.3603  1.0488
 6827SOL     OW32116   2.119   2.724   7.205 -0.0420  0.0232  0.0898
 6827SOL    HW132117   2.204   2.768   7.194  0.4470 -1.1880 -1.1107
 6827SOL    HW232118   2.114   2.674   7.123 -1.5245 -0.8046  0.6915
 6828SOL     OW32119   1.025   3.310   8.941 -0.2601  0.7833  0.0471
 6828SOL    HW132120   0.941   3.336   8.980 -0.8013  2.1617 -2.0317
 6828SOL    HW232121   0.995   3.241   8.882  2.6124 -0.1685 -0.2970
 6829SOL     OW32122   0.370   0.374   4.810 -0.7679  0.8879 -0.2241
 6829SOL    HW132123   0.428   0.386   4.886 -1.7776  0.0511  0.6741
 6829SOL    HW232124   0.436   0.374   4.741 -1.3433  1.0076 -0.7684
 6830SOL     OW32125   2.634   4.116   1.101 -0.1198 -0.3765  0.4434
 6830SOL    HW132126   2.595   4.096   1.186 -2.6243  2.5843 -0.0151
 6830SOL    HW232127   2.661   4.031   1.066 -0.0077  0.1289 -0.6959
 6831SOL     OW32128   1.030   3.871  11.032 -0.7503  0.1836  0.1589
 6831SOL    HW132129   1.071   3.836  11.111  1.9969 -4.2087 -3.1725
 6831SOL    HW232130   1.085   3.819  10.972 -0.3680  1.3757 -0.5167
 6832SOL     OW32131   1.128   1.923  10.779  0.0816  0.5228 -0.1816
 6832SOL    HW132132   1.121   2.013  10.810 -1.7642  0.2865  0.0895
 6832SOL    HW232133   1.223   1.925  10.792 -0.0141  1.4638  0.3621
 6833SOL     OW32134   0.716   4.025  15.317 -0.3025  0.2561  0.6310
 6833SOL    HW132135   0.765   4.107  15.324 -0.7927  0.4065  2.3540
 6833SOL    HW232136   0.654   4.026  15.390  0.1874 -0.9764  1.0745
 6834SOL     OW32137   3.725   0.339  16.827 -0.2049  0.2155 -0.2361
 6834SOL    HW132138   3.728   0.395  16.749 -0.0410  0.3290 -0.1493
 6834SOL    HW232139   3.794   0.277  16.805 -1.3017 -1.0568 -0.0338
 6835SOL     OW32140   3.619   0.224   7.959 -0.4919  0.3757 -0.2894
 6835SOL    HW132141   3.645   0.166   8.030 -1.8801 -2.8812 -2.4746
 6835SOL    HW232142   3.542   0.263   8.000  0.0063  0.8319  0.2187
 6836SOL     OW32143   2.328   1.956   2.843 -0.4209  0.7421  0.3467
 6836SOL    HW132144   2.422   1.951   2.823 -0.6006  0.5019 -0.4264
 6836SOL    HW232145   2.303   2.040   2.806 -0.3015 -0.3146 -2.1180
 6837SOL     OW32146   2.824   4.250   1.223 -0.3181  0.1597  0.5072
 6837SOL    HW132147   2.762   4.190   1.181  0.5289  1.3370 -2.4220
 6837SOL    HW232148   2.766   4.317   1.259 -1.4091 -0.6536  0.2541
 6838SOL     OW32149   4.155   2.830   6.325  0.2690 -0.0400  0.4814
 6838SOL    HW132150   4.065   2.839   6.293 -0.7399  1.5554  3.8180
 6838SOL    HW232151   4.202   2.886   6.264  0.0649 -0.0558  0.3092
 6839SOL     OW32152   3.895   0.182   4.813 -0.1072 -0.5780  0.0019
 6839SOL    HW132153   3.842   0.147   4.884 -2.3307  2.0014 -0.4223
 6839SOL    HW232154   3.893   0.277   4.823  1.1144 -0.7247  1.7024
 6840SOL     OW32155   3.542   3.441   5.567  0.1555  0.3401 -0.3966
 6840SOL    HW132156   3.473   3.505   5.582  1.7225  1.9677 -0.1448
 6840SOL    HW232157   3.496   3.358   5.580  0.4665  0.2104 -0.1011
 6841SOL     OW32158   2.175   4.507   8.204  0.3548 -0.0952 -0.0556
 6841SOL    HW132159   2.184   4.546   8.291 -0.7418 -0.6739  0.3086
 6841SOL    HW232160   2.082   4.522   8.190  0.1224 -2.3391 -0.8878
 6842SOL     OW32161   0.591   2.878   3.409  0.4786 -0.1835  0.0347
 6842SOL    HW132162   0.581   2.783   3.408 -0.7996 -0.0227 -2.3293
 6842SOL    HW232163   0.687   2.882   3.411  0.5544 -1.8230 -0.4991
 6843SOL     OW32164   0.251   3.318   4.032  0.5006 -0.6098  0.1705
 6843SOL    HW132165   0.334   3.341   3.990  0.0744  1.0534  0.2381
 6843SOL    HW232166   0.240   3.229   3.999 -1.7922 -0.3952  0.3233
 6844SOL     OW32167   2.958   3.894   3.400 -0.0764  0.2145 -0.1553
 6844SOL    HW132168   3.011   3.816   3.389  2.3078  2.1677 -2.4745
 6844SOL    HW232169   2.945   3.883   3.494  1.8684  0.9505  0.1973
 6845SOL     OW32170   3.638   3.248   8.757 -0.3257 -0.4438  0.3160
 6845SOL    HW132171   3.663   3.156   8.749 -0.9640 -0.3628 -2.7056
 6845SOL    HW232172   3.579   3.244   8.833  0.0847  2.3176  0.7755
 6846SOL     OW32173   1.884   1.146   1.524  0.1526  0.4744 -0.3501
 6846SOL    HW132174   1.893   1.063   1.570 -1.3157 -0.5560 -1.8902
 6846SOL    HW232175   1.955   1.195   1.565 -0.7877  1.2089  0.3979
 6847SOL     OW32176   2.867   0.594   4.254  0.4479 -0.6511  0.3909
 6847SOL    HW132177   2.880   0.635   4.169 -0.5021 -0.1397  0.4919
 6847SOL    HW232178   2.906   0.662   4.310 -0.1120 -1.2352  1.5033
 6848SOL     OW32179   2.157   2.549   6.053  0.4229 -0.4051  0.2591
 6848SOL    HW132180   2.084   2.541   5.992 -0.2024  0.7606  0.8714
 6848SOL    HW232181   2.217   2.506   5.991  1.1293  0.1087  0.5959
 6849SOL     OW32182   4.596   3.835   7.152 -0.1791 -0.3380 -0.5060
 6849SOL    HW132183   4.673   3.854   7.206  0.7383 -0.0952 -1.8905
 6849SOL    HW232184   4.639   3.776   7.091 -1.8221 -2.5674  0.5036
 6850SOL     OW32185   1.912   4.121   3.296  0.0971 -0.4850  0.2315
 6850SOL    HW132186   1.993   4.123   3.244 -0.7706  1.8341 -0.9940
 6850SOL    HW232187   1.860   4.187   3.251  0.4535 -1.0120 -0.9690
 6851SOL     OW32188   0.720   0.913   4.263  0.2690 -0.2209  0.9401
 6851SOL    HW132189   0.678   0.838   4.221  1.7667  0.0489 -1.0181
 6851SOL    HW232190   0.775   0.945   4.192 -1.1158 -1.3451 -0.6375
 6852SOL     OW32191   0.377   1.872   8.466  0.7640  0.0524  0.0362
 6852SOL    HW132192   0.441   1.897   8.400  0.7235 -0.6992 -0.2873
 6852SOL    HW232193   0.442   1.842   8.529  1.3143 -2.1208 -1.5967
 6853SOL     OW32194   2.349   0.169   0.314  0.2658 -0.0993  0.2106
 6853SOL    HW132195   2.301   0.155   0.233 -0.1177  0.5421  0.3248
 6853SOL    HW232196   2.303   0.109   0.372  0.8687  0.8104  1.6318
 6854SOL     OW32197   1.528   0.195   9.102 -0.1469  0.1070 -0.4320
 6854SOL    HW132198   1.521   0.277   9.052 -2.2511 -0.5656 -1.2355
 6854SOL    HW232199   1.604   0.200   9.160  0.1880  1.2539 -0.9770
 6855SOL     OW32200   3.016   1.747   7.874  0.1741  0.4594  0.0635
 6855SOL    HW132201   3.102   1.719   7.844  0.7976  1.4007  0.9554
 6855SOL    HW232202   2.982   1.664   7.906  1.1853  0.0069 -0.0232
 6856SOL     OW32203   1.543   0.601  15.100 -0.4765  0.0322  0.0051
 6856SOL    HW132204   1.609   0.621  15.033  0.1100  0.4800  0.7249
 6856SOL    HW232205   1.535   0.507  15.082 -0.1473 -0.4557  2.3884
 6857SOL     OW32206   3.609   3.034   5.269 -0.0078 -0.3154  0.3871
 6857SOL    HW132207   3.703   3.046   5.282 -0.2150  1.8181 -0.0157
 6857SOL    HW232208   3.597   3.001   5.180 -1.9895 -0.8638  0.8591
 6858SOL     OW32209   3.661   3.252  14.867  0.1893  0.4737  0.5062
 6858SOL    HW132210   3.577   3.211  14.885  0.2368  0.1957  0.1022
 6858SOL    HW232211   3.628   3.340  14.847 -1.3242 -0.2831 -0.3190
 6859SOL     OW32212   3.634   3.937   3.963 -0.0928  0.2300  0.1559
 6859SOL    HW132213   3.602   4.028   3.968  3.3534  1.4744 -0.9509
 6859SOL    HW232214   3.576   3.898   3.897 -1.4822  0.0903  1.4432
 6860SOL     OW32215   4.085   0.175   6.865  0.4082  0.6342 -0.4939
 6860SOL    HW132216   4.005   0.139   6.826  0.5503 -0.8017  0.5100
 6860SOL    HW232217   4.112   0.096   6.912 -0.6645  0.0614 -0.8475
 6861SOL     OW32218   3.049   1.158  16.882  0.1201  0.0937 -0.0860
 6861SOL    HW132219   3.142   1.150  16.900  0.2463  0.0625 -0.7527
 6861SOL    HW232220   3.028   1.251  16.888  1.1377  0.2740  0.5583
 6862SOL     OW32221   1.476   4.244   2.325  0.1466 -0.3943  0.3830
 6862SOL    HW132222   1.496   4.332   2.293 -3.3071  0.9347  1.8567
 6862SOL    HW232223   1.419   4.263   2.400 -0.5418  0.6698 -0.4157
 6863SOL     OW32224   0.939   2.740   1.580 -1.0696 -0.1343  0.4561
 6863SOL    HW132225   0.951   2.651   1.547 -2.3331 -0.3765  0.6516
 6863SOL    HW232226   0.983   2.792   1.513 -2.2321  1.0155  0.5706
 6864SOL     OW32227   1.709   0.094   2.207 -0.5968  0.0147  0.0674
 6864SOL    HW132228   1.774   0.027   2.183  0.0237  1.3040 -1.8931
 6864SOL    HW232229   1.739   0.167   2.152  2.2183 -0.2469  1.2144
 6865SOL     OW32230   2.944   0.499   3.205  0.4000  0.5848  0.0593
 6865SOL    HW132231   2.955   0.405   3.217  4.4293  1.1127  0.7916
 6865SOL    HW232232   2.951   0.515   3.111 -0.9372  1.6691  0.1437
 6866SOL     OW32233   3.761   1.681   8.485  0.5075  0.2275 -0.2681
 6866SOL    HW132234   3.839   1.642   8.447 -0.8520 -1.8242 -0.9553
 6866SOL    HW232235   3.739   1.621   8.556  0.8231  1.9691  1.3120
 6867SOL     OW32236   3.367   1.764   6.714 -0.1742 -0.5378  0.0703
 6867SOL    HW132237   3.331   1.832   6.771  0.5177 -1.6000  1.7704
 6867SOL    HW232238   3.398   1.816   6.640  3.5324  0.3449  2.2517
 6868SOL     OW32239   3.013   2.279   3.744 -0.0241  0.1490  0.0893
 6868SOL    HW132240   2.949   2.330   3.792 -0.4980 -0.8721  0.5365
 6868SOL    HW232241   3.099   2.322   3.742 -0.6084  1.3883  1.9920
 6869SOL     OW32242   0.945   3.831  13.709  0.4862  0.1411 -0.0537
 6869SOL    HW132243   0.971   3.867  13.793 -0.6984 -0.8175  0.7318
 6869SOL    HW232244   0.963   3.739  13.728 -2.3683 -0.2023  0.9559
 6870SOL     OW32245   4.566   1.940   7.489 -0.2653  0.0207 -0.0963
 6870SOL    HW132246   4.564   2.004   7.417  2.2629 -0.7146 -0.8151
 6870SOL    HW232247   4.483   1.894   7.473 -0.2097 -0.0932 -0.0569
 6871SOL     OW32248   3.983   1.536   8.388  0.1442  0.0320 -0.0189
 6871SOL    HW132249   3.991   1.560   8.296  2.6425  0.5203  0.3239
 6871SOL    HW232250   4.074   1.539   8.418 -0.5511 -1.8564  2.2955
 6872SOL     OW32251   2.422   0.291   4.185  0.1468 -0.2283  0.0620
 6872SOL    HW132252   2.415   0.368   4.129  0.0047  0.7956  1.4763
 6872SOL    HW232253   2.440   0.220   4.123 -1.1666 -2.6328  2.4173
 6873SOL     OW32254   2.070   0.672   5.738  0.0104 -0.5380 -0.1970
 6873SOL    HW132255   2.120   0.753   5.724 -0.3501 -0.2281  0.3174
 6873SOL    HW232256   2.038   0.648   5.651 -2.1338  1.3358  0.0893
 6874SOL     OW32257   1.628   2.023   3.073 -0.2129 -0.2033 -0.1697
 6874SOL    HW132258   1.658   2.112   3.095 -0.6481  0.0415 -0.5571
 6874SOL    HW232259   1.600   2.038   2.983 -2.7017 -0.9991  0.4769
 6875SOL     OW32260   1.641   0.928  17.250 -0.0801  0.1798  0.3326
 6875SOL    HW132261   1.594   1.007  17.276 -2.9340 -1.1221 -0.7945
 6875SOL    HW232262   1.590   0.898  17.175 -0.7393 -0.1929  0.9237
 6876SOL     OW32263   3.143   2.254   8.401 -0.4334 -0.0890  0.1809
 6876SOL    HW132264   3.114   2.175   8.448 -1.1354 -0.5766 -1.0864
 6876SOL    HW232265   3.101   2.249   8.315  0.2986  0.7851 -0.2121
 6877SOL     OW32266   1.203   2.725   9.988 -0.2276 -0.3801  0.1623
 6877SOL    HW132267   1.252   2.794  10.034 -0.2811 -0.2416  0.0092
 6877SOL    HW232268   1.147   2.700  10.062 -1.3867  1.1058 -0.2195
 6878SOL     OW32269   1.012   2.949  12.959  0.0332 -0.2065 -0.7219
 6878SOL    HW132270   0.938   2.927  12.902 -0.3217 -0.8683  0.0008
 6878SOL    HW232271   1.092   2.916  12.916  0.4831 -2.7139  2.0840
 6879SOL     OW32272   3.917   4.423   1.751 -0.6862  0.2605 -0.4930
 6879SOL    HW132273   3.983   4.398   1.687 -0.5069 -0.9265  0.1469
 6879SOL    HW232274   3.887   4.503   1.709 -0.2638  0.8764  0.3694
 6880SOL     OW32275   3.732   0.763  17.166 -0.8291 -0.1052  0.0144
 6880SOL    HW132276   3.660   0.717  17.211 -0.3331  0.5038  1.4249
 6880SOL    HW232277   3.743   0.714  17.084  0.9826  0.7784 -0.2686
 6881SOL     OW32278   0.707   1.330   2.188 -0.0056  0.0879  0.2549
 6881SOL    HW132279   0.802   1.322   2.194  0.0379  1.6776  1.7933
 6881SOL    HW232280   0.703   1.424   2.206 -0.4497  0.4794 -1.9088
 6882SOL     OW32281   1.640   1.228   4.667  0.7302  0.0147 -0.6845
 6882SOL    HW132282   1.668   1.141   4.697  0.2271  0.8087  2.1254
 6882SOL    HW232283   1.557   1.196   4.632 -0.0923  0.0412  1.2479
 6883SOL     OW32284   3.982   4.239   0.211  0.2744 -0.3828 -0.2636
 6883SOL    HW132285   3.956   4.292   0.286  2.3582  0.8462 -0.4234
 6883SOL    HW232286   3.989   4.151   0.248 -3.4732 -0.8954 -0.7411
 6884SOL     OW32287   1.370   1.005   7.236  0.7542 -0.0614 -0.1626
 6884SOL    HW132288   1.411   0.932   7.192 -0.5253  0.1320 -1.6738
 6884SOL    HW232289   1.314   0.960   7.300  3.8395 -1.8029  1.2691
 6885SOL     OW32290   1.134   0.630   7.627 -0.1565 -0.5155 -0.7098
 6885SOL    HW132291   1.076   0.634   7.703  2.4375 -0.1676  1.2348
 6885SOL    HW232292   1.092   0.696   7.573  2.0000  1.1852 -0.3020
 6886SOL     OW32293   3.569   2.931  13.709 -0.1125 -0.3428  0.4965
 6886SOL    HW132294   3.551   2.900  13.798 -0.5684 -2.8825 -0.4686
 6886SOL    HW232295   3.639   2.990  13.735 -0.6213  0.9005 -1.0003
 6887SOL     OW32296   4.405   1.294  10.061  0.1825  0.0719 -0.4513
 6887SOL    HW132297   4.330   1.293  10.002  0.2323 -3.2796 -0.4699
 6887SOL    HW232298   4.478   1.289   9.999 -0.2599 -2.2160 -0.8045
 6888SOL     OW32299   2.934   2.157   3.513 -0.8837  0.2737  0.1666
 6888SOL    HW132300   2.929   2.236   3.458 -0.1031 -0.0570 -0.3907
 6888SOL    HW232301   2.986   2.196   3.583  0.4512  0.1793 -0.7574
 6889SOL     OW32302   1.288   2.839   9.564 -0.9264 -0.0849 -0.1253
 6889SOL    HW132303   1.278   2.828   9.658 -0.8606  1.3423  0.0494
 6889SOL    HW232304   1.303   2.750   9.532  0.4084  0.1906 -0.2858
 6890SOL     OW32305   4.468   1.002   3.238  0.1205  0.1842 -0.4483
 6890SOL    HW132306   4.548   1.021   3.288  0.7955 -3.7926 -0.0099
 6890SOL    HW232307   4.459   0.908   3.253 -0.5257  0.5346  1.3383
 6891SOL     OW32308   0.338   0.738   6.128  0.4515  0.0963  0.4690
 6891SOL    HW132309   0.422   0.779   6.104  0.2514  0.2749  0.0666
 6891SOL    HW232310   0.283   0.815   6.142 -2.2843 -1.6484 -0.8465
 6892SOL     OW32311   1.922   4.118   3.559  0.7442 -0.0978  0.3466
 6892SOL    HW132312   1.919   4.023   3.574 -0.1332 -0.3873 -1.5959
 6892SOL    HW232313   1.908   4.126   3.465 -0.9064 -2.2443  0.4067
 6893SOL     OW32314   1.287   3.028   1.053 -0.8327  0.1125  0.4614
 6893SOL    HW132315   1.369   2.981   1.069  0.0431  1.0533 -1.2696
 6893SOL    HW232316   1.280   3.071   1.138 -1.7617  0.1150  0.3829
 6894SOL     OW32317   3.479   3.837   1.976  0.2908 -0.1125  0.2311
 6894SOL    HW132318   3.459   3.929   1.993 -0.4208 -0.2149 -0.0814
 6894SOL    HW232319   3.406   3.789   2.015  2.4281 -0.3259  4.0117
 6895SOL     OW32320   4.137   3.004   6.545 -0.0675  0.5553 -0.0030
 6895SOL    HW132321   4.143   2.932   6.482  0.4504  1.5390 -1.0626
 6895SOL    HW232322   4.047   3.032   6.532 -0.0474  0.7078  0.1828
 6896SOL     OW32323   0.348   1.629   3.573 -0.2616  0.5107  0.0080
 6896SOL    HW132324   0.287   1.665   3.637 -2.5130 -0.2293 -1.6632
 6896SOL    HW232325   0.352   1.694   3.503  2.0964 -2.6588 -2.8482
 6897SOL     OW32326   2.105   0.227   7.274  0.2144 -0.1974  0.2460
 6897SOL    HW132327   2.023   0.218   7.227  1.6231  0.8620 -2.3865
 6897SOL    HW232328   2.127   0.135   7.287  1.2660 -0.3677 -2.8793
 6898SOL     OW32329   2.596   1.668   5.699 -0.5049 -0.3399 -0.1522
 6898SOL    HW132330   2.565   1.581   5.673  1.0514 -1.1417  0.7035
 6898SOL    HW232331   2.596   1.719   5.617 -1.4333 -0.4212 -0.2037
 6899SOL     OW32332   1.669   1.650   6.338  0.6627 -0.2024 -0.1349
 6899SOL    HW132333   1.626   1.606   6.411  0.6426 -0.2750 -0.1896
 6899SOL    HW232334   1.639   1.739   6.353  0.5946  0.5132 -4.3194
 6900SOL     OW32335   3.343   4.109  12.172 -0.2204 -0.1709 -0.1272
 6900SOL    HW132336   3.419   4.056  12.150  1.5878  0.5518  4.5523
 6900SOL    HW232337   3.301   4.056  12.241  0.6576 -0.7420 -0.0391
 6901SOL     OW32338   0.316   3.906  16.194 -0.2167 -0.5136  0.1728
 6901SOL    HW132339   0.224   3.918  16.217  0.1704 -0.2091  1.5591
 6901SOL    HW232340   0.319   3.954  16.111  1.7790  1.3354  1.3125
 6902SOL     OW32341   3.388   1.955   8.982  0.3560  0.1771 -0.0471
 6902SOL    HW132342   3.317   1.969   9.045  1.2075  3.4997  0.1564
 6902SOL    HW232343   3.425   2.043   8.983  2.4280 -0.7031  1.3997
 6903SOL     OW32344   0.737   3.178  13.394 -0.3628 -0.2359  0.2837
 6903SOL    HW132345   0.804   3.246  13.399 -1.7414  0.9947  1.7623
 6903SOL    HW232346   0.748   3.137  13.479 -0.4734 -0.1021  0.3610
 6904SOL     OW32347   0.437   0.582   0.650  0.9546  1.0254 -0.1998
 6904SOL    HW132348   0.451   0.566   0.743  1.1157  1.0179 -0.2241
 6904SOL    HW232349   0.526   0.604   0.623  2.5103 -1.9074  2.4820
 6905SOL     OW32350   0.933   4.708   2.926  0.3852  0.1578 -0.0869
 6905SOL    HW132351   0.880   0.021   2.865 -0.3024 -0.8274 -0.3223
 6905SOL    HW232352   1.005   0.030   2.942 -0.7620  1.0564  1.6950
 6906SOL     OW32353   1.537   4.655   6.316 -0.0942  0.5783 -0.3712
 6906SOL    HW132354   1.558   4.692   6.402 -0.5013 -0.0899  0.0175
 6906SOL    HW232355   1.443   4.671   6.318  0.0342  1.0443  1.9376
 6907SOL     OW32356   1.172   1.520   6.895 -0.4927  0.1785 -0.0813
 6907SOL    HW132357   1.220   1.569   6.962 -0.3965 -1.2045  0.8652
 6907SOL    HW232358   1.099   1.478   6.941 -1.4194  1.1606 -0.6527
 6908SOL     OW32359   2.857   3.734   8.672  0.0143  0.0782  0.1069
 6908SOL    HW132360   2.815   3.791   8.608 -0.9396  0.0292  0.6794
 6908SOL    HW232361   2.797   3.740   8.747 -0.1330  1.3991 -0.1212
 6909SOL     OW32362   3.340   0.689   6.378  0.1592 -0.1043 -0.1550
 6909SOL    HW132363   3.328   0.610   6.430 -0.9747 -1.5341 -2.6120
 6909SOL    HW232364   3.258   0.690   6.329  0.6335 -0.6468 -0.9470
 6910SOL     OW32365   3.163   1.016   5.662  0.5218 -0.5806 -0.2909
 6910SOL    HW132366   3.233   1.079   5.678 -0.6599  0.7974 -0.4998
 6910SOL    HW232367   3.201   0.958   5.596  0.8526  0.8387 -1.3486
 6911SOL     OW32368   3.535   1.918   7.822  0.0638 -0.2842  0.4670
 6911SOL    HW132369   3.623   1.948   7.847  0.7018 -0.5860 -1.4044
 6911SOL    HW232370   3.493   1.900   7.905 -1.0110 -0.2200 -0.0707
 6912SOL     OW32371   4.573   4.475   4.585 -0.2329  0.3875 -0.0461
 6912SOL    HW132372   4.487   4.459   4.623  0.0974 -0.4596  0.3429
 6912SOL    HW232373   4.591   4.389   4.545 -2.2048  0.4206 -0.9921
 6913SOL     OW32374   1.081   2.542  14.097  0.1072  0.0836 -0.1691
 6913SOL    HW132375   1.165   2.587  14.098  0.6090 -0.9054  1.5268
 6913SOL    HW232376   1.017   2.612  14.084 -1.0462 -0.7179  1.1822
 6914SOL     OW32377   2.377   1.785  10.105 -0.4218 -0.0832 -0.1219
 6914SOL    HW132378   2.454   1.728  10.111 -0.8520 -0.5944  0.5923
 6914SOL    HW232379   2.400   1.847  10.174 -2.0589  0.7204 -0.3076
 6915SOL     OW32380   4.284   3.882   1.768 -0.2354 -0.1985  0.2059
 6915SOL    HW132381   4.293   3.827   1.846  0.2997 -1.5063 -0.7816
 6915SOL    HW232382   4.340   3.954   1.796  0.2606  0.0871 -1.5435
 6916SOL     OW32383   0.673   3.795   4.933 -0.0287  0.1140  0.0114
 6916SOL    HW132384   0.613   3.848   4.879  0.0064  3.0152  2.8147
 6916SOL    HW232385   0.620   3.749   4.998 -2.1350  1.8182 -0.4965
 6917SOL     OW32386   3.735   2.924   9.018 -0.3506 -0.1692  0.1984
 6917SOL    HW132387   3.660   2.918   8.958 -0.1091  0.1067 -0.1291
 6917SOL    HW232388   3.709   3.000   9.070 -0.8288 -1.6136  2.0695
 6918SOL     OW32389   4.426   3.996   6.928  0.4843 -0.4267 -0.2775
 6918SOL    HW132390   4.347   3.953   6.961 -0.2294 -0.6874 -2.3494
 6918SOL    HW232391   4.495   3.955   6.981  0.1791 -0.9176 -0.2532
 6919SOL     OW32392   1.410   2.265   6.597  0.1481 -0.4153 -0.4609
 6919SOL    HW132393   1.332   2.214   6.578  1.2926 -2.9742  1.7338
 6919SOL    HW232394   1.376   2.348   6.565  1.7608  0.9478  1.3730
 6920SOL     OW32395   0.373   3.429  11.766  0.1920 -0.3714  0.1193
 6920SOL    HW132396   0.426   3.365  11.814 -1.4951 -1.2714  0.7628
 6920SOL    HW232397   0.287   3.402  11.797  0.1272 -1.4765 -1.0067
 6921SOL     OW32398   2.664   0.560   7.731 -1.1384 -0.4090  0.3027
 6921SOL    HW132399   2.687   0.490   7.671  0.8480  0.0946  0.4842
 6921SOL    HW232400   2.698   0.516   7.809  0.4111 -0.7049 -0.5397
 6922SOL     OW32401   1.037   1.060   2.165 -0.7174 -0.7018 -0.2648
 6922SOL    HW132402   1.117   1.027   2.124  1.2135 -0.2476  3.0714
 6922SOL    HW232403   1.037   1.005   2.244  0.0443  1.5202  1.2554
 6923SOL     OW32404   2.690   0.205   2.998  0.3143  0.1700 -0.1611
 6923SOL    HW132405   2.691   0.212   2.903  2.9790  4.3080  0.1676
 6923SOL    HW232406   2.677   0.111   3.012  0.2102  0.6154  2.7131
 6924SOL     OW32407   1.706   2.480   7.021  0.4975  0.1054  0.0407
 6924SOL    HW132408   1.769   2.410   7.008  0.7438  0.3176  0.0979
 6924SOL    HW232409   1.644   2.452   6.953  1.0021  1.0921 -0.8309
 6925SOL     OW32410   1.526   4.374  11.719 -0.0540 -0.2240 -0.1226
 6925SOL    HW132411   1.602   4.409  11.672 -0.3478  2.2919  1.2556
 6925SOL    HW232412   1.455   4.381  11.655  0.4400 -1.7736 -0.8430
 6926SOL     OW32413   1.470   1.026  13.034  0.2180  0.0983  0.2671
 6926SOL    HW132414   1.411   1.075  12.976 -0.0795 -1.3842 -0.6871
 6926SOL    HW232415   1.514   1.103  13.070  1.1623 -1.1006  1.6552
 6927SOL     OW32416   2.049   4.425   4.166  0.7234 -0.2818  0.7421
 6927SOL    HW132417   2.136   4.441   4.203  1.3094 -0.8773 -0.3695
 6927SOL    HW232418   2.006   4.499   4.209 -1.1128 -0.0489 -1.4644
 6928SOL     OW32419   2.628   0.233  12.491  0.1795  0.1707  0.2356
 6928SOL    HW132420   2.717   0.209  12.467 -0.2363 -1.8224  0.6874
 6928SOL    HW232421   2.628   0.178  12.569 -1.5608 -0.4626 -0.2284
 6929SOL     OW32422   0.758   1.656   9.098 -0.1016  0.2854 -0.8002
 6929SOL    HW132423   0.807   1.737   9.084 -1.3159  0.8743 -1.6104
 6929SOL    HW232424   0.734   1.663   9.190 -0.4149 -0.9917 -0.7843
 6930SOL     OW32425   4.309   3.971  10.962 -0.3396 -0.5295 -0.7011
 6930SOL    HW132426   4.389   4.017  10.988 -0.3600 -0.7931 -0.1830
 6930SOL    HW232427   4.268   4.042  10.912  0.3847 -0.6597 -1.4746
 6931SOL     OW32428   1.364   0.377   8.793  0.2986  0.2776 -0.3242
 6931SOL    HW132429   1.292   0.317   8.771  0.3817  0.2490 -0.5244
 6931SOL    HW232430   1.431   0.308   8.789  1.4472  1.5489 -2.7549
 6932SOL     OW32431   3.655   0.325  10.470 -0.3469  0.1424 -0.3782
 6932SOL    HW132432   3.576   0.360  10.509 -0.8974 -0.8861 -0.5646
 6932SOL    HW232433   3.630   0.234  10.454  0.3430 -0.1475  0.1914
 6933SOL     OW32434   0.245   3.307  13.869  0.5805  0.5701 -0.0346
 6933SOL    HW132435   0.153   3.284  13.866  1.3963 -2.3275 -2.8683
 6933SOL    HW232436   0.273   3.277  13.783 -1.2636  0.1688 -0.4863
 6934SOL     OW32437   2.236   2.528  11.019 -0.2072  0.1496  0.1631
 6934SOL    HW132438   2.243   2.434  11.001 -1.1036  0.0929  0.0718
 6934SOL    HW232439   2.202   2.569  10.940  0.0361 -2.0198 -1.0610
 6935SOL     OW32440   2.518   4.312  10.780  0.1529 -0.0065  0.2830
 6935SOL    HW132441   2.473   4.232  10.807  2.4852 -1.3397  0.2948
 6935SOL    HW232442   2.502   4.301  10.687 -0.9333 -1.3479  0.6295
 6936SOL     OW32443   4.536   1.049   3.928  0.2914 -0.1757 -0.3986
 6936SOL    HW132444   4.467   1.039   3.994 -1.1978 -0.6907 -2.0352
 6936SOL    HW232445   4.611   1.012   3.975 -0.6268  1.8157  2.6344
 6937SOL     OW32446   0.542   2.591   5.235 -0.1433 -0.1510  0.1052
 6937SOL    HW132447   0.587   2.579   5.318  3.1329  0.0537 -1.6578
 6937SOL    HW232448   0.503   2.678   5.242  0.7673  0.3760 -1.2948
 6938SOL     OW32449   3.585   4.440  12.310 -0.2616  0.2638 -0.4222
 6938SOL    HW132450   3.673   4.405  12.299  1.2230  3.5407  1.2349
 6938SOL    HW232451   3.603   4.534  12.308 -0.6227  0.3455  0.2961
 6939SOL     OW32452   1.194   0.053   7.305  0.1700  0.5320  0.0543
 6939SOL    HW132453   1.221   0.061   7.396  0.2926 -1.7489  0.2065
 6939SOL    HW232454   1.205   0.142   7.271  0.2401  0.2665 -0.6160
 6940SOL     OW32455   1.886   1.429  14.869  0.2647 -0.9699 -0.2231
 6940SOL    HW132456   1.796   1.460  14.860  1.2497  2.1873  0.5873
 6940SOL    HW232457   1.921   1.509  14.830  1.2443 -0.4232  1.7481
 6941SOL     OW32458   0.444   3.143   5.133 -0.0322  0.4491 -0.3427
 6941SOL    HW132459   0.436   3.221   5.078 -1.9552  0.3793 -0.1871
 6941SOL    HW232460   0.407   3.188   5.209  0.8042  1.0025 -0.2750
 6942SOL     OW32461   3.383   4.585   4.267 -0.1018  0.3054  0.0147
 6942SOL    HW132462   3.343   4.593   4.181  0.4406 -1.7277 -0.4297
 6942SOL    HW232463   3.345   4.654   4.322 -1.6995 -0.9171  0.4455
 6943SOL     OW32464   0.820   0.566   8.805 -0.4164  0.2548 -0.2791
 6943SOL    HW132465   0.857   0.618   8.733  0.7728  0.9693  0.8411
 6943SOL    HW232466   0.862   0.483   8.784  0.0238  0.8823 -1.9549
 6944SOL     OW32467   2.958   3.173   4.894  0.2267  0.5116 -0.3491
 6944SOL    HW132468   3.002   3.107   4.841 -1.8357 -0.6222 -0.6411
 6944SOL    HW232469   3.014   3.171   4.971  0.5922 -1.1010 -0.6608
 6945SOL     OW32470   1.253   3.814   4.764 -0.2377 -0.1466  0.0626
 6945SOL    HW132471   1.177   3.801   4.821  0.0420  0.0942  0.4864
 6945SOL    HW232472   1.265   3.909   4.765  1.2947 -0.3531 -0.0643
 6946SOL     OW32473   1.781   3.003   4.744 -0.4377 -0.3567 -0.4079
 6946SOL    HW132474   1.856   2.949   4.721  0.2135 -0.6620  2.3611
 6946SOL    HW232475   1.743   2.950   4.815  1.6236 -0.4075  0.6700
 6947SOL     OW32476   0.477   4.411   1.729 -0.2639  0.1624 -0.3678
 6947SOL    HW132477   0.414   4.382   1.795  0.1820  0.5100  0.2087
 6947SOL    HW232478   0.553   4.356   1.748 -0.2503  0.1016 -0.5912
 6948SOL     OW32479   4.229   3.642  17.166  0.5218 -0.5463  0.3513
 6948SOL    HW132480   4.284   3.563  17.171 -1.1948 -1.8309 -0.8925
 6948SOL    HW232481   4.218   3.667  17.257  3.6148  1.7074  0.1159
 6949SOL     OW32482   2.152   0.055  12.094 -0.1724  0.4336  0.3265
 6949SOL    HW132483   2.239   0.091  12.109  0.3173  0.1667 -1.9806
 6949SOL    HW232484   2.125   0.097  12.012  0.8288 -0.1580 -0.2926
 6950SOL     OW32485   2.184   2.898  12.471  0.3928  0.2046  0.2575
 6950SOL    HW132486   2.187   2.886  12.566 -1.0588 -0.0619  0.2770
 6950SOL    HW232487   2.093   2.928  12.468  0.0775 -0.6614  1.5706
 6951SOL     OW32488   3.430   4.088   3.299 -0.0519  0.3164 -0.2448
 6951SOL    HW132489   3.414   4.182   3.290  1.8096  0.5304 -1.2911
 6951SOL    HW232490   3.489   4.087   3.374 -0.4733  0.3342  0.0856
 6952SOL     OW32491   1.236   0.871   3.599  0.3438 -0.4544 -0.0163
 6952SOL    HW132492   1.191   0.950   3.568  0.0030 -0.3315  0.7916
 6952SOL    HW232493   1.210   0.884   3.690  2.4366 -0.5835  0.6158
 6953SOL     OW32494   1.847   2.508   8.339  0.1565  0.3268  0.0170
 6953SOL    HW132495   1.922   2.450   8.352  0.0607  0.0929 -0.4636
 6953SOL    HW232496   1.874   2.599   8.326  0.9303  0.4872  2.8740
 6954SOL     OW32497   1.114   2.633   2.356 -0.8593  0.6414  0.0081
 6954SOL    HW132498   1.100   2.565   2.290 -0.7804 -0.5620  1.2361
 6954SOL    HW232499   1.135   2.579   2.433 -0.0050  0.4823 -0.3419
 6955SOL     OW32500   0.258   0.161   2.360 -0.8232  0.4262 -0.8436
 6955SOL    HW132501   0.175   0.121   2.333  0.0372  0.9993 -4.3679
 6955SOL    HW232502   0.240   0.176   2.453  2.0075  2.6768 -0.6707
 6956SOL     OW32503   2.578   2.220  13.725  0.1127 -0.0701  0.6177
 6956SOL    HW132504   2.496   2.260  13.694 -0.4834  0.2544  2.5988
 6956SOL    HW232505   2.584   2.263  13.810 -0.5240  2.3823 -0.5523
 6957SOL     OW32506   1.328   4.092   6.421  0.1477  0.0575 -0.0884
 6957SOL    HW132507   1.403   4.144   6.450 -0.2496 -0.5123  1.9839
 6957SOL    HW232508   1.262   4.160   6.434  0.4775  0.6220 -1.4719
 6958SOL     OW32509   2.790   3.681   7.757  0.1452 -0.1837 -0.1414
 6958SOL    HW132510   2.734   3.624   7.704  0.3548 -0.2274 -0.3137
 6958SOL    HW232511   2.780   3.651   7.847 -0.7391 -1.1175 -0.5562
 6959SOL     OW32512   2.456   0.947  11.867 -0.2803 -0.0604  0.0047
 6959SOL    HW132513   2.381   0.924  11.921 -1.0992 -0.1450 -1.1811
 6959SOL    HW232514   2.493   0.861  11.847 -2.1283 -0.9063  0.2166
 6960SOL     OW32515   2.146   3.908  17.697 -0.2564  0.0876  0.4386
 6960SOL    HW132516   2.192   3.924  17.615 -1.9973  0.0633 -0.5495
 6960SOL    HW232517   2.061   3.867  17.678 -1.0231  0.7687  2.4091
 6961SOL     OW32518   4.734   1.524   3.020  0.4448  0.1282 -0.2321
 6961SOL    HW132519   4.658   1.561   2.975 -0.9379 -2.2886  0.1234
 6961SOL    HW232520   0.027   1.608   3.055 -0.8490  1.5170 -2.4243
 6962SOL     OW32521   3.601   3.875   6.548 -0.3656 -0.5879 -0.2946
 6962SOL    HW132522   3.587   3.970   6.537  1.1309 -0.3886 -0.4641
 6962SOL    HW232523   3.536   3.836   6.490  0.4142 -0.4943 -1.2316
 6963SOL     OW32524   2.543   0.518   6.720  0.0875  0.3924 -0.2752
 6963SOL    HW132525   2.539   0.514   6.625 -2.3263  1.5033 -0.2240
 6963SOL    HW232526   2.496   0.600   6.736 -1.4206 -0.0252 -2.5407
 6964SOL     OW32527   0.210   4.096  16.751  0.1367  0.0562 -0.4339
 6964SOL    HW132528   0.233   4.092  16.844  1.6433 -0.0054 -0.8025
 6964SOL    HW232529   0.285   4.052  16.710  2.0427  3.0089 -0.0814
 6965SOL     OW32530   4.291   2.875   5.808 -1.1150  1.0869 -0.5036
 6965SOL    HW132531   4.376   2.871   5.853 -0.3968  0.8909 -1.8640
 6965SOL    HW232532   4.241   2.932   5.866 -1.0149 -2.4416  3.0372
 6966SOL     OW32533   2.183   1.074   9.008 -0.5743 -0.1173  0.4109
 6966SOL    HW132534   2.133   1.100   8.930  1.2128 -0.5730 -0.8765
 6966SOL    HW232535   2.269   1.061   8.969  0.4780  2.7586  1.8035
 6967SOL     OW32536   0.226   4.528   2.991  0.3779  0.0969  0.3956
 6967SOL    HW132537   0.236   4.484   3.075  2.2717 -0.5295 -0.1540
 6967SOL    HW232538   0.267   4.612   3.011 -2.8180  1.2703  2.0802
 6968SOL     OW32539   3.917   1.295   5.230  0.4821  0.2324  0.1944
 6968SOL    HW132540   3.830   1.314   5.264  0.1028  1.1506 -1.2694
 6968SOL    HW232541   3.935   1.383   5.197 -0.3711 -0.2136 -1.4832
 6969SOL     OW32542   0.202   2.998   5.261 -0.5104 -0.0898 -0.3300
 6969SOL    HW132543   0.200   2.989   5.357 -0.8194 -1.8240 -0.5008
 6969SOL    HW232544   0.281   2.951   5.236 -0.6195 -0.6646  0.4189
 6970SOL     OW32545   2.287   3.177  13.882 -0.2756 -0.0620  0.4980
 6970SOL    HW132546   2.232   3.102  13.861 -0.9725  0.3752  0.7549
 6970SOL    HW232547   2.224   3.234  13.927  0.7752  0.3770  1.4050
 6971SOL     OW32548   1.831   2.554  14.847  0.3791 -0.5244  0.0613
 6971SOL    HW132549   1.823   2.597  14.762  0.4576 -3.5540 -1.4715
 6971SOL    HW232550   1.791   2.468  14.836  1.6825 -1.1212  0.0155
 6972SOL     OW32551   0.044   3.642  15.229  0.3827 -0.1998  0.6388
 6972SOL    HW132552   0.001   3.645  15.314 -0.8679  1.2791 -0.0419
 6972SOL    HW232553   0.053   3.547  15.225  3.7956  0.1924 -1.1681
 6973SOL     OW32554   4.508   3.426  15.427  0.0311  0.0779 -0.0510
 6973SOL    HW132555   4.568   3.356  15.400 -0.6011 -0.8862  1.0709
 6973SOL    HW232556   4.491   3.474  15.346  0.4716 -2.3457 -1.5552
 6974SOL     OW32557   0.627   3.645   2.073 -0.5005  0.3696  0.2367
 6974SOL    HW132558   0.657   3.722   2.025 -0.6688  0.2948  0.0069
 6974SOL    HW232559   0.571   3.677   2.144 -0.0135  1.3648  0.1616
 6975SOL     OW32560   3.164   3.379  14.945  0.3245  0.2441 -0.3772
 6975SOL    HW132561   3.204   3.334  15.019  0.9338 -1.8134 -1.9806
 6975SOL    HW232562   3.138   3.305  14.891  0.1117  0.2779 -0.3226
 6976SOL     OW32563   3.136   3.385   6.096  0.6302  0.1214 -0.3736
 6976SOL    HW132564   3.216   3.423   6.062  0.8528 -1.7021 -1.8811
 6976SOL    HW232565   3.150   3.290   6.092  0.7316  0.0632  1.2174
 6977SOL     OW32566   1.917   1.315   3.190 -0.5302  0.1777  0.1314
 6977SOL    HW132567   1.950   1.276   3.109 -1.7362 -2.0744  0.7187
 6977SOL    HW232568   1.876   1.397   3.162  2.3998  1.7656  0.5122
 6978SOL     OW32569   1.221   4.120   0.421 -0.2798  0.3043  0.0250
 6978SOL    HW132570   1.315   4.113   0.406 -0.1220  2.4212 -0.0039
 6978SOL    HW232571   1.185   4.102   0.334 -1.4981  0.4671  0.4934
 6979SOL     OW32572   0.614   3.858   0.366  0.4210 -0.7050  0.4740
 6979SOL    HW132573   0.543   3.882   0.306  0.6052 -2.3408 -0.4056
 6979SOL    HW232574   0.588   3.769   0.391  1.3957 -0.7413  1.3558
 6980SOL     OW32575   2.216   4.137   8.377 -0.3634  0.2210 -0.2799
 6980SOL    HW132576   2.263   4.159   8.296  0.0473 -0.2089 -0.1583
 6980SOL    HW232577   2.240   4.214   8.429  0.8911 -1.0320  0.9923
 6981SOL     OW32578   4.177   4.295   3.333 -0.2853  0.4213  0.6419
 6981SOL    HW132579   4.164   4.333   3.246  1.1861  0.0351  0.2605
 6981SOL    HW232580   4.248   4.350   3.366 -0.7179  0.6160  1.2511
 6982SOL     OW32581   1.386   1.373   8.851  0.2701 -0.3739  0.0282
 6982SOL    HW132582   1.317   1.316   8.887 -0.4845 -0.6733 -1.8756
 6982SOL    HW232583   1.438   1.300   8.817  3.4106  3.0120 -2.3125
 6983SOL     OW32584   2.870   4.211  10.496  0.1825  0.2474  0.4171
 6983SOL    HW132585   2.792   4.263  10.482  0.4372  0.4580 -0.2346
 6983SOL    HW232586   2.934   4.269  10.453 -1.3428  2.5437  1.2884
 6984SOL     OW32587   1.583   3.421  11.065 -0.1332 -0.2254 -0.2179
 6984SOL    HW132588   1.659   3.443  11.119 -2.5929  2.4613  2.2106
 6984SOL    HW232589   1.545   3.350  11.117 -0.0612 -2.1850 -2.8376
 6985SOL     OW32590   4.176   0.249   6.349 -0.4905  0.5949 -0.0829
 6985SOL    HW132591   4.241   0.214   6.411 -0.4310  0.3914 -0.2586
 6985SOL    HW232592   4.110   0.180   6.344  1.6200 -1.5375  1.4870
 6986SOL     OW32593   0.895   3.309   2.832  0.1121  0.4929 -0.7971
 6986SOL    HW132594   0.904   3.379   2.767 -0.5755 -0.2314 -1.6749
 6986SOL    HW232595   0.984   3.302   2.866  0.1604 -0.0184 -1.0267
 6987SOL     OW32596   0.916   3.709   2.899 -0.1305  0.2985 -0.4223
 6987SOL    HW132597   0.903   3.795   2.860 -0.7982  0.4139  0.0654
 6987SOL    HW232598   0.949   3.665   2.820 -1.0712 -0.4508 -0.3923
 6988SOL     OW32599   2.001   1.272   9.988 -0.4634  0.2461  0.1557
 6988SOL    HW132600   1.987   1.354   9.942 -0.8177  1.0244  1.6608
 6988SOL    HW232601   1.910   1.240   9.987 -0.2539 -0.3978  1.3868
 6989SOL     OW32602   0.684   4.632   5.925 -0.1042 -0.2437  0.2002
 6989SOL    HW132603   0.663   4.724   5.945  1.9076  0.0732  0.8846
 6989SOL    HW232604   0.779   4.632   5.934  0.0650  0.5580 -1.5407
 6990SOL     OW32605   3.774   0.292   6.020  0.1595 -0.4073 -0.0119
 6990SOL    HW132606   3.861   0.330   6.012 -0.8497  1.5781 -1.6502
 6990SOL    HW232607   3.796   0.202   6.045  1.9685  0.5753  1.9109
 6991SOL     OW32608   4.406   4.116   1.877 -0.5328  0.1794 -0.1459
 6991SOL    HW132609   4.344   4.155   1.938  2.3735  0.0844  2.8543
 6991SOL    HW232610   4.459   4.191   1.852 -0.4501  0.2947  0.3925
 6992SOL     OW32611   2.083   0.775  15.310  0.7904  0.3345 -1.1380
 6992SOL    HW132612   2.036   0.808  15.234  0.8058  1.7007 -0.5551
 6992SOL    HW232613   2.065   0.839  15.379 -0.1553  0.2901 -1.3390
 6993SOL     OW32614   1.886   1.684   9.425 -0.1967  0.0973  0.0525
 6993SOL    HW132615   1.816   1.676   9.360  0.7494  0.1343 -0.9804
 6993SOL    HW232616   1.840   1.689   9.509  0.8398  1.0102  0.5649
 6994SOL     OW32617   2.993   1.668  12.913  0.0844 -0.2439 -0.2295
 6994SOL    HW132618   2.956   1.740  12.862  1.5241  1.1955  0.7499
 6994SOL    HW232619   2.962   1.685  13.003 -0.1566  1.0436 -0.5551
 6995SOL     OW32620   0.339   0.405   7.322 -0.5146 -0.4893 -0.4130
 6995SOL    HW132621   0.395   0.328   7.310  1.2962  0.6695  0.4573
 6995SOL    HW232622   0.298   0.412   7.236 -0.8420  1.2060 -0.1192
 6996SOL     OW32623   1.686   0.625   6.093  0.6592  0.1402 -0.2182
 6996SOL    HW132624   1.657   0.642   6.183 -1.1571  3.9088 -1.4914
 6996SOL    HW232625   1.779   0.646   6.100  0.2523  1.7462  0.3561
 6997SOL     OW32626   2.517   3.640   5.333  0.0542 -0.5302 -0.2985
 6997SOL    HW132627   2.513   3.552   5.371 -0.6262 -0.2231  0.3347
 6997SOL    HW232628   2.489   3.693   5.408  0.0022  0.0013 -0.6893
 6998SOL     OW32629   2.982   0.025   3.049 -0.0346  0.9393  0.4995
 6998SOL    HW132630   3.075   0.006   3.041 -0.1220  1.3769 -1.5056
 6998SOL    HW232631   2.959   0.060   2.963  0.8538  0.2474 -0.0205
 6999SOL     OW32632   0.995   4.010   1.432 -0.7735 -0.1313  0.2795
 6999SOL    HW132633   1.067   3.999   1.370  0.0906  1.1323  1.0548
 6999SOL    HW232634   0.953   3.925   1.441 -1.3561 -0.0136 -1.4256
 7000SOL     OW32635   2.089   2.120   7.849 -0.3275 -0.0090 -0.2364
 7000SOL    HW132636   2.109   2.205   7.810 -1.8799 -0.0432 -1.1414
 7000SOL    HW232637   2.109   2.057   7.780 -1.0983  0.3897 -0.8307
 7001SOL     OW32638   3.124   1.899   4.788 -0.4759 -0.4750  0.3715
 7001SOL    HW132639   3.218   1.892   4.805 -0.1673 -0.8513 -1.4647
 7001SOL    HW232640   3.117   1.985   4.829 -2.0967 -0.4723  0.0681
 7002SOL     OW32641   3.183   2.913   7.542 -0.5189 -0.2475 -0.3294
 7002SOL    HW132642   3.132   2.832   7.541  0.6309 -0.9636 -1.4640
 7002SOL    HW232643   3.170   2.942   7.632  0.7974 -0.1542 -0.1745
 7003SOL     OW32644   0.572   1.423   4.226 -0.2676 -0.2444  0.5263
 7003SOL    HW132645   0.583   1.512   4.260  2.1278 -0.2727 -0.1564
 7003SOL    HW232646   0.478   1.421   4.209 -0.2497 -0.9797  0.5210
 7004SOL     OW32647   0.280   4.127  13.367  0.8519 -0.1010  0.1374
 7004SOL    HW132648   0.200   4.097  13.324  0.3801 -0.2777  1.1477
 7004SOL    HW232649   0.261   4.221  13.374  0.4288 -0.1252 -0.7281
 7005SOL     OW32650   4.676   2.627   3.737 -1.1046 -0.0070  0.1093
 7005SOL    HW132651   4.707   2.540   3.711  2.1355  0.4239  2.6704
 7005SOL    HW232652   4.686   2.676   3.656 -1.5514 -1.2658 -0.7128
 7006SOL     OW32653   0.602   3.970   2.315 -0.3615  0.3621  0.2043
 7006SOL    HW132654   0.550   3.890   2.305 -1.6109  1.0249  1.5305
 7006SOL    HW232655   0.573   4.021   2.239  1.0657  0.3266 -0.3654
 7007SOL     OW32656   2.919   1.570   6.729 -0.1349 -0.6067 -0.1644
 7007SOL    HW132657   2.977   1.609   6.795  0.9575  0.6998 -1.9248
 7007SOL    HW232658   2.897   1.485   6.766  1.5652 -0.4132  1.3130
 7008SOL     OW32659   2.455   1.313   2.439 -0.3314  0.0172 -0.4621
 7008SOL    HW132660   2.369   1.279   2.467 -0.5654  0.6766 -0.3733
 7008SOL    HW232661   2.462   1.276   2.351  1.4733  0.5104 -0.5220
 7009SOL     OW32662   4.386   3.544   4.381 -0.3222 -0.1003  0.0204
 7009SOL    HW132663   4.418   3.475   4.439 -0.0869 -2.1883 -2.6151
 7009SOL    HW232664   4.307   3.574   4.426  1.6779  1.8610  2.2699
 7010SOL     OW32665   3.913   4.089   3.224  0.1413  0.1453 -0.3363
 7010SOL    HW132666   3.832   4.046   3.198 -0.6737  2.2439 -1.2442
 7010SOL    HW232667   3.878   4.171   3.257 -1.1447  0.1738 -1.7712
 7011SOL     OW32668   2.879   1.884  16.755  0.0855 -0.1632  0.3468
 7011SOL    HW132669   2.800   1.855  16.801  0.1196  0.6659  0.9313
 7011SOL    HW232670   2.870   1.835  16.673  0.7489 -0.2017  0.2992
 7012SOL     OW32671   1.384   2.381   3.785  0.3144 -0.1196 -0.2995
 7012SOL    HW132672   1.323   2.360   3.856  0.8543  0.1515  0.2456
 7012SOL    HW232673   1.420   2.464   3.815 -0.9878  0.6324 -0.7835
 7013SOL     OW32674   0.152   0.507  11.769  0.0584 -0.2345 -0.0500
 7013SOL    HW132675   0.110   0.469  11.692  1.1543 -1.9469  0.1740
 7013SOL    HW232676   0.083   0.565  11.800  0.0223 -0.2509 -0.0991
 7014SOL     OW32677   1.061   4.549   4.247  0.6110 -0.0490  0.2743
 7014SOL    HW132678   1.102   4.482   4.301  2.4409  1.1810  0.4192
 7014SOL    HW232679   1.057   4.622   4.309 -1.1936 -0.8021  1.0436
 7015SOL     OW32680   3.610   3.989   9.069 -0.2344 -0.0132 -0.1427
 7015SOL    HW132681   3.633   4.081   9.053  0.1064  0.5195  3.1950
 7015SOL    HW232682   3.557   3.997   9.149 -1.4447  0.3230 -0.9704
 7016SOL     OW32683   2.795   4.228   7.156  0.5997  0.4114  0.6684
 7016SOL    HW132684   2.783   4.134   7.145  0.4271  0.5809 -0.5651
 7016SOL    HW232685   2.862   4.256   7.094  0.2289  1.9813  0.9637
 7017SOL     OW32686   2.757   2.458   6.798 -0.4108 -0.0640 -0.7482
 7017SOL    HW132687   2.662   2.458   6.793 -0.3939 -0.6919 -1.1181
 7017SOL    HW232688   2.778   2.471   6.706  0.5768 -2.7820 -0.8961
 7018SOL     OW32689   3.271   3.914   0.247  0.2605 -0.4508  0.2137
 7018SOL    HW132690   3.365   3.927   0.261 -0.0351  0.6532  1.1838
 7018SOL    HW232691   3.279   3.821   0.226 -0.4865 -0.6280  0.7353
 7019SOL     OW32692   3.636   0.842   7.019 -0.0465  0.3961  0.3650
 7019SOL    HW132693   3.681   0.861   6.937  0.8419  1.2153  1.0356
 7019SOL    HW232694   3.576   0.780   6.978 -0.6054  0.5484  0.9566
 7020SOL     OW32695   0.721   3.090  14.361 -0.8730  0.1897  0.1129
 7020SOL    HW132696   0.661   3.034  14.410  1.6616 -0.7745  2.1458
 7020SOL    HW232697   0.678   3.171  14.387 -0.1741  0.2020  1.2295
 7021SOL     OW32698   2.868   0.477  10.829 -0.0247 -0.5787  0.5277
 7021SOL    HW132699   2.937   0.441  10.774 -0.1787 -0.5737  0.3334
 7021SOL    HW232700   2.889   0.570  10.837  0.6452 -0.6564 -0.3198
 7022SOL     OW32701   1.135   3.845   6.273  0.0135  0.2033  0.5280
 7022SOL    HW132702   1.145   3.929   6.317 -2.3134 -0.8729  3.1068
 7022SOL    HW232703   1.226   3.814   6.276  0.5315  1.5714 -1.5651
 7023SOL     OW32704   0.591   3.971  11.427  0.3100  0.1011  0.7531
 7023SOL    HW132705   0.562   4.062  11.425  1.4615  0.4336 -0.4589
 7023SOL    HW232706   0.569   3.953  11.518  0.6612 -1.0194  0.6173
 7024SOL     OW32707   0.220   1.006   3.776 -0.3958  0.2438  0.0989
 7024SOL    HW132708   0.215   0.949   3.852 -2.2616  1.0902  0.6006
 7024SOL    HW232709   0.127   1.006   3.754 -0.4698  0.5891  0.4200
 7025SOL     OW32710   1.564   1.199   6.471 -0.0661  0.3787 -0.1488
 7025SOL    HW132711   1.564   1.273   6.411 -0.5551  0.3257 -0.2135
 7025SOL    HW232712   1.611   1.242   6.542 -1.3653  0.3921  0.7129
 7026SOL     OW32713   0.347   3.077   8.496 -0.2337  0.4524 -0.2980
 7026SOL    HW132714   0.378   3.157   8.455  1.8392  0.0292  0.4447
 7026SOL    HW232715   0.422   3.059   8.553 -1.0839  1.8666  1.2929
 7027SOL     OW32716   3.416   0.599  13.340  0.6785  0.0412 -0.2406
 7027SOL    HW132717   3.440   0.513  13.303 -0.2022 -0.5827  0.6389
 7027SOL    HW232718   3.376   0.647  13.267 -1.0718  1.6241  1.7904
 7028SOL     OW32719   4.485   0.404  13.665  0.1015  0.3857  0.7046
 7028SOL    HW132720   4.429   0.404  13.588  0.0289  2.0567  0.7501
 7028SOL    HW232721   4.570   0.414  13.621 -1.1448  1.5335 -1.4661
 7029SOL     OW32722   3.541   3.959   2.456 -0.2166  0.3471  0.5076
 7029SOL    HW132723   3.507   3.877   2.422  1.1460  0.4778 -1.2112
 7029SOL    HW232724   3.608   3.985   2.391 -0.5646  0.1493  0.0719
 7030SOL     OW32725   0.965   4.004   3.554  0.6547 -0.1205 -0.1681
 7030SOL    HW132726   0.940   4.081   3.605 -1.1597 -0.3000 -0.7993
 7030SOL    HW232727   0.886   3.951   3.558  1.2454 -1.0760 -0.9307
 7031SOL     OW32728   3.543   2.481   6.947 -0.4950 -0.3453 -0.0091
 7031SOL    HW132729   3.524   2.575   6.939 -0.8174 -0.3822  0.3168
 7031SOL    HW232730   3.637   2.483   6.927 -0.5751 -0.5429 -0.3932
 7032SOL     OW32731   3.675   0.059  10.415 -0.6958 -0.2845  0.0104
 7032SOL    HW132732   3.619   4.734  10.370 -1.4912  0.5493 -0.1722
 7032SOL    HW232733   3.682   0.022  10.503  0.8455  2.2922  0.9748
 7033SOL     OW32734   2.468   3.581  14.063 -0.1276  0.2338  0.3174
 7033SOL    HW132735   2.410   3.652  14.035  2.4546  1.9725 -0.5973
 7033SOL    HW232736   2.526   3.638  14.113  1.7297 -1.0870 -0.3320
 7034SOL     OW32737   3.584   4.075  11.606  0.1794 -0.4440 -0.3225
 7034SOL    HW132738   3.657   4.137  11.606  0.7073 -1.0556 -1.1618
 7034SOL    HW232739   3.585   4.032  11.691  2.1709  1.6439  0.7041
 7035SOL     OW32740   0.031   1.862   0.036 -0.4553 -0.3543  0.0427
 7035SOL    HW132741   0.114   1.823   0.063 -1.1505 -1.7647  0.1427
 7035SOL    HW232742   4.712   1.786   0.035 -1.6108  0.5281 -0.8948
 7036SOL     OW32743   0.422   1.603   2.600 -0.0670  0.6951  0.3666
 7036SOL    HW132744   0.483   1.531   2.620  0.9506  1.4023 -0.1624
 7036SOL    HW232745   0.408   1.567   2.512  1.0399 -1.3801  1.0514
 7037SOL     OW32746   1.548   0.605   6.348 -0.2835  0.1428  0.1570
 7037SOL    HW132747   1.544   0.571   6.438 -1.6461 -1.0106 -0.3319
 7037SOL    HW232748   1.562   0.697   6.371  0.6454  0.0815 -0.1682
 7038SOL     OW32749   1.446   1.700   9.689  0.3987  0.3940  0.6796
 7038SOL    HW132750   1.458   1.732   9.599  1.5487 -1.5839  0.1331
 7038SOL    HW232751   1.352   1.708   9.702  0.4208  2.0229 -0.1457
 7039SOL     OW32752   3.143   1.353   8.625 -0.0801  0.2360 -0.4652
 7039SOL    HW132753   3.097   1.316   8.550 -2.1194  0.8648  0.4718
 7039SOL    HW232754   3.114   1.299   8.699 -0.7550 -0.4566 -1.2348
 7040SOL     OW32755   0.424   2.014   5.420  0.2121 -0.4680 -0.0512
 7040SOL    HW132756   0.519   2.008   5.419  0.2192 -0.1965 -0.6118
 7040SOL    HW232757   0.404   2.082   5.356 -1.3250  0.2616  1.1880
 7041SOL     OW32758   1.803   2.169   3.632  0.0070 -0.4898 -0.6489
 7041SOL    HW132759   1.850   2.250   3.610  0.9624 -0.8923 -0.1037
 7041SOL    HW232760   1.728   2.167   3.573 -1.6158 -0.3376  1.4466
 7042SOL     OW32761   3.442   3.006  12.178 -0.2429 -0.2194  0.2553
 7042SOL    HW132762   3.435   3.095  12.214  1.3136  0.1598 -0.3515
 7042SOL    HW232763   3.433   2.947  12.252 -0.6575 -0.4578  0.0100
 7043SOL     OW32764   2.554   0.120  14.641 -0.1667 -0.2287  1.0927
 7043SOL    HW132765   2.616   0.048  14.636 -1.4052 -1.0876 -1.8183
 7043SOL    HW232766   2.469   0.081  14.660 -0.1891 -0.8030 -0.2397
 7044SOL     OW32767   4.461   2.403   7.652 -0.4209 -0.0542  0.1768
 7044SOL    HW132768   4.502   2.490   7.649 -0.4675 -0.0429 -0.0958
 7044SOL    HW232769   4.375   2.427   7.619  0.8546  0.7529 -2.5031
 7045SOL     OW32770   0.773   2.732   9.692  0.1977  0.5148  0.0272
 7045SOL    HW132771   0.818   2.659   9.735  0.9571  1.9653  1.7175
 7045SOL    HW232772   0.683   2.703   9.706 -0.6822  2.4304 -1.7370
 7046SOL     OW32773   2.561   0.111  15.235  0.1762 -0.1503 -0.5878
 7046SOL    HW132774   2.547   0.204  15.251 -0.0162 -0.5769  1.7873
 7046SOL    HW232775   2.654   0.101  15.257  0.3355  2.1934 -0.2340
 7047SOL     OW32776   0.685   0.486  14.483  0.5204 -0.4082 -0.4360
 7047SOL    HW132777   0.725   0.571  14.465  1.7985 -0.7519  0.7439
 7047SOL    HW232778   0.596   0.510  14.510  1.5837  0.7371  2.0504
 7048SOL     OW32779   0.712   4.541  14.575  0.2675 -0.9245 -0.4085
 7048SOL    HW132780   0.623   4.577  14.566  0.4502 -0.2195  0.5899
 7048SOL    HW232781   0.763   4.608  14.529 -1.2665  1.0626  0.7450
 7049SOL     OW32782   3.160   4.230   0.368 -0.4732  0.0769 -0.4915
 7049SOL    HW132783   3.070   4.247   0.396 -0.7297  0.4170 -1.5150
 7049SOL    HW232784   3.144   4.207   0.277  0.1113 -2.2369 -0.0106
 7050SOL     OW32785   4.261   3.426   1.131 -0.0282  0.4306 -0.3546
 7050SOL    HW132786   4.205   3.495   1.165 -1.2276  0.1378 -1.6795
 7050SOL    HW232787   4.331   3.477   1.091 -1.5025  0.7540 -2.5083
 7051SOL     OW32788   4.192   0.518   6.257  0.3235  0.0823 -0.1528
 7051SOL    HW132789   4.190   0.442   6.315 -2.5049 -0.0842 -0.4710
 7051SOL    HW232790   4.237   0.584   6.310  2.3467 -0.5890 -1.0098
 7052SOL     OW32791   1.528   3.262   5.070  0.4041 -0.0816 -0.0862
 7052SOL    HW132792   1.490   3.175   5.084 -0.6307  0.3067 -0.5420
 7052SOL    HW232793   1.475   3.317   5.128 -1.1608 -0.7947 -0.8435
 7053SOL     OW32794   4.048   0.945  13.243  0.0204 -0.3237  0.5691
 7053SOL    HW132795   4.056   0.882  13.172  0.1302 -0.5928  0.8185
 7053SOL    HW232796   3.995   1.011  13.199 -1.8143 -2.2330 -0.1132
 7054SOL     OW32797   1.805   0.551   4.365  0.4411  0.6638  0.5818
 7054SOL    HW132798   1.852   0.604   4.430 -1.8239  1.3762  1.6228
 7054SOL    HW232799   1.731   0.516   4.415  0.1311  2.6335  1.4817
 7055SOL     OW32800   2.455   4.666   6.051 -0.0424 -0.6133 -0.4913
 7055SOL    HW132801   2.481   4.655   6.142  1.5947  2.1227 -0.6061
 7055SOL    HW232802   2.396   0.003   6.047  0.4972 -0.2508 -1.6532
 7056SOL     OW32803   4.520   0.866   4.854  0.1615 -0.0244 -0.2106
 7056SOL    HW132804   4.523   0.802   4.925  0.3393 -1.7465 -1.7643
 7056SOL    HW232805   4.614   0.866   4.839  0.5106 -0.1808  2.0188
 7057SOL     OW32806   3.706   4.702  11.152  0.2500  0.3394  0.3976
 7057SOL    HW132807   3.646   0.033  11.179 -0.6529 -1.4746  2.9853
 7057SOL    HW232808   3.736   4.669  11.237 -1.8175  0.1994  1.0622
 7058SOL     OW32809   2.998   0.101  13.186  0.6613  0.1125 -0.8433
 7058SOL    HW132810   2.974   0.171  13.247 -0.9938  1.3007 -2.8557
 7058SOL    HW232811   2.910   0.088  13.150 -0.1961  2.5963  0.3273
 7059SOL     OW32812   3.841   1.595   4.041 -0.5685 -0.5216 -0.0457
 7059SOL    HW132813   3.824   1.688   4.058 -1.2378 -0.9367  1.6198
 7059SOL    HW232814   3.877   1.602   3.953  0.8313  0.8403  0.6214
 7060SOL     OW32815   3.720   3.996   2.188 -0.2622  0.3875 -0.1809
 7060SOL    HW132816   3.794   3.982   2.247 -0.3383  0.6855 -0.0190
 7060SOL    HW232817   3.729   3.914   2.138  1.1069 -0.7424  1.9314
 7061SOL     OW32818   0.520   4.489  17.556  0.0787  0.0997 -0.3439
 7061SOL    HW132819   0.527   4.402  17.516  1.1697  0.1227 -0.1996
 7061SOL    HW232820   0.450   4.465  17.617 -0.1442 -0.7155 -0.9169
 7062SOL     OW32821   4.643   4.530  14.615 -0.5794 -0.1424  0.1384
 7062SOL    HW132822   4.738   4.517  14.605 -0.5128  0.5632 -0.1368
 7062SOL    HW232823   4.635   4.558  14.706 -0.9592 -0.0377  0.0717
 7063SOL     OW32824   2.585   0.778   6.236  0.1641 -0.6014  0.2778
 7063SOL    HW132825   2.593   0.873   6.232  0.5590 -0.6700 -0.4686
 7063SOL    HW232826   2.491   0.778   6.256  0.2863 -1.5831  0.8634
 7064SOL     OW32827   2.056   2.437  11.208  0.5506 -0.3162 -0.0379
 7064SOL    HW132828   2.116   2.488  11.155 -0.0439 -0.5177 -0.9076
 7064SOL    HW232829   2.002   2.505  11.250 -1.5707 -0.7268 -2.0747
 7065SOL     OW32830   2.929   0.310  10.606 -0.0762  0.0784 -0.1379
 7065SOL    HW132831   2.933   0.354  10.521 -0.9966  0.2173 -0.1144
 7065SOL    HW232832   2.837   0.282  10.604  0.0520 -0.3694  0.6145
 7066SOL     OW32833   0.147   0.850   0.515  0.3991  0.6001 -0.1273
 7066SOL    HW132834   0.153   0.796   0.594 -2.2943 -1.1212 -1.0964
 7066SOL    HW232835   0.181   0.786   0.454  3.3826  2.8604 -0.8331
 7067SOL     OW32836   2.437   2.951   8.367  0.2882 -0.3309 -0.1950
 7067SOL    HW132837   2.392   3.033   8.347 -0.7862 -1.1153 -0.9872
 7067SOL    HW232838   2.516   2.979   8.413  1.1001 -0.4719 -1.4690
 7068SOL     OW32839   3.732   0.505   6.933 -0.1434 -0.4096  0.7733
 7068SOL    HW132840   3.811   0.478   6.885  0.2413  1.3070  0.4389
 7068SOL    HW232841   3.766   0.531   7.019  3.3493  0.6290 -0.9070
 7069SOL     OW32842   2.435   4.120   7.413  0.3528  0.0469  0.0755
 7069SOL    HW132843   2.378   4.051   7.379  1.6776 -1.1027  0.1880
 7069SOL    HW232844   2.518   4.076   7.432  0.3783  0.1787  0.2738
 7070SOL     OW32845   0.059   3.999  16.246 -0.5957  0.7092  0.3401
 7070SOL    HW132846   0.025   4.041  16.167  0.1367 -0.5006 -0.6141
 7070SOL    HW232847   4.722   3.983  16.304 -0.8546  0.8728  0.0519
 7071SOL     OW32848   1.731   3.559   2.309  0.1236 -0.3694 -0.0548
 7071SOL    HW132849   1.686   3.552   2.225  0.1125  1.4755 -0.2050
 7071SOL    HW232850   1.659   3.587   2.365  0.3626  0.5210 -0.1799
 7072SOL     OW32851   1.155   3.666   7.505 -0.1157  0.1230  0.4419
 7072SOL    HW132852   1.126   3.599   7.442 -0.2438  1.3474 -0.7979
 7072SOL    HW232853   1.166   3.607   7.580 -0.7938 -0.6922 -0.0912
 7073SOL     OW32854   0.343   4.360  17.728 -0.4713 -0.2956  0.2700
 7073SOL    HW132855   0.258   4.377   0.019 -0.4989  1.5881 -0.5542
 7073SOL    HW232856   0.389   4.299   0.035  2.2451  0.9263 -0.6105
 7074SOL     OW32857   2.604   2.407  15.356  0.2262  0.2097  0.0150
 7074SOL    HW132858   2.554   2.470  15.304 -1.4302 -0.7336  0.4616
 7074SOL    HW232859   2.631   2.343  15.290 -0.5584  0.2121 -0.3117
 7075SOL     OW32860   2.301   3.587   4.802  0.0149  0.1042  0.5960
 7075SOL    HW132861   2.210   3.570   4.777 -0.2150  2.5352 -0.2947
 7075SOL    HW232862   2.285   3.573   4.895 -2.0794  0.4691  0.2865
 7076SOL     OW32863   2.339   1.882   6.952 -0.0260  0.1855 -0.2017
 7076SOL    HW132864   2.312   1.966   6.989  2.3547  0.2761  1.3423
 7076SOL    HW232865   2.420   1.862   7.000 -0.0176 -0.1324 -0.3544
 7077SOL     OW32866   0.584   1.306   5.426  0.5703  0.1181 -0.0038
 7077SOL    HW132867   0.614   1.225   5.385 -0.4949 -0.9699  1.3465
 7077SOL    HW232868   0.530   1.262   5.492  1.6086  0.0629  0.8182
 7078SOL     OW32869   2.868   2.470   3.119  0.6043  0.1225 -0.2089
 7078SOL    HW132870   2.955   2.503   3.097  1.4147 -2.0312 -0.2768
 7078SOL    HW232871   2.811   2.538   3.083  0.6157  0.9322  1.2974
 7079SOL     OW32872   4.018   4.166   2.518 -0.2547 -0.1959 -0.6142
 7079SOL    HW132873   4.112   4.182   2.511 -0.5250  0.6518 -2.2583
 7079SOL    HW232874   3.994   4.206   2.435 -0.3680  2.2371  0.5955
 7080SOL     OW32875   0.316   1.827   0.132  0.3580 -0.0863  0.2634
 7080SOL    HW132876   0.291   1.899   0.190  0.9113  0.0149  0.3787
 7080SOL    HW232877   0.373   1.875   0.071 -0.4664  0.9106  0.2699
 7081SOL     OW32878   1.467   3.705   4.163 -0.0659 -0.1233  0.0775
 7081SOL    HW132879   1.374   3.720   4.183  0.1848 -0.5435  1.5306
 7081SOL    HW232880   1.496   3.770   4.099  0.2425  0.0675  0.4066
 7082SOL     OW32881   0.244   2.685  10.189 -0.0332 -0.3329 -0.1484
 7082SOL    HW132882   0.202   2.676  10.274  1.4249  1.6101  0.7825
 7082SOL    HW232883   0.167   2.682  10.132  1.6486  0.0221 -2.4657
 7083SOL     OW32884   0.413   1.308   4.889 -0.2633 -0.1648  0.1290
 7083SOL    HW132885   0.372   1.323   4.974  0.6335 -0.5199  0.6189
 7083SOL    HW232886   0.427   1.214   4.895 -0.1397 -0.0560  1.5785
 7084SOL     OW32887   2.363   2.389   4.860 -0.2616 -0.3230  0.3529
 7084SOL    HW132888   2.352   2.295   4.855  0.0366 -0.4422  1.8105
 7084SOL    HW232889   2.286   2.429   4.819 -0.9152 -1.6796  0.2556
 7085SOL     OW32890   1.757   2.244   3.169  0.1162  0.7847  0.4871
 7085SOL    HW132891   1.720   2.314   3.223 -1.3911 -0.5526  1.1900
 7085SOL    HW232892   1.789   2.278   3.085 -0.9977  1.1920  0.2263
 7086SOL     OW32893   3.635   2.454   4.767 -0.2281 -0.3705  0.4757
 7086SOL    HW132894   3.596   2.465   4.853 -0.7772 -0.3545  0.2258
 7086SOL    HW232895   3.662   2.543   4.743  0.2058  0.0351  2.4965
 7087SOL     OW32896   3.644   0.560   4.673  0.1078 -0.2074  0.2177
 7087SOL    HW132897   3.715   0.577   4.611  0.8027  0.1623  1.1137
 7087SOL    HW232898   3.606   0.643   4.647  2.4046  0.5908 -0.5579
 7088SOL     OW32899   1.570   4.590   8.435 -0.1926 -0.4540  0.2028
 7088SOL    HW132900   1.478   4.588   8.461  0.2561 -0.6269  1.7719
 7088SOL    HW232901   1.568   4.655   8.365  1.5238 -2.9305 -2.1574
 7089SOL     OW32902   0.859   4.019  14.193 -0.0791  0.3921 -1.1356
 7089SOL    HW132903   0.840   4.103  14.151  0.9148  0.8083 -0.7589
 7089SOL    HW232904   0.856   4.056  14.281  1.4224 -0.1219 -0.8745
 7090SOL     OW32905   3.129   2.966   9.016  0.2163  0.2777  0.2879
 7090SOL    HW132906   3.058   2.961   9.080  1.6684  2.8787  2.1136
 7090SOL    HW232907   3.208   2.925   9.050  0.0347  0.6726  1.1914
 7091SOL     OW32908   3.800   2.189   5.025  0.9060  0.5225  0.5966
 7091SOL    HW132909   3.805   2.184   5.120  1.6460 -0.4125  0.5160
 7091SOL    HW232910   3.823   2.280   5.006  3.5912 -0.1163  0.7491
 7092SOL     OW32911   1.625   3.871   4.872  0.4148  0.0398 -0.2801
 7092SOL    HW132912   1.705   3.820   4.885  0.0332 -0.2567  0.9356
 7092SOL    HW232913   1.601   3.886   4.964  2.1933  0.9627  0.0434
 7093SOL     OW32914   0.507   0.202   1.645 -0.2124 -0.5670  0.2049
 7093SOL    HW132915   0.559   0.126   1.671  2.5254  1.1177 -0.3497
 7093SOL    HW232916   0.468   0.223   1.730  1.0307 -2.7890  1.3126
 7094SOL     OW32917   4.322   4.275   1.427  0.1520  0.2318  0.3964
 7094SOL    HW132918   4.368   4.244   1.505  0.4598 -0.0098  0.1252
 7094SOL    HW232919   4.331   4.203   1.365  0.0810 -0.6294  1.3966
 7095SOL     OW32920   3.968   3.185  11.452 -0.4832  0.1318 -0.1934
 7095SOL    HW132921   3.919   3.103  11.460 -0.9803  0.5297  0.8233
 7095SOL    HW232922   4.057   3.152  11.440 -0.8054  0.5661 -3.6320
 7096SOL     OW32923   1.943   3.589  15.566  0.3378  0.0383 -0.6265
 7096SOL    HW132924   2.000   3.616  15.494  1.2752 -1.0143 -0.2721
 7096SOL    HW232925   1.930   3.495  15.556  0.4918 -0.1216  0.6107
 7097SOL     OW32926   4.550   0.708   5.095 -0.2987 -0.1073  0.1343
 7097SOL    HW132927   4.629   0.683   5.048 -0.1121 -0.8786  0.8596
 7097SOL    HW232928   4.569   0.799   5.119  2.0215 -0.0725 -1.9099
 7098SOL     OW32929   3.851   0.359  10.114  0.2999  0.1636  0.1070
 7098SOL    HW132930   3.840   0.272  10.152  1.5062  0.0784  0.2583
 7098SOL    HW232931   3.871   0.346  10.021 -1.4532 -0.6512 -0.1667
 7099SOL     OW32932   1.780   3.206   0.311  0.0341  0.0343 -0.7411
 7099SOL    HW132933   1.831   3.275   0.353 -2.1161  1.5726 -0.6781
 7099SOL    HW232934   1.698   3.206   0.360  0.5546 -0.2743  0.1381
 7100SOL     OW32935   0.450   4.329  16.690 -0.1688 -0.1031  0.6096
 7100SOL    HW132936   0.490   4.384  16.758 -1.5296  0.0378  1.3063
 7100SOL    HW232937   0.366   4.375  16.685 -0.5372 -1.0986 -2.3166
 7101SOL     OW32938   4.085   3.992   5.109  0.2405 -0.0441  0.6120
 7101SOL    HW132939   4.168   3.944   5.101  0.6216  0.4931  1.3168
 7101SOL    HW232940   4.044   3.962   5.028 -0.8657  2.2946  0.2957
 7102SOL     OW32941   3.269   1.638   9.841  0.6410  0.0370  0.8005
 7102SOL    HW132942   3.352   1.601   9.872  0.4019 -0.8759  0.3499
 7102SOL    HW232943   3.220   1.557   9.827 -0.9010  0.9747  0.8394
 7103SOL     OW32944   2.251   1.698   5.348  0.9349  0.7243  0.1256
 7103SOL    HW132945   2.227   1.750   5.271 -0.2396 -0.9453 -0.6332
 7103SOL    HW232946   2.317   1.758   5.384  3.2765 -2.0710  0.4945
 7104SOL     OW32947   1.764   4.640   4.504 -0.6423  0.8008  0.1481
 7104SOL    HW132948   1.802   4.708   4.560  1.5326  0.5844 -1.0618
 7104SOL    HW232949   1.781   4.672   4.416  1.1812  0.0260  0.2116
 7105SOL     OW32950   4.681   2.417   6.123  0.2544  0.2772  0.2575
 7105SOL    HW132951   4.722   2.356   6.062 -0.8603 -0.7638  0.5560
 7105SOL    HW232952   4.597   2.378   6.145  0.3716 -0.7226 -1.0909
 7106SOL     OW32953   2.899   3.413   5.940 -0.5355 -0.3043  0.1210
 7106SOL    HW132954   2.976   3.420   5.996  0.5922 -2.0457 -1.2249
 7106SOL    HW232955   2.837   3.387   6.008 -0.7502 -3.3000 -1.2230
 7107SOL     OW32956   4.641   2.079   6.635 -0.7833 -0.3873  0.2610
 7107SOL    HW132957   4.615   2.003   6.582  1.1039 -0.1348 -1.0318
 7107SOL    HW232958   4.729   2.096   6.601 -0.6187 -2.5523 -0.3946
 7108SOL     OW32959   2.147   3.671   8.924  0.4442  0.1668  0.3570
 7108SOL    HW132960   2.103   3.587   8.914 -0.5802  0.9277 -1.5859
 7108SOL    HW232961   2.079   3.734   8.899  0.9369  1.1793  1.5746
 7109SOL     OW32962   0.579   4.506  16.821 -0.7634  0.4485 -0.7435
 7109SOL    HW132963   0.566   4.601  16.828  0.0731  0.3691  1.9462
 7109SOL    HW232964   0.673   4.499  16.802 -0.7426 -0.6113 -0.2496
 7110SOL     OW32965   0.080   0.535   3.678  0.0995 -0.4368  0.6250
 7110SOL    HW132966   0.125   0.558   3.759 -1.0854 -0.1727  1.2122
 7110SOL    HW232967   0.143   0.469   3.649  1.1135  0.8745 -0.1808
 7111SOL     OW32968   4.137   0.146   4.908 -0.2979  0.1527  0.0435
 7111SOL    HW132969   4.052   0.158   4.865 -0.4412 -1.3871 -0.1117
 7111SOL    HW232970   4.175   0.232   4.889 -0.7092  0.2231 -0.4696
 7112SOL     OW32971   2.243   2.209   2.321  0.0479  0.8146  0.5905
 7112SOL    HW132972   2.185   2.222   2.246 -1.0207 -0.0571  1.2691
 7112SOL    HW232973   2.314   2.272   2.311 -2.3668  3.3986 -0.3656
 7113SOL     OW32974   1.025   2.422   1.567 -0.7006  0.4362  0.0714
 7113SOL    HW132975   1.034   2.348   1.507 -2.2401  0.4205 -0.1504
 7113SOL    HW232976   1.083   2.478   1.516  1.8116 -1.7756  0.5525
 7114SOL     OW32977   1.414   0.000  11.427 -0.1599  0.1039 -0.1565
 7114SOL    HW132978   1.401   0.091  11.398 -3.2862 -0.3939 -0.3505
 7114SOL    HW232979   1.362   4.697  11.358 -1.5106 -0.1362  1.0200
 7115SOL     OW32980   3.107   2.296   5.846  0.2513 -0.4500 -0.2198
 7115SOL    HW132981   3.092   2.318   5.754  0.5327 -1.0126 -0.3982
 7115SOL    HW232982   3.017   2.296   5.878  1.0723 -2.2535  2.0554
 7116SOL     OW32983   4.571   3.356   8.760 -0.6023  0.5606 -0.3719
 7116SOL    HW132984   4.525   3.364   8.677  1.3340  0.0352 -1.4828
 7116SOL    HW232985   4.558   3.263   8.780 -0.9822  0.1051 -2.7296
 7117SOL     OW32986   2.898   4.463   4.910  0.2431  0.6044  0.6927
 7117SOL    HW132987   2.879   4.533   4.847  0.4543 -0.0979 -0.1403
 7117SOL    HW232988   2.968   4.423   4.860 -0.5535 -0.7023  0.6250
 7118SOL     OW32989   1.057   1.775  13.004  0.5134 -0.2900 -0.2626
 7118SOL    HW132990   1.129   1.839  13.006 -1.8087  2.3354 -2.0085
 7118SOL    HW232991   1.105   1.695  12.982 -0.2864 -0.8397 -0.0173
 7119SOL     OW32992   0.803   2.048  17.589  0.4899 -0.8011 -0.1739
 7119SOL    HW132993   0.724   2.003  17.556  0.9073 -2.4783  1.1483
 7119SOL    HW232994   0.808   2.019  17.680 -1.3585  0.9609  0.4942
 7120SOL     OW32995   3.013   4.710  11.951  0.7342  0.3501 -0.7698
 7120SOL    HW132996   3.008   0.056  11.905 -2.0911  0.9935  0.7153
 7120SOL    HW232997   2.937   4.674  11.904  1.7177  0.0516 -2.1336
 7121SOL     OW32998   0.095   4.516  13.187 -0.3270 -0.0110  0.4063
 7121SOL    HW132999   0.120   4.445  13.128  1.6295 -0.3495  1.6447
 7121SOL    HW233000   0.105   4.589  13.125 -0.7673 -0.0504  0.2913
 7122SOL     OW33001   1.810   0.328   2.099 -0.1341  0.2374 -0.6674
 7122SOL    HW133002   1.764   0.325   2.015  0.4555 -2.3631 -0.9028
 7122SOL    HW233003   1.818   0.421   2.116  0.7050  0.4458 -2.1703
 7123SOL     OW33004   4.372   0.177   6.550 -0.4773  0.0308 -0.2222
 7123SOL    HW133005   4.330   0.092   6.563 -0.1421 -0.1071 -0.0502
 7123SOL    HW233006   4.459   0.172   6.589 -0.1408 -0.4518 -1.0261
 7124SOL     OW33007   0.445   0.054   5.412 -0.1619 -0.0292 -0.0509
 7124SOL    HW133008   0.520   0.114   5.409 -0.2258  0.0845  0.5788
 7124SOL    HW233009   0.375   0.110   5.380  1.4947 -0.5081 -4.4793
 7125SOL     OW33010   3.549   0.378   6.228  0.0022  0.3820 -0.0121
 7125SOL    HW133011   3.575   0.420   6.310 -1.8231 -0.8242  1.1811
 7125SOL    HW233012   3.635   0.371   6.187  1.0362 -0.8422  2.3903
 7126SOL     OW33013   1.600   0.870   1.973 -0.0722 -0.7660  0.1503
 7126SOL    HW133014   1.505   0.868   1.968 -0.0873 -0.0357  0.1052
 7126SOL    HW233015   1.620   0.813   1.899  1.6543  1.6729 -1.2373
 7127SOL     OW33016   3.676   4.541   3.712  0.0296  0.1662  0.5853
 7127SOL    HW133017   3.590   4.533   3.754 -2.2012 -2.1225 -4.3840
 7127SOL    HW233018   3.711   4.624   3.744  0.1629  0.8175 -1.2621
 7128SOL     OW33019   4.029   1.314   0.480  0.5767 -0.5047  0.0034
 7128SOL    HW133020   3.994   1.307   0.391  1.2863 -2.4503 -0.1147
 7128SOL    HW233021   4.045   1.408   0.467  0.3955 -0.4537  0.1481
 7129SOL     OW33022   2.094   1.645  14.778 -0.5465 -0.5010 -0.2453
 7129SOL    HW133023   2.061   1.698  14.706 -0.4121  2.1031  1.5959
 7129SOL    HW233024   2.184   1.679  14.771 -0.6635  0.0695  1.0284
 7130SOL     OW33025   4.541   3.875  10.828 -0.3044 -0.3723 -0.6050
 7130SOL    HW133026   4.492   3.926  10.892 -0.8919 -0.2848 -1.1215
 7130SOL    HW233027   4.627   3.918  10.832 -1.3271  1.4445  1.7593
 7131SOL     OW33028   4.106   3.998  13.246 -0.2016  0.2012  0.1454
 7131SOL    HW133029   4.135   3.910  13.219 -1.2589 -0.8126  2.3680
 7131SOL    HW233030   4.137   4.059  13.179 -0.5253  1.8185  1.4596
 7132SOL     OW33031   3.387   1.394   5.394  0.9691  0.2639  0.5471
 7132SOL    HW133032   3.363   1.301   5.385  0.6834  0.2926  1.0164
 7132SOL    HW233033   3.371   1.402   5.488  1.7331  0.7461  0.6292
 7133SOL     OW33034   0.946   4.588  10.229 -0.2155 -0.3425  0.1262
 7133SOL    HW133035   0.973   4.624  10.313 -0.5863  0.4075 -0.0775
 7133SOL    HW233036   0.892   4.513  10.255 -0.2438 -0.0390  0.9286
 7134SOL     OW33037   1.210   2.856   8.126  0.1496 -0.6636 -0.5185
 7134SOL    HW133038   1.285   2.805   8.155  0.9416  0.9225  0.2133
 7134SOL    HW233039   1.146   2.839   8.196  1.0269 -1.8796 -0.0263
 7135SOL     OW33040   4.199   2.994  16.111 -0.9458 -0.0487 -0.0341
 7135SOL    HW133041   4.287   3.020  16.140 -0.9259 -0.8444  0.6390
 7135SOL    HW233042   4.226   2.928  16.047 -0.9270 -0.3338  0.2697
 7136SOL     OW33043   2.811   3.705   7.397  0.5518  0.0797  0.0125
 7136SOL    HW133044   2.842   3.693   7.307  2.3192  3.7849  0.1322
 7136SOL    HW233045   2.853   3.634   7.446  2.5338  0.0765 -1.6690
 7137SOL     OW33046   1.527   3.960   5.117  0.2900  0.4628  0.1041
 7137SOL    HW133047   1.525   4.055   5.113  1.1514  0.4238 -1.2035
 7137SOL    HW233048   1.439   3.938   5.088  1.1593 -2.2696 -0.4953
 7138SOL     OW33049   1.736   2.397   0.597  0.1937 -0.3280  0.2766
 7138SOL    HW133050   1.790   2.439   0.530  1.0112 -0.7149  0.6898
 7138SOL    HW233051   1.655   2.445   0.580  1.0135  0.7152 -0.6585
 7139SOL     OW33052   3.134   0.257   9.753 -0.2380 -0.0155  0.2380
 7139SOL    HW133053   3.207   0.218   9.704  0.1928 -0.3856  1.1657
 7139SOL    HW233054   3.158   0.350   9.746 -0.7737  0.1859  1.1726
 7140SOL     OW33055   4.284   1.647  10.668 -0.0261 -0.1232 -0.0498
 7140SOL    HW133056   4.265   1.585  10.597 -0.5320 -1.5428  1.3258
 7140SOL    HW233057   4.373   1.621  10.691 -0.2613  0.8376  1.9485
 7141SOL     OW33058   1.870   0.328   4.827  0.3110  0.7370 -0.0653
 7141SOL    HW133059   1.925   0.274   4.884 -2.5839  0.4032  2.3919
 7141SOL    HW233060   1.858   0.410   4.873  0.8836 -0.4831  2.2633
 7142SOL     OW33061   2.537   3.797  14.677 -0.1406  0.5830 -0.0822
 7142SOL    HW133062   2.532   3.811  14.772  1.1599 -2.6354  0.4209
 7142SOL    HW233063   2.631   3.785  14.668 -0.4385 -0.1806 -2.2769
 7143SOL     OW33064   3.747   1.362   4.337  0.1374 -0.1865  0.2609
 7143SOL    HW133065   3.700   1.413   4.403  1.4691  1.7548 -0.2949
 7143SOL    HW233066   3.831   1.367   4.383 -0.2527 -2.6424  1.2608
 7144SOL     OW33067   1.039   0.706   2.848 -0.0437  0.1882  0.0955
 7144SOL    HW133068   1.098   0.755   2.790 -0.2043  0.6264  0.2971
 7144SOL    HW233069   1.034   0.760   2.927 -0.8521  0.1539  0.0654
 7145SOL     OW33070   0.907   0.678  14.416  0.3445 -0.5732  0.2314
 7145SOL    HW133071   0.895   0.741  14.344 -0.0311 -2.0587 -0.9931
 7145SOL    HW233072   0.938   0.742  14.480  0.7192 -0.3935 -0.1292
 7146SOL     OW33073   2.909   4.523   6.646 -0.1271 -0.7095 -0.2071
 7146SOL    HW133074   2.961   4.513   6.567  2.4604  0.8980  1.2749
 7146SOL    HW233075   2.825   4.483   6.624 -0.8634  0.6701  0.1117
 7147SOL     OW33076   2.705   0.575   2.768 -0.0244  0.2977 -0.2541
 7147SOL    HW133077   2.625   0.533   2.737  1.0881 -1.6517 -0.5118
 7147SOL    HW233078   2.703   0.546   2.859 -0.9398  1.5124  0.1083
 7148SOL     OW33079   2.835   2.384   7.712 -0.0127  0.2104 -0.6430
 7148SOL    HW133080   2.809   2.417   7.798 -0.8940  0.7836 -1.1153
 7148SOL    HW233081   2.928   2.398   7.730  0.6759 -0.0908 -3.8417
 7149SOL     OW33082   0.196   1.319   3.063 -0.1856 -0.1715 -0.0293
 7149SOL    HW133083   0.133   1.390   3.054 -0.0730 -0.4138 -2.5483
 7149SOL    HW233084   0.184   1.268   2.983 -0.7277 -2.9801  1.8201
 7150SOL     OW33085   3.994   2.973   8.455 -0.1150 -0.2946 -0.3006
 7150SOL    HW133086   4.049   2.911   8.504  1.4698  0.7561 -0.7337
 7150SOL    HW233087   3.912   2.926   8.472 -0.3586  0.5287  0.8145
 7151SOL     OW33088   0.972   4.141   2.449 -0.1471  0.1222  0.3041
 7151SOL    HW133089   0.959   4.229   2.484  0.6953 -0.3854  1.8643
 7151SOL    HW233090   0.886   4.100   2.453  0.1571 -0.5768 -0.3139
 7152SOL     OW33091   0.109   2.788   7.516 -0.3745  0.0669  0.0042
 7152SOL    HW133092   0.167   2.740   7.458  2.7015  4.7407 -0.8501
 7152SOL    HW233093   0.040   2.807   7.453 -1.1968  0.8503  1.1403
 7153SOL     OW33094   0.905   3.810   2.262 -0.0958  0.1070 -0.6742
 7153SOL    HW133095   0.873   3.880   2.204 -2.6547 -0.2573  0.2844
 7153SOL    HW233096   0.971   3.765   2.210 -0.9903 -3.2400  1.1197
 7154SOL     OW33097   1.630   4.019   6.823 -0.2076  0.0297  0.3583
 7154SOL    HW133098   1.632   4.115   6.813  0.4526 -0.1276 -0.9236
 7154SOL    HW233099   1.652   4.019   6.916 -0.3473  3.4372  0.4143
 7155SOL     OW33100   1.208   3.612   0.239 -0.2621 -0.2192 -0.0385
 7155SOL    HW133101   1.210   3.523   0.275 -0.6188  0.0808  0.6979
 7155SOL    HW233102   1.116   3.618   0.213 -0.5435  0.2124  1.1125
 7156SOL     OW33103   2.170   4.247  17.715 -0.1843 -0.1870 -0.2485
 7156SOL    HW133104   2.265   4.233  17.712 -0.4249 -2.5368  2.4959
 7156SOL    HW233105   2.142   4.161  17.683 -0.7930 -0.1967  0.3049
 7157SOL     OW33106   0.487   0.591  12.547  0.5932  0.1080  0.0955
 7157SOL    HW133107   0.569   0.622  12.585 -0.2039  2.1314  0.1741
 7157SOL    HW233108   0.469   0.675  12.504  4.9637  2.4125  2.7843
 7158SOL     OW33109   3.555   4.646   9.740 -0.1227  0.3595  0.0092
 7158SOL    HW133110   3.567   4.571   9.799 -1.8157  0.4601  0.4682
 7158SOL    HW233111   3.641   4.663   9.701  0.4199 -3.2624 -0.3721
 7159SOL     OW33112   3.963   0.740   9.639 -0.5154  0.0917 -0.5438
 7159SOL    HW133113   4.048   0.786   9.639  1.2464 -3.1803 -1.4379
 7159SOL    HW233114   3.901   0.804   9.674 -0.3621  0.3440 -0.7300
 7160SOL     OW33115   0.717   2.210   4.945  0.1408  0.0278 -0.6927
 7160SOL    HW133116   0.668   2.292   4.951 -1.3043 -0.8715 -0.2673
 7160SOL    HW233117   0.694   2.165   5.026  1.2137  2.7568  1.1106
 7161SOL     OW33118   4.664   2.837   2.124 -0.5106 -0.0326 -0.4319
 7161SOL    HW133119   4.659   2.760   2.180  0.4279  1.7009  2.0181
 7161SOL    HW233120   0.015   2.824   2.094 -1.0033  1.2293 -2.4666
 7162SOL     OW33121   0.277   3.653   4.444 -0.4962  0.3278  0.3794
 7162SOL    HW133122   0.333   3.730   4.448 -0.9706  0.7605 -1.1663
 7162SOL    HW233123   0.191   3.694   4.437 -0.3961  0.3580 -0.7742
 7163SOL     OW33124   0.471   4.194   0.357  0.5307  0.1847  0.0919
 7163SOL    HW133125   0.495   4.196   0.264 -0.8863  0.4701 -0.2660
 7163SOL    HW233126   0.561   4.193   0.391  0.7233 -0.6671 -0.4538
 7164SOL     OW33127   3.065   0.659  10.682  0.4106 -0.1080  0.1254
 7164SOL    HW133128   3.003   0.679  10.752 -0.5595 -1.0566 -0.4533
 7164SOL    HW233129   3.021   0.707  10.611 -0.1794 -1.6500 -0.5369
 7165SOL     OW33130   4.426   1.675  17.596 -0.3429  0.1333 -0.3491
 7165SOL    HW133131   4.369   1.728  17.652 -1.4916  0.1444 -1.5413
 7165SOL    HW233132   4.487   1.640  17.661 -0.1386 -1.8549 -1.6347
 7166SOL     OW33133   3.572   2.066   4.020 -0.1529 -0.2371 -0.1291
 7166SOL    HW133134   3.645   2.044   4.077  1.0571  1.0609 -1.1849
 7166SOL    HW233135   3.530   1.980   4.017 -1.9888  0.5523  2.7088
 7167SOL     OW33136   2.978   1.090   4.742 -1.0516 -0.3420  0.0508
 7167SOL    HW133137   3.071   1.107   4.760 -1.1158  0.1770 -0.1020
 7167SOL    HW233138   2.989   1.002   4.707 -1.6652  0.8913 -3.2275
 7168SOL     OW33139   2.730   2.059   4.980 -0.6843  0.3734 -0.2632
 7168SOL    HW133140   2.662   2.035   4.918 -1.2300 -3.3424  1.7920
 7168SOL    HW233141   2.797   1.992   4.969  0.2837  0.8503  2.7461
 7169SOL     OW33142   1.366   0.927   2.334 -0.0854 -0.2468  0.4374
 7169SOL    HW133143   1.361   1.011   2.381 -0.9732 -0.8863  1.4756
 7169SOL    HW233144   1.460   0.912   2.347  0.4484  0.5519 -2.4721
 7170SOL     OW33145   2.401   0.670   7.132 -0.6508  0.4302 -0.5175
 7170SOL    HW133146   2.389   0.659   7.227  1.0621 -1.7889 -0.5590
 7170SOL    HW233147   2.368   0.585   7.102 -1.6138  0.5212  0.2755
 7171SOL     OW33148   4.251   0.268  15.866 -0.7430  0.3913  0.1342
 7171SOL    HW133149   4.157   0.288  15.863 -0.4925  1.8736  2.2950
 7171SOL    HW233150   4.273   0.241  15.777  0.1445 -0.6336  0.6719
 7172SOL     OW33151   2.442   3.302   9.974  0.0648  0.3027 -0.1710
 7172SOL    HW133152   2.350   3.316   9.950  0.0065 -2.2853 -1.5078
 7172SOL    HW233153   2.457   3.377  10.030  1.6298  0.8809 -1.3716
 7173SOL     OW33154   0.798   4.460   9.141  0.3853  0.0233  0.4320
 7173SOL    HW133155   0.829   4.494   9.057 -0.3555  1.4823  0.7620
 7173SOL    HW233156   0.711   4.498   9.133 -0.0245 -1.0554 -0.3180
 7174SOL     OW33157   0.194   0.682   0.309 -0.3181  0.1371  0.1932
 7174SOL    HW133158   0.134   0.722   0.246 -0.7479 -0.5506  0.1639
 7174SOL    HW233159   0.251   0.641   0.245  1.1781 -0.1353  1.7150
 7175SOL     OW33160   1.675   0.353  14.735 -0.1832  0.0598 -0.3366
 7175SOL    HW133161   1.645   0.287  14.798  0.6501 -1.0381 -1.0939
 7175SOL    HW233162   1.592   0.395  14.712 -0.0905  0.2289 -0.3636
 7176SOL     OW33163   1.656   2.300   4.810 -0.0432 -0.2995  0.4537
 7176SOL    HW133164   1.569   2.339   4.816  0.7284  1.3367  1.1442
 7176SOL    HW233165   1.711   2.354   4.753 -0.4569 -0.4782 -0.1019
 7177SOL     OW33166   3.939   1.597   3.284 -0.0928  0.3125 -0.3827
 7177SOL    HW133167   4.012   1.657   3.297  0.1305  0.3993 -2.0865
 7177SOL    HW233168   3.870   1.659   3.309  0.9260  1.5709 -0.6882
 7178SOL     OW33169   1.560   2.456   5.665  0.0696 -0.5587 -0.3484
 7178SOL    HW133170   1.641   2.457   5.716 -0.0790  2.4663 -0.1779
 7178SOL    HW233171   1.579   2.382   5.607  1.5450  0.0284 -0.6217
 7179SOL     OW33172   1.369   1.179   4.608 -0.0036  0.1624 -0.2446
 7179SOL    HW133173   1.341   1.180   4.700  1.4193  3.8228  0.1555
 7179SOL    HW233174   1.298   1.128   4.569  0.7811 -0.6160 -0.6507
 7180SOL     OW33175   0.450   4.324   8.426  0.3477  0.0903 -0.1236
 7180SOL    HW133176   0.459   4.417   8.445  2.1550  0.4817 -2.9482
 7180SOL    HW233177   0.358   4.326   8.401  0.2754  3.3144  0.4493
 7181SOL     OW33178   2.181   4.664   5.113  0.1436  0.0104 -0.5866
 7181SOL    HW133179   2.156   4.581   5.073  1.7040 -0.4400 -0.6521
 7181SOL    HW233180   2.273   4.644   5.131 -0.3964 -1.2612  0.7519
 7182SOL     OW33181   2.820   2.615   4.923 -0.4437 -0.0423 -0.0393
 7182SOL    HW133182   2.855   2.685   4.868 -0.1525  0.9569  1.4286
 7182SOL    HW233183   2.730   2.596   4.897 -0.3792 -0.5421  0.1098
 7183SOL     OW33184   4.236   3.114   8.771  0.0598  0.7677  0.3543
 7183SOL    HW133185   4.176   3.040   8.764  1.0965 -0.0089 -0.3272
 7183SOL    HW233186   4.257   3.115   8.864 -1.4162 -0.7620  0.6945
 7184SOL     OW33187   3.195   2.480  13.289 -0.6809 -0.3098 -0.2308
 7184SOL    HW133188   3.235   2.563  13.314  3.2805 -0.9575 -4.5186
 7184SOL    HW233189   3.266   2.458  13.228 -1.8470 -1.2154 -1.2701
 7185SOL     OW33190   3.527   2.379   5.163 -0.1789 -0.0091 -0.3175
 7185SOL    HW133191   3.590   2.448   5.183  1.8395 -2.0838  0.5161
 7185SOL    HW233192   3.475   2.369   5.242 -0.8877 -0.9424 -0.9000
 7186SOL     OW33193   4.141   3.656  13.217 -0.0770 -0.0992  0.0338
 7186SOL    HW133194   4.175   3.647  13.128 -1.3477  0.6186 -0.5236
 7186SOL    HW233195   4.140   3.564  13.244 -1.5975 -0.3816 -0.9596
 7187SOL     OW33196   1.560   3.042   6.529  0.1991  0.4146  0.6827
 7187SOL    HW133197   1.632   3.077   6.581 -0.5162  0.1439  1.8498
 7187SOL    HW233198   1.595   3.054   6.441 -1.3632  1.3002  0.1730
 7188SOL     OW33199   1.750   2.711   7.887  0.3604  0.0775  0.4623
 7188SOL    HW133200   1.819   2.734   7.950 -0.7176 -0.0591  1.7065
 7188SOL    HW233201   1.718   2.628   7.922  2.2087 -0.1471  1.6543
 7189SOL     OW33202   4.646   3.449   3.321 -0.3380 -0.2769 -0.1268
 7189SOL    HW133203   4.666   3.500   3.243 -1.6298 -0.7085 -0.7424
 7189SOL    HW233204   4.551   3.460   3.323 -0.5265 -1.7197 -2.4405
 7190SOL     OW33205   0.992   0.528   6.296  0.4232 -0.3135  0.2625
 7190SOL    HW133206   1.042   0.457   6.336  0.1138 -0.8553 -0.2911
 7190SOL    HW233207   1.049   0.551   6.222 -1.3199  1.9039 -0.3883
 7191SOL     OW33208   2.383   0.744   6.603  0.4069  0.3658 -0.3267
 7191SOL    HW133209   2.373   0.826   6.651  0.7166  0.3988 -0.3217
 7191SOL    HW233210   2.399   0.773   6.513  3.4177 -0.9643 -0.2020
 7192SOL     OW33211   0.135   2.608   9.233  0.1609 -0.1555  0.3031
 7192SOL    HW133212   0.185   2.540   9.279 -0.8999 -0.1538  1.4544
 7192SOL    HW233213   0.200   2.643   9.172 -0.8742  1.3344  0.0556
 7193SOL     OW33214   2.075   3.256   7.388 -0.3601 -0.1634  0.2840
 7193SOL    HW133215   2.075   3.351   7.403  0.5417 -0.2748  0.9700
 7193SOL    HW233216   2.089   3.255   7.293  0.7974 -1.7818  0.4736
 7194SOL     OW33217   3.549   1.158  10.970  0.2200 -0.1879 -0.4833
 7194SOL    HW133218   3.537   1.128  11.060 -4.2600  0.2847 -0.9196
 7194SOL    HW233219   3.490   1.233  10.962  0.7570  0.2392 -0.5217
 7195SOL     OW33220   1.019   1.526   3.864 -0.5025  0.5671  0.6449
 7195SOL    HW133221   0.938   1.479   3.879 -0.2993 -0.1008 -0.3855
 7195SOL    HW233222   0.980   1.614   3.858 -0.3291  0.7285  1.8399
 7196SOL     OW33223   3.018   4.465  12.091  0.2772 -0.3225 -0.6433
 7196SOL    HW133224   2.948   4.508  12.139  1.2140 -0.1966  0.6154
 7196SOL    HW233225   3.042   4.534  12.028  0.2597  0.6084  0.3621
 7197SOL     OW33226   4.265   0.263  16.682  0.0601  0.0043 -0.5423
 7197SOL    HW133227   4.311   0.329  16.734 -1.2141 -1.5074  2.5015
 7197SOL    HW233228   4.182   0.270  16.730 -0.2112 -0.9827 -0.8627
 7198SOL     OW33229   4.534   0.346   2.588  0.4354  0.1216  0.4498
 7198SOL    HW133230   4.452   0.395   2.599  0.5177  0.4786 -0.5209
 7198SOL    HW233231   4.495   0.270   2.545  2.2079 -1.4929  1.6843
 7199SOL     OW33232   3.552   1.109   7.103 -0.1465  0.5277  0.2735
 7199SOL    HW133233   3.535   1.101   7.197  0.8601 -0.8065  0.3244
 7199SOL    HW233234   3.581   1.023   7.074 -1.3033  0.9641 -2.1956
 7200SOL     OW33235   3.168   4.018   3.813  0.3955 -0.3426  0.1085
 7200SOL    HW133236   3.149   4.037   3.721  2.7182 -3.4682 -1.0109
 7200SOL    HW233237   3.080   3.987   3.833 -0.0701  0.6044 -0.4485
 7201SOL     OW33238   4.698   1.898   9.815 -0.2955 -0.0146  0.3083
 7201SOL    HW133239   4.688   1.871   9.907 -1.1176  0.2623  0.3011
 7201SOL    HW233240   0.011   1.978   9.831  0.5193 -0.5285  0.2615
 7202SOL     OW33241   2.129   0.633   3.200  0.0036 -0.2318 -0.2031
 7202SOL    HW133242   2.165   0.712   3.160 -1.3091 -0.7495 -2.4374
 7202SOL    HW233243   2.043   0.634   3.157  1.2202 -1.4229 -2.6320
 7203SOL     OW33244   3.765   2.612   8.766 -0.1635 -0.5685 -0.1926
 7203SOL    HW133245   3.682   2.581   8.802 -0.2707  1.1092  1.0351
 7203SOL    HW233246   3.807   2.626   8.851 -1.4139  1.6377  0.0491
 7204SOL     OW33247   2.739   1.692   3.148 -0.3365 -0.5433 -0.1336
 7204SOL    HW133248   2.700   1.733   3.225  1.3549 -1.5880  1.2825
 7204SOL    HW233249   2.661   1.661   3.101 -1.0500 -0.3495  0.9209
 7205SOL     OW33250   1.845   4.372   3.529  0.3343  0.0118 -0.2042
 7205SOL    HW133251   1.884   4.292   3.563 -0.6991 -0.7218 -0.7583
 7205SOL    HW233252   1.791   4.340   3.457  1.6358 -0.4947 -0.9442
 7206SOL     OW33253   0.869   3.100   1.214  0.4520  0.2569 -0.0140
 7206SOL    HW133254   0.874   3.186   1.256  1.9203  0.5005 -0.7106
 7206SOL    HW233255   0.781   3.097   1.176 -0.4221  0.1532  2.0170
 7207SOL     OW33256   1.211   4.007   3.102  0.3609 -0.1992  0.6312
 7207SOL    HW133257   1.263   3.968   3.172  1.2715 -0.9662 -0.4787
 7207SOL    HW233258   1.167   4.079   3.148  1.2985  0.7422  0.0541
 7208SOL     OW33259   1.828   0.010   5.312 -0.4989 -0.1405  0.2253
 7208SOL    HW133260   1.900   4.732   5.373  0.5672  0.6676 -0.8102
 7208SOL    HW233261   1.831   4.670   5.258 -1.4588  1.3717 -2.0344
 7209SOL     OW33262   4.064   0.824   8.592 -0.0875 -1.0929  0.7328
 7209SOL    HW133263   4.039   0.896   8.651 -0.4760  0.6818 -1.5979
 7209SOL    HW233264   4.123   0.768   8.642 -0.3364 -0.9608  1.1804
 7210SOL     OW33265   3.750   1.795  11.163 -0.1251 -0.4128  0.9745
 7210SOL    HW133266   3.682   1.849  11.202 -1.5073  0.1858 -2.2779
 7210SOL    HW233267   3.827   1.821  11.213  1.0950 -2.9064  0.3971
 7211SOL     OW33268   3.599   2.123  10.397  0.3948 -0.3123  0.0448
 7211SOL    HW133269   3.611   2.090  10.308  0.9248  2.7671 -1.0217
 7211SOL    HW233270   3.683   2.105  10.439  0.6973  0.2380 -0.3202
 7212SOL     OW33271   1.585   1.574  16.230 -0.0403  0.1082  0.0389
 7212SOL    HW133272   1.633   1.526  16.162  1.2255  0.5108  0.6429
 7212SOL    HW233273   1.495   1.571  16.198 -0.1574 -1.5305  0.5116
 7213SOL     OW33274   3.698   2.486   7.524  0.0059 -0.2681 -0.0679
 7213SOL    HW133275   3.749   2.430   7.582  0.2036 -0.9817 -0.9202
 7213SOL    HW233276   3.723   2.450   7.438  0.1046  1.5511 -0.8075
 7214SOL     OW33277   1.904   2.066   0.488  0.0815  0.4104 -0.0980
 7214SOL    HW133278   1.886   2.008   0.414  0.7392  1.6093 -1.1943
 7214SOL    HW233279   1.998   2.076   0.476  0.6341 -1.9126  2.3958
 7215SOL     OW33280   3.721   4.003   8.679  0.1878 -1.2330  0.9273
 7215SOL    HW133281   3.772   4.040   8.751 -1.4635  2.2950  0.2681
 7215SOL    HW233282   3.725   4.067   8.608 -3.1097  0.5182  2.3207
 7216SOL     OW33283   2.406   2.386   5.967 -0.2692  0.1575  0.4365
 7216SOL    HW133284   2.358   2.337   5.900 -0.1105  1.1333 -0.3775
 7216SOL    HW233285   2.416   2.313   6.028  0.5960  0.2953  0.4574
 7217SOL     OW33286   1.866   2.895   1.097  0.4182  0.4900  0.4025
 7217SOL    HW133287   1.864   2.899   1.193  0.9320 -1.0127  0.4683
 7217SOL    HW233288   1.959   2.899   1.073  1.1856 -0.2714  3.2303
 7218SOL     OW33289   0.689   2.032   2.572 -0.4690 -0.0394 -0.4493
 7218SOL    HW133290   0.631   2.066   2.505 -1.4952  0.6137  0.7865
 7218SOL    HW233291   0.750   1.981   2.518  1.4116  0.2649  1.3582
 7219SOL     OW33292   0.994   2.593   7.281 -0.6729  0.3026  0.1159
 7219SOL    HW133293   1.084   2.624   7.281 -0.8008  0.6849  0.4211
 7219SOL    HW233294   0.979   2.585   7.375 -3.4729  0.9885 -0.2594
 7220SOL     OW33295   2.442   0.310  17.478  0.5755  0.2545 -0.3052
 7220SOL    HW133296   2.514   0.285  17.536  1.9378  0.2279 -2.0284
 7220SOL    HW233297   2.368   0.261  17.514  0.1783  1.1856  0.1431
 7221SOL     OW33298   1.103   2.981  17.000  0.6988  0.3874  0.1922
 7221SOL    HW133299   1.113   3.047  16.932 -0.5203 -0.2444 -0.5781
 7221SOL    HW233300   1.091   2.899  16.953  1.6965  1.0674 -1.2560
 7222SOL     OW33301   3.306   3.519   3.569 -0.2495  0.3034 -0.3339
 7222SOL    HW133302   3.214   3.535   3.547 -1.4995 -0.6917  4.1108
 7222SOL    HW233303   3.342   3.603   3.539 -1.9790  0.5289 -1.8069
 7223SOL     OW33304   2.507   0.987   6.541  0.7646 -0.1188  0.4499
 7223SOL    HW133305   2.556   1.015   6.464  2.3941 -2.0412  0.7907
 7223SOL    HW233306   2.569   0.983   6.614 -0.3916  1.1436  1.4918
 7224SOL     OW33307   1.749   0.818   5.782 -0.2736  0.2748 -0.2682
 7224SOL    HW133308   1.777   0.843   5.694  3.2308 -1.9330  0.2285
 7224SOL    HW233309   1.829   0.790   5.828 -2.0909 -2.7248  1.0439
 7225SOL     OW33310   3.748   2.804   8.485  0.7716  1.2989 -0.3705
 7225SOL    HW133311   3.750   2.710   8.499 -0.4950  1.5116  1.2702
 7225SOL    HW233312   3.658   2.806   8.452  0.2483  2.5497  1.1031
 7226SOL     OW33313   2.389   4.361   4.106 -0.6327  0.5394 -0.5020
 7226SOL    HW133314   2.438   4.290   4.147  1.0512  2.1605  0.3001
 7226SOL    HW233315   2.361   4.421   4.176  0.9789  1.7441 -0.8822
 7227SOL     OW33316   2.635   2.940   6.775 -0.3471  0.0131 -0.2280
 7227SOL    HW133317   2.645   2.858   6.825 -0.0931  0.4602  0.4620
 7227SOL    HW233318   2.544   2.952   6.803 -0.4356 -0.9379 -0.0940
 7228SOL     OW33319   0.187   0.256   8.644  0.0471  0.1566 -0.2692
 7228SOL    HW133320   0.244   0.317   8.690  1.1996 -1.1843  0.0757
 7228SOL    HW233321   0.126   0.321   8.608  0.9444  0.0757 -1.9094
 7229SOL     OW33322   0.226   3.210   6.649  0.1929 -0.5976  0.3747
 7229SOL    HW133323   0.200   3.190   6.559  1.0679  3.3966 -0.7715
 7229SOL    HW233324   0.313   3.246   6.635  0.0775 -0.3276  0.3624
 7230SOL     OW33325   0.056   3.368  15.232  0.4954 -0.2705  0.3070
 7230SOL    HW133326   0.120   3.313  15.187 -1.0420 -0.4138 -1.7367
 7230SOL    HW233327   4.719   3.309  15.230  0.1307  0.1927  0.5914
 7231SOL     OW33328   1.138   0.180  11.689 -0.2896 -0.0769 -0.5059
 7231SOL    HW133329   1.162   0.273  11.690 -2.5100  0.4673  1.5712
 7231SOL    HW233330   1.162   0.154  11.778  1.5712 -0.8273 -1.2252
 7232SOL     OW33331   1.965   2.256   5.717 -0.2585 -0.5308  1.3739
 7232SOL    HW133332   2.031   2.187   5.725 -0.6789 -1.1029 -0.2156
 7232SOL    HW233333   1.974   2.288   5.628 -1.4758  1.5957  2.0295
 7233SOL     OW33334   1.091   2.108  15.855  0.2063 -0.2456 -0.3798
 7233SOL    HW133335   1.092   2.125  15.761 -2.0577  0.6466 -0.2312
 7233SOL    HW233336   1.021   2.044  15.855  0.1740 -0.2099 -0.4287
 7234SOL     OW33337   2.541   4.442   0.349 -0.1603 -0.3825  0.7752
 7234SOL    HW133338   2.596   4.435   0.427  1.3813  4.3599  0.1248
 7234SOL    HW233339   2.555   4.355   0.311  1.4286  0.4804 -0.6060
 7235SOL     OW33340   4.353   1.722   2.699 -0.1893  0.9117  0.0087
 7235SOL    HW133341   4.372   1.699   2.608 -0.4055  0.8273 -0.0135
 7235SOL    HW233342   4.270   1.678   2.713  1.4628 -1.6434  1.8274
 7236SOL     OW33343   0.701   3.053   7.728 -0.1186  0.5679  0.0740
 7236SOL    HW133344   0.750   3.098   7.658 -0.0075  0.4959  0.1047
 7236SOL    HW233345   0.619   3.037   7.681  0.6230 -0.7407 -0.7988
 7237SOL     OW33346   0.426   4.481   4.310 -0.5472  0.2995  0.7766
 7237SOL    HW133347   0.466   4.480   4.396  1.5740  0.8045 -0.2142
 7237SOL    HW233348   0.358   4.548   4.321  1.3992  2.6829 -1.6602
 7238SOL     OW33349   1.416   2.254   0.672 -0.1060  0.3154 -0.3648
 7238SOL    HW133350   1.502   2.218   0.649  0.1649  0.0749  1.0683
 7238SOL    HW233351   1.419   2.329   0.613 -0.3164  0.6910  0.1106
 7239SOL     OW33352   1.663   2.237   1.917 -0.2499 -0.1996 -0.1997
 7239SOL    HW133353   1.600   2.170   1.946  0.2549 -0.5709  0.0329
 7239SOL    HW233354   1.674   2.209   1.826  1.6983 -1.6025  0.4729
 7240SOL     OW33355   1.547   1.574   1.591  1.0778  0.3266 -0.9737
 7240SOL    HW133356   1.479   1.535   1.645  1.6069 -2.6473 -2.4833
 7240SOL    HW233357   1.551   1.664   1.625  1.9521 -0.1412  0.1471
 7241SOL     OW33358   4.226   1.665   7.315 -0.2972  0.1197 -0.0999
 7241SOL    HW133359   4.179   1.606   7.374 -1.2647  1.3252  0.3562
 7241SOL    HW233360   4.148   1.693   7.267  0.6026  0.0005 -1.6040
 7242SOL     OW33361   4.543   2.350  13.477 -0.1225 -0.8059 -0.3756
 7242SOL    HW133362   4.561   2.263  13.510 -0.1377 -0.6737 -0.0165
 7242SOL    HW233363   4.465   2.329  13.425 -0.1117 -1.0908 -0.2735
 7243SOL     OW33364   1.896   1.369  11.823  0.5839  0.5886  0.3252
 7243SOL    HW133365   1.842   1.437  11.781 -1.8982 -2.0140 -0.7409
 7243SOL    HW233366   1.969   1.414  11.865  0.1298  1.4802  0.1540
 7244SOL     OW33367   2.259   3.824  14.348 -0.3877 -0.0986  0.5271
 7244SOL    HW133368   2.336   3.879  14.337  0.0318 -0.4650  1.7111
 7244SOL    HW233369   2.225   3.872  14.423 -1.5178 -0.4463  0.2439
 7245SOL     OW33370   3.230   4.507   5.772  0.3048  0.3446 -0.0317
 7245SOL    HW133371   3.320   4.534   5.752  0.6285 -0.0404  0.9172
 7245SOL    HW233372   3.186   4.569   5.714 -2.8050 -0.2283  1.6713
 7246SOL     OW33373   0.331   3.682  15.708 -0.4148  0.2240 -0.7852
 7246SOL    HW133374   0.412   3.714  15.666 -0.1194  0.4396 -0.0527
 7246SOL    HW233375   0.304   3.632  15.631  0.0156 -0.8010 -0.2624
 7247SOL     OW33376   0.170   4.653   9.417 -0.3981 -0.3959  0.6429
 7247SOL    HW133377   0.219   4.605   9.350  1.6560 -1.9195  3.1994
 7247SOL    HW233378   0.095   4.681   9.365  0.0478  1.5291  1.0364
 7248SOL     OW33379   3.417   1.533   7.936  0.3464 -0.1336 -0.3537
 7248SOL    HW133380   3.400   1.557   8.027 -1.2650  2.2078 -1.2657
 7248SOL    HW233381   3.355   1.591   7.892 -0.1134  0.2997  0.8733
 7249SOL     OW33382   4.563   0.267   7.723 -0.0260  0.1359 -0.1741
 7249SOL    HW133383   4.575   0.333   7.655 -4.2395  0.8073 -0.2612
 7249SOL    HW233384   4.648   0.257   7.765  0.0853 -2.8254 -1.1055
 7250SOL     OW33385   0.446   3.272   1.795  0.1137 -0.2544  0.5728
 7250SOL    HW133386   0.454   3.249   1.703 -0.1101  0.1688  0.4491
 7250SOL    HW233387   0.541   3.282   1.806  0.2433 -0.0549 -0.8338
 7251SOL     OW33388   1.603   3.538   8.131  0.4413 -0.5035 -0.3306
 7251SOL    HW133389   1.541   3.479   8.173 -0.4708  0.2784 -0.5946
 7251SOL    HW233390   1.619   3.504   8.043  1.5474 -2.5113  0.6508
 7252SOL     OW33391   1.734   3.218   6.929 -0.0478 -0.0656  0.0003
 7252SOL    HW133392   1.829   3.220   6.941  0.4825 -2.8982 -3.9686
 7252SOL    HW233393   1.696   3.219   7.017  1.4024  3.3360  0.5976
 7253SOL     OW33394   3.089   3.652   7.985  0.2677  0.2159 -0.5708
 7253SOL    HW133395   3.128   3.564   7.993 -0.6532 -0.2161 -0.8040
 7253SOL    HW233396   3.107   3.692   8.070 -0.3908 -0.4366 -0.1244
 7254SOL     OW33397   0.169   2.373   7.404 -0.3377 -0.5318 -0.2937
 7254SOL    HW133398   0.157   2.375   7.309  1.8588 -2.7335 -0.6142
 7254SOL    HW233399   0.200   2.463   7.414 -3.7082  0.5468  0.3361
 7255SOL     OW33400   2.948   4.562   3.702  0.9806  0.0741 -0.8084
 7255SOL    HW133401   2.940   4.469   3.723 -1.6594  0.0571 -1.9636
 7255SOL    HW233402   2.946   4.561   3.606  1.5045 -0.6563 -0.8113
 7256SOL     OW33403   2.219   1.677   2.317  0.3848  0.1262  0.2930
 7256SOL    HW133404   2.256   1.674   2.405 -1.1761  3.2254  1.0636
 7256SOL    HW233405   2.269   1.752   2.287  2.2167 -1.1675  0.0950
 7257SOL     OW33406   1.832   0.419  13.141 -0.6418  0.9160 -0.4831
 7257SOL    HW133407   1.853   0.326  13.147 -1.9352  0.6343 -0.4142
 7257SOL    HW233408   1.824   0.429  13.046  0.1213 -1.5571 -0.7910
 7258SOL     OW33409   1.110   0.880   4.733  0.0538  0.1361  0.6015
 7258SOL    HW133410   1.143   0.899   4.645  0.3720  0.4911  0.7927
 7258SOL    HW233411   1.172   0.931   4.786  0.4624  1.7885 -1.4859
 7259SOL     OW33412   3.326   0.406   7.244  0.2056  0.4711  0.2393
 7259SOL    HW133413   3.330   0.346   7.170 -0.2499  1.7767 -0.8425
 7259SOL    HW233414   3.253   0.465   7.229  1.0143  0.3607 -4.1907
 7260SOL     OW33415   3.236   0.182  17.199 -0.7562 -0.0814  0.0877
 7260SOL    HW133416   3.282   0.152  17.277 -1.2530 -0.5459  0.2011
 7260SOL    HW233417   3.209   0.104  17.150 -0.3276 -0.7522  0.9216
 7261SOL     OW33418   1.771   4.282   2.004 -0.1314  0.2942 -0.5013
 7261SOL    HW133419   1.744   4.306   2.093  1.2268 -0.5965  0.1541
 7261SOL    HW233420   1.773   4.363   1.953  0.1796 -0.2663 -1.3846
 7262SOL     OW33421   2.842   0.243   5.122  0.0859 -0.3588 -0.3851
 7262SOL    HW133422   2.822   0.246   5.216  1.3578  0.0792 -0.1139
 7262SOL    HW233423   2.831   0.149   5.111  1.2826 -0.5814  0.2472
 7263SOL     OW33424   2.549   4.360   8.222  0.4989  0.4217 -0.2438
 7263SOL    HW133425   2.628   4.313   8.195  1.2950  1.5459  0.1467
 7263SOL    HW233426   2.585   4.406   8.298  1.3656 -2.2826  0.9796
 7264SOL     OW33427   1.638   1.023  12.255  0.2422  0.3571 -0.4301
 7264SOL    HW133428   1.606   1.092  12.313 -0.0541 -0.3884  0.2837
 7264SOL    HW233429   1.686   1.065  12.184  0.6905  1.3636  0.4703
 7265SOL     OW33430   2.516   4.004   3.371 -0.2491  0.1317  0.8335
 7265SOL    HW133431   2.516   3.916   3.410  3.9203 -0.8433 -1.2686
 7265SOL    HW233432   2.545   4.061   3.442  0.3270  1.5348 -0.5209
 7266SOL     OW33433   0.829   0.373   2.992  0.0849  0.4037  0.0007
 7266SOL    HW133434   0.888   0.326   3.050  0.5028  0.6015 -0.2661
 7266SOL    HW233435   0.747   0.350   3.037  0.6131  2.5125  2.0209
 7267SOL     OW33436   2.501   0.450  17.199 -0.6861 -0.5561 -0.4500
 7267SOL    HW133437   2.427   0.480  17.147 -1.1796 -1.0166 -0.0077
 7267SOL    HW233438   2.457   0.424  17.280  1.4969  1.5568  1.3927
 7268SOL     OW33439   2.108   2.155  11.636  0.4586  0.0442  0.0401
 7268SOL    HW133440   2.118   2.211  11.559 -1.6655 -0.3304 -0.4989
 7268SOL    HW233441   2.117   2.209  11.715 -2.1611  1.2351 -0.4729
 7269SOL     OW33442   0.431   0.240   1.405  0.1285  0.2354  0.0387
 7269SOL    HW133443   0.451   0.235   1.498 -1.0882 -0.5252  0.2583
 7269SOL    HW233444   0.464   0.155   1.374  1.4426 -0.0646  2.2961
 7270SOL     OW33445   2.943   1.504   7.915 -0.2303  0.5404 -1.0978
 7270SOL    HW133446   2.971   1.418   7.945  0.0990  0.9458 -0.2670
 7270SOL    HW233447   2.916   1.480   7.826  0.3865  0.0864 -1.1600
 7271SOL     OW33448   4.538   1.219   2.215 -0.1900  0.5849 -0.0225
 7271SOL    HW133449   4.591   1.271   2.156 -0.0662  2.5383  1.8001
 7271SOL    HW233450   4.555   1.129   2.188  2.8531  0.8148  1.1429
 7272SOL     OW33451   0.662   0.793   7.380 -0.0666 -0.2462  0.3470
 7272SOL    HW133452   0.579   0.832   7.354  1.0734  0.1230 -2.8017
 7272SOL    HW233453   0.649   0.717   7.323  0.2245  0.3600 -0.5251
 7273SOL     OW33454   1.295   1.656  10.086  0.1675 -0.0590 -0.5703
 7273SOL    HW133455   1.324   1.617  10.003  1.6602 -1.4062  0.5948
 7273SOL    HW233456   1.285   1.581  10.145 -0.5668  0.9639  0.5756
 7274SOL     OW33457   3.458   3.996   0.693 -0.0163  0.1414 -0.2528
 7274SOL    HW133458   3.372   4.019   0.658 -1.0784 -1.9177  1.0148
 7274SOL    HW233459   3.519   4.011   0.621 -0.5620  1.2486 -0.4944
 7275SOL     OW33460   2.451   4.181   3.153 -0.9924  0.0205  0.1106
 7275SOL    HW133461   2.495   4.113   3.205  0.1265 -1.8791 -3.3677
 7275SOL    HW233462   2.519   4.247   3.168 -2.5170  1.9205 -1.3277
 7276SOL     OW33463   0.661   1.456   1.653 -0.4835  0.4684 -0.1206
 7276SOL    HW133464   0.646   1.513   1.728 -0.9679  0.5141 -0.2496
 7276SOL    HW233465   0.733   1.402   1.685 -0.0038  0.1061 -1.8115
 7277SOL     OW33466   4.402   2.255  12.990 -0.8765  0.5742  0.2962
 7277SOL    HW133467   4.411   2.196  12.915 -1.6141  2.6680 -1.3962
 7277SOL    HW233468   4.350   2.201  13.050 -1.3083  0.5241 -0.1291
 7278SOL     OW33469   0.185   1.364  14.115 -0.0274 -0.0598  0.0085
 7278SOL    HW133470   0.137   1.443  14.140  0.2047  0.6746 -1.8313
 7278SOL    HW233471   0.226   1.340  14.198 -1.1343 -0.8604  0.3168
 7279SOL     OW33472   1.737   0.267  12.332 -0.2559 -0.2271 -0.3333
 7279SOL    HW133473   1.762   0.190  12.281 -0.0021 -0.8605  0.7585
 7279SOL    HW233474   1.804   0.274  12.400  0.4055  1.5279 -1.1560
 7280SOL     OW33475   2.903   2.081   8.498 -0.4298  0.0543  0.1722
 7280SOL    HW133476   2.963   2.012   8.471  1.7276  1.1148  2.1871
 7280SOL    HW233477   2.845   2.091   8.422 -0.1743  1.8472  0.2068
 7281SOL     OW33478   0.064   3.291   1.806  0.9332  0.4100 -0.3528
 7281SOL    HW133479   0.051   3.217   1.746 -0.1566  0.5428 -0.2799
 7281SOL    HW233480   0.020   3.353   1.747 -0.3695  0.4581  0.6692
 7282SOL     OW33481   1.918   4.073   7.521 -0.3826  0.0403 -0.0649
 7282SOL    HW133482   1.833   4.091   7.563 -1.2446 -0.6447 -1.4999
 7282SOL    HW233483   1.986   4.107   7.579  0.6442  2.3427 -2.6672
 7283SOL     OW33484   0.304   1.758   4.286 -0.4246  0.0915 -0.1955
 7283SOL    HW133485   0.318   1.821   4.216 -0.8463 -0.4418 -0.7601
 7283SOL    HW233486   0.289   1.681   4.232  1.0125  0.6000 -1.3041
 7284SOL     OW33487   2.814   1.384   6.907  0.3313  0.3220  0.1291
 7284SOL    HW133488   2.782   1.408   6.993  0.3373  0.0932  0.1935
 7284SOL    HW233489   2.733   1.380   6.857  0.9582  0.8766 -0.9565
 7285SOL     OW33490   2.122   3.599   5.500 -0.7366  0.2358  0.4673
 7285SOL    HW133491   2.076   3.517   5.519 -1.2873  0.6397  0.8849
 7285SOL    HW233492   2.050   3.651   5.466  0.1300  0.4090 -1.0914
 7286SOL     OW33493   3.330   4.319   6.280  0.3211 -0.3612  0.4659
 7286SOL    HW133494   3.409   4.320   6.226  0.4914 -1.0604  0.7001
 7286SOL    HW233495   3.268   4.356   6.218  1.3682  2.4501  1.1084
 7287SOL     OW33496   2.542   2.011   5.321  0.2967  0.6455 -0.0133
 7287SOL    HW133497   2.474   2.023   5.255 -0.0272 -0.3017  0.1546
 7287SOL    HW233498   2.522   2.091   5.368  1.2641  0.7987  0.1394
 7288SOL     OW33499   2.773   3.968  14.149 -0.3619  0.5324  0.2178
 7288SOL    HW133500   2.784   4.060  14.171 -1.5417  0.4066  1.3076
 7288SOL    HW233501   2.691   3.966  14.099 -0.9243 -1.0066  1.1983
 7289SOL     OW33502   4.432   2.346   6.204 -0.0536  0.2512  0.3106
 7289SOL    HW133503   4.361   2.311   6.150 -0.5135 -1.2956  1.9108
 7289SOL    HW233504   4.391   2.345   6.291 -2.3148  1.3719 -0.7433
 7290SOL     OW33505   0.298   0.899   5.028 -0.2705  0.1493  0.3180
 7290SOL    HW133506   0.350   0.979   5.016  1.9112 -1.5137 -1.4167
 7290SOL    HW233507   0.356   0.833   4.990  0.4810  0.3610  1.1130
 7291SOL     OW33508   1.876   3.641   0.240 -0.7007  0.2946 -0.2801
 7291SOL    HW133509   1.906   3.576   0.177  1.2155 -0.0402  0.9896
 7291SOL    HW233510   1.796   3.673   0.198  0.1239  1.6970 -0.7595
 7292SOL     OW33511   1.204   4.544   8.252  0.3363 -0.3711  0.4223
 7292SOL    HW133512   1.251   4.461   8.250  1.3726  0.2661 -1.4705
 7292SOL    HW233513   1.240   4.582   8.172 -1.0596  0.5375  0.2148
 7293SOL     OW33514   1.444   1.998   6.990  0.2379 -0.3482  0.0829
 7293SOL    HW133515   1.361   2.043   6.974 -0.0366 -0.2877  1.6766
 7293SOL    HW233516   1.442   1.972   7.082  0.8287 -1.7206 -0.2874
 7294SOL     OW33517   3.434   2.773   6.872 -0.0639 -1.0084 -0.3933
 7294SOL    HW133518   3.443   2.856   6.824 -2.0665 -0.4649  0.1691
 7294SOL    HW233519   3.366   2.738   6.814 -1.4322 -0.8626  1.1165
 7295SOL     OW33520   2.548   1.484   8.709  0.7297  0.0895 -0.5277
 7295SOL    HW133521   2.614   1.552   8.695  0.9280 -0.1653 -0.8520
 7295SOL    HW233522   2.538   1.437   8.626  0.5885 -0.5688 -0.1345
 7296SOL     OW33523   2.946   2.696   2.187 -0.1771  0.2861  0.1823
 7296SOL    HW133524   3.004   2.728   2.118 -0.2111 -1.7387 -0.7963
 7296SOL    HW233525   2.948   2.600   2.178  2.7031  0.3215  0.6129
 7297SOL     OW33526   0.111   1.510   7.393 -0.8940  0.4665  0.0200
 7297SOL    HW133527   0.096   1.605   7.386  0.8704  0.6465 -1.3985
 7297SOL    HW233528   0.169   1.495   7.468  0.8632 -0.9622 -1.6340
 7298SOL     OW33529   2.716   2.050   4.008  0.4658 -0.1319 -0.6439
 7298SOL    HW133530   2.705   2.068   3.914 -0.6760 -0.3908 -0.5530
 7298SOL    HW233531   2.714   2.137   4.046  1.6621  0.1740 -1.2586
 7299SOL     OW33532   4.452   0.772  11.349  0.3705  0.2646  0.0394
 7299SOL    HW133533   4.484   0.703  11.290  1.4894  0.7736  0.0373
 7299SOL    HW233534   4.523   0.771  11.413  0.2521  1.5331  0.1829
 7300SOL     OW33535   1.045   1.663   2.619 -0.2821  0.0715  0.4527
 7300SOL    HW133536   0.996   1.596   2.667 -1.6581  0.1283 -0.8505
 7300SOL    HW233537   1.006   1.746   2.649 -0.0784  0.5741 -0.6873
 7301SOL     OW33538   0.792   1.175  13.584 -0.4226  0.0873  0.0153
 7301SOL    HW133539   0.866   1.225  13.618 -1.2877  0.2517  1.6992
 7301SOL    HW233540   0.749   1.245  13.537 -0.1044 -1.1523 -2.1362
 7302SOL     OW33541   0.594   3.695   2.787  0.6733  0.4688  0.0671
 7302SOL    HW133542   0.671   3.725   2.738  0.2923  0.6903 -0.4046
 7302SOL    HW233543   0.612   3.636   2.860 -3.3967 -0.3881  0.3780
 7303SOL     OW33544   4.593   1.788   4.788  0.3278 -0.2878  0.4440
 7303SOL    HW133545   4.548   1.712   4.826  2.1241 -0.9671  1.2261
 7303SOL    HW233546   4.683   1.757   4.789  0.2571 -0.4737  0.8704
 7304SOL     OW33547   2.827   3.373   5.620  0.4594  0.0086  0.1566
 7304SOL    HW133548   2.852   3.450   5.671 -1.3007  0.0441  0.9587
 7304SOL    HW233549   2.887   3.370   5.545 -0.0565 -2.5870 -0.1517
 7305SOL     OW33550   3.290   2.719   2.926  0.4426  0.2002  0.4378
 7305SOL    HW133551   3.261   2.728   2.835 -1.8134  1.8063  1.3096
 7305SOL    HW233552   3.350   2.647   2.909  1.2630  1.1717 -0.7389
 7306SOL     OW33553   3.468   3.225   5.960 -0.0003 -0.0580 -0.0474
 7306SOL    HW133554   3.395   3.241   5.901 -1.8872 -1.1132  1.9700
 7306SOL    HW233555   3.485   3.134   5.934  0.4814 -0.0878  0.3636
 7307SOL     OW33556   4.561   2.660   6.753 -0.1206  0.3211  0.4519
 7307SOL    HW133557   4.487   2.624   6.703  0.4275 -0.3798  0.1388
 7307SOL    HW233558   4.565   2.749   6.717 -2.4109 -0.7595 -2.4747
 7308SOL     OW33559   1.518   1.003   4.444 -0.6677 -0.2060  0.1839
 7308SOL    HW133560   1.483   1.073   4.500  0.9846  0.3577  0.4853
 7308SOL    HW233561   1.586   1.051   4.398 -1.2399  0.3897 -0.0535
 7309SOL     OW33562   3.453   0.371   7.611 -0.6028  0.3821  0.1955
 7309SOL    HW133563   3.481   0.395   7.522  1.3343  0.6078  0.8672
 7309SOL    HW233564   3.382   0.431   7.634 -3.7594 -3.7602  1.3348
 7310SOL     OW33565   4.018   4.516   5.339  0.0020  0.2932 -0.0041
 7310SOL    HW133566   4.076   4.549   5.269  1.2716 -1.6163  0.1391
 7310SOL    HW233567   4.007   4.426   5.309 -3.2473 -0.4891  3.6452
 7311SOL     OW33568   0.385   3.988   4.059  0.1041  0.0780 -0.1510
 7311SOL    HW133569   0.428   4.021   4.138 -0.0798  2.1914 -0.9161
 7311SOL    HW233570   0.321   4.058   4.044 -0.5336 -0.9818 -2.3447
 7312SOL     OW33571   1.884   0.479  12.862 -0.3325  0.1468 -0.1783
 7312SOL    HW133572   1.907   0.463  12.770  0.6156 -0.2688  0.1378
 7312SOL    HW233573   1.791   0.498  12.847 -0.3465  0.2314  0.0170
 7313SOL     OW33574   0.139   4.359  13.630 -0.2548  0.2832 -0.1046
 7313SOL    HW133575   0.161   4.403  13.548  1.5617 -2.0134 -0.8596
 7313SOL    HW233576   0.224   4.319  13.649 -0.0276  0.3241 -1.0445
 7314SOL     OW33577   0.459   0.224   2.205  0.2598  0.1049 -0.2891
 7314SOL    HW133578   0.513   0.223   2.284  0.0246  0.4698 -0.1230
 7314SOL    HW233579   0.374   0.233   2.249  0.0610 -2.3700 -0.1742
 7315SOL     OW33580   4.140   4.274   5.163  0.3312 -0.5559 -0.3099
 7315SOL    HW133581   4.230   4.247   5.182  0.5315 -0.0953 -0.6168
 7315SOL    HW233582   4.157   4.305   5.074  0.3256  0.8305  0.1695
 7316SOL     OW33583   4.275   2.239  11.784 -0.2757  0.1326 -0.1817
 7316SOL    HW133584   4.246   2.325  11.753 -0.7286  0.2556  0.5712
 7316SOL    HW233585   4.295   2.196  11.701  3.1054 -0.6344  1.0230
 7317SOL     OW33586   2.675   0.788   7.138  0.4395 -0.8522  0.3664
 7317SOL    HW133587   2.658   0.882   7.132 -0.1409 -1.2002 -3.8356
 7317SOL    HW233588   2.586   0.755   7.133  0.3221 -0.2360 -1.6115
 7318SOL     OW33589   3.321   4.464   0.047  0.1274 -0.3998 -0.7439
 7318SOL    HW133590   3.248   4.469  17.736  0.4512 -2.9917 -1.3230
 7318SOL    HW233591   3.348   4.555   0.063 -1.1156  0.1286 -1.6047
 7319SOL     OW33592   3.180   4.067   0.590  0.1536  0.0507 -0.3622
 7319SOL    HW133593   3.190   4.135   0.523 -2.8533 -0.2455 -1.1313
 7319SOL    HW233594   3.092   4.034   0.570  0.0126  0.1056  0.1617
 7320SOL     OW33595   1.565   0.795   4.595  0.2664  0.2650  0.1849
 7320SOL    HW133596   1.510   0.722   4.567 -1.4847  1.6511 -0.0098
 7320SOL    HW233597   1.542   0.862   4.530 -0.7519 -1.3900 -1.1373
 7321SOL     OW33598   1.489   0.789  12.261 -0.2141  0.8835 -0.2394
 7321SOL    HW133599   1.529   0.876  12.261  0.0305  0.7795 -1.9774
 7321SOL    HW233600   1.543   0.747  12.194 -1.2056 -1.4020  0.4049
 7322SOL     OW33601   4.291   3.550   0.049 -0.2842 -0.6934  0.3619
 7322SOL    HW133602   4.334   3.631   0.021 -0.2447 -1.0811 -0.6939
 7322SOL    HW233603   4.258   3.519  17.716 -1.1109 -1.5948  1.0071
 7323SOL     OW33604   3.924   1.242   5.938  0.2264  0.1191  0.1234
 7323SOL    HW133605   3.924   1.240   5.842  0.1395  2.8538  0.0650
 7323SOL    HW233606   3.904   1.336   5.939 -0.2254  0.0395 -1.2296
 7324SOL     OW33607   2.887   1.165   3.561 -0.3591  0.0405 -0.1185
 7324SOL    HW133608   2.975   1.176   3.525  0.1675  0.0587  1.1628
 7324SOL    HW233609   2.847   1.250   3.546 -0.4164  0.5329  2.7729
 7325SOL     OW33610   1.726   0.553  10.428 -0.0484  0.2221 -0.0529
 7325SOL    HW133611   1.744   0.647  10.418 -3.0019  0.7397 -0.3734
 7325SOL    HW233612   1.640   0.561  10.469 -0.2499 -0.5904 -0.3102
 7326SOL     OW33613   2.804   4.175   3.549  0.5468  0.0706 -0.4858
 7326SOL    HW133614   2.723   4.209   3.588  0.8968  0.1307  0.1862
 7326SOL    HW233615   2.803   4.081   3.570  0.9751  0.5919  1.8395
 7327SOL     OW33616   0.380   0.041   8.602  0.0362 -0.5480 -0.6243
 7327SOL    HW133617   0.321   0.114   8.623  0.5386  0.8411 -3.9693
 7327SOL    HW233618   0.461   0.077   8.639 -0.1587  1.0609 -1.7638
 7328SOL     OW33619   0.966   4.162   1.652  0.0134 -0.3337  0.2863
 7328SOL    HW133620   0.971   4.104   1.577  1.0577 -0.3898  0.4036
 7328SOL    HW233621   1.050   4.207   1.645 -1.3011  1.7930 -1.9995
 7329SOL     OW33622   4.381   3.682   0.991 -0.2169 -0.0031  0.1257
 7329SOL    HW133623   4.386   3.715   0.902  1.7134  0.0585  0.2419
 7329SOL    HW233624   4.452   3.618   0.994 -1.2868 -1.1935 -0.0186
 7330SOL     OW33625   4.626   3.277   0.880  0.2451  0.0445 -0.2378
 7330SOL    HW133626   4.622   3.307   0.790  0.1334  0.2516 -0.1632
 7330SOL    HW233627   4.598   3.187   0.867  0.9077 -0.4655  1.8820
 7331SOL     OW33628   1.061   2.506   1.863  0.7326 -0.0468  0.2727
 7331SOL    HW133629   1.072   2.413   1.882  0.8430  0.5162  3.0929
 7331SOL    HW233630   1.022   2.510   1.776  1.0834 -0.3484  0.1029
 7332SOL     OW33631   4.105   0.331   2.128 -0.0550  0.0429  0.4521
 7332SOL    HW133632   4.128   0.392   2.198 -0.4284  0.1431  0.4848
 7332SOL    HW233633   4.195   0.308   2.103 -0.1729 -0.1362  0.2017
 7333SOL     OW33634   2.896   3.599   0.701  0.3734 -0.1886 -0.4412
 7333SOL    HW133635   2.901   3.635   0.613  1.4091 -0.2248 -0.3997
 7333SOL    HW233636   2.983   3.604   0.741 -0.5269 -0.7480  1.5769
 7334SOL     OW33637   3.081   2.155  15.095 -0.1394  0.1522 -0.1226
 7334SOL    HW133638   3.165   2.121  15.066 -1.0731 -1.7666 -0.5230
 7334SOL    HW233639   3.018   2.121  15.032  1.9079 -0.8056 -1.6369
 7335SOL     OW33640   3.462   2.959   8.887  0.2810 -0.2041 -0.2816
 7335SOL    HW133641   3.473   2.993   8.798  0.0538  1.8826  0.4919
 7335SOL    HW233642   3.434   2.871   8.861 -1.4040  0.2115  0.0760
 7336SOL     OW33643   1.182   4.215   7.261 -0.7678 -0.2481  0.0552
 7336SOL    HW133644   1.198   4.208   7.355 -2.1185 -1.6309  0.1755
 7336SOL    HW233645   1.087   4.208   7.266 -0.7659 -0.5395 -0.3421
 7337SOL     OW33646   3.296   4.357  15.567  0.1614 -0.2322  0.0814
 7337SOL    HW133647   3.351   4.411  15.625 -2.1383  0.4972  1.5884
 7337SOL    HW233648   3.228   4.329  15.628 -0.3849 -2.7277 -1.6867
 7338SOL     OW33649   1.230   1.917   5.079 -0.3689  0.1634  0.0832
 7338SOL    HW133650   1.317   1.905   5.041 -0.7984  1.8341 -1.4459
 7338SOL    HW233651   1.203   2.004   5.049  1.1017  0.6147  0.0521
 7339SOL     OW33652   0.982   4.532   6.809 -0.4989  0.2689 -0.3190
 7339SOL    HW133653   0.946   4.467   6.749  0.5746 -1.0059  0.4064
 7339SOL    HW233654   1.006   4.475   6.882 -0.0047 -1.5118 -1.8750
 7340SOL     OW33655   2.560   4.619   6.355  0.0887  0.2238  0.2629
 7340SOL    HW133656   2.497   4.597   6.424  0.8173  0.0930  0.8859
 7340SOL    HW233657   2.591   4.532   6.331  1.1874  0.6565  0.1367
 7341SOL     OW33658   4.541   0.510   4.656  0.5092  0.1469 -0.1202
 7341SOL    HW133659   4.488   0.589   4.643  2.2315  1.2897 -0.0916
 7341SOL    HW233660   4.532   0.493   4.750 -0.2137 -2.5670 -0.6834
 7342SOL     OW33661   1.298   4.287   6.866  0.5616 -0.3709 -0.2521
 7342SOL    HW133662   1.233   4.355   6.884  3.4681  1.8703  1.7941
 7342SOL    HW233663   1.310   4.290   6.771  0.2538 -0.3908 -0.2918
 7343SOL     OW33664   0.971   2.893   8.990  0.0632  0.3900 -0.2982
 7343SOL    HW133665   1.055   2.939   8.981  1.3796 -2.1476 -0.7703
 7343SOL    HW233666   0.965   2.887   9.085 -0.2794  1.4411 -0.2494
 7344SOL     OW33667   2.174   3.267  16.968 -0.3648  0.3881  0.0152
 7344SOL    HW133668   2.181   3.346  17.023  1.7708  0.2931 -0.1016
 7344SOL    HW233669   2.157   3.315  16.887  0.9482  1.3939  0.3178
 7345SOL     OW33670   4.007   2.516   3.053  0.3978  0.8540 -0.0231
 7345SOL    HW133671   3.961   2.434   3.073  0.1293  0.6131 -1.6405
 7345SOL    HW233672   3.943   2.568   3.005 -1.6927  1.4789  3.4034
 7346SOL     OW33673   2.136   4.622   7.945  0.4149  0.5216  0.4254
 7346SOL    HW133674   2.062   4.624   8.006  0.6626  0.4932  0.7273
 7346SOL    HW233675   2.211   4.606   8.003  0.1815  0.6542  0.7655
 7347SOL     OW33676   0.945   1.856   1.099  0.6576  0.0617  0.1139
 7347SOL    HW133677   1.025   1.897   1.133  1.3803 -0.8670 -0.4540
 7347SOL    HW233678   0.883   1.928   1.090  0.9079  0.0487 -1.8030
 7348SOL     OW33679   2.531   3.061   3.419 -0.5256 -0.5953  0.0342
 7348SOL    HW133680   2.597   3.003   3.457  0.5293  1.6774  1.6049
 7348SOL    HW233681   2.450   3.020   3.448 -0.4837 -0.3122  0.5309
 7349SOL     OW33682   0.261   1.435   5.959 -0.0822 -0.1174 -0.2498
 7349SOL    HW133683   0.321   1.365   5.933 -0.7900 -0.3511 -1.2293
 7349SOL    HW233684   0.182   1.384   5.944 -0.8827  1.4549 -1.3525
 7350SOL     OW33685   3.805   4.472  16.943 -0.5206 -0.3175 -0.0887
 7350SOL    HW133686   3.784   4.513  17.027  0.8486 -0.7115  0.4487
 7350SOL    HW233687   3.723   4.482  16.896 -0.6632  0.6975  0.3903
 7351SOL     OW33688   2.419   2.896  15.964  0.4972  0.0589 -0.3665
 7351SOL    HW133689   2.414   2.802  15.981  0.0382  0.0167 -0.7469
 7351SOL    HW233690   2.370   2.930  16.040 -0.1780  0.7665 -1.1204
 7352SOL     OW33691   0.978   2.185   2.610  0.2714 -0.3201  0.1704
 7352SOL    HW133692   0.888   2.154   2.596  0.4251 -0.1240 -1.2307
 7352SOL    HW233693   1.000   2.155   2.698  0.2559 -1.1661 -0.1190
 7353SOL     OW33694   1.602   4.410   2.712  0.0107 -0.4094 -0.3291
 7353SOL    HW133695   1.695   4.414   2.691  0.7659 -0.1928  2.9547
 7353SOL    HW233696   1.577   4.324   2.679 -2.4025  0.9828 -2.1043
 7354SOL     OW33697   3.842   4.262   3.685 -0.2698 -0.0345 -0.0485
 7354SOL    HW133698   3.923   4.292   3.645 -1.2112  0.2159 -1.7698
 7354SOL    HW233699   3.790   4.342   3.696  0.4952  0.8002 -2.4825
 7355SOL     OW33700   0.155   3.986  10.616 -0.2066 -0.3026 -0.2222
 7355SOL    HW133701   0.123   3.948  10.698  0.6070  2.0455  1.1790
 7355SOL    HW233702   0.249   3.998  10.630 -0.4918  2.2094 -0.4902
 7356SOL     OW33703   0.479   4.710  11.744 -0.4396  0.2012  0.2585
 7356SOL    HW133704   0.434   4.678  11.822 -1.5510 -0.5691 -0.7034
 7356SOL    HW233705   0.526   0.044  11.785 -1.5913  1.5272 -0.7016
 7357SOL     OW33706   2.899   0.673   2.122 -0.0822  1.2029 -0.3674
 7357SOL    HW133707   2.804   0.671   2.113 -0.1109  2.0224 -0.2945
 7357SOL    HW233708   2.913   0.583   2.151  0.5942  0.6240 -2.5060
 7358SOL     OW33709   2.300   3.531   3.316 -0.4163 -0.1675 -0.2919
 7358SOL    HW133710   2.229   3.491   3.267 -1.3166 -1.3797  2.0238
 7358SOL    HW233711   2.371   3.538   3.251  0.0013 -2.1012 -0.0419
 7359SOL     OW33712   0.427   0.402   6.474 -1.0036 -0.1214 -0.3400
 7359SOL    HW133713   0.389   0.477   6.520  1.6532 -0.5298  2.5847
 7359SOL    HW233714   0.430   0.444   6.388  0.0543  2.4362  0.9224
 7360SOL     OW33715   4.144   3.878  15.977  0.1970  0.7908 -0.7758
 7360SOL    HW133716   4.166   3.794  15.936 -0.0740  0.3056  0.0634
 7360SOL    HW233717   4.229   3.922  15.972  0.6619  0.4213  4.1917
 7361SOL     OW33718   2.065   4.495  12.579  0.4696  0.4343 -0.2109
 7361SOL    HW133719   2.068   4.587  12.551 -0.6097  0.9497  1.3710
 7361SOL    HW233720   2.042   4.452  12.497  2.0475 -1.8631  0.5584
 7362SOL     OW33721   4.606   3.442   5.305 -0.1630  0.6100  0.0450
 7362SOL    HW133722   4.606   3.413   5.213 -1.6073  1.8516 -0.3515
 7362SOL    HW233723   4.672   3.380   5.334 -2.9078 -1.7318  1.1912
 7363SOL     OW33724   1.055   3.477   2.124  0.4619 -0.2299 -0.3626
 7363SOL    HW133725   1.121   3.463   2.191  1.4640  0.8974 -1.1300
 7363SOL    HW233726   1.067   3.572   2.117  0.5707 -0.3365 -1.6213
 7364SOL     OW33727   2.347   4.544   4.825  0.0475  0.4431 -0.5453
 7364SOL    HW133728   2.437   4.522   4.849 -0.0381  0.7564  0.0870
 7364SOL    HW233729   2.345   4.622   4.770 -0.0070  2.6298  2.5698
 7365SOL     OW33730   4.205   2.856   3.848  0.6633 -0.2936  0.0780
 7365SOL    HW133731   4.296   2.832   3.830  0.6916  0.2720 -0.5479
 7365SOL    HW233732   4.172   2.775   3.887  1.0274 -0.2752  0.4217
 7366SOL     OW33733   3.622   0.133   8.666 -0.0965 -0.3846  0.4529
 7366SOL    HW133734   3.717   0.145   8.664  0.1099 -2.1112 -0.1429
 7366SOL    HW233735   3.621   0.075   8.743 -0.0429 -0.0797  0.6837
 7367SOL     OW33736   3.643   4.707  12.274 -0.0492 -0.9021  0.3454
 7367SOL    HW133737   3.596   0.049  12.299  0.7941 -0.7527  1.4268
 7367SOL    HW233738   3.690   4.677  12.352 -0.3269 -2.7488 -0.2006
 7368SOL     OW33739   1.977   4.424  17.603  0.2604  0.5006  0.4758
 7368SOL    HW133740   1.942   4.374  17.530  2.1398  0.3384 -0.3266
 7368SOL    HW233741   2.052   4.374  17.636 -0.2362  0.1238  1.0276
 7369SOL     OW33742   3.944   1.197   4.799 -0.3488 -0.2779 -0.9566
 7369SOL    HW133743   3.855   1.162   4.799 -0.6281  0.4218 -0.1884
 7369SOL    HW233744   3.923   1.290   4.811 -1.8783 -1.1945  3.3315
 7370SOL     OW33745   1.096   0.604  12.717 -0.4936 -0.2232  0.2242
 7370SOL    HW133746   1.010   0.562  12.712 -1.1489  0.9941  1.1417
 7370SOL    HW233747   1.150   0.537  12.677  1.4855  1.0805  0.6826
 7371SOL     OW33748   1.764   0.433  16.401  0.6561  0.1957  0.2307
 7371SOL    HW133749   1.763   0.452  16.307  0.6931 -0.5524  0.0782
 7371SOL    HW233750   1.672   0.426  16.427  0.4903  0.5375 -0.2454
 7372SOL     OW33751   3.425   3.321   2.998  0.1071 -0.2455  0.0758
 7372SOL    HW133752   3.477   3.359   3.069  0.2828  2.3221 -1.4070
 7372SOL    HW233753   3.387   3.248   3.046  1.7537 -1.6047 -0.6785
 7373SOL     OW33754   2.501   4.371   4.600  0.3319 -0.3737  0.0513
 7373SOL    HW133755   2.439   4.377   4.673 -1.2104 -3.0551 -1.0091
 7373SOL    HW233756   2.576   4.337   4.648  0.1973  2.2460  2.0637
 7374SOL     OW33757   2.090   4.607   2.321 -0.2076  0.1582  0.7652
 7374SOL    HW133758   2.121   4.684   2.368  1.7612 -1.2521  1.7865
 7374SOL    HW233759   2.174   4.564   2.302  0.6683  1.8746  0.7897
 7375SOL     OW33760   0.439   4.236   4.585  0.0611 -0.0657  0.8626
 7375SOL    HW133761   0.449   4.239   4.680  0.3508 -1.0714  0.8643
 7375SOL    HW233762   0.472   4.325   4.572  0.3391 -0.5021 -1.5216
 7376SOL     OW33763   2.109   1.313   5.224 -0.2837  0.0600  0.0810
 7376SOL    HW133764   2.078   1.391   5.179 -1.7355 -1.6071 -1.7631
 7376SOL    HW233765   2.193   1.343   5.261  0.1005  0.6603 -1.2797
 7377SOL     OW33766   3.724   0.606   5.255  0.4675 -0.4200  0.1326
 7377SOL    HW133767   3.682   0.559   5.328  0.6148 -0.2954  0.2979
 7377SOL    HW233768   3.793   0.542   5.236  0.0456 -0.1813 -2.1838
 7378SOL     OW33769   1.563   2.625   5.940  0.2936 -0.3931 -0.7213
 7378SOL    HW133770   1.642   2.577   5.965 -1.2246 -2.3475  0.2404
 7378SOL    HW233771   1.489   2.568   5.961 -1.2453  1.4669 -1.0669
 7379SOL     OW33772   3.075   4.576   5.160  0.2127  0.5295 -0.3172
 7379SOL    HW133773   3.044   4.509   5.221 -1.4999  1.7968  0.1729
 7379SOL    HW233774   3.115   4.629   5.229  0.9147 -0.9976  0.4470
 7380SOL     OW33775   0.472   2.482   8.743  0.3620 -0.5212 -0.0280
 7380SOL    HW133776   0.481   2.390   8.767  1.0039 -0.6954 -0.9519
 7380SOL    HW233777   0.564   2.507   8.741 -0.0803  1.2103  0.6742
 7381SOL     OW33778   4.083   2.435   5.529 -0.1288  0.1200 -0.5183
 7381SOL    HW133779   4.060   2.483   5.609  1.0680 -1.4697  0.7719
 7381SOL    HW233780   4.176   2.418   5.541  0.2901  2.8930  0.2836
 7382SOL     OW33781   1.674   3.103   2.064  0.3674 -0.2690 -0.2303
 7382SOL    HW133782   1.754   3.142   2.029  1.8804 -0.7070  2.7384
 7382SOL    HW233783   1.643   3.054   1.988 -0.4137  0.7739 -0.5859
 7383SOL     OW33784   1.415   2.816  14.560  0.7500 -0.1363 -0.2127
 7383SOL    HW133785   1.352   2.787  14.494  0.9192 -3.3075  1.0679
 7383SOL    HW233786   1.359   2.841  14.633  0.2668 -0.8940 -0.3301
 7384SOL     OW33787   0.830   4.185   4.722  0.2157 -0.1411  0.0559
 7384SOL    HW133788   0.843   4.272   4.685 -0.9707  1.2749  3.0133
 7384SOL    HW233789   0.785   4.129   4.658  0.1104 -0.9639  0.8467
 7385SOL     OW33790   3.552   3.527  15.161  0.5918 -0.4125 -0.5265
 7385SOL    HW133791   3.616   3.593  15.188  0.1967 -0.8119  1.3920
 7385SOL    HW233792   3.486   3.581  15.118  1.4435  1.9545  1.0861
 7386SOL     OW33793   3.079   0.692   6.261 -0.5607 -0.0758 -0.2140
 7386SOL    HW133794   3.031   0.668   6.182 -1.4899  0.3788  0.2097
 7386SOL    HW233795   3.013   0.706   6.329 -0.5703  1.4324 -0.5488
 7387SOL     OW33796   3.560   4.106   4.721 -0.3092  0.3047 -0.1180
 7387SOL    HW133797   3.501   4.135   4.790 -1.4344  0.0392 -0.9560
 7387SOL    HW233798   3.617   4.180   4.703 -0.1958  0.6061  1.5187
 7388SOL     OW33799   2.879   2.633   4.483  0.3313 -0.6067 -0.4079
 7388SOL    HW133800   2.853   2.696   4.550  3.6945 -1.2483  1.5068
 7388SOL    HW233801   2.871   2.680   4.400  1.4851 -0.3883 -0.3956
 7389SOL     OW33802   3.249   4.146   7.978 -0.2909 -0.1754  0.0453
 7389SOL    HW133803   3.198   4.202   8.035  1.0361  0.0832  0.9708
 7389SOL    HW233804   3.191   4.071   7.964 -1.7024  0.7998  0.7194
 7390SOL     OW33805   0.314   4.636  11.460  0.6343 -0.7711 -0.5519
 7390SOL    HW133806   0.362   4.685  11.527 -0.0044 -2.1671  0.9417
 7390SOL    HW233807   0.316   4.547  11.496 -0.5535 -0.3124  0.6449
 7391SOL     OW33808   0.306   3.557   5.899  0.6819  0.5383 -0.2495
 7391SOL    HW133809   0.225   3.584   5.943  0.2042  0.9737 -1.3923
 7391SOL    HW233810   0.291   3.569   5.806  1.4702  0.1556 -0.4298
 7392SOL     OW33811   1.613   0.295   1.325  0.0123  0.4708 -0.0574
 7392SOL    HW133812   1.631   0.224   1.386 -1.4805  0.8331  0.8153
 7392SOL    HW233813   1.631   0.375   1.374  0.1399  1.2558 -1.3892
 7393SOL     OW33814   4.581   2.338  15.839 -0.4536  0.2229  0.6686
 7393SOL    HW133815   4.633   2.260  15.861 -0.4571  0.0548  0.0949
 7393SOL    HW233816   4.642   2.382  15.779 -2.1072  0.8038 -0.6090
 7394SOL     OW33817   2.729   4.738   0.172 -0.1960  0.4866 -0.5975
 7394SOL    HW133818   2.789   0.025   0.102  1.4224 -1.0188  0.2485
 7394SOL    HW233819   2.682   0.080   0.192  2.7331  2.2023 -0.6847
 7395SOL     OW33820   1.743   4.333   8.535  0.0734 -0.4922  0.0883
 7395SOL    HW133821   1.690   4.346   8.457  0.9561  0.1500 -0.4043
 7395SOL    HW233822   1.754   4.424   8.563  0.3507 -0.5444  0.1435
 7396SOL     OW33823   3.938   3.974   6.643  0.4933 -0.3348 -0.2409
 7396SOL    HW133824   3.977   3.936   6.721  0.0354  0.8583  0.5712
 7396SOL    HW233825   3.845   3.953   6.654  0.7686 -1.9925 -0.9573
 7397SOL     OW33826   3.394   1.173   5.648  0.1839  0.3452  0.1021
 7397SOL    HW133827   3.408   1.198   5.739  2.1062 -0.8163  0.1315
 7397SOL    HW233828   3.474   1.124   5.630  0.9436  1.5552  0.2430
 7398SOL     OW33829   1.699   3.894   5.292  0.1208  0.2596  0.1568
 7398SOL    HW133830   1.635   3.912   5.222  0.4488 -3.4310 -1.1402
 7398SOL    HW233831   1.772   3.899   5.231 -0.6471 -1.2704 -0.9084
 7399SOL     OW33832   1.934   4.245  14.060  0.4482 -0.0381 -0.5577
 7399SOL    HW133833   1.907   4.158  14.089 -0.1346  0.6150  0.8393
 7399SOL    HW233834   1.848   4.285  14.070  0.6431 -0.4204  2.6697
 7400SOL     OW33835   0.520   2.872   6.257 -0.0265 -0.2557 -0.8241
 7400SOL    HW133836   0.430   2.840   6.260  0.0711 -0.7938 -3.0498
 7400SOL    HW233837   0.557   2.810   6.320 -0.9334 -0.0582 -0.0984
 7401SOL     OW33838   1.285   2.408  14.388  0.0739 -0.3705 -0.4568
 7401SOL    HW133839   1.269   2.384  14.296  1.4166  1.5118 -1.1867
 7401SOL    HW233840   1.360   2.351  14.401 -0.6326 -1.3680 -0.7652
 7402SOL     OW33841   1.681   0.522   7.923  0.4834 -0.6151 -0.5423
 7402SOL    HW133842   1.742   0.594   7.935  0.6239 -0.5492 -1.6425
 7402SOL    HW233843   1.665   0.499   8.015 -1.4583  1.6236 -0.3304
 7403SOL     OW33844   2.227   2.579  15.845  1.0910 -0.2459 -0.6345
 7403SOL    HW133845   2.252   2.584  15.938 -0.6538 -1.0878 -0.1235
 7403SOL    HW233846   2.304   2.539  15.805  0.0427 -0.5620 -2.3404
 7404SOL     OW33847   1.378   1.206   1.701 -0.1194 -0.2754  0.6767
 7404SOL    HW133848   1.410   1.204   1.611  0.2417 -1.2965  0.8230
 7404SOL    HW233849   1.453   1.166   1.746  0.5523 -0.6844 -0.8017
 7405SOL     OW33850   4.040   4.203   7.274 -0.1629  0.2626  0.0247
 7405SOL    HW133851   4.031   4.145   7.198 -1.1217  0.5125 -0.0428
 7405SOL    HW233852   4.132   4.232   7.268  0.0099 -0.8626 -2.8572
 7406SOL     OW33853   1.198   3.933   7.243  0.1245 -0.0743 -0.3875
 7406SOL    HW133854   1.251   3.946   7.322  2.4385 -1.2676 -1.7458
 7406SOL    HW233855   1.246   3.983   7.177 -2.9340  1.5422 -1.4224
 7407SOL     OW33856   0.000   1.911  13.433 -0.1835 -0.2015  0.6325
 7407SOL    HW133857   4.730   1.910  13.337 -0.0608  0.3826  0.6190
 7407SOL    HW233858   4.715   1.822  13.461 -0.5132  0.4278  2.3309
 7408SOL     OW33859   2.591   2.467  10.570 -0.7791 -0.0744  0.2434
 7408SOL    HW133860   2.643   2.453  10.649  1.6902 -1.3403 -1.5756
 7408SOL    HW233861   2.502   2.450  10.600 -1.2046 -0.1473 -1.0615
 7409SOL     OW33862   0.747   4.302   2.737 -0.4253 -0.2419 -0.8103
 7409SOL    HW133863   0.656   4.276   2.722 -0.5776 -0.3327  0.2214
 7409SOL    HW233864   0.732   4.397   2.742  1.0977 -0.0381 -0.2871
 7410SOL     OW33865   3.289   0.046   0.416 -0.0530 -0.1068  0.1526
 7410SOL    HW133866   3.359   0.032   0.352 -0.7350 -1.8945 -0.1662
 7410SOL    HW233867   3.253   4.697   0.405 -0.0612 -0.0286 -0.4607
 7411SOL     OW33868   4.416   1.970  11.265  0.1682  0.0232  0.2823
 7411SOL    HW133869   4.376   1.907  11.204 -1.3343  1.6159 -0.3908
 7411SOL    HW233870   4.345   1.972  11.329  0.7127 -0.1885  0.8797
 7412SOL     OW33871   4.622   1.515  14.076 -0.6251 -0.4329  0.0732
 7412SOL    HW133872   4.563   1.548  14.144 -0.5231 -1.1086  0.4844
 7412SOL    HW233873   4.672   1.595  14.059  2.3768 -1.9981  1.6389
 7413SOL     OW33874   3.792   1.989   7.896  0.0888  0.0731  0.1386
 7413SOL    HW133875   3.811   1.914   7.952  0.1917  0.8755  1.1727
 7413SOL    HW233876   3.845   2.058   7.935 -4.1359  2.2245  2.0835
 7414SOL     OW33877   2.865   2.025   2.412  0.0721  0.3323  0.7780
 7414SOL    HW133878   2.866   2.081   2.334  2.4910 -2.3447 -1.1148
 7414SOL    HW233879   2.785   1.975   2.395  1.3690 -0.7710 -2.0625
 7415SOL     OW33880   4.380   4.166   8.192 -0.1479 -0.1824 -0.3324
 7415SOL    HW133881   4.288   4.190   8.185  0.5221  1.2558 -3.8493
 7415SOL    HW233882   4.424   4.204   8.116  1.7874 -0.0276  0.8779
 7416SOL     OW33883   0.829   1.735   3.849 -0.0181 -0.5912  0.5062
 7416SOL    HW133884   0.757   1.703   3.903 -1.8136  0.0759 -1.4909
 7416SOL    HW233885   0.838   1.824   3.884  1.4263  0.0522 -1.5050
 7417SOL     OW33886   4.375   2.111   2.255 -0.3934  0.3334  0.0939
 7417SOL    HW133887   4.456   2.082   2.297  0.3244 -0.2286 -1.6670
 7417SOL    HW233888   4.384   2.202   2.283  0.6601 -0.0710  1.0365
 7418SOL     OW33889   3.353   1.776  15.056 -0.5592  0.1224  0.2764
 7418SOL    HW133890   3.385   1.766  14.967 -1.2911  1.1631 -0.1000
 7418SOL    HW233891   3.420   1.729  15.107  0.0023 -0.9986 -1.5210
 7419SOL     OW33892   0.919   4.732  12.978 -0.0620  0.0269  0.1030
 7419SOL    HW133893   0.956   4.731  12.890 -1.5369 -2.1214 -0.4881
 7419SOL    HW233894   0.964   0.068  13.017 -2.7529  1.4718  0.4910
 7420SOL     OW33895   1.752   0.161   4.645  0.2172  0.6453 -0.0202
 7420SOL    HW133896   1.820   0.195   4.703  0.7061  1.7880 -1.2716
 7420SOL    HW233897   1.672   0.177   4.696 -0.1332  3.0200 -1.2991
 7421SOL     OW33898   0.393   3.570   9.203 -0.0896 -0.1687 -0.0691
 7421SOL    HW133899   0.299   3.575   9.184 -0.0405 -0.2435 -0.3378
 7421SOL    HW233900   0.402   3.566   9.298  2.1189 -2.2079 -0.3747
 7422SOL     OW33901   1.869   0.572   5.540 -0.0391 -0.0238  0.2567
 7422SOL    HW133902   1.880   0.477   5.537  2.6832  0.2482  0.8636
 7422SOL    HW233903   1.864   0.597   5.447 -2.1754 -3.6675 -0.6073
 7423SOL     OW33904   2.950   0.401   3.952 -0.1501 -0.2684 -0.2006
 7423SOL    HW133905   3.029   0.350   3.969 -0.2893 -0.1044  0.9469
 7423SOL    HW233906   2.902   0.343   3.893 -1.7262 -0.1147  0.9224
 7424SOL     OW33907   3.730   4.723  15.255  0.0524 -0.0495  0.0567
 7424SOL    HW133908   3.660   4.677  15.302 -0.6499 -0.1387 -1.0841
 7424SOL    HW233909   3.687   0.029  15.181 -0.3374 -0.0872  0.2596
 7425SOL     OW33910   0.769   3.063   9.180 -0.1614 -0.5617 -0.2126
 7425SOL    HW133911   0.838   2.999   9.200  1.9256  1.4610 -0.8751
 7425SOL    HW233912   0.766   3.110   9.264 -1.4993 -1.9054  0.4791
 7426SOL     OW33913   1.904   0.303   5.508  0.0067  0.2358  0.0774
 7426SOL    HW133914   1.914   0.266   5.421 -2.3146 -2.1308  0.8011
 7426SOL    HW233915   1.808   0.306   5.515  0.0141 -0.0731  0.3424
 7427SOL     OW33916   3.237   0.083  17.664 -0.3191 -0.0207  0.0978
 7427SOL    HW133917   3.180   0.033  17.722  2.3527 -1.3985  1.5300
 7427SOL    HW233918   3.208   0.170  17.692  1.0599 -0.1138  1.8264
 7428SOL     OW33919   3.598   0.374  10.762 -0.2451  0.0525 -0.2867
 7428SOL    HW133920   3.682   0.335  10.739 -0.6036 -0.8907  0.0037
 7428SOL    HW233921   3.576   0.312  10.832 -0.3612  1.1779  0.6768
 7429SOL     OW33922   3.743   1.643  14.802 -0.3219  0.7946 -0.0947
 7429SOL    HW133923   3.794   1.708  14.753  1.4374 -1.4464 -1.2064
 7429SOL    HW233924   3.650   1.661  14.785 -0.8811 -3.4840 -1.5776
 7430SOL     OW33925   2.572   3.811   7.195 -0.5715 -0.1436 -0.7397
 7430SOL    HW133926   2.582   3.872   7.268 -0.6936 -0.4543 -0.4651
 7430SOL    HW233927   2.571   3.863   7.114 -1.9436 -3.0432 -2.6003
 7431SOL     OW33928   4.316   1.824   9.057  0.1430 -0.0145 -0.1345
 7431SOL    HW133929   4.253   1.782   8.998  0.2890 -2.4638  1.4537
 7431SOL    HW233930   4.384   1.859   8.999  0.6187  2.2053  1.7944
 7432SOL     OW33931   0.586   3.761  15.965 -0.7417  0.1676 -0.4992
 7432SOL    HW133932   0.630   3.696  15.910  1.6599  1.6646 -0.3614
 7432SOL    HW233933   0.536   3.715  16.032 -0.4623  0.2345 -0.2439
 7433SOL     OW33934   1.084   1.812  13.284 -0.5087 -0.2591 -0.1103
 7433SOL    HW133935   1.049   1.756  13.215 -1.9952 -1.3243  1.4886
 7433SOL    HW233936   1.027   1.889  13.280  0.9478  0.7408 -1.1276
 7434SOL     OW33937   3.438   3.141  14.962  0.4245  0.2580 -0.2478
 7434SOL    HW133938   3.424   3.197  15.038  2.3483 -1.3169  1.2927
 7434SOL    HW233939   3.352   3.120  14.926  0.6089  0.3999 -0.7643
 7435SOL     OW33940   1.868   3.156   2.707 -0.2863  0.1749  0.3324
 7435SOL    HW133941   1.932   3.222   2.734  2.4843 -1.8883 -1.1308
 7435SOL    HW233942   1.843   3.186   2.619 -1.1142  0.9954  0.8605
 7436SOL     OW33943   2.458   3.140   8.755 -0.7504  0.6638  0.5553
 7436SOL    HW133944   2.390   3.191   8.712 -1.0952 -1.2447 -1.1197
 7436SOL    HW233945   2.409   3.095   8.824 -0.0039 -0.4429  0.3557
 7437SOL     OW33946   0.968   1.504   6.402 -0.2671  0.3000  0.5836
 7437SOL    HW133947   1.007   1.483   6.317  0.2245  1.0937  0.6070
 7437SOL    HW233948   0.975   1.600   6.404 -0.2196  0.3020  0.3359
 7438SOL     OW33949   3.034   1.698  11.992 -0.1840  0.1577 -0.3390
 7438SOL    HW133950   2.967   1.701  11.924 -0.1465 -1.3452 -0.4437
 7438SOL    HW233951   2.988   1.637  12.050  0.7183 -1.6136 -1.4710
 7439SOL     OW33952   3.472   4.549   3.910  0.0982  0.3606 -0.3241
 7439SOL    HW133953   3.389   4.528   3.953 -0.4772 -1.1693 -2.1942
 7439SOL    HW233954   3.506   4.609   3.977  0.8448 -1.4590  0.9242
 7440SOL     OW33955   1.046   1.167   4.231 -0.1297 -0.8443 -0.1576
 7440SOL    HW133956   0.982   1.137   4.167  1.4380 -2.0884 -1.1526
 7440SOL    HW233957   1.016   1.125   4.312  1.2940  0.4490  1.0476
 7441SOL     OW33958   4.663   0.893   5.968  0.0150 -0.5486  0.0272
 7441SOL    HW133959   4.637   0.926   5.881 -1.8231 -1.0172  0.4062
 7441SOL    HW233960   4.576   0.887   6.005 -0.6976 -1.9440 -1.8675
 7442SOL     OW33961   0.132   2.637  10.423  0.0059  0.1647  0.3129
 7442SOL    HW133962   0.093   2.716  10.460  2.6840  2.0046 -0.7878
 7442SOL    HW233963   0.188   2.610  10.496 -0.5860 -0.3394  0.5875
 7443SOL     OW33964   4.028   2.789  11.572  0.6892  0.0900 -0.5133
 7443SOL    HW133965   4.083   2.787  11.493 -1.0545  0.0529 -1.7361
 7443SOL    HW233966   3.974   2.863  11.544  0.1901 -0.6389 -1.4793
 7444SOL     OW33967   2.755   1.822   8.325 -0.1840 -0.3553  0.8069
 7444SOL    HW133968   2.779   1.755   8.262 -2.7842 -1.2515  0.7779
 7444SOL    HW233969   2.831   1.879   8.309 -1.1739  0.2685 -1.6795
 7445SOL     OW33970   2.759   0.256   2.719 -0.2136  0.6908  0.3271
 7445SOL    HW133971   2.840   0.305   2.736  0.3585 -0.2341  0.2813
 7445SOL    HW233972   2.713   0.310   2.655 -0.9467 -1.8000 -1.2110
 7446SOL     OW33973   4.071   1.664  12.004 -0.2537 -0.6575  0.0290
 7446SOL    HW133974   4.036   1.691  11.919 -3.5427  1.6389  2.0948
 7446SOL    HW233975   4.127   1.587  11.992 -1.0560 -1.0822 -0.9723
 7447SOL     OW33976   3.248   1.893  15.563 -0.2086  0.2788 -0.0481
 7447SOL    HW133977   3.182   1.906  15.496 -0.6639  1.1290  0.5597
 7447SOL    HW233978   3.299   1.821  15.528  1.9631  1.1862  1.2107
 7448SOL     OW33979   3.480   4.102   7.856 -0.1975  0.6073  0.6925
 7448SOL    HW133980   3.463   4.073   7.767 -1.5484 -2.2439  1.8679
 7448SOL    HW233981   3.392   4.107   7.895 -0.7568 -1.4684 -0.3253
 7449SOL     OW33982   3.592   4.099   5.481 -0.2251  0.0975 -0.0071
 7449SOL    HW133983   3.656   4.040   5.520 -0.3966 -1.3134 -1.8365
 7449SOL    HW233984   3.554   4.049   5.409  0.8140  0.9881 -1.1740
 7450SOL     OW33985   3.994   3.938   1.636  0.3803  0.0888  0.6849
 7450SOL    HW133986   4.071   3.918   1.690  0.0856 -3.4069 -0.2149
 7450SOL    HW233987   3.973   4.021   1.680 -1.0057 -1.1182  2.3024
 7451SOL     OW33988   1.100   1.099   1.717 -0.3429  0.4852 -0.1608
 7451SOL    HW133989   1.188   1.137   1.718  0.2675 -0.9237  0.0640
 7451SOL    HW233990   1.123   1.009   1.743 -1.6296  0.2152  0.0338
 7452SOL     OW33991   1.057   1.178   7.590 -0.3227  0.6478 -0.0268
 7452SOL    HW133992   1.119   1.202   7.521 -0.4732  0.1354 -0.3391
 7452SOL    HW233993   0.985   1.153   7.531  0.8302 -0.5254 -0.9359
 7453SOL     OW33994   0.136   3.231   0.117  0.1309  0.0256  0.2862
 7453SOL    HW133995   0.043   3.234   0.141  0.3322 -1.1368  1.1828
 7453SOL    HW233996   0.161   3.324   0.119  1.0342 -0.1931 -0.9280
 7454SOL     OW33997   0.364   3.764   1.998  0.2856  0.3081  0.5149
 7454SOL    HW133998   0.450   3.803   1.982  0.3995  1.3737  3.8652
 7454SOL    HW233999   0.355   3.714   1.916  0.4736 -1.7090  1.7209
 7455SOL     OW34000   1.385   0.819   1.512 -0.0583  0.0479  0.3117
 7455SOL    HW134001   1.409   0.910   1.497  1.4223 -0.0675  1.9287
 7455SOL    HW234002   1.439   0.774   1.447  1.6046 -1.8846  3.0184
 7456SOL     OW34003   4.497   1.130   6.314  0.6261  0.4118 -0.3481
 7456SOL    HW134004   4.511   1.060   6.378  0.2111 -1.6293 -2.4850
 7456SOL    HW234005   4.420   1.179   6.342 -0.2936 -0.8195 -0.7752
 7457SOL     OW34006   3.492   1.091   3.211  0.3393 -0.3280 -0.3632
 7457SOL    HW134007   3.456   1.171   3.175  0.6671  0.1691  0.4095
 7457SOL    HW234008   3.571   1.111   3.261 -1.5362  3.5846  1.0297
 7458SOL     OW34009   3.965   2.875   2.635  0.2035  0.5845 -0.3299
 7458SOL    HW134010   4.058   2.879   2.615  0.4797 -1.7107  0.5612
 7458SOL    HW234011   3.953   2.799   2.693 -1.7709  1.4108  0.3608
 7459SOL     OW34012   4.658   3.624  10.709  0.2132 -0.3124  0.2656
 7459SOL    HW134013   4.610   3.704  10.732  1.3777  0.5711 -0.3741
 7459SOL    HW234014   4.683   3.636  10.617  0.4231 -1.4144  0.1752
 7460SOL     OW34015   0.667   3.232   6.673  0.0242  0.5221 -0.3318
 7460SOL    HW134016   0.652   3.241   6.767  1.8223 -0.6035  0.0659
 7460SOL    HW234017   0.751   3.269   6.647 -0.4505  0.3116 -2.1727
 7461SOL     OW34018   2.577   0.564   3.508 -0.3754  0.9772 -0.0210
 7461SOL    HW134019   2.551   0.645   3.553 -0.4096  0.4300  0.9601
 7461SOL    HW234020   2.518   0.559   3.433 -1.4545 -0.8239  0.9499
 7462SOL     OW34021   2.648   1.892  15.195  0.0185  0.5486 -0.7545
 7462SOL    HW134022   2.589   1.816  15.201  0.9357 -0.0328  0.7110
 7462SOL    HW234023   2.674   1.908  15.104  0.2906  0.5726 -0.6726
 7463SOL     OW34024   3.700   0.753   9.335 -0.5398 -0.6392  0.0021
 7463SOL    HW134025   3.678   0.830   9.282  0.0916 -0.2239  0.3540
 7463SOL    HW234026   3.790   0.744   9.304 -0.3826  0.4371  0.1621
 7464SOL     OW34027   4.446   0.255   8.560  0.0649  0.0218 -0.5498
 7464SOL    HW134028   4.363   0.212   8.539 -0.1357  1.7308 -3.2727
 7464SOL    HW234029   4.417   0.308   8.635 -0.6585  0.1569 -0.9179
 7465SOL     OW34030   4.634   1.024  11.039 -0.7376 -0.0987  0.4567
 7465SOL    HW134031   4.676   1.093  10.987 -1.1459 -0.8279 -0.8375
 7465SOL    HW234032   4.692   1.035  11.114  0.8346 -2.6902 -0.4008
 7466SOL     OW34033   4.554   2.698  12.306  0.3336  0.2837  0.3307
 7466SOL    HW134034   4.468   2.690  12.263  0.4915 -0.2754  0.1200
 7466SOL    HW234035   4.536   2.635  12.376 -0.3265 -0.4534 -0.5010
 7467SOL     OW34036   2.630   3.605   1.046 -0.4805 -0.2793  0.0986
 7467SOL    HW134037   2.549   3.555   1.056 -0.1242 -0.4090  2.3390
 7467SOL    HW234038   2.633   3.676   1.111 -0.7657  0.4504 -0.6927
 7468SOL     OW34039   1.459   4.713   4.190 -0.2832  0.2359 -0.4460
 7468SOL    HW134040   1.503   4.695   4.273  0.3831 -0.5750 -0.9639
 7468SOL    HW234041   1.531   0.020   4.145 -1.1160  1.1380 -0.8679
 7469SOL     OW34042   3.893   3.901   5.281  0.3347 -0.7808  0.3040
 7469SOL    HW134043   3.971   3.936   5.238  0.8210 -0.4216  1.4949
 7469SOL    HW234044   3.926   3.899   5.371  0.0932 -0.6381  0.3958
 7470SOL     OW34045   0.254   1.905  11.519  0.3437  0.2131 -0.7110
 7470SOL    HW134046   0.311   1.921  11.444 -0.8393 -0.7225 -1.8247
 7470SOL    HW234047   0.282   1.963  11.589  0.7313 -0.7585 -0.0589
 7471SOL     OW34048   1.464   4.290  12.114  0.2390 -0.1103 -0.2670
 7471SOL    HW134049   1.418   4.232  12.175 -0.1222  0.7837  0.3154
 7471SOL    HW234050   1.548   4.246  12.100  0.5424  0.4245 -0.1183
 7472SOL     OW34051   0.356   0.959  12.661  0.1943  0.1804 -0.0257
 7472SOL    HW134052   0.406   0.907  12.723  1.9597  0.8677 -0.8558
 7472SOL    HW234053   0.383   0.915  12.581 -1.8151  0.7380 -1.0233
 7473SOL     OW34054   4.691   3.733   1.735 -0.8591  0.4015  0.3253
 7473SOL    HW134055   4.670   3.825   1.724  0.0800  0.4556 -1.0339
 7473SOL    HW234056   0.005   3.716   1.656 -0.2923 -1.6185  1.1251
 7474SOL     OW34057   0.816   0.298   3.265 -0.6901 -0.2776  0.1065
 7474SOL    HW134058   0.887   0.358   3.290  0.0704 -1.2485  0.3036
 7474SOL    HW234059   0.867   0.217   3.262  0.2604  0.3680 -1.5721
 7475SOL     OW34060   2.780   1.741  16.518  0.0974 -0.1299 -0.6230
 7475SOL    HW134061   2.720   1.677  16.481 -1.0122  0.8796 -0.5795
 7475SOL    HW234062   2.811   1.791  16.443  1.6454 -1.9716 -1.2200
 7476SOL     OW34063   4.421   4.232   5.154  0.1365 -0.1402  0.3037
 7476SOL    HW134064   4.473   4.180   5.215  0.9606  0.2237 -0.0774
 7476SOL    HW234065   4.486   4.232   5.083  0.0580 -1.7747  0.2346
 7477SOL     OW34066   0.967   0.942  12.008 -0.0240  0.1319 -0.5457
 7477SOL    HW134067   0.992   1.034  12.013 -0.4471  0.1166  1.8082
 7477SOL    HW234068   1.053   0.903  12.027 -0.3273 -1.1797 -1.8803
 7478SOL     OW34069   3.133   2.004  15.352 -0.1971  0.4438 -0.2604
 7478SOL    HW134070   3.129   2.078  15.291  0.9082  1.9244  1.4724
 7478SOL    HW234071   3.070   1.936  15.328  2.3532 -1.5290 -1.3180
 7479SOL     OW34072   3.260   0.251   4.197  0.3888 -0.4090  0.0824
 7479SOL    HW134073   3.257   0.193   4.273  2.6797 -3.1320 -1.8664
 7479SOL    HW234074   3.283   0.337   4.231 -0.4048 -0.7644  1.5279
 7480SOL     OW34075   1.472   3.991   3.281 -0.2514 -0.3725 -0.0611
 7480SOL    HW134076   1.483   4.076   3.324 -0.6454 -0.0264 -0.6401
 7480SOL    HW234077   1.548   3.945   3.317  1.4841  1.3821 -1.4392
 7481SOL     OW34078   3.021   3.732   4.360  0.5554  0.4533 -0.0772
 7481SOL    HW134079   2.928   3.756   4.370  0.3345 -0.4651  0.0229
 7481SOL    HW234080   3.047   3.774   4.442 -2.1295 -0.1412  1.0976
 7482SOL     OW34081   0.973   2.712   8.792  0.1546  0.1767  0.0613
 7482SOL    HW134082   1.019   2.631   8.813 -1.5817 -0.7159  0.3931
 7482SOL    HW234083   0.969   2.757   8.876  1.5420 -2.3996  1.4915
 7483SOL     OW34084   2.014   1.551   5.139 -0.8993 -0.2480 -0.0364
 7483SOL    HW134085   2.060   1.635   5.132  0.5474 -1.1245 -1.2973
 7483SOL    HW234086   1.932   1.569   5.183 -2.2635 -0.5474 -2.4655
 7484SOL     OW34087   3.148   4.536   3.232  0.4103 -1.0553  0.2948
 7484SOL    HW134088   3.152   4.568   3.142  2.7143  0.3314  0.9017
 7484SOL    HW234089   3.114   4.611   3.281 -1.5764 -0.7121 -1.6069
 7485SOL     OW34090   1.870   3.137   8.963  0.1001 -0.1600  0.1283
 7485SOL    HW134091   1.869   3.215   8.907  2.6949  0.1428  0.4769
 7485SOL    HW234092   1.803   3.087   8.918  1.8270 -1.7267 -0.7173
 7486SOL     OW34093   2.804   2.171   3.048 -0.2813  0.0639  0.5867
 7486SOL    HW134094   2.825   2.260   3.075 -2.1171  0.3388  1.1427
 7486SOL    HW234095   2.891   2.132   3.040 -0.1466 -0.0313  2.4947
 7487SOL     OW34096   2.019   4.447   3.818 -0.8712 -0.2154 -0.0692
 7487SOL    HW134097   2.037   4.472   3.908  1.8662 -2.7484  0.0888
 7487SOL    HW234098   1.975   4.523   3.779 -0.7583 -1.1662 -2.0482
 7488SOL     OW34099   2.006   3.518   4.721  0.5151 -0.2410 -0.5245
 7488SOL    HW134100   2.043   3.430   4.728  0.1077 -0.3971 -0.3332
 7488SOL    HW234101   1.915   3.495   4.739  0.0433 -0.6877 -3.4197
 7489SOL     OW34102   3.529   4.208  15.216 -0.3070 -0.0037 -0.2911
 7489SOL    HW134103   3.604   4.202  15.275 -0.4693  0.1475 -0.0687
 7489SOL    HW234104   3.515   4.303  15.215 -0.7387 -0.0842 -1.3516
 7490SOL     OW34105   0.047   1.804   3.931  0.1208 -0.2827  0.1624
 7490SOL    HW134106   0.041   1.747   4.008 -1.9147 -0.0409  0.1934
 7490SOL    HW234107   4.731   1.878   3.958 -0.8133 -0.6110 -0.8187
 7491SOL     OW34108   4.218   1.866   0.048  0.2360 -0.1906  0.3270
 7491SOL    HW134109   4.183   1.843   0.133  1.4140  2.1716  1.4673
 7491SOL    HW234110   4.272   1.943   0.066  1.1506 -0.9583  0.8449
 7492SOL     OW34111   3.687   0.027   3.851 -0.2147 -0.2172  0.2922
 7492SOL    HW134112   3.655   4.723   3.931 -1.8676  1.6690  0.6357
 7492SOL    HW234113   3.613   0.082   3.824 -0.5694 -0.4732  0.7254
 7493SOL     OW34114   0.516   0.985   3.630 -0.3747  0.7527  0.0618
 7493SOL    HW134115   0.521   0.931   3.551 -0.4785  0.9323 -0.0684
 7493SOL    HW234116   0.424   0.969   3.648 -0.2166  2.6696  2.6034
 7494SOL     OW34117   2.105   0.450  12.238  0.5156  0.0003 -0.1259
 7494SOL    HW134118   2.121   0.387  12.308 -0.3602 -0.2411 -0.1376
 7494SOL    HW234119   2.193   0.467  12.206 -0.1848 -0.0369 -2.0792
 7495SOL     OW34120   0.046   3.609   1.970 -0.1530  0.2166  0.1118
 7495SOL    HW134121   0.135   3.596   1.939 -0.4582  0.2950 -0.7799
 7495SOL    HW234122   4.736   3.647   1.897  1.2513  3.5074  0.8926
 7496SOL     OW34123   2.793   4.138   3.238 -0.0381 -0.5093 -0.9384
 7496SOL    HW134124   2.771   4.226   3.266 -0.0657 -0.3387 -1.4958
 7496SOL    HW234125   2.790   4.086   3.318  2.6399 -1.0213 -1.1739
 7497SOL     OW34126   2.593   4.071  13.347  0.2159  0.1111  0.0725
 7497SOL    HW134127   2.550   4.058  13.263 -1.5064  2.0947  0.6306
 7497SOL    HW234128   2.563   4.161  13.359  3.5264  0.9782  1.9433
 7498SOL     OW34129   1.149   1.878   1.597 -0.0391  0.1504  0.2325
 7498SOL    HW134130   1.147   1.811   1.665 -0.2149 -1.3974 -1.2779
 7498SOL    HW234131   1.068   1.922   1.622 -0.4384 -0.4637  0.0372
 7499SOL     OW34132   2.218   2.980   7.986  0.0500  0.7249 -1.0463
 7499SOL    HW134133   2.270   3.048   7.943 -0.8128  1.7185 -0.5298
 7499SOL    HW234134   2.173   3.033   8.052 -1.1270 -3.7160  1.7291
 7500SOL     OW34135   2.502   1.934   3.605 -0.5629  0.0613 -0.2062
 7500SOL    HW134136   2.440   1.980   3.661  1.1808 -1.6315  3.1522
 7500SOL    HW234137   2.558   2.003   3.570  0.8379 -0.3205  1.2337
 7501SOL     OW34138   0.556   0.910   3.129 -0.3934  0.0917  0.6582
 7501SOL    HW134139   0.628   0.890   3.070  0.2277  0.2906  1.3505
 7501SOL    HW234140   0.570   1.005   3.129  0.0757  0.0195  1.1527
 7502SOL     OW34141   0.862   3.619   6.335 -0.3471 -0.1601  0.4549
 7502SOL    HW134142   0.817   3.695   6.297 -2.2149 -0.7552  1.4930
 7502SOL    HW234143   0.895   3.579   6.255 -2.2864 -1.0329  0.0750
 7503SOL     OW34144   2.731   2.895   3.477  0.5278 -0.3119  0.0053
 7503SOL    HW134145   2.739   2.940   3.560 -0.6634 -0.3762  0.1564
 7503SOL    HW234146   2.809   2.841   3.465  0.1742 -0.6221 -0.9684
 7504SOL     OW34147   4.613   1.445   5.522 -0.1510  0.3388 -0.0256
 7504SOL    HW134148   4.668   1.507   5.473 -0.9939  0.1964 -1.1545
 7504SOL    HW234149   4.625   1.472   5.613 -1.1819  3.0146 -0.6720
 7505SOL     OW34150   4.552   4.377   0.431  0.1410  0.0623  0.0027
 7505SOL    HW134151   4.582   4.419   0.512 -1.2949 -1.0392  1.1188
 7505SOL    HW234152   4.479   4.438   0.417  0.0282 -0.1180 -0.1765
 7506SOL     OW34153   0.945   3.294   3.740  0.1251  0.0529 -0.6933
 7506SOL    HW134154   0.894   3.329   3.667 -0.0494  0.6901 -0.2665
 7506SOL    HW234155   1.025   3.341   3.718  0.8443 -0.8019  0.1012
 7507SOL     OW34156   4.108   4.595   1.287  0.3133  0.2843  0.4709
 7507SOL    HW134157   4.026   4.597   1.335 -0.8220 -2.3219 -1.3739
 7507SOL    HW234158   4.136   4.686   1.297 -0.1010  0.3249  1.2868
 7508SOL     OW34159   0.715   2.590   1.318 -0.1567 -0.2283 -0.5274
 7508SOL    HW134160   0.656   2.518   1.299  1.4287 -1.5926 -0.2598
 7508SOL    HW234161   0.785   2.565   1.258  0.8529  0.3504  0.3893
 7509SOL     OW34162   4.195   3.956   3.740  0.0727  0.0050 -0.2804
 7509SOL    HW134163   4.197   4.019   3.668 -0.9929 -1.2029 -1.3701
 7509SOL    HW234164   4.114   3.977   3.787 -0.4153  0.8063 -1.4665
 7510SOL     OW34165   2.269   1.119  16.105  0.2130  0.0062  0.0515
 7510SOL    HW134166   2.334   1.051  16.086 -0.2735 -0.2256 -0.8072
 7510SOL    HW234167   2.249   1.095  16.195  1.8213  2.3535  1.0314
 7511SOL     OW34168   3.779   1.166   2.269  0.9039  0.2617 -0.0683
 7511SOL    HW134169   3.764   1.218   2.190  0.1616  0.7224  0.3721
 7511SOL    HW234170   3.812   1.235   2.326 -0.8461  0.1609  1.0663
 7512SOL     OW34171   3.056   3.926   4.161  0.0654  0.1037  0.6684
 7512SOL    HW134172   2.979   3.977   4.187 -0.2154  0.2176 -0.3869
 7512SOL    HW234173   3.048   3.858   4.228  1.0585 -1.6520 -1.0065
 7513SOL     OW34174   4.025   3.621   6.678  0.1906 -0.0550 -0.0196
 7513SOL    HW134175   4.021   3.535   6.636 -1.7406 -0.6525  1.4265
 7513SOL    HW234176   4.068   3.676   6.611  0.8613  0.2703  0.6762
 7514SOL     OW34177   3.824   0.937   0.169  0.3836 -0.0221 -0.2995
 7514SOL    HW134178   3.848   1.015   0.118  1.5427 -0.9452 -1.1527
 7514SOL    HW234179   3.889   0.948   0.239  1.0143 -0.6336 -0.7870
 7515SOL     OW34180   1.876   2.427   1.946  0.2414 -0.1726 -0.6887
 7515SOL    HW134181   1.804   2.365   1.952 -2.4502  3.1809  1.9756
 7515SOL    HW234182   1.822   2.506   1.958 -1.6058 -1.1517 -2.6450
 7516SOL     OW34183   4.688   2.494  10.211  0.0274  0.6673  0.0745
 7516SOL    HW134184   4.728   2.528  10.291  0.8783 -0.4180  0.1150
 7516SOL    HW234185   4.600   2.520  10.237 -0.1202  0.6154 -0.3676
 7517SOL     OW34186   1.178   0.102   1.578  0.3154 -0.2641  0.1016
 7517SOL    HW134187   1.120   0.175   1.599 -0.0790 -1.2428  2.4539
 7517SOL    HW234188   1.251   0.114   1.640  0.2451  1.7556 -0.2114
 7518SOL     OW34189   0.025   0.536  13.111  0.2447 -0.0204  0.4050
 7518SOL    HW134190   0.100   0.479  13.095  1.8780  2.1188  0.3968
 7518SOL    HW234191   0.038   0.572  13.198  0.5391 -0.1436  0.4135
 7519SOL     OW34192   2.958   0.794  10.489  0.2111  0.5851 -0.5576
 7519SOL    HW134193   2.996   0.815  10.403  1.9027  0.4211  0.1544
 7519SOL    HW234194   2.881   0.751  10.452 -0.5418 -0.3044  2.0972
 7520SOL     OW34195   2.393   3.970   3.696 -0.1109 -0.4127  0.3408
 7520SOL    HW134196   2.328   3.924   3.750  0.2632  0.9422  1.9151
 7520SOL    HW234197   2.411   3.909   3.624  2.3140  0.1858  0.4524
 7521SOL     OW34198   3.969   3.663   7.112  0.1880  0.0680 -0.5946
 7521SOL    HW134199   3.915   3.620   7.046  0.9317 -1.3375 -0.2786
 7521SOL    HW234200   3.954   3.617   7.194  2.0995 -1.8627 -1.3392
 7522SOL     OW34201   1.876   2.946  15.397  0.3080 -0.4446  0.2210
 7522SOL    HW134202   1.865   2.864  15.349 -0.4578 -1.5203  2.2082
 7522SOL    HW234203   1.970   2.962  15.405  0.5810 -2.2618  0.6768
 7523SOL     OW34204   3.397   2.221   4.973 -0.3188 -0.9655  0.1560
 7523SOL    HW134205   3.381   2.270   4.893  1.0319 -0.6384  0.0948
 7523SOL    HW234206   3.427   2.290   5.032 -0.0954 -0.2199 -0.8452
 7524SOL     OW34207   4.363   0.749   5.915 -0.4830 -0.7341  0.1525
 7524SOL    HW134208   4.275   0.740   5.952 -0.0491  0.4831  1.4650
 7524SOL    HW234209   4.405   0.799   5.985 -2.0946 -0.1730  0.7091
 7525SOL     OW34210   4.503   3.672   3.039  0.3756 -0.3469  0.1089
 7525SOL    HW134211   4.464   3.643   3.121  0.0919  0.9252  0.4131
 7525SOL    HW234212   4.597   3.651   3.041  0.3121 -0.7109 -0.4501
 7526SOL     OW34213   4.566   2.979  17.370 -0.2133 -0.1572  0.0378
 7526SOL    HW134214   4.617   2.967  17.450 -0.8899  0.6313  0.5886
 7526SOL    HW234215   4.601   2.919  17.304  0.0178 -0.9952  0.9226
 7527SOL     OW34216   0.546   3.455   5.404 -0.6201 -0.0198  0.2826
 7527SOL    HW134217   0.606   3.400   5.355 -0.8635  0.2751 -0.3479
 7527SOL    HW234218   0.464   3.407   5.390 -1.7238  1.8298  0.3585
 7528SOL     OW34219   2.907   1.715   1.140  0.0921  0.2520 -0.2998
 7528SOL    HW134220   3.001   1.711   1.121  0.5896  0.1621  2.1748
 7528SOL    HW234221   2.876   1.640   1.090  2.6895 -0.4495 -0.8366
 7529SOL     OW34222   2.236   4.175  10.565  0.0026 -0.4822 -0.2951
 7529SOL    HW134223   2.206   4.086  10.547  0.4816 -0.1929 -2.4662
 7529SOL    HW234224   2.254   4.148  10.655  0.0342  1.5005  0.3005
 7530SOL     OW34225   3.307   2.104   2.651  0.2666  0.0505  0.1434
 7530SOL    HW134226   3.236   2.115   2.587 -0.0819 -4.1755 -0.2121
 7530SOL    HW234227   3.377   2.155   2.610  1.4905 -0.8987  1.0749
 7531SOL     OW34228   3.124   4.705  15.573  0.3260  0.2278  0.0560
 7531SOL    HW134229   3.151   4.676  15.486 -0.0855  0.4758 -0.1497
 7531SOL    HW234230   3.029   4.699  15.575  0.2158  1.3485 -1.5104
 7532SOL     OW34231   0.768   2.954   3.665 -1.1640  0.3087 -0.4448
 7532SOL    HW134232   0.845   2.897   3.672 -2.6915 -1.4552  2.0422
 7532SOL    HW234233   0.721   2.955   3.748 -0.0055 -0.4610  0.2125
 7533SOL     OW34234   4.047   4.125  12.082  0.0198  0.1193  0.0607
 7533SOL    HW134235   4.045   4.218  12.059 -0.0868 -0.1875 -1.1523
 7533SOL    HW234236   3.980   4.127  12.150  0.6865 -1.2297  0.7716
 7534SOL     OW34237   2.776   3.888   5.509  0.4908  0.2313  0.4998
 7534SOL    HW134238   2.698   3.836   5.524  0.1076 -0.0289 -2.5253
 7534SOL    HW234239   2.836   3.814   5.503  0.5465  0.1477  2.2253
 7535SOL     OW34240   1.797   3.844   6.139 -0.4069 -0.4795 -0.0840
 7535SOL    HW134241   1.777   3.890   6.220 -1.0359 -1.2545  0.2020
 7535SOL    HW234242   1.891   3.855   6.129 -0.3692  0.5035  1.3605
 7536SOL     OW34243   0.433   2.731   2.596  0.1133  0.4681  0.5283
 7536SOL    HW134244   0.370   2.698   2.532 -0.0957 -0.8702  1.4167
 7536SOL    HW234245   0.396   2.819   2.599  0.1776  0.5155 -0.0433
 7537SOL     OW34246   2.343   3.549   1.969 -0.4306 -0.1400 -0.5845
 7537SOL    HW134247   2.407   3.550   1.898  0.9154  1.5046  0.6720
 7537SOL    HW234248   2.307   3.460   1.961 -0.3901 -0.4098  2.2386
 7538SOL     OW34249   3.755   4.295   8.516 -0.6416 -0.0194  0.4128
 7538SOL    HW134250   3.836   4.252   8.490 -0.8778 -1.5546  2.2639
 7538SOL    HW234251   3.748   4.364   8.450 -1.0011  0.3111  0.7964
 7539SOL     OW34252   3.091   1.710   6.910  0.4476 -0.1608  0.9388
 7539SOL    HW134253   3.123   1.796   6.884 -0.5721 -0.4151 -1.1341
 7539SOL    HW234254   3.167   1.667   6.949 -0.7916 -2.5165  0.7437
 7540SOL     OW34255   0.660   1.348   2.552 -0.2337  0.6057 -0.3960
 7540SOL    HW134256   0.607   1.307   2.483  0.1661 -1.9432  0.8247
 7540SOL    HW234257   0.676   1.280   2.617 -0.1431  1.4232  0.4308
 7541SOL     OW34258   2.186   3.258   0.630 -0.1239  0.5163  0.3093
 7541SOL    HW134259   2.185   3.245   0.535 -1.4735  1.3886  0.2101
 7541SOL    HW234260   2.093   3.263   0.649 -0.2472 -1.4455  0.2433
 7542SOL     OW34261   0.495   2.124   2.396 -0.1025 -0.1278 -0.2564
 7542SOL    HW134262   0.432   2.062   2.358 -2.1291  1.4444  0.5185
 7542SOL    HW234263   0.493   2.197   2.334  2.2009  1.3911  1.4541
 7543SOL     OW34264   1.761   2.921   6.817  0.0376 -0.1526 -0.2531
 7543SOL    HW134265   1.815   2.886   6.888  0.9715  2.0088  0.0858
 7543SOL    HW234266   1.827   2.939   6.751  0.9239  0.9635  0.9390
 7544SOL     OW34267   0.105   0.921   4.558 -0.1396 -0.2676 -0.0647
 7544SOL    HW134268   0.065   0.979   4.493 -0.1453 -0.9285 -0.6490
 7544SOL    HW234269   0.160   0.989   4.597  1.1398 -0.8066 -0.9455
 7545SOL     OW34270   1.525   2.880   9.976  0.2227 -0.2141  1.0104
 7545SOL    HW134271   1.469   2.869  10.052 -0.6173  0.8786  0.5478
 7545SOL    HW234272   1.523   2.973   9.955 -2.4295 -0.7654 -1.2390
 7546SOL     OW34273   2.383   0.183   5.058 -0.1414 -0.3990 -0.3609
 7546SOL    HW134274   2.399   0.104   5.109 -2.8786  0.8595  2.4002
 7546SOL    HW234275   2.420   0.151   4.976 -1.0622  0.4613 -1.1112
 7547SOL     OW34276   0.607   0.205   4.891 -0.1792 -0.1402 -0.4790
 7547SOL    HW134277   0.570   0.150   4.959  0.5788  1.2238  1.0224
 7547SOL    HW234278   0.614   0.282   4.947  0.9371 -1.6746  1.4918
 7548SOL     OW34279   3.061   3.266   7.390  0.0221  0.3294  0.6037
 7548SOL    HW134280   3.101   3.321   7.457 -0.9236  2.3738 -0.5314
 7548SOL    HW234281   2.968   3.286   7.400  0.5112  2.7584  0.1558
 7549SOL     OW34282   1.951   3.528   5.709 -0.3411  0.2079 -0.1786
 7549SOL    HW134283   1.898   3.607   5.699 -2.0213 -0.5171  2.8369
 7549SOL    HW234284   1.893   3.483   5.771  1.5273 -2.2242 -0.1969
 7550SOL     OW34285   0.278   1.087   0.581 -0.2168 -0.1252 -0.2631
 7550SOL    HW134286   0.224   1.009   0.568  1.8439 -1.5584 -0.1652
 7550SOL    HW234287   0.213   1.156   0.582  1.0392  1.0355  2.3775
 7551SOL     OW34288   1.277   0.619   6.372  0.1378  0.1746 -0.5004
 7551SOL    HW134289   1.230   0.595   6.292  2.6339  0.2480 -2.0014
 7551SOL    HW234290   1.366   0.615   6.338  1.1307  0.1105  2.1142
 7552SOL     OW34291   2.414   3.095   4.590 -0.2614 -0.0453  0.2348
 7552SOL    HW134292   2.356   3.095   4.514  4.8032 -0.5701 -3.6478
 7552SOL    HW234293   2.432   3.188   4.602 -1.1561  0.0250  1.0292
 7553SOL     OW34294   1.873   1.011   1.132  0.1969 -0.4347  0.6104
 7553SOL    HW134295   1.827   0.933   1.163 -1.6934  0.4172 -0.0509
 7553SOL    HW234296   1.952   0.974   1.092 -0.6007 -0.0366 -1.3225
 7554SOL     OW34297   2.759   2.860   9.098  0.1560  0.0364 -0.0832
 7554SOL    HW134298   2.743   2.926   9.030 -0.2956 -0.6946 -0.6804
 7554SOL    HW234299   2.675   2.868   9.142 -0.0116 -1.8005 -0.0868
 7555SOL     OW34300   0.886   3.486   6.890  0.1083  0.1571 -0.2548
 7555SOL    HW134301   0.796   3.496   6.922 -0.0689 -0.4359 -0.5549
 7555SOL    HW234302   0.929   3.442   6.963 -1.8624  0.4893  1.1237
 7556SOL     OW34303   4.514   2.622   7.016  0.3401 -0.1400  0.0060
 7556SOL    HW134304   4.548   2.645   6.930 -2.5137 -1.3624 -1.4135
 7556SOL    HW234305   4.499   2.528   7.005 -0.0385  0.2311 -2.4681
 7557SOL     OW34306   0.071   0.134   8.188 -0.0496 -0.0466  0.9809
 7557SOL    HW134307   0.005   0.101   8.250 -0.2743 -2.5535 -0.5699
 7557SOL    HW234308   0.078   0.221   8.228  1.8957  0.9799 -1.6178
 7558SOL     OW34309   1.637   3.528   2.057 -0.0027  0.1048 -0.0539
 7558SOL    HW134310   1.680   3.502   1.975 -2.5041 -2.2666 -0.6133
 7558SOL    HW234311   1.607   3.614   2.029  1.6706  0.9603  0.7627
 7559SOL     OW34312   0.533   2.188   7.628  0.1874 -0.1433 -0.3829
 7559SOL    HW134313   0.451   2.156   7.667 -0.0150  0.9603  0.0862
 7559SOL    HW234314   0.585   2.111   7.607  1.4099  0.8296 -0.8906
 7560SOL     OW34315   4.022   1.889  11.239 -0.0538  1.0832 -0.1521
 7560SOL    HW134316   4.079   1.924  11.308 -0.2966 -0.1976  0.6942
 7560SOL    HW234317   4.018   1.952  11.167  1.0344  1.1795 -0.1397
 7561SOL     OW34318   2.110   2.204  15.540  0.2237  0.5283 -0.6744
 7561SOL    HW134319   2.078   2.294  15.531 -0.8636  0.1759 -0.3237
 7561SOL    HW234320   2.201   2.232  15.524  0.8331  0.8625  3.3478
 7562SOL     OW34321   3.473   0.471  11.088  0.3254  0.3511 -0.0849
 7562SOL    HW134322   3.557   0.518  11.090 -0.4795  1.7855  0.0272
 7562SOL    HW234323   3.406   0.539  11.075 -0.9468 -1.2114 -1.7355
 7563SOL     OW34324   1.942   0.598   8.241 -0.1178 -0.6810 -0.2518
 7563SOL    HW134325   1.929   0.638   8.155 -0.0241 -0.0738  0.0155
 7563SOL    HW234326   1.886   0.653   8.295  0.6260 -0.4877  0.3343
 7564SOL     OW34327   0.198   3.069  14.888 -0.2287 -0.7435 -0.5306
 7564SOL    HW134328   0.235   2.983  14.909  2.5132 -0.0085 -2.3727
 7564SOL    HW234329   0.147   3.054  14.809  0.0331 -0.8440 -0.6790
 7565SOL     OW34330   4.660   3.999  14.188  0.5156  0.3127  0.1162
 7565SOL    HW134331   4.709   4.032  14.263 -0.3957 -0.4621  1.0431
 7565SOL    HW234332   4.720   4.030  14.120  2.0840 -3.0906 -0.0722
 7566SOL     OW34333   4.626   2.061   0.425 -0.0676  0.6170  0.5151
 7566SOL    HW134334   4.695   2.023   0.372 -1.0583  0.0718 -0.3883
 7566SOL    HW234335   4.660   2.042   0.512 -2.7967 -2.2375  0.9369
 7567SOL     OW34336   1.631   0.270  11.836 -0.0488 -0.1197  0.0145
 7567SOL    HW134337   1.704   0.280  11.896 -0.3472 -0.1500  0.3826
 7567SOL    HW234338   1.620   0.176  11.829 -0.1562 -0.1089  0.0426
 7568SOL     OW34339   2.664   3.134   1.602  0.3184  0.2081 -0.4601
 7568SOL    HW134340   2.611   3.077   1.658  0.1479 -0.3698 -1.2169
 7568SOL    HW234341   2.608   3.136   1.525  2.2922 -0.5722 -1.9264
 7569SOL     OW34342   4.672   0.611   6.944  0.3533 -0.4174  0.2286
 7569SOL    HW134343   4.686   0.595   7.037 -2.0334  1.2767  0.9004
 7569SOL    HW234344   4.675   0.524   6.904  0.9974 -0.0923 -0.4365
 7570SOL     OW34345   0.002   1.859   1.985 -0.3694  0.3328 -0.1348
 7570SOL    HW134346   0.033   1.949   1.993 -0.2336  0.2977 -0.2533
 7570SOL    HW234347   4.657   1.871   1.938 -0.7057  1.1781  0.6791
 7571SOL     OW34348   3.751   3.195   6.586 -0.1316 -0.3029 -0.0546
 7571SOL    HW134349   3.811   3.257   6.629 -0.0187  0.0706 -0.7461
 7571SOL    HW234350   3.696   3.171   6.661 -1.4511 -0.8094 -1.1975
 7572SOL     OW34351   4.138   4.205  10.068 -0.1326  0.0082 -0.0559
 7572SOL    HW134352   4.099   4.274  10.014 -1.1584 -1.2249 -0.9116
 7572SOL    HW234353   4.126   4.236  10.158  1.2084  0.6330 -0.0952
 7573SOL     OW34354   2.351   1.483  11.398 -0.3905 -0.2290  0.0256
 7573SOL    HW134355   2.255   1.482  11.402 -0.4027 -1.3159 -0.6527
 7573SOL    HW234356   2.373   1.474  11.491  1.8592 -0.2076 -0.5151
 7574SOL     OW34357   3.299   1.951  17.039 -0.1287  0.1344 -0.4057
 7574SOL    HW134358   3.221   1.945  16.983 -0.5933 -0.6104  0.3407
 7574SOL    HW234359   3.350   2.005  16.979 -2.3338  0.3525 -2.1205
 7575SOL     OW34360   2.515   0.483  10.752 -0.4679  0.3671 -0.5208
 7575SOL    HW134361   2.436   0.432  10.739 -1.1153  1.4047 -0.6739
 7575SOL    HW234362   2.492   0.568  10.713 -2.4602 -0.4241 -1.0257
 7576SOL     OW34363   2.724   3.690   6.607 -0.3837 -0.1477 -0.0254
 7576SOL    HW134364   2.773   3.722   6.531  0.5219  0.0756  0.6541
 7576SOL    HW234365   2.787   3.674   6.677  0.7791  3.6192 -0.1955
 7577SOL     OW34366   1.789   3.398   6.390  0.4622  0.5221 -0.6166
 7577SOL    HW134367   1.786   3.371   6.482 -1.0103  0.2395 -0.7506
 7577SOL    HW234368   1.845   3.331   6.351 -0.5243 -1.6605  1.6733
 7578SOL     OW34369   0.902   3.422   7.570 -0.1945 -0.2974  0.5153
 7578SOL    HW134370   0.826   3.439   7.625 -0.2168 -0.2978  0.4849
 7578SOL    HW234371   0.975   3.446   7.626 -0.0574  2.1079 -0.7147
 7579SOL     OW34372   3.589   3.847  11.775 -0.1504 -0.4006 -0.4930
 7579SOL    HW134373   3.645   3.770  11.783  2.2723  1.5412  1.3014
 7579SOL    HW234374   3.516   3.816  11.722 -1.1038  3.3413 -1.3681
 7580SOL     OW34375   3.108   0.036   3.351 -0.6367 -0.1949  0.4176
 7580SOL    HW134376   3.164   0.048   3.428 -0.1706  1.0556 -0.1172
 7580SOL    HW234377   3.118   0.115   3.297  2.1907 -0.3805  0.6732
 7581SOL     OW34378   2.773   0.605  10.402 -0.4505  0.4230  0.5627
 7581SOL    HW134379   2.728   0.532  10.361  0.0489  0.3791  0.0827
 7581SOL    HW234380   2.698   0.633  10.455 -3.0520 -0.6355 -2.6041
 7582SOL     OW34381   4.659   4.566   9.026 -0.3263  0.1020  0.0014
 7582SOL    HW134382   4.658   4.662   9.025  0.5543  0.1065 -0.7775
 7582SOL    HW234383   0.013   4.551   9.004 -0.6451  0.6938 -1.7361
 7583SOL     OW34384   3.544   1.464  12.128  0.6904  0.5208 -0.0743
 7583SOL    HW134385   3.616   1.440  12.070 -0.0288  0.7822 -1.0707
 7583SOL    HW234386   3.580   1.424  12.208  0.3321  0.5202  0.0911
 7584SOL     OW34387   0.226   3.897   2.513  0.2951 -0.0770  0.1714
 7584SOL    HW134388   0.192   3.871   2.427  2.4747 -0.4423 -0.5780
 7584SOL    HW234389   0.286   3.824   2.530  0.2502 -0.4094 -1.1215
 7585SOL     OW34390   4.064   1.499   9.441  0.1794 -0.1642 -0.4168
 7585SOL    HW134391   4.037   1.582   9.401 -1.5817 -0.1376  0.8220
 7585SOL    HW234392   4.141   1.479   9.387  1.0399 -0.3079  0.8759
 7586SOL     OW34393   2.226   2.273  14.158 -0.6068 -0.0489 -0.6116
 7586SOL    HW134394   2.227   2.354  14.106  0.5001  0.5304  0.3100
 7586SOL    HW234395   2.241   2.208  14.089  1.7335 -1.9375  1.6740
 7587SOL     OW34396   0.272   0.892   3.032  0.2322  0.0864  0.0571
 7587SOL    HW134397   0.195   0.856   3.075  0.9918  0.2934  1.5614
 7587SOL    HW234398   0.319   0.906   3.114  1.7362  0.3798 -0.8528
 7588SOL     OW34399   4.620   1.498   2.342  0.3296 -0.0968 -0.3734
 7588SOL    HW134400   4.569   1.435   2.394  1.6121 -0.2603  0.7012
 7588SOL    HW234401   4.618   1.456   2.256 -0.1499  2.1304 -1.4480
 7589SOL     OW34402   2.534   0.359  14.956 -0.2611 -0.3214  0.5404
 7589SOL    HW134403   2.451   0.373  14.909 -1.3460  0.1941  2.6268
 7589SOL    HW234404   2.575   0.285  14.911 -2.5454 -0.3828 -1.4664
 7590SOL     OW34405   0.771   0.438   7.734  0.1562 -0.2092  0.0422
 7590SOL    HW134406   0.679   0.442   7.762  0.0482  1.3798 -0.5412
 7590SOL    HW234407   0.771   0.465   7.642  1.1249 -1.3454 -0.2893
 7591SOL     OW34408   1.799   0.525   2.306 -0.4972 -0.3564 -0.1540
 7591SOL    HW134409   1.736   0.594   2.288 -0.8649 -1.1407 -1.8912
 7591SOL    HW234410   1.754   0.451   2.347 -2.1544 -0.6562 -2.5158
 7592SOL     OW34411   1.401   3.855   7.883  0.3390  0.2376  0.2830
 7592SOL    HW134412   1.424   3.919   7.815  2.1315 -1.3182 -0.5478
 7592SOL    HW234413   1.308   3.874   7.899 -0.1772 -0.7525 -1.5158
 7593SOL     OW34414   2.883   4.164   6.138 -0.1502  0.0263  0.0851
 7593SOL    HW134415   2.956   4.119   6.094  0.3856 -0.2183  1.2347
 7593SOL    HW234416   2.924   4.250   6.145  0.2207 -0.0281 -1.2479
 7594SOL     OW34417   3.680   3.207   7.400 -0.2018  0.0944  0.0989
 7594SOL    HW134418   3.744   3.137   7.412 -0.6562 -0.5216 -0.9652
 7594SOL    HW234419   3.600   3.159   7.423 -1.2336  1.8283  0.1170
 7595SOL     OW34420   2.873   3.692   7.136 -0.3009  0.3755  0.2209
 7595SOL    HW134421   2.811   3.659   7.070  0.3099  0.6630 -0.4903
 7595SOL    HW234422   2.945   3.634   7.111 -1.1618 -0.6120 -0.0011
 7596SOL     OW34423   4.013   0.685  11.185 -0.5029 -0.0859  0.0098
 7596SOL    HW134424   4.070   0.749  11.143 -0.5975  0.2624  0.4143
 7596SOL    HW234425   3.965   0.735  11.251  1.9387  0.8659  1.0786
 7597SOL     OW34426   1.798   2.410   4.526  0.0192 -0.0571  0.3214
 7597SOL    HW134427   1.791   2.485   4.467  1.6621 -0.0584  0.1379
 7597SOL    HW234428   1.737   2.343   4.495 -2.0971  1.2818  1.5681
 7598SOL     OW34429   3.094   3.784   6.394 -0.3283 -0.5233  0.3959
 7598SOL    HW134430   3.112   3.819   6.481  6.0874  0.7389 -1.4685
 7598SOL    HW234431   3.028   3.846   6.364 -0.1964 -0.3412  0.4868
 7599SOL     OW34432   0.955   2.984   4.387 -0.6231  0.1187  0.3158
 7599SOL    HW134433   1.009   3.031   4.323 -0.8403  0.4318  0.3664
 7599SOL    HW234434   0.878   2.956   4.337  0.6336 -2.6309 -0.0928
 7600SOL     OW34435   0.379   1.346   0.407 -0.1541  0.0294 -0.0718
 7600SOL    HW134436   0.349   1.424   0.361  0.8264  0.9613  0.8909
 7600SOL    HW234437   0.298   1.325   0.453  0.5899  1.4851  1.8475
 7601SOL     OW34438   3.777   2.266   5.893 -0.3586 -0.0939  0.3765
 7601SOL    HW134439   3.831   2.187   5.901  1.2618  0.9549 -0.2383
 7601SOL    HW234440   3.735   2.239   5.812  1.0581  3.0644 -1.4209
 7602SOL     OW34441   2.574   3.089  13.562  0.0046 -0.0494  0.1116
 7602SOL    HW134442   2.659   3.131  13.581  0.0714  0.2111 -0.7445
 7602SOL    HW234443   2.519   3.166  13.549 -0.7598 -0.5551  0.3804
 7603SOL     OW34444   1.777   0.839   8.835  0.1192  0.5294 -0.5285
 7603SOL    HW134445   1.692   0.801   8.809 -0.2433  0.7309  0.3540
 7603SOL    HW234446   1.764   0.839   8.930 -1.3069  0.2464 -0.7097
 7604SOL     OW34447   0.680   1.971   9.270  0.0983  0.1479 -0.7848
 7604SOL    HW134448   0.648   1.914   9.340 -0.3865 -0.3162 -1.3843
 7604SOL    HW234449   0.731   2.037   9.318 -0.5870  1.1949 -1.4932
 7605SOL     OW34450   2.903   3.681  17.449 -0.2739  0.2939 -0.7852
 7605SOL    HW134451   2.834   3.622  17.418  0.1223 -2.3105  3.3421
 7605SOL    HW234452   2.976   3.622  17.466 -0.6396 -0.3848 -1.5503
 7606SOL     OW34453   0.738   1.380   7.939 -0.1035 -0.1618  0.4003
 7606SOL    HW134454   0.684   1.456   7.960 -0.4290 -0.4965  0.7843
 7606SOL    HW234455   0.737   1.382   7.843 -2.4713  1.9668  0.4793
 7607SOL     OW34456   4.736   1.482  12.227  0.7310  0.0424  0.0748
 7607SOL    HW134457   0.049   1.562  12.232  0.2230  0.3128  1.1019
 7607SOL    HW234458   0.053   1.442  12.161  3.9999 -0.2030  2.9523
 7608SOL     OW34459   3.431   0.665   8.338 -0.2074  0.5405 -0.2410
 7608SOL    HW134460   3.359   0.683   8.277 -1.0291 -0.6905  0.3559
 7608SOL    HW234461   3.484   0.742   8.321 -1.8810  1.5393 -0.9176
 7609SOL     OW34462   3.820   4.585  11.372 -0.6691 -0.0221  0.4180
 7609SOL    HW134463   3.890   4.520  11.372 -0.3428  0.3288 -0.8445
 7609SOL    HW234464   3.746   4.551  11.421 -1.7738 -0.6033 -1.6340
 7610SOL     OW34465   0.105   2.602   8.508  0.3650  0.5101  0.0093
 7610SOL    HW134466   0.061   2.609   8.593 -2.4456 -0.7036 -1.3484
 7610SOL    HW234467   0.134   2.688   8.479  0.3996  0.1416 -1.0624
 7611SOL     OW34468   1.460   0.277   5.076 -0.0712 -0.6381 -0.4536
 7611SOL    HW134469   1.534   0.332   5.102  1.1954 -1.0529 -3.2547
 7611SOL    HW234470   1.405   0.343   5.033  0.2559  1.4500  2.2911
 7612SOL     OW34471   4.099   3.344   4.545 -0.2287 -0.2122 -0.0050
 7612SOL    HW134472   4.051   3.273   4.501 -0.9229 -1.1533  2.2871
 7612SOL    HW234473   4.187   3.309   4.557 -1.2662 -2.2439  1.6738
 7613SOL     OW34474   3.325   2.320   3.750  0.5356 -0.0075  0.0894
 7613SOL    HW134475   3.289   2.302   3.837 -0.0175  0.1988 -0.0983
 7613SOL    HW234476   3.358   2.235   3.720  1.6912 -0.2761  2.1135
 7614SOL     OW34477   3.505   0.855   3.106  0.2841  0.3807  0.4455
 7614SOL    HW134478   3.482   0.941   3.142 -0.5140 -0.5063  2.0804
 7614SOL    HW234479   3.440   0.847   3.036 -0.3620  0.3927  1.0421
 7615SOL     OW34480   1.235   0.431  17.504  0.2310 -0.1378  0.5328
 7615SOL    HW134481   1.257   0.401  17.416  0.5731  1.6785  0.0065
 7615SOL    HW234482   1.144   0.453  17.485  0.9302  2.9002  0.7339
 7616SOL     OW34483   1.798   3.446   7.353 -0.0745 -0.4482  0.6342
 7616SOL    HW134484   1.798   3.376   7.419  1.2805 -2.4999 -1.5263
 7616SOL    HW234485   1.873   3.495   7.386  0.3037 -0.9898  0.5841
 7617SOL     OW34486   2.627   4.361   3.230  0.3684 -0.0133 -0.3017
 7617SOL    HW134487   2.673   4.432   3.186  1.5363 -0.7935 -0.3394
 7617SOL    HW234488   2.604   4.409   3.310 -0.4025  2.1761 -1.8462
 7618SOL     OW34489   4.478   4.066   2.448 -0.3995 -0.5751 -0.0779
 7618SOL    HW134490   4.461   3.992   2.507  0.5431 -0.9532 -0.2823
 7618SOL    HW234491   4.570   4.076   2.470 -0.7424 -1.1962  1.6134
 7619SOL     OW34492   0.397   2.488   3.728 -0.6162  0.2974 -0.5555
 7619SOL    HW134493   0.327   2.479   3.663  0.7581  0.8843 -2.1438
 7619SOL    HW234494   0.473   2.484   3.670  1.2794 -0.3480  2.0257
 7620SOL     OW34495   2.766   1.463  12.753 -0.1352  0.4559 -1.1356
 7620SOL    HW134496   2.688   1.483  12.805 -1.3052  0.2751 -2.8151
 7620SOL    HW234497   2.738   1.512  12.676 -2.9826  1.4207  0.5022
 7621SOL     OW34498   4.483   3.140  14.727  0.7761 -0.1598 -0.0370
 7621SOL    HW134499   4.465   3.210  14.664 -0.3440  2.8438  3.6414
 7621SOL    HW234500   4.458   3.169  14.814  1.1263  1.0391 -0.3443
 7622SOL     OW34501   1.902   2.723  13.770 -0.7743 -0.1274  0.9052
 7622SOL    HW134502   1.877   2.643  13.724  0.4089 -1.1216  1.9695
 7622SOL    HW234503   1.920   2.676  13.852  0.5139  0.6334  1.0639
 7623SOL     OW34504   1.915   4.106  17.591  0.5066 -0.1609  0.5033
 7623SOL    HW134505   1.844   4.122  17.653  0.1621  0.3254 -0.0187
 7623SOL    HW234506   1.906   4.011  17.594 -1.0620  0.0199  1.7813
 7624SOL     OW34507   1.585   0.495   8.217 -0.0031 -0.0608 -0.2999
 7624SOL    HW134508   1.630   0.513   8.300 -0.4479  1.4153 -0.3941
 7624SOL    HW234509   1.540   0.578   8.207 -2.2897 -1.7414 -3.8928
 7625SOL     OW34510   1.559   2.684  11.255 -0.3238  0.4038 -0.0480
 7625SOL    HW134511   1.547   2.761  11.199  1.1413 -0.3717 -1.4273
 7625SOL    HW234512   1.570   2.729  11.339 -1.4736 -0.3942  0.5258
 7626SOL     OW34513   4.067   2.830   7.623  0.0810 -0.2694  0.0537
 7626SOL    HW134514   4.077   2.736   7.612  1.9353 -0.0050 -0.4947
 7626SOL    HW234515   4.155   2.854   7.652 -0.7357  1.4555  1.1184
 7627SOL     OW34516   3.635   0.473   5.482  0.2240  0.0881  0.0989
 7627SOL    HW134517   3.708   0.492   5.541 -1.8788  2.3656  1.9523
 7627SOL    HW234518   3.649   0.378   5.487 -0.5145 -0.0615 -0.6663
 7628SOL     OW34519   0.483   2.570   8.387 -0.1558  0.3361  0.5859
 7628SOL    HW134520   0.551   2.505   8.370 -0.0791  0.6038 -0.0992
 7628SOL    HW234521   0.527   2.613   8.460 -0.1668  1.2210  0.0674
 7629SOL     OW34522   1.755   3.365   3.834 -0.0361 -0.1054 -0.3624
 7629SOL    HW134523   1.821   3.413   3.784  1.1364 -0.6786  0.6511
 7629SOL    HW234524   1.723   3.438   3.887 -0.0469 -2.2595  2.5520
 7630SOL     OW34525   2.422   4.578  10.397 -0.3046  0.3653 -0.2909
 7630SOL    HW134526   2.370   4.596  10.318 -0.5531 -2.5712 -0.8121
 7630SOL    HW234527   2.357   4.552  10.463  0.9663 -0.4467  0.6381
 7631SOL     OW34528   3.247   1.097   4.774  0.2807  0.3970 -0.2225
 7631SOL    HW134529   3.305   1.131   4.706  1.2023  0.1332  0.4253
 7631SOL    HW234530   3.295   1.022   4.809  1.6418  1.4555  0.1707
 7632SOL     OW34531   4.354   1.441   1.261 -0.4377 -0.1743  0.8026
 7632SOL    HW134532   4.323   1.388   1.187 -1.9329  0.2341  1.1344
 7632SOL    HW234533   4.290   1.512   1.261 -2.3769 -1.9258  1.8305
 7633SOL     OW34534   2.575   3.054   2.208 -0.2580 -0.3359 -0.4033
 7633SOL    HW134535   2.506   2.991   2.187 -0.5011 -1.2343  3.0622
 7633SOL    HW234536   2.535   3.136   2.180  1.5021  0.0279 -1.9079
 7634SOL     OW34537   3.677   2.621  17.291  0.0457  0.6023 -0.3069
 7634SOL    HW134538   3.630   2.660  17.365 -1.1683 -2.3245  0.5092
 7634SOL    HW234539   3.600   2.570  17.267 -0.9252  1.7926  0.2720
 7635SOL     OW34540   1.957   2.217   4.403  0.0455 -0.3303 -0.3204
 7635SOL    HW134541   1.912   2.201   4.320 -3.3088 -0.7261  1.6119
 7635SOL    HW234542   1.912   2.296   4.431 -3.2434 -1.4486 -2.4988
 7636SOL     OW34543   2.132   4.582   0.668  0.2509 -0.5527  0.1814
 7636SOL    HW134544   2.181   4.541   0.740  1.1380 -1.0735 -0.7168
 7636SOL    HW234545   2.185   4.546   0.597  1.4103  1.4641  0.0299
 7637SOL     OW34546   0.114   1.991   3.582 -0.0595  0.0053 -0.2847
 7637SOL    HW134547   0.120   2.024   3.492  1.2151  1.3392  0.3168
 7637SOL    HW234548   0.178   2.046   3.626  2.4932 -1.7794 -1.7993
 7638SOL     OW34549   1.765   0.848  10.464 -0.0074 -0.0959  0.1430
 7638SOL    HW134550   1.801   0.849  10.553  0.1865  0.5322  0.0618
 7638SOL    HW234551   1.818   0.919  10.428 -1.3909  1.1860  0.6170
 7639SOL     OW34552   3.322   3.355   0.910 -0.7416  0.1307  1.3845
 7639SOL    HW134553   3.359   3.443   0.900 -0.4143 -0.0256  1.2139
 7639SOL    HW234554   3.370   3.334   0.990  0.5212  0.1045  0.6209
 7640SOL     OW34555   4.325   4.053   0.330  0.1338  0.3127 -0.0677
 7640SOL    HW134556   4.324   4.120   0.262  0.8832 -1.3477 -1.6943
 7640SOL    HW234557   4.412   4.056   0.371 -0.4198  0.1012  1.1297
 7641SOL     OW34558   1.435   2.030  14.030 -0.4455  0.5416 -0.4096
 7641SOL    HW134559   1.465   2.078  14.107  0.1954 -2.2280  1.0539
 7641SOL    HW234560   1.508   1.975  14.003 -0.3908  0.8234 -0.8474
 7642SOL     OW34561   0.750   0.842  15.920 -0.0127 -0.3904  0.2351
 7642SOL    HW134562   0.754   0.821  16.014 -1.8379 -1.9489 -0.0232
 7642SOL    HW234563   0.766   0.936  15.918  2.0090 -0.7285  0.8015
 7643SOL     OW34564   0.141   1.452   4.051  0.4439 -0.0684  0.3060
 7643SOL    HW134565   0.084   1.443   4.127 -0.3926  1.9117 -0.0844
 7643SOL    HW234566   0.088   1.442   3.972 -0.0070  2.4440  0.3068
 7644SOL     OW34567   3.854   0.173   3.352 -0.3117  0.2498  0.3912
 7644SOL    HW134568   3.865   0.082   3.326 -1.0863  0.7150 -1.5363
 7644SOL    HW234569   3.837   0.149   3.444 -0.0391  1.4753  0.7565
 7645SOL     OW34570   4.583   1.996  13.016  0.4681 -0.0011  0.1083
 7645SOL    HW134571   4.535   1.968  12.938 -1.1091  1.2638  0.6346
 7645SOL    HW234572   4.526   1.986  13.092  0.7481 -0.7417  0.2242
 7646SOL     OW34573   2.521   2.597   6.294 -0.2848 -0.1834  0.2950
 7646SOL    HW134574   2.562   2.678   6.322  0.5134 -1.0567  1.6703
 7646SOL    HW234575   2.428   2.618   6.307 -0.6903 -2.2198  0.7948
 7647SOL     OW34576   3.667   2.917   8.225  0.2958 -0.3205  0.0432
 7647SOL    HW134577   3.666   2.985   8.293 -1.6715 -2.7260  2.4672
 7647SOL    HW234578   3.607   2.851   8.261 -1.0964  0.3278 -1.1028
 7648SOL     OW34579   0.037   3.169   7.856  0.3055 -0.1854  0.3472
 7648SOL    HW134580   0.094   3.120   7.797  1.3535  1.4067  0.0297
 7648SOL    HW234581   0.067   3.260   7.858 -1.5072  0.4106  0.1689
 7649SOL     OW34582   0.391   2.874   7.828 -0.5004 -0.3648  0.1108
 7649SOL    HW134583   0.428   2.913   7.908 -1.2097 -2.0837  1.2697
 7649SOL    HW234584   0.455   2.807   7.807  1.3526  1.1935  0.8107
 7650SOL     OW34585   1.348   3.547   4.825 -0.3252 -0.7493 -0.1289
 7650SOL    HW134586   1.344   3.549   4.921 -0.5484  0.5675 -0.1603
 7650SOL    HW234587   1.321   3.637   4.804  0.9507 -0.3205  0.0230
 7651SOL     OW34588   0.768   4.332   5.747  0.7396  0.1105  0.4241
 7651SOL    HW134589   0.791   4.243   5.773  2.5873 -0.4130 -2.9099
 7651SOL    HW234590   0.821   4.392   5.799  1.3097 -2.3117  2.5999
 7652SOL     OW34591   2.762   3.892   8.040 -0.0409 -0.0588  0.2339
 7652SOL    HW134592   2.751   3.907   8.134 -2.3289  0.8359 -0.1841
 7652SOL    HW234593   2.691   3.830   8.025 -1.3406  1.2697  0.8768
 7653SOL     OW34594   2.760   1.638   8.099  0.0639 -1.0174  0.5485
 7653SOL    HW134595   2.719   1.552   8.103 -0.7758 -0.6054  0.7910
 7653SOL    HW234596   2.840   1.614   8.052  1.4235  1.3278  1.6906
 7654SOL     OW34597   3.556   4.129   6.499 -0.1319 -0.5429  0.4947
 7654SOL    HW134598   3.603   4.141   6.416 -1.8084 -1.6539 -0.6293
 7654SOL    HW234599   3.465   4.151   6.482 -0.0573 -2.4432 -2.4637
 7655SOL     OW34600   4.690   0.427   7.533  0.6258 -0.4516 -0.0458
 7655SOL    HW134601   0.046   0.440   7.538  0.5368  0.4609 -0.7721
 7655SOL    HW234602   4.677   0.375   7.454  1.4383 -0.8845  0.1121
 7656SOL     OW34603   2.041   0.806   7.294  0.4906  0.1560  0.2613
 7656SOL    HW134604   2.101   0.733   7.273  0.5321  0.2680 -0.0089
 7656SOL    HW234605   2.095   0.854   7.357  1.2506  0.7229 -0.8053
 7657SOL     OW34606   1.178   0.801   6.564 -0.0272 -0.0355 -0.3653
 7657SOL    HW134607   1.092   0.758   6.572 -0.6680  1.2076 -0.6183
 7657SOL    HW234608   1.225   0.744   6.503 -0.1322  0.3820 -0.8300
 7658SOL     OW34609   4.373   3.199   6.950 -0.0591 -0.2714  0.5965
 7658SOL    HW134610   4.358   3.244   6.867 -0.9968 -0.2897  0.7534
 7658SOL    HW234611   4.468   3.187   6.954  0.1940  1.5410  0.1996
 7659SOL     OW34612   2.728   0.376   5.793  0.5369  0.2657 -0.5216
 7659SOL    HW134613   2.753   0.365   5.885 -0.0312  0.3538 -0.3597
 7659SOL    HW234614   2.753   0.289   5.761  0.9789  0.8467 -1.7210
 7660SOL     OW34615   2.188   0.811   4.007  0.7797 -0.1588  0.0305
 7660SOL    HW134616   2.230   0.894   4.026 -0.3464 -0.0295  2.0258
 7660SOL    HW234617   2.201   0.800   3.913 -0.6133  3.3345 -0.5693
 7661SOL     OW34618   3.088   4.238   6.522  0.3754  0.5251 -0.1371
 7661SOL    HW134619   3.089   4.325   6.482 -1.7851  1.0776  0.9700
 7661SOL    HW234620   3.134   4.255   6.604  0.2547 -1.7818  0.4036
 7662SOL     OW34621   0.075   4.485   0.757 -0.0261  0.3531 -0.1730
 7662SOL    HW134622   0.088   4.421   0.687 -1.9740  0.0614 -0.2745
 7662SOL    HW234623   0.027   4.556   0.715  1.0525  0.9950 -0.3246
 7663SOL     OW34624   0.451   2.212   1.543  0.6870  0.1468 -0.3452
 7663SOL    HW134625   0.475   2.180   1.456  4.2431  1.7646  0.0231
 7663SOL    HW234626   0.536   2.234   1.581  0.7031  0.5224 -0.5965
 7664SOL     OW34627   0.589   1.825   8.207  0.5649  0.1649 -0.2752
 7664SOL    HW134628   0.597   1.740   8.164 -1.7226 -0.5083  0.6568
 7664SOL    HW234629   0.641   1.816   8.287  2.2986 -2.0722 -1.6450
 7665SOL     OW34630   0.128   1.688   3.214 -0.7254  0.0411 -0.3151
 7665SOL    HW134631   0.145   1.611   3.269  1.9133  1.1542  0.3935
 7665SOL    HW234632   0.215   1.724   3.229 -0.0414 -2.0229  0.7657
 7666SOL     OW34633   1.828   1.055  17.592 -0.4515  0.1415 -0.0646
 7666SOL    HW134634   1.835   1.005  17.511  3.8442  2.4431 -1.0852
 7666SOL    HW234635   1.898   1.011  17.642 -0.1680 -0.2038 -0.7738
 7667SOL     OW34636   3.521   2.381   0.478 -0.8583  0.0924  0.5353
 7667SOL    HW134637   3.446   2.381   0.419 -0.1061 -0.8843 -0.4227
 7667SOL    HW234638   3.590   2.354   0.417 -0.7391  0.2595  0.5957
 7668SOL     OW34639   3.912   4.726  16.116  0.4018  0.1362  0.8134
 7668SOL    HW134640   4.001   4.732  16.151  1.1581  1.0903 -1.2717
 7668SOL    HW234641   3.873   0.064  16.159  1.4833  0.1463  1.7952
 7669SOL     OW34642   1.883   4.422   2.408  0.3229 -0.7825 -0.2726
 7669SOL    HW134643   1.956   4.377   2.452  0.2896 -0.5945 -0.0274
 7669SOL    HW234644   1.933   4.498   2.378  1.1545 -0.6943  1.3437
 7670SOL     OW34645   1.072   3.927   1.782 -0.0802 -0.4779  0.0268
 7670SOL    HW134646   1.030   4.007   1.749  0.9998 -0.2836 -0.8945
 7670SOL    HW234647   1.153   3.967   1.815 -0.2075  0.8415 -1.2240
 7671SOL     OW34648   1.490   4.658  12.309  0.1095 -0.0463  0.1159
 7671SOL    HW134649   1.485   4.582  12.366 -0.5039 -0.4506 -0.4745
 7671SOL    HW234650   1.498   4.731  12.371  0.1180 -0.2384  0.3391
 7672SOL     OW34651   3.123   1.418  13.195 -0.0407 -0.0612  0.0074
 7672SOL    HW134652   3.030   1.431  13.214 -0.3809  0.5661 -2.2145
 7672SOL    HW234653   3.157   1.401  13.284  1.5752 -0.5875 -0.7091
 7673SOL     OW34654   0.081   1.707   6.488  0.2407 -0.2617  0.3944
 7673SOL    HW134655   0.122   1.772   6.545 -1.1390 -1.4888  2.7542
 7673SOL    HW234656   4.734   1.733   6.521 -0.2064  1.4175 -2.1206
 7674SOL     OW34657   0.885   2.078   2.205  0.4058 -0.3722 -0.0298
 7674SOL    HW134658   0.898   2.156   2.259  2.2358 -1.4249  1.0325
 7674SOL    HW234659   0.849   2.115   2.124  1.7689  0.8582 -0.0775
 7675SOL     OW34660   3.761   1.231   3.377 -0.1545 -0.4113  0.3670
 7675SOL    HW134661   3.797   1.197   3.295 -1.7776 -2.6502  0.5790
 7675SOL    HW234662   3.730   1.319   3.358 -1.0434 -0.9649 -0.7793
 7676SOL     OW34663   2.175   4.115   3.196 -0.0798 -0.3036  0.6020
 7676SOL    HW134664   2.267   4.138   3.209  0.1851 -1.1275  0.1529
 7676SOL    HW234665   2.172   4.021   3.178  0.7901 -0.8243  3.2176
 7677SOL     OW34666   3.281   0.225  10.658  0.6518  0.1877 -0.2312
 7677SOL    HW134667   3.322   0.254  10.739 -0.2713 -0.8259  0.5899
 7677SOL    HW234668   3.253   0.309  10.621  1.0086 -0.2438 -1.5068
 7678SOL     OW34669   2.599   0.581   4.749 -0.2890 -0.4655 -0.0531
 7678SOL    HW134670   2.510   0.616   4.738 -0.0659 -0.1392 -0.8079
 7678SOL    HW234671   2.639   0.634   4.818  0.5540 -2.0784  0.6810
 7679SOL     OW34672   0.083   0.916  12.707  0.7488 -0.9374  0.0883
 7679SOL    HW134673   0.066   0.823  12.693  2.7159 -1.0496 -1.4792
 7679SOL    HW234674   0.176   0.924  12.685  0.3512  0.9113 -0.9330
 7680SOL     OW34675   2.666   3.791   0.059  0.2528 -0.9692 -0.0364
 7680SOL    HW134676   2.649   3.826  17.723  0.1785 -2.3488 -0.5777
 7680SOL    HW234677   2.760   3.787   0.042  0.3362 -0.2366  0.2526
 7681SOL     OW34678   1.499   4.652   4.977  0.0758 -0.2587  0.4102
 7681SOL    HW134679   1.506   4.584   5.044 -0.3555 -0.3993  0.3109
 7681SOL    HW234680   1.592   4.658   4.955 -0.0518  1.0439  0.1805
 7682SOL     OW34681   1.864   2.357   7.340  0.5863  0.1788 -1.1239
 7682SOL    HW134682   1.812   2.286   7.378  1.6816 -0.4399 -0.7901
 7682SOL    HW234683   1.866   2.326   7.249 -1.3703  1.2450 -1.5287
 7683SOL     OW34684   1.308   1.170   4.104  0.4164  0.0564 -0.1612
 7683SOL    HW134685   1.239   1.201   4.162 -1.2606 -1.9214 -1.1241
 7683SOL    HW234686   1.386   1.190   4.156  0.7760  0.3488 -0.8001
 7684SOL     OW34687   0.401   1.458  15.350  0.0162 -0.4398  0.4194
 7684SOL    HW134688   0.398   1.545  15.390 -1.6130 -0.5807  0.5842
 7684SOL    HW234689   0.489   1.434  15.379  1.1623  3.4810  0.2495
 7685SOL     OW34690   4.176   1.561  12.770 -0.6495  0.0556  0.1988
 7685SOL    HW134691   4.152   1.653  12.778  0.1846  0.4551 -1.8315
 7685SOL    HW234692   4.222   1.571  12.686 -2.0899  2.2396 -0.3357
 7686SOL     OW34693   0.647   0.795   8.732 -0.0624 -0.7082  0.2253
 7686SOL    HW134694   0.624   0.714   8.778  0.2669  0.6619  2.8118
 7686SOL    HW234695   0.726   0.812   8.785 -0.0232 -0.7301  0.1739
 7687SOL     OW34696   1.844   0.853   4.236  0.3075  0.0995  0.3300
 7687SOL    HW134697   1.855   0.774   4.182 -1.3492  0.8058 -1.0427
 7687SOL    HW234698   1.864   0.817   4.322 -0.8628  0.3061  0.6814
 7688SOL     OW34699   2.741   4.403   0.534 -0.3395 -0.2448 -0.7263
 7688SOL    HW134700   2.727   4.382   0.626  0.2053  0.8588 -0.3926
 7688SOL    HW234701   2.803   4.475   0.536 -1.6261  0.9698 -4.6207
 7689SOL     OW34702   2.265   1.368   7.154  0.0709 -0.9817  0.0802
 7689SOL    HW134703   2.332   1.326   7.101  0.0926  2.9667 -3.0248
 7689SOL    HW234704   2.316   1.426   7.210 -2.1608  1.8865 -0.8659
 7690SOL     OW34705   0.919   0.488   5.271  0.2870 -0.2782 -0.4077
 7690SOL    HW134706   1.014   0.484   5.276  0.2570  0.3656  0.7993
 7690SOL    HW234707   0.898   0.573   5.311  1.4417  0.3752 -1.1751
 7691SOL     OW34708   2.819   3.016   7.725 -0.2169 -0.4511  0.0226
 7691SOL    HW134709   2.880   3.089   7.732  0.9618 -1.4615  0.2296
 7691SOL    HW234710   2.880   2.962   7.676  0.9857  2.1910 -1.4148
 7692SOL     OW34711   1.650   0.117   1.542  0.7860  0.5575 -0.0443
 7692SOL    HW134712   1.638   0.114   1.637  3.8453  0.6801  0.3507
 7692SOL    HW234713   1.729   0.062   1.538  0.7491  0.6245 -1.6264
 7693SOL     OW34714   2.364   1.714   3.518 -0.1137 -0.0108  0.1174
 7693SOL    HW134715   2.406   1.782   3.570  1.9348 -0.0367 -1.5226
 7693SOL    HW234716   2.280   1.754   3.498 -1.3217 -1.8598  1.4611
 7694SOL     OW34717   3.193   1.178   5.414 -0.2548  0.5044 -0.2919
 7694SOL    HW134718   3.223   1.176   5.505 -0.2970  0.1523 -0.2830
 7694SOL    HW234719   3.115   1.232   5.429 -0.1380  0.4105  0.6429
 7695SOL     OW34720   4.230   3.241   3.722 -0.8803 -0.5980  0.2881
 7695SOL    HW134721   4.192   3.153   3.730 -2.2109  0.0730  1.5920
 7695SOL    HW234722   4.148   3.290   3.730 -0.7692 -0.2254 -0.9995
 7696SOL     OW34723   0.639   3.303   2.754  0.3122  0.7073  0.2279
 7696SOL    HW134724   0.727   3.298   2.792 -1.2199 -0.5280  3.5769
 7696SOL    HW234725   0.657   3.342   2.668  1.5723 -0.1824  0.0921
 7697SOL     OW34726   3.687   1.197  17.438  0.4366  0.0968  0.2305
 7697SOL    HW134727   3.746   1.270  17.457 -0.4726  0.7849  0.4078
 7697SOL    HW234728   3.730   1.165  17.359  0.2310 -0.4427  0.3371
 7698SOL     OW34729   1.304   2.722   3.451  0.3253 -0.0923  0.4235
 7698SOL    HW134730   1.333   2.648   3.504  1.5969 -1.4918 -2.2163
 7698SOL    HW234731   1.379   2.781   3.454  0.9305 -0.7907 -0.8160
 7699SOL     OW34732   3.065   2.074   9.372 -0.5660  0.2762  0.3897
 7699SOL    HW134733   3.085   2.076   9.466 -1.9917  0.3300  0.6878
 7699SOL    HW234734   3.004   2.147   9.361  0.6545  0.7478 -3.0896
 7700SOL     OW34735   1.009   0.899   5.161 -0.2046 -0.1790 -1.6091
 7700SOL    HW134736   1.067   0.854   5.099  3.4560  1.5410  0.5846
 7700SOL    HW234737   0.999   0.826   5.221  1.2525 -0.0418 -1.1859
 7701SOL     OW34738   3.174   2.794   6.025 -0.4077 -0.6685 -0.2566
 7701SOL    HW134739   3.207   2.711   5.988 -2.2312 -0.6837 -1.8255
 7701SOL    HW234740   3.112   2.758   6.089  1.1508 -1.6660  0.6882
 7702SOL     OW34741   1.624   3.315   2.760  0.3001  0.7845 -0.0093
 7702SOL    HW134742   1.606   3.299   2.667 -3.6372 -0.0374  0.8957
 7702SOL    HW234743   1.611   3.229   2.799  0.5832  1.1181  0.8210
 7703SOL     OW34744   1.753   4.372   8.968 -0.0290  0.0426  0.0300
 7703SOL    HW134745   1.785   4.461   8.952  1.9706 -0.9114 -1.2689
 7703SOL    HW234746   1.687   4.362   8.899  1.3479 -0.5822 -1.1995
 7704SOL     OW34747   1.274   0.074   5.051 -0.2516  0.4426  0.5773
 7704SOL    HW134748   1.352   0.022   5.031 -1.2695 -0.7010 -0.3865
 7704SOL    HW234749   1.315   0.157   5.075  0.8733 -0.3333  1.4045
 7705SOL     OW34750   0.551   0.055  16.921  0.5313  0.0462  0.8856
 7705SOL    HW134751   0.511   0.069  17.007  2.2206  1.1929  1.4755
 7705SOL    HW234752   0.641   0.046  16.952  0.7340  1.2152  0.6352
 7706SOL     OW34753   3.647   4.190   0.954 -0.1048  0.2036 -0.2797
 7706SOL    HW134754   3.701   4.127   1.002  1.1979  1.2291 -0.3921
 7706SOL    HW234755   3.614   4.232   1.034 -2.1455  0.5301 -1.3100
 7707SOL     OW34756   4.021   2.812   5.195 -0.9880 -0.4383  0.1837
 7707SOL    HW134757   4.051   2.798   5.106 -0.0656 -1.0830  0.6048
 7707SOL    HW234758   4.090   2.766   5.243  0.8515  1.1816 -0.9009
 7708SOL     OW34759   3.466   1.718   3.248  0.4851 -0.4591 -0.3236
 7708SOL    HW134760   3.489   1.773   3.173 -0.3834 -0.4105 -0.5518
 7708SOL    HW234761   3.458   1.630   3.211 -1.2042 -0.1525 -0.6827
 7709SOL     OW34762   1.001   3.942   3.874 -0.2036  0.2672  0.1411
 7709SOL    HW134763   1.063   3.874   3.849 -0.2342  0.1539  0.3641
 7709SOL    HW234764   0.914   3.903   3.861  0.5219 -0.9925 -0.9308
 7710SOL     OW34765   3.416   0.088   3.297  0.0856  0.2681  0.2877
 7710SOL    HW134766   3.467   0.138   3.232  1.6980 -0.2375  1.1601
 7710SOL    HW234767   3.359   0.155   3.334 -0.6758  0.5381 -1.3517
 7711SOL     OW34768   3.694   2.614   0.527 -0.1078 -0.3810  0.2038
 7711SOL    HW134769   3.634   2.543   0.507  0.4926 -1.3703  1.9505
 7711SOL    HW234770   3.654   2.657   0.603 -0.9380 -0.7953 -0.0096
 7712SOL     OW34771   1.706   3.860   9.316  1.0197 -0.6611  0.4563
 7712SOL    HW134772   1.656   3.816   9.384  0.8822 -0.7564  0.2938
 7712SOL    HW234773   1.754   3.929   9.362  0.1301  1.1550 -1.2853
 7713SOL     OW34774   2.494   4.144   6.876 -0.5596  0.5889 -0.1352
 7713SOL    HW134775   2.406   4.143   6.914 -0.3142  0.6444  0.4384
 7713SOL    HW234776   2.524   4.232   6.897  0.9479  0.2520 -0.8549
 7714SOL     OW34777   1.653   3.873   0.332  0.0264 -0.7188  0.3935
 7714SOL    HW134778   1.742   3.899   0.308 -0.8790  0.7636 -1.2914
 7714SOL    HW234779   1.661   3.799   0.393  1.7152 -1.2992 -0.5255
 7715SOL     OW34780   3.641   0.362   9.208  0.0658 -0.0625  0.1475
 7715SOL    HW134781   3.608   0.441   9.251 -0.1427  1.8564 -3.6038
 7715SOL    HW234782   3.564   0.305   9.207  0.7585 -1.0319  1.2997
 7716SOL     OW34783   3.158   0.901   3.201 -0.2815 -0.0224  0.2001
 7716SOL    HW134784   3.098   0.844   3.249 -0.2266  1.4588  2.0429
 7716SOL    HW234785   3.204   0.939   3.276 -0.0013 -1.6314  0.8481
 7717SOL     OW34786   1.387   2.637   5.593 -0.2103  0.0087 -0.3403
 7717SOL    HW134787   1.437   2.569   5.637 -0.8527 -0.1389  0.1654
 7717SOL    HW234788   1.440   2.657   5.516 -0.8082 -4.6448 -1.9253
 7718SOL     OW34789   1.355   0.417  17.263  0.3289  0.2624  0.4228
 7718SOL    HW134790   1.432   0.365  17.241  1.2980  1.7273  0.3455
 7718SOL    HW234791   1.403   0.486  17.310 -0.3092  1.1091 -0.1671
 7719SOL     OW34792   1.709   4.497  17.471  0.4578  0.3174  0.6774
 7719SOL    HW134793   1.699   4.493  17.566  1.0090 -3.1752  0.5765
 7719SOL    HW234794   1.761   4.420  17.448 -1.4203 -0.7128 -0.1135
 7720SOL     OW34795   1.236   3.010   6.746  0.6969  0.5490  0.1539
 7720SOL    HW134796   1.316   3.057   6.765  0.1743  1.8241 -0.8137
 7720SOL    HW234797   1.166   3.065   6.780  0.3196  0.3466 -0.2863
 7721SOL     OW34798   4.676   3.470  13.603 -0.0391  0.1020  0.2256
 7721SOL    HW134799   4.672   3.532  13.530  0.6360  1.3041  1.2086
 7721SOL    HW234800   0.013   3.513  13.643  0.7386 -0.3287 -0.7842
 7722SOL     OW34801   1.318   2.151   9.087  0.4213 -0.7368  0.2155
 7722SOL    HW134802   1.392   2.131   9.144 -1.6625 -0.7147  2.9470
 7722SOL    HW234803   1.298   2.236   9.127 -3.4862 -0.9939 -1.2414
 7723SOL     OW34804   2.962   0.039   6.224 -0.2459  0.1641  0.0530
 7723SOL    HW134805   2.928   0.101   6.288 -1.0732 -0.6285  0.3914
 7723SOL    HW234806   3.030   4.738   6.279 -2.0344  0.9451  2.8034
 7724SOL     OW34807   3.844   0.843   5.316  0.0105  0.1971  0.3632
 7724SOL    HW134808   3.801   0.761   5.292  0.9341  0.2129 -1.3842
 7724SOL    HW234809   3.925   0.832   5.266  0.6461 -1.6399  1.7986
 7725SOL     OW34810   4.341   3.237  12.216  0.0412 -0.1914  0.6059
 7725SOL    HW134811   4.362   3.255  12.124  0.9007 -1.2885  0.5858
 7725SOL    HW234812   4.397   3.302  12.260  1.1197  1.2154 -2.8183
 7726SOL     OW34813   2.148   4.117   4.440 -0.6198  0.7412 -0.0157
 7726SOL    HW134814   2.238   4.112   4.473 -0.7541  3.4781  0.7779
 7726SOL    HW234815   2.100   4.068   4.506  0.3419  2.4183  1.9552
 7727SOL     OW34816   3.211   0.902  11.058  0.0409  0.0492  0.1042
 7727SOL    HW134817   3.131   0.888  11.109  0.2014  2.3888  0.9778
 7727SOL    HW234818   3.184   0.957  10.985  0.3530  0.3512  0.2161
 7728SOL     OW34819   4.519   4.485   9.819 -0.5169  0.0917 -0.2613
 7728SOL    HW134820   4.520   4.479   9.723  1.3950 -0.0658 -0.2330
 7728SOL    HW234821   4.612   4.467   9.831 -0.7579 -0.6640  0.4590
 7729SOL     OW34822   0.601   3.915   1.965 -0.5734 -0.3822 -0.0250
 7729SOL    HW134823   0.596   4.000   2.009  0.6861  0.3620 -1.3144
 7729SOL    HW234824   0.576   3.943   1.877  0.4493 -0.9105 -0.4931
 7730SOL     OW34825   4.314   3.956   4.195 -0.2313 -0.1121 -0.1965
 7730SOL    HW134826   4.315   3.888   4.263 -0.4628  0.2071  0.1214
 7730SOL    HW234827   4.253   3.912   4.136 -0.5007 -2.5204  1.8446
 7731SOL     OW34828   0.202   3.035   6.404  0.5096 -0.3389  0.1771
 7731SOL    HW134829   0.199   2.971   6.333 -1.3282  1.7702 -1.6671
 7731SOL    HW234830   0.254   2.985   6.467 -0.4166 -1.5930 -0.0577
 7732SOL     OW34831   4.542   4.089   0.483  0.2185 -0.4131  0.0057
 7732SOL    HW134832   4.585   4.076   0.567 -1.4233 -0.2265  0.8678
 7732SOL    HW234833   4.533   4.184   0.493  0.6453 -0.2130 -1.5253
 7733SOL     OW34834   3.003   1.173   2.650 -0.3537  0.4445 -0.0234
 7733SOL    HW134835   2.952   1.243   2.609  0.4956  0.2779 -1.3591
 7733SOL    HW234836   2.936   1.104   2.646 -0.1377  0.2278  0.1748
 7734SOL     OW34837   0.615   3.064   1.170 -0.3918 -0.3544 -0.2663
 7734SOL    HW134838   0.524   3.056   1.143 -0.7474  1.8887  0.3378
 7734SOL    HW234839   0.615   2.992   1.234 -0.8143 -0.8733 -0.8527
 7735SOL     OW34840   4.570   0.727   0.476  0.0478 -0.6280  0.2875
 7735SOL    HW134841   4.597   0.707   0.387  0.2110  0.8282 -0.0005
 7735SOL    HW234842   4.566   0.634   0.497  2.1246 -0.7902 -0.0881
 7736SOL     OW34843   4.077   2.159   9.162  0.3720 -0.6246  0.0232
 7736SOL    HW134844   4.170   2.181   9.156  0.0180  0.7464 -0.5363
 7736SOL    HW234845   4.073   2.064   9.164  2.1685 -0.7525 -2.2874
 7737SOL     OW34846   3.095   2.014   4.562 -0.5753  0.3081  0.3457
 7737SOL    HW134847   3.188   2.031   4.544 -0.9123  0.7185 -0.9934
 7737SOL    HW234848   3.091   1.973   4.649 -0.5269 -0.3057  0.0585
 7738SOL     OW34849   2.989   2.418   4.017  0.8231 -0.6357  0.2997
 7738SOL    HW134850   2.926   2.411   4.088 -0.5133  1.1073 -0.7064
 7738SOL    HW234851   2.950   2.472   3.948 -1.0847 -0.1344  1.7892
 7739SOL     OW34852   0.177   3.142   2.167  0.0981 -0.3822  0.4589
 7739SOL    HW134853   0.114   3.115   2.234 -0.1731  1.8478  1.1093
 7739SOL    HW234854   0.194   3.228   2.206 -2.7958  0.4175 -0.0698
 7740SOL     OW34855   4.492   4.510   2.673  0.5597  0.2544  0.4972
 7740SOL    HW134856   4.427   4.440   2.678  0.5828  0.0706 -1.5935
 7740SOL    HW234857   4.523   4.507   2.763  0.7401 -2.4965  0.3730
 7741SOL     OW34858   0.755   4.668   4.482  0.2170  0.3186  0.3710
 7741SOL    HW134859   0.849   4.684   4.474  0.2030 -1.2364 -2.9448
 7741SOL    HW234860   0.716   4.736   4.428 -1.2687 -0.6322  0.2432
 7742SOL     OW34861   2.570   4.328   1.921 -0.3132  0.4585  0.6996
 7742SOL    HW134862   2.507   4.293   1.859 -0.3257  3.5984 -1.0886
 7742SOL    HW234863   2.650   4.290   1.885 -2.5773 -0.8188 -2.9728
 7743SOL     OW34864   3.668   2.218  13.141 -0.1966 -0.6706  0.2681
 7743SOL    HW134865   3.657   2.255  13.229 -1.1496 -0.3295  0.0154
 7743SOL    HW234866   3.587   2.166  13.139  0.8656 -2.2270 -2.6065
 7744SOL     OW34867   3.319   4.031   9.756  0.7562  0.0129  0.4087
 7744SOL    HW134868   3.335   4.113   9.802  1.5302  0.2677 -0.3029
 7744SOL    HW234869   3.332   3.967   9.826  2.6195  1.4794  1.3971
 7745SOL     OW34870   1.530   1.759   1.772  0.1370  0.3876  0.1337
 7745SOL    HW134871   1.613   1.763   1.819  0.4681 -0.9699 -0.3478
 7745SOL    HW234872   1.461   1.730   1.831 -1.1923 -0.3823 -1.7861
 7746SOL     OW34873   1.316   0.217  14.398  0.0117  0.2819 -0.2303
 7746SOL    HW134874   1.225   0.191  14.412  0.7565 -0.8476  2.3332
 7746SOL    HW234875   1.354   0.130  14.393 -0.1341  0.3126 -1.9652
 7747SOL     OW34876   1.674   4.120   2.637  0.2349 -0.3529 -0.0552
 7747SOL    HW134877   1.730   4.042   2.637 -0.0275 -0.5424  0.5427
 7747SOL    HW234878   1.609   4.100   2.705  1.9932  0.2015  1.7782
 7748SOL     OW34879   1.902   3.224   1.968 -0.2197 -0.0952 -0.4138
 7748SOL    HW134880   1.866   3.286   1.905  0.1794  0.6878  0.1281
 7748SOL    HW234881   1.943   3.279   2.034  0.0051 -2.4948  1.4860
 7749SOL     OW34882   4.303   0.525   4.421 -0.6546  0.0272 -0.5706
 7749SOL    HW134883   4.308   0.615   4.451  0.4169  0.0675 -0.8745
 7749SOL    HW234884   4.354   0.523   4.340  0.5416  0.8115  0.1657
 7750SOL     OW34885   4.298   3.244   2.829 -0.2196 -0.3895 -0.1598
 7750SOL    HW134886   4.348   3.315   2.788 -0.3754  0.2036  0.6802
 7750SOL    HW234887   4.304   3.274   2.920 -0.1494  2.8883 -1.2420
 7751SOL     OW34888   1.162   1.909  14.115 -0.2629  0.5388 -0.2025
 7751SOL    HW134889   1.245   1.956  14.106 -1.1678  2.2124  0.1365
 7751SOL    HW234890   1.105   1.982  14.140 -0.0165 -0.6704  3.9372
 7752SOL     OW34891   3.306   2.311   7.979 -0.0484  0.2062 -1.3523
 7752SOL    HW134892   3.274   2.400   7.968  1.0105  0.9713  1.8810
 7752SOL    HW234893   3.396   2.313   7.947 -0.3202 -0.4100 -2.1715
 7753SOL     OW34894   3.199   0.263   3.944  0.1238  0.4034  0.2850
 7753SOL    HW134895   3.170   0.183   3.899  2.8706 -1.5359  1.9968
 7753SOL    HW234896   3.236   0.238   4.028  0.4027  1.3052  0.4296
 7754SOL     OW34897   2.407   1.759   6.446  0.0658 -0.1333  0.5511
 7754SOL    HW134898   2.343   1.719   6.506 -0.8636  1.9188  0.9415
 7754SOL    HW234899   2.368   1.847   6.441  0.3368  0.0180  1.0731
 7755SOL     OW34900   3.452   1.666   5.687 -0.1675  0.1742 -0.1126
 7755SOL    HW134901   3.472   1.586   5.736 -1.3624  0.6945  1.2276
 7755SOL    HW234902   3.368   1.636   5.651 -0.4495  1.6434 -0.6725
 7756SOL     OW34903   2.085   3.893   4.955 -0.1410  0.1686  0.1601
 7756SOL    HW134904   2.006   3.857   4.912  1.4725 -1.7249 -1.2189
 7756SOL    HW234905   2.105   3.970   4.902 -0.6987 -0.1276 -0.4894
 7757SOL     OW34906   4.343   2.330  16.913  0.4125  0.4200 -0.1929
 7757SOL    HW134907   4.273   2.267  16.894  0.7242  0.5405 -1.7302
 7757SOL    HW234908   4.346   2.329  17.008 -3.9987 -1.0245 -0.0419
 7758SOL     OW34909   1.873   2.375   7.913 -0.2955 -0.0043 -0.1479
 7758SOL    HW134910   1.876   2.350   7.821  0.0038  0.8199 -0.3670
 7758SOL    HW234911   1.965   2.374   7.938 -0.8325 -0.7903  1.8155
 7759SOL     OW34912   1.271   1.810  12.236  0.3011 -0.7622 -0.1592
 7759SOL    HW134913   1.296   1.895  12.201 -0.2781 -1.1225 -1.4732
 7759SOL    HW234914   1.313   1.754  12.170 -1.8865 -0.2098 -2.0469
 7760SOL     OW34915   1.983   3.465   2.149 -0.2896  0.3298 -0.0332
 7760SOL    HW134916   2.016   3.542   2.102  0.8781 -0.2390 -0.1526
 7760SOL    HW234917   1.895   3.500   2.162 -0.7723 -0.6620 -0.6769
 7761SOL     OW34918   0.151   1.848   9.551  0.6089  0.1751 -0.1802
 7761SOL    HW134919   0.116   1.891   9.629 -1.5096  1.5785 -1.9076
 7761SOL    HW234920   0.109   1.762   9.544  1.0367  0.2660 -3.4170
 7762SOL     OW34921   3.150   3.310   4.607 -0.1505  0.5405  0.0446
 7762SOL    HW134922   3.119   3.367   4.538  0.5904 -0.6950 -1.3098
 7762SOL    HW234923   3.141   3.224   4.565  2.4877  1.1918 -1.8072
 7763SOL     OW34924   0.309   2.517  11.180  0.4559 -0.2552  0.5001
 7763SOL    HW134925   0.322   2.582  11.249 -0.2096  0.6807 -0.2527
 7763SOL    HW234926   0.316   2.435  11.228 -0.3936  0.3468  1.6628
 7764SOL     OW34927   2.976   2.777   5.402 -0.8149  0.3433 -0.2471
 7764SOL    HW134928   2.931   2.740   5.326 -1.1067 -0.8777  0.5171
 7764SOL    HW234929   3.056   2.725   5.409 -0.6008  1.0533  2.5823
 7765SOL     OW34930   3.195   4.019   3.550 -0.4173 -0.7284 -0.5235
 7765SOL    HW134931   3.213   3.929   3.524 -1.2211 -1.8752  2.8427
 7765SOL    HW234932   3.148   4.050   3.473 -1.0993  0.6516  0.4409
 7766SOL     OW34933   0.207   1.828   1.706  0.4511  0.2095 -0.0203
 7766SOL    HW134934   0.175   1.867   1.787 -0.3495  0.4086 -0.4356
 7766SOL    HW234935   0.218   1.739   1.739 -0.8783  0.7612  1.9163
 7767SOL     OW34936   2.547   3.835   2.160  0.0308  0.5517 -0.5209
 7767SOL    HW134937   2.460   3.814   2.127 -0.1095 -1.1220  0.8817
 7767SOL    HW234938   2.586   3.750   2.180 -0.0235  1.1797  2.2622
 7768SOL     OW34939   3.574   0.314   4.593  0.6995 -0.6448 -0.8403
 7768SOL    HW134940   3.502   0.300   4.655  0.0493  0.6815 -1.2917
 7768SOL    HW234941   3.616   0.392   4.628  1.1468  0.0972 -3.0952
 7769SOL     OW34942   4.313   4.464  10.045  0.4483  0.1995 -0.2127
 7769SOL    HW134943   4.220   4.454  10.022  0.8473  0.8033 -2.0883
 7769SOL    HW234944   4.351   4.434   9.963 -1.1854 -1.7349 -0.2470
 7770SOL     OW34945   1.581   3.769  11.971  0.3705  0.1928 -0.4992
 7770SOL    HW134946   1.521   3.841  11.991 -0.6766 -1.1506  1.1743
 7770SOL    HW234947   1.650   3.825  11.936  2.2232 -1.8086 -0.0366
 7771SOL     OW34948   2.151   2.485   2.322  0.3569  0.9672  0.6010
 7771SOL    HW134949   2.239   2.467   2.289 -0.0437 -0.1172  0.1260
 7771SOL    HW234950   2.104   2.426   2.264  4.2636  1.8003 -3.3955
 7772SOL     OW34951   1.098   1.344   6.108 -0.1219 -0.1466  0.1592
 7772SOL    HW134952   1.007   1.338   6.137 -0.5984  4.7875 -0.3460
 7772SOL    HW234953   1.141   1.259   6.121  2.4639  1.2886  0.9672
 7773SOL     OW34954   3.991   4.273  10.621  0.0359  0.2355  0.1581
 7773SOL    HW134955   4.051   4.347  10.607 -0.8431  0.6475 -1.3998
 7773SOL    HW234956   4.050   4.204  10.590 -3.5872 -1.4909 -2.8670
 7774SOL     OW34957   4.304   1.381   5.157 -0.0789  0.0953  0.2873
 7774SOL    HW134958   4.284   1.358   5.066 -0.2238  0.0985  0.3190
 7774SOL    HW234959   4.342   1.303   5.197 -1.4180  0.0600  1.4842
 7775SOL     OW34960   2.712   2.974   3.001  0.5395 -0.2108  0.1867
 7775SOL    HW134961   2.670   2.918   3.066  1.2627  0.2878  1.0906
 7775SOL    HW234962   2.741   3.046   3.056  1.9947 -0.4160 -0.3008
 7776SOL     OW34963   3.570   0.706   8.712 -0.0179  0.0615 -0.1226
 7776SOL    HW134964   3.514   0.755   8.651 -0.0462 -0.7136 -0.7226
 7776SOL    HW234965   3.631   0.779   8.722  0.4437 -0.1275 -1.5214
 7777SOL     OW34966   4.148   0.568   3.385 -0.4132 -0.5577 -0.6430
 7777SOL    HW134967   4.072   0.509   3.392 -0.2060 -0.5691  1.6093
 7777SOL    HW234968   4.227   0.518   3.407 -0.7113 -1.2898 -1.2228
 7778SOL     OW34969   4.710   1.208   9.384  0.2049 -0.5450  0.5675
 7778SOL    HW134970   0.050   1.245   9.425 -1.7153  0.5685  3.2057
 7778SOL    HW234971   4.699   1.264   9.307  3.3268  0.8033  1.0950
 7779SOL     OW34972   2.685   0.951   4.749 -0.4717  0.0180  0.1322
 7779SOL    HW134973   2.679   0.872   4.803  1.3735  0.8284  1.5025
 7779SOL    HW234974   2.774   0.982   4.763 -0.1236 -0.1822 -1.6082
 7780SOL     OW34975   3.266   3.816  14.416 -0.4885 -0.3403  0.2593
 7780SOL    HW134976   3.325   3.744  14.394  2.6384  1.5146  2.5373
 7780SOL    HW234977   3.275   3.872  14.338 -0.8672 -2.6501 -1.4401
 7781SOL     OW34978   2.727   3.384   1.502  0.8279  0.0697 -0.1156
 7781SOL    HW134979   2.730   3.289   1.516 -3.3446  0.2913  2.1591
 7781SOL    HW234980   2.794   3.409   1.566  2.2477  0.2851 -1.6850
 7782SOL     OW34981   0.229   4.062  11.737 -0.5374 -0.4412  0.2491
 7782SOL    HW134982   0.141   4.099  11.729 -0.2092  0.4560  0.8406
 7782SOL    HW234983   0.240   4.045  11.831 -0.0027 -1.0913  0.0677
 7783SOL     OW34984   4.642   4.485   5.081  0.5924 -0.0947  0.2598
 7783SOL    HW134985   4.630   4.404   5.031  0.8023 -0.1420  0.2876
 7783SOL    HW234986   4.700   4.461   5.152  0.7083  2.6694  1.0890
 7784SOL     OW34987   4.206   3.468   6.824 -1.0180  0.2648 -0.0947
 7784SOL    HW134988   4.203   3.414   6.745  2.5251  0.3037 -0.2830
 7784SOL    HW234989   4.178   3.556   6.801  0.2770  0.8204  0.4566
 7785SOL     OW34990   4.415   4.318   9.327  0.2328  0.9884 -0.1770
 7785SOL    HW134991   4.343   4.346   9.384  1.7008  1.4543  1.4475
 7785SOL    HW234992   4.384   4.305   9.238 -1.0683 -1.8712  0.6962
 7786SOL     OW34993   1.995   2.998   5.174  0.2002  0.2181 -0.1589
 7786SOL    HW134994   1.957   2.941   5.106 -1.8288 -1.5007  2.4151
 7786SOL    HW234995   2.048   2.934   5.221  2.4974  0.9408 -1.7895
 7787SOL     OW34996   4.328   3.576  11.558  0.1264 -0.2602  0.2299
 7787SOL    HW134997   4.302   3.605  11.646 -0.1133  0.0969  0.0428
 7787SOL    HW234998   4.276   3.496  11.559  0.8828 -0.7517  0.3423
 7788SOL     OW34999   3.847   4.020   0.356 -0.2982 -0.2041 -0.0215
 7788SOL    HW135000   3.867   3.949   0.417 -1.6358 -0.7660 -0.2405
 7788SOL    HW235001   3.768   4.061   0.389  0.8282  1.0146  1.1424
 7789SOL     OW35002   1.014   2.334   5.162 -0.8373 -0.2179  0.2886
 7789SOL    HW135003   0.956   2.397   5.206 -0.4186 -0.2313  0.8664
 7789SOL    HW235004   0.953   2.270   5.124  1.8626 -2.9622  0.5591
 7790SOL     OW35005   4.583   4.728   8.120 -0.2380  0.2263  0.2532
 7790SOL    HW135006   4.545   4.691   8.040 -0.3054  0.9537 -0.0527
 7790SOL    HW235007   4.679   4.727   8.112 -0.2375  2.6696 -0.1974
 7791SOL     OW35008   1.622   3.729   6.707 -0.5188 -0.0957  0.0659
 7791SOL    HW135009   1.664   3.699   6.626  0.6966 -2.0125  1.3907
 7791SOL    HW235010   1.640   3.822   6.696 -0.1040  0.0171  1.5868
 7792SOL     OW35011   3.697   4.288   7.794 -0.5258 -0.1621 -0.3559
 7792SOL    HW135012   3.646   4.258   7.869 -1.8070 -2.3880 -2.1063
 7792SOL    HW235013   3.692   4.383   7.791  0.4877 -0.1345 -1.2438
 7793SOL     OW35014   2.357   4.105  10.832  0.0585 -0.6651  0.2013
 7793SOL    HW135015   2.355   4.034  10.896  1.3948  0.1650  1.1550
 7793SOL    HW235016   2.385   4.052  10.757 -1.1607 -1.0613  0.0267
 7794SOL     OW35017   4.560   3.149   5.453  0.2397  0.0996 -0.1732
 7794SOL    HW135018   4.507   3.070   5.460  1.2834 -0.4047  2.1039
 7794SOL    HW235019   4.628   3.131   5.388 -0.4421  2.6091 -1.5641
 7795SOL     OW35020   0.775   0.724   1.901 -0.0600  0.4391  0.0073
 7795SOL    HW135021   0.762   0.747   1.809 -0.4309 -2.1381 -0.5915
 7795SOL    HW235022   0.788   0.812   1.935 -0.6278  0.0726  1.1935
 7796SOL     OW35023   0.636   1.215  17.385  0.4613 -0.0762  0.6350
 7796SOL    HW135024   0.597   1.183  17.466 -0.4813 -0.2369  0.1292
 7796SOL    HW235025   0.669   1.301  17.411  2.5740 -0.2537 -1.4678
 7797SOL     OW35026   0.879   2.583   5.266  0.9169 -0.0348 -0.0290
 7797SOL    HW135027   0.856   2.572   5.358 -1.1194  0.7194 -0.4387
 7797SOL    HW235028   0.825   2.657   5.237  1.2096  0.2180  0.0826
 7798SOL     OW35029   1.614   1.701   4.676  0.3979 -0.0306 -0.1199
 7798SOL    HW135030   1.700   1.737   4.654  0.6738 -0.3475  0.4525
 7798SOL    HW235031   1.640   1.617   4.714  2.4606  0.2062 -1.0137
 7799SOL     OW35032   0.811   0.318   2.099 -0.1968  0.1867  0.0463
 7799SOL    HW135033   0.773   0.232   2.119 -0.7421  0.0744 -1.5491
 7799SOL    HW235034   0.889   0.302   2.154 -1.2348 -0.7181  1.2687
 7800SOL     OW35035   4.125   0.753   7.665 -0.0378  0.1070 -0.1319
 7800SOL    HW135036   4.032   0.754   7.641  0.2018  1.4807 -1.0258
 7800SOL    HW235037   4.133   0.661   7.686 -3.2207 -0.3475 -0.8526
 7801SOL     OW35038   4.587   1.778   8.440 -0.4441 -0.0901 -0.1092
 7801SOL    HW135039   4.642   1.708   8.404  0.2851  0.8591 -0.8384
 7801SOL    HW235040   4.642   1.856   8.442  2.1910 -1.9316 -1.4277
 7802SOL     OW35041   3.745   4.327   8.187  0.3798 -0.3848 -0.4720
 7802SOL    HW135042   3.658   4.293   8.165  0.5538 -1.9334  1.1836
 7802SOL    HW235043   3.794   4.246   8.201  2.7041  1.5847  2.6581
 7803SOL     OW35044   2.810   1.002   6.787  0.1694  0.9158 -0.0705
 7803SOL    HW135045   2.879   0.937   6.772 -0.3661  0.0712  1.1888
 7803SOL    HW235046   2.803   1.032   6.696  1.2669 -1.2681 -0.8607
 7804SOL     OW35047   1.738   2.919  11.964 -0.1866 -0.6273 -0.0249
 7804SOL    HW135048   1.749   2.976  11.888 -1.8094 -0.8215 -0.4042
 7804SOL    HW235049   1.715   2.968  12.043  0.4161  0.4512 -0.5236
 7805SOL     OW35050   4.504   0.449   3.931  0.2181  0.5744  0.1924
 7805SOL    HW135051   4.533   0.412   3.848 -0.4395  1.8609 -0.6147
 7805SOL    HW235052   4.409   0.434   3.922  0.3798 -0.2678 -0.1610
 7806SOL     OW35053   2.427   0.733  10.725  0.2907 -0.2509  0.2701
 7806SOL    HW135054   2.351   0.774  10.685  0.7665 -0.8851 -1.2719
 7806SOL    HW235055   2.375   0.708  10.802 -0.1769 -1.3086 -0.3900
 7807SOL     OW35056   0.093   3.432   7.232 -0.1176  0.2506  0.0411
 7807SOL    HW135057   0.011   3.471   7.264  0.7852  2.2051 -0.0472
 7807SOL    HW235058   0.068   3.431   7.140 -3.1564 -2.0817  0.8812
 7808SOL     OW35059   1.648   0.725  13.318  0.0580  0.0963 -0.4263
 7808SOL    HW135060   1.716   0.678  13.366  0.7151 -0.2656 -1.7017
 7808SOL    HW235061   1.704   0.751  13.245 -0.6261  0.5434 -0.7868
 7809SOL     OW35062   3.065   1.235  10.510 -0.1470  0.3697 -0.0311
 7809SOL    HW135063   3.118   1.178  10.566  0.3710 -0.5514 -1.4489
 7809SOL    HW235064   3.101   1.321  10.532 -0.8801  0.6802 -0.0466
 7810SOL     OW35065   3.500   3.360   2.600 -0.4453  0.2755 -0.7189
 7810SOL    HW135066   3.495   3.383   2.507  2.2831  1.3100 -0.6006
 7810SOL    HW235067   3.407   3.358   2.626 -0.2111 -0.1120  0.0733
 7811SOL     OW35068   1.540   4.447   2.970 -0.3977  0.4275 -0.2617
 7811SOL    HW135069   1.532   4.363   3.016 -0.1598  0.0404 -0.9304
 7811SOL    HW235070   1.581   4.414   2.890  0.2361 -2.2562  1.1454
 7812SOL     OW35071   1.714   1.180   7.115  0.3405  0.1494 -0.3126
 7812SOL    HW135072   1.809   1.185   7.128  0.1205 -1.7879  1.9197
 7812SOL    HW235073   1.711   1.087   7.138  2.4380 -0.1677 -1.2338
 7813SOL     OW35074   1.537   0.389   6.073 -0.4489 -0.7580 -0.0046
 7813SOL    HW135075   1.610   0.451   6.070  0.3711 -1.7487 -0.5671
 7813SOL    HW235076   1.542   0.358   5.982 -1.6445 -1.8220  0.2909
 7814SOL     OW35077   2.482   2.873  14.086  0.1491  0.0653  0.0153
 7814SOL    HW135078   2.573   2.842  14.087  0.4206  0.7549 -1.9314
 7814SOL    HW235079   2.482   2.937  14.015 -3.8343 -0.4838 -0.4808
 7815SOL     OW35080   0.184   3.276  14.159  0.0770  0.1968  0.2178
 7815SOL    HW135081   0.133   3.244  14.084  1.6361 -0.2778 -0.6436
 7815SOL    HW235082   0.134   3.355  14.180 -0.0339  0.7579 -2.1090
 7816SOL     OW35083   4.702   0.530   2.956  0.3747 -0.0961  0.6328
 7816SOL    HW135084   4.626   0.548   3.011  1.3566 -0.1703  2.0275
 7816SOL    HW235085   0.021   0.510   3.030  1.4402  2.7197  0.5600
 7817SOL     OW35086   3.863   1.888  14.711 -0.1374  0.3759 -0.2092
 7817SOL    HW135087   3.905   1.966  14.675  3.7901 -1.4695  0.2806
 7817SOL    HW235088   3.892   1.820  14.649 -1.3319 -1.5223  1.3059
 7818SOL     OW35089   0.631   1.549   4.601 -0.2248 -0.9321 -0.5565
 7818SOL    HW135090   0.700   1.600   4.644  1.1211 -2.3839 -0.9613
 7818SOL    HW235091   0.637   1.461   4.639  1.8104 -0.6621 -0.2426
 7819SOL     OW35092   2.348   4.348   3.753  0.3383 -0.9054  0.0742
 7819SOL    HW135093   2.271   4.370   3.805 -0.7811  0.0825 -1.9681
 7819SOL    HW235094   2.342   4.253   3.747  2.4015 -0.9565 -1.5781
 7820SOL     OW35095   0.084   2.669  11.074 -0.1612  0.1798 -0.8854
 7820SOL    HW135096   0.049   2.613  11.005 -0.8526  1.6059 -1.6926
 7820SOL    HW235097   0.156   2.623  11.118  0.3045  1.4210 -0.3234
 7821SOL     OW35098   3.544   3.514  14.838 -0.1785 -0.0697  0.4582
 7821SOL    HW135099   3.495   3.523  14.756  0.4037 -1.2580 -0.0229
 7821SOL    HW235100   3.513   3.595  14.878 -2.4402 -1.1223  0.8405
 7822SOL     OW35101   1.142   0.171   7.984  1.0695 -0.4571  0.2187
 7822SOL    HW135102   1.164   0.079   7.993 -1.0070 -0.8989  0.7161
 7822SOL    HW235103   1.054   0.172   8.023  0.5874 -1.2389 -0.8552
 7823SOL     OW35104   0.971   4.269   4.128  0.0254 -0.0965  0.2509
 7823SOL    HW135105   0.954   4.305   4.214  2.4225  0.3170  0.5452
 7823SOL    HW235106   0.971   4.173   4.138 -1.9270 -0.1795 -0.4383
 7824SOL     OW35107   0.324   0.212   8.350 -0.6619 -0.6556 -0.0030
 7824SOL    HW135108   0.417   0.229   8.364 -1.0376  0.7114  0.8859
 7824SOL    HW235109   0.303   0.134   8.401  1.4533 -1.6569 -0.6868
 7825SOL     OW35110   0.000   2.618   8.761  0.5220 -0.6078  0.3635
 7825SOL    HW135111   0.065   2.633   8.831  0.2621  0.1239  0.4532
 7825SOL    HW235112   4.665   2.596   8.819  0.0393  0.5371  0.2050
 7826SOL     OW35113   0.935   2.631   8.512 -0.4320 -0.1954  0.3742
 7826SOL    HW135114   0.926   2.668   8.600  0.6583 -0.8332  0.7573
 7826SOL    HW235115   0.856   2.673   8.478  0.4133  1.1757  0.1008
 7827SOL     OW35116   0.504   3.447   5.082 -0.0738 -0.2474  0.1175
 7827SOL    HW135117   0.577   3.395   5.114  0.5932  0.1672 -0.7222
 7827SOL    HW235118   0.524   3.538   5.105 -0.0283 -0.2051 -0.0890
 7828SOL     OW35119   3.965   4.141   4.603  0.3043  0.2964 -0.0345
 7828SOL    HW135120   3.938   4.103   4.519  2.5914 -0.3482 -0.4705
 7828SOL    HW235121   3.883   4.133   4.652  0.3333 -1.7062 -0.3044
 7829SOL     OW35122   2.585   0.400  15.217 -0.3138  0.2638  0.3019
 7829SOL    HW135123   2.570   0.399  15.123 -1.0095  0.2461  0.4134
 7829SOL    HW235124   2.500   0.435  15.244  0.6062 -0.3656  3.9880
 7830SOL     OW35125   0.334   4.089  15.946 -0.9585 -0.0730  0.4558
 7830SOL    HW135126   0.294   4.049  15.868 -0.9875  0.6274  0.1131
 7830SOL    HW235127   0.325   4.183  15.932  1.2247  0.1385  0.3909
 7831SOL     OW35128   4.677   0.820   9.668  0.5524  0.1252 -0.6058
 7831SOL    HW135129   4.706   0.847   9.581 -0.2581  2.1867 -0.2340
 7831SOL    HW235130   0.004   0.863   9.723  0.6630 -1.3606  0.4244
 7832SOL     OW35131   1.310   0.645   2.309 -0.4568 -0.1791  0.5906
 7832SOL    HW135132   1.293   0.704   2.382 -1.0829  0.8130 -0.3580
 7832SOL    HW235133   1.376   0.585   2.343 -1.2137 -1.6042 -0.4578
 7833SOL     OW35134   3.125   3.348   1.904 -0.3796  0.7272 -0.4597
 7833SOL    HW135135   3.116   3.398   1.984  1.5628 -0.8197  0.7495
 7833SOL    HW235136   3.178   3.415   1.860 -1.9492  0.2206 -3.1261
 7834SOL     OW35137   4.285   4.469   8.351 -0.0921  0.3495 -0.2930
 7834SOL    HW135138   4.217   4.459   8.418  1.2703  1.2408  1.2440
 7834SOL    HW235139   4.239   4.411   8.290  1.1330  0.8006 -1.6109
 7835SOL     OW35140   2.062   3.474   3.877  0.2501  0.1590 -0.1311
 7835SOL    HW135141   2.002   3.540   3.841 -0.6254 -0.6164 -0.0726
 7835SOL    HW235142   2.040   3.465   3.970  2.4381  2.3963  0.6107
 7836SOL     OW35143   3.166   4.603  15.316  0.6258 -0.1922 -0.7316
 7836SOL    HW135144   3.113   4.524  15.304  1.6103 -0.8843 -0.4696
 7836SOL    HW235145   3.141   4.665  15.246  0.1869  0.9484  0.4258
 7837SOL     OW35146   1.516   2.037   2.027 -0.3076 -0.3898 -0.7381
 7837SOL    HW135147   1.448   1.974   2.002  0.3163 -1.2082 -0.3571
 7837SOL    HW235148   1.492   2.068   2.115  0.8259  1.6371 -1.1383
 7838SOL     OW35149   2.975   3.684   1.846  0.5048 -0.3090 -0.5696
 7838SOL    HW135150   2.954   3.626   1.773 -1.0941 -1.4527  0.8157
 7838SOL    HW235151   2.968   3.632   1.926  1.5901 -0.3910 -0.5251
 7839SOL     OW35152   1.240   1.592   8.066  0.0195  0.3279 -0.4850
 7839SOL    HW135153   1.173   1.525   8.075 -0.0684  0.3584 -0.9167
 7839SOL    HW235154   1.321   1.562   8.109  0.0903 -0.4564 -1.1824
 7840SOL     OW35155   0.714   1.146  10.152 -0.1070  0.1942  0.0911
 7840SOL    HW135156   0.638   1.204  10.157  1.0346  1.7084 -0.0747
 7840SOL    HW235157   0.751   1.159  10.065 -1.9793  2.4848 -0.3818
 7841SOL     OW35158   1.282   2.609   6.031 -0.5643 -0.3729 -0.1714
 7841SOL    HW135159   1.321   2.690   5.996  1.1365 -2.0357 -2.1386
 7841SOL    HW235160   1.335   2.610   6.111 -0.4020  0.2929 -0.2842
 7842SOL     OW35161   1.340   2.571   6.935 -0.4045 -0.5512  0.3240
 7842SOL    HW135162   1.376   2.626   6.865 -0.1281 -1.7021 -0.4316
 7842SOL    HW235163   1.402   2.499   6.932 -0.5045 -0.6314  0.2001
 7843SOL     OW35164   3.914   1.687   5.614 -0.1456 -0.6155  0.1695
 7843SOL    HW135165   3.912   1.655   5.704 -1.9466  0.4177  0.5025
 7843SOL    HW235166   3.912   1.781   5.633 -0.8898 -0.0530 -2.6456
 7844SOL     OW35167   3.525   4.218   2.618 -0.2791  0.0547  0.2966
 7844SOL    HW135168   3.514   4.153   2.549 -1.0195  0.3030  0.1797
 7844SOL    HW235169   3.573   4.282   2.565 -0.5246  1.3919  1.6754
 7845SOL     OW35170   4.034   4.692  13.197 -0.4669 -0.2495  0.0880
 7845SOL    HW135171   3.942   4.699  13.225 -0.2472 -1.3795  1.0630
 7845SOL    HW235172   4.036   4.604  13.159  2.4863 -0.0995 -0.1067
 7846SOL     OW35173   0.390   0.491   2.120 -0.0734  0.0023  0.1029
 7846SOL    HW135174   0.314   0.471   2.174  0.0973 -0.0586  0.3234
 7846SOL    HW235175   0.411   0.406   2.081 -2.5991  0.2185 -1.6940
 7847SOL     OW35176   3.099   4.417  12.349 -0.2243  0.4168  0.2653
 7847SOL    HW135177   3.192   4.394  12.349 -0.3228  0.0313  0.2571
 7847SOL    HW235178   3.079   4.408  12.256  4.3333 -0.7181 -0.5777
 7848SOL     OW35179   3.665   3.653   0.801  0.1290  0.6098 -0.7105
 7848SOL    HW135180   3.676   3.747   0.807  2.1268  0.2541  1.0727
 7848SOL    HW235181   3.578   3.645   0.761 -0.3772 -0.4141  0.5866
 7849SOL     OW35182   1.819   0.934   5.544  0.0328  0.6629  0.0686
 7849SOL    HW135183   1.875   0.985   5.485  0.6096  0.5896  0.5462
 7849SOL    HW235184   1.739   0.986   5.554 -1.7696 -1.7484 -2.0624
 7850SOL     OW35185   1.596   4.564  11.890 -0.2897  0.1659 -0.6256
 7850SOL    HW135186   1.567   4.634  11.831 -1.4530  0.7011  0.5871
 7850SOL    HW235187   1.562   4.487  11.846 -1.3531 -0.1195  0.6814
 7851SOL     OW35188   3.443   3.030  12.630 -1.3318  0.7626  0.1802
 7851SOL    HW135189   3.427   3.122  12.611  1.1367  0.6733 -2.3090
 7851SOL    HW235190   3.353   3.007  12.655 -0.6613 -1.8601  0.1971
 7852SOL     OW35191   4.520   2.150   4.306 -0.1631 -0.1637 -0.0014
 7852SOL    HW135192   4.584   2.221   4.298  0.4605 -0.8613 -1.2925
 7852SOL    HW235193   4.470   2.180   4.381 -0.6678  0.7234 -0.6846
 7853SOL     OW35194   0.877   1.255  14.245  0.4760 -0.2835  0.5831
 7853SOL    HW135195   0.895   1.182  14.304  0.2436  0.6554  1.8154
 7853SOL    HW235196   0.906   1.213  14.164  1.5900 -0.0964  0.8841
 7854SOL     OW35197   3.758   3.465   8.351 -0.3936  0.3904 -0.0104
 7854SOL    HW135198   3.762   3.558   8.326  2.2076  0.0517 -0.8167
 7854SOL    HW235199   3.701   3.466   8.428  0.5995  0.2484  0.7262
 7855SOL     OW35200   3.022   3.953   8.012  0.3074 -0.1844 -0.0891
 7855SOL    HW135201   2.930   3.935   7.996  0.4713 -1.5118  0.3834
 7855SOL    HW235202   3.019   3.899   8.091 -2.3231  2.1553  1.3855
 7856SOL     OW35203   2.177   4.349   7.036  0.4515  0.6647  0.0608
 7856SOL    HW135204   2.206   4.262   7.064 -0.8727  0.4047  0.6242
 7856SOL    HW235205   2.223   4.395   7.106 -3.5100  1.1938  2.3403
 7857SOL     OW35206   0.942   3.002   0.692  0.3196  0.2278 -0.3006
 7857SOL    HW135207   0.980   3.076   0.645  0.5551  0.8114  0.8161
 7857SOL    HW235208   0.990   3.011   0.774 -0.0023 -2.5032  0.1854
 7858SOL     OW35209   1.403   0.145   1.219  0.0243  0.0826  0.1997
 7858SOL    HW135210   1.482   0.196   1.238  0.1623 -0.4768  1.1279
 7858SOL    HW235211   1.409   0.125   1.126  0.8489 -0.7090  0.4246
 7859SOL     OW35212   0.570   1.467  15.617  0.1253  0.4939 -0.2040
 7859SOL    HW135213   0.603   1.388  15.659  1.6115  0.7449 -0.8769
 7859SOL    HW235214   0.638   1.524  15.655 -1.1017  1.1110  1.0464
 7860SOL     OW35215   1.054   3.288   3.422  0.3980 -0.3087 -0.2687
 7860SOL    HW135216   1.103   3.313   3.500  1.4912  0.4337 -1.1891
 7860SOL    HW235217   1.054   3.371   3.373  0.9632  0.4165  0.9453
 7861SOL     OW35218   3.951   0.294  11.001  0.0336 -0.0462 -0.0160
 7861SOL    HW135219   3.981   0.349  10.928  1.8634  0.8788  1.4474
 7861SOL    HW235220   3.976   0.362  11.064 -1.4978  1.3868 -0.9471
 7862SOL     OW35221   2.280   0.022   5.774 -0.2282 -0.3011 -0.4700
 7862SOL    HW135222   2.261   0.007   5.866 -0.1294  0.8264 -0.2675
 7862SOL    HW235223   2.222   0.094   5.750 -0.7759  0.3963  2.9936
 7863SOL     OW35224   0.302   4.688   7.797  0.4084  0.3355  0.0140
 7863SOL    HW135225   0.262   4.672   7.711  1.7106 -0.2072 -0.4939
 7863SOL    HW235226   0.371   0.011   7.770  0.0947  0.2383 -1.0239
 7864SOL     OW35227   0.213   4.107   7.590 -0.0328  0.6396  0.0514
 7864SOL    HW135228   0.151   4.179   7.578  0.8031  1.1358 -1.2694
 7864SOL    HW235229   0.171   4.029   7.554  0.9345  0.2283 -0.1899
 7865SOL     OW35230   0.852   1.382   3.192  0.4313  0.3961 -0.7684
 7865SOL    HW135231   0.770   1.423   3.218 -1.0957 -2.8202 -0.6314
 7865SOL    HW235232   0.820   1.331   3.118  1.5570 -1.0359 -0.2621
 7866SOL     OW35233   0.861   0.528   2.767 -0.2744 -0.3406 -0.2367
 7866SOL    HW135234   0.873   0.457   2.830  1.8096  0.0102 -0.2309
 7866SOL    HW235235   0.906   0.601   2.809 -0.5570 -0.7441  0.7581
 7867SOL     OW35236   1.303   0.644  17.682  0.4054 -0.1994 -0.5555
 7867SOL    HW135237   1.297   0.560  17.635 -1.3699 -1.1777  1.3819
 7867SOL    HW235238   1.390   0.632  17.720  0.5479  0.3138 -0.7187
 7868SOL     OW35239   3.123   0.460   2.278  0.3038  0.1436 -0.2757
 7868SOL    HW135240   3.168   0.403   2.215  1.5610  0.5573  0.2623
 7868SOL    HW235241   3.059   0.403   2.322  1.6853 -0.4077  1.0046
 7869SOL     OW35242   1.020   4.536   8.906 -0.0012 -0.2305 -0.0778
 7869SOL    HW135243   1.000   4.473   8.837  2.3519  3.0490 -3.7015
 7869SOL    HW235244   1.113   4.548   8.892  0.2912 -1.1786  0.9836
 7870SOL     OW35245   0.212   1.779   3.739  0.3040 -0.4708 -0.0523
 7870SOL    HW135246   0.152   1.792   3.812  1.4425  0.3129  0.7267
 7870SOL    HW235247   0.179   1.844   3.677  1.8495  1.2677  0.9564
 7871SOL     OW35248   4.313   1.995   2.666  0.0852 -0.1304  0.0480
 7871SOL    HW135249   4.330   1.906   2.698 -0.4007  0.5762  2.2947
 7871SOL    HW235250   4.269   1.972   2.584 -2.7918 -0.5788  1.7133
 7872SOL     OW35251   4.607   2.888  10.106  0.0992 -0.4087 -0.2053
 7872SOL    HW135252   4.645   2.800  10.107  1.4499  0.1703 -0.0519
 7872SOL    HW235253   4.570   2.908  10.020  1.8866 -0.8057 -1.0677
 7873SOL     OW35254   1.382   4.666  17.636  0.2654 -0.6536 -0.4851
 7873SOL    HW135255   1.305   4.622  17.672  0.7484  1.2425  2.8548
 7873SOL    HW235256   1.437   4.669  17.714 -1.9163 -0.2856  1.0470
 7874SOL     OW35257   3.955   4.467   6.926  0.6244  0.5152  0.2777
 7874SOL    HW135258   4.040   4.486   6.886 -0.1235  2.7063 -0.2745
 7874SOL    HW235259   3.957   4.373   6.914  2.1607  0.6492 -0.5184
 7875SOL     OW35260   3.041   0.413   0.387  0.4421 -0.2389  0.0299
 7875SOL    HW135261   3.131   0.447   0.392 -0.3271  1.6276  1.1897
 7875SOL    HW235262   3.061   0.319   0.383 -0.7495 -0.4987  0.2695
 7876SOL     OW35263   4.087   0.167   9.226 -0.5249 -0.1971 -0.5784
 7876SOL    HW135264   4.071   0.261   9.235 -0.2161 -0.0981 -1.0772
 7876SOL    HW235265   4.029   0.143   9.154 -1.6164 -0.5016  0.3993
 7877SOL     OW35266   2.585   3.641   5.896 -0.6153  1.0549  0.0858
 7877SOL    HW135267   2.493   3.613   5.897  0.0990 -1.3137  0.0280
 7877SOL    HW235268   2.570   3.726   5.936 -1.5172  1.5133 -1.2186
 7878SOL     OW35269   1.087   4.681   1.311  0.1295  0.3946 -0.3088
 7878SOL    HW135270   1.176   4.672   1.345 -0.4363 -0.9941  0.8100
 7878SOL    HW235271   1.060   4.732   1.387 -0.8052 -0.7427  0.1270
 7879SOL     OW35272   0.991   2.307   5.536 -0.0619 -0.0022 -0.3008
 7879SOL    HW135273   1.086   2.312   5.528 -0.1938 -0.4579 -2.2123
 7879SOL    HW235274   0.981   2.350   5.621  1.4315  1.5215 -0.9022
 7880SOL     OW35275   2.154   2.242   7.065 -0.0880  0.2335  0.2954
 7880SOL    HW135276   2.148   2.147   7.076  2.5575  0.1938  1.3354
 7880SOL    HW235277   2.248   2.257   7.063 -0.3059  1.6243  0.8201
 7881SOL     OW35278   0.683   4.307   7.005 -0.0189 -0.8099  0.3600
 7881SOL    HW135279   0.611   4.289   6.944 -0.1589  0.1295  0.2537
 7881SOL    HW235280   0.759   4.277   6.955  0.1402 -1.2565  0.8627
 7882SOL     OW35281   4.514   0.436   1.472  0.8755 -0.0635  0.8229
 7882SOL    HW135282   4.584   0.381   1.506  1.4935 -1.9420 -3.4305
 7882SOL    HW235283   4.509   0.403   1.382  0.5796  1.6618  0.2071
 7883SOL     OW35284   3.252   4.163  15.362 -0.6245  0.3532  0.2206
 7883SOL    HW135285   3.222   4.246  15.398  0.1026  0.7302 -0.0459
 7883SOL    HW235286   3.345   4.179  15.350 -1.0197  1.6911 -0.9925
 7884SOL     OW35287   0.277   3.040   1.931 -0.0532  0.2038 -1.2261
 7884SOL    HW135288   0.304   3.119   1.884  0.0862  0.7864 -0.1622
 7884SOL    HW235289   0.228   3.086   1.999  2.4272 -1.9348  1.9703
 7885SOL     OW35290   2.414   1.641  14.611 -0.0504 -0.1498 -0.3609
 7885SOL    HW135291   2.451   1.676  14.530  0.8324  1.4443  0.7553
 7885SOL    HW235292   2.483   1.673  14.669 -0.6931  4.0402 -1.9477
 7886SOL     OW35293   1.377   0.447   4.635  0.2574  0.1680 -0.7307
 7886SOL    HW135294   1.470   0.469   4.632  0.5306 -0.9103 -0.0756
 7886SOL    HW235295   1.347   0.509   4.569 -2.8368 -1.0475 -0.4665
 7887SOL     OW35296   0.163   2.171   2.876  0.0857  0.3074  0.1421
 7887SOL    HW135297   0.105   2.155   2.951  1.4006 -1.1240  0.8479
 7887SOL    HW235298   0.156   2.088   2.829  3.0864 -0.1496  0.5489
 7888SOL     OW35299   1.528   3.655   3.308 -0.5483 -0.1427 -0.0173
 7888SOL    HW135300   1.616   3.670   3.274 -1.2480  1.3919 -1.1895
 7888SOL    HW235301   1.476   3.663   3.228 -0.2931 -2.8102 -0.4235
 7889SOL     OW35302   1.289   1.156  12.828 -0.5356 -0.4051 -0.3236
 7889SOL    HW135303   1.209   1.206  12.816 -1.4776 -1.7112  0.6096
 7889SOL    HW235304   1.355   1.226  12.830  1.6080 -2.3714 -1.7417
 7890SOL     OW35305   0.694   0.345   1.292 -0.1391 -0.5525  0.1524
 7890SOL    HW135306   0.787   0.329   1.311 -0.3059 -1.1513  0.4533
 7890SOL    HW235307   0.648   0.274   1.337  1.0464 -1.3010  0.1816
 7891SOL     OW35308   3.390   3.714  14.952 -0.2327 -0.1565 -0.6626
 7891SOL    HW135309   3.322   3.780  14.967  0.5902 -0.1508  2.8609
 7891SOL    HW235310   3.350   3.653  14.889 -1.6658  0.4979 -0.3896
 7892SOL     OW35311   4.625   1.368   4.905 -0.5261 -0.3549  0.2591
 7892SOL    HW135312   4.717   1.340   4.906  0.0650  1.5083 -0.3581
 7892SOL    HW235313   4.575   1.289   4.888 -0.2311 -0.8948  1.9249
 7893SOL     OW35314   4.127   3.018   5.977  0.4281 -0.6157  0.3062
 7893SOL    HW135315   4.105   3.089   5.917 -0.4099 -1.8928 -0.9002
 7893SOL    HW235316   4.058   3.028   6.043 -0.6615 -0.9062 -0.7775
 7894SOL     OW35317   2.861   4.397   0.042 -0.3494  0.5266 -0.0048
 7894SOL    HW135318   2.870   4.433   0.130  2.5001  0.6637 -0.3629
 7894SOL    HW235319   2.868   4.475  17.737  1.1242  0.3926 -0.0153
 7895SOL     OW35320   4.486   0.206   7.010  0.1736 -0.0396  0.4846
 7895SOL    HW135321   4.474   0.189   7.104 -0.9613 -2.5769 -0.0961
 7895SOL    HW235322   4.394   0.224   6.989  0.6548  0.5760 -1.0516
 7896SOL     OW35323   1.210   1.799   4.753 -0.2642  0.4708 -0.8317
 7896SOL    HW135324   1.142   1.847   4.706 -0.6915  1.1131  0.4410
 7896SOL    HW235325   1.199   1.842   4.838 -2.3914  0.5985 -1.1629
 7897SOL     OW35326   3.393   2.500   3.543 -0.0748 -0.1041  0.3303
 7897SOL    HW135327   3.488   2.494   3.531  0.2578  0.9862  2.4111
 7897SOL    HW235328   3.391   2.446   3.622 -1.6074 -0.2567  0.1823
 7898SOL     OW35329   3.020   1.854   8.403  0.2238 -0.1116 -0.3298
 7898SOL    HW135330   3.001   1.815   8.489 -2.1345  0.1036 -0.7639
 7898SOL    HW235331   3.115   1.849   8.420  0.3039 -0.5182 -0.9220
 7899SOL     OW35332   2.663   0.082   6.465  0.3629  0.2085 -0.4589
 7899SOL    HW135333   2.574   0.093   6.497  0.4341 -0.8299  0.0729
 7899SOL    HW235334   2.654   4.733   6.427  1.2316 -1.3896  3.0998
 7900SOL     OW35335   2.920   2.594   5.669  0.1651  0.4902 -0.3404
 7900SOL    HW135336   2.890   2.574   5.758 -2.9513  1.1630 -1.2635
 7900SOL    HW235337   3.014   2.605   5.685  0.1474 -1.4661  1.1057
 7901SOL     OW35338   3.300   4.020   6.825 -0.2523 -0.4813  0.1580
 7901SOL    HW135339   3.270   3.970   6.749  3.4582 -0.9376 -1.0290
 7901SOL    HW235340   3.263   4.105   6.801 -1.3372 -0.9259  0.2655
 7902SOL     OW35341   4.202   1.616   1.622 -0.2754 -0.0357 -0.5578
 7902SOL    HW135342   4.249   1.687   1.577 -1.7824  1.8565  0.8336
 7902SOL    HW235343   4.127   1.601   1.565  0.3433 -0.3635 -1.2900
 7903SOL     OW35344   0.175   0.700  12.923  0.0372  0.1378  0.1716
 7903SOL    HW135345   0.091   0.663  12.952 -0.3068  0.7672 -0.0312
 7903SOL    HW235346   0.191   0.636  12.854  1.3731 -0.1994  0.8041
 7904SOL     OW35347   1.149   0.274   1.957 -0.6647 -0.3022  0.2230
 7904SOL    HW135348   1.155   0.341   2.025 -1.6622 -2.1419  2.1210
 7904SOL    HW235349   1.120   0.331   1.886 -0.3355  0.2658  0.5404
 7905SOL     OW35350   3.418   0.997   0.104  0.1737 -0.3317  0.1719
 7905SOL    HW135351   3.489   1.058   0.086  1.0230 -1.5607 -0.6483
 7905SOL    HW235352   3.458   0.918   0.067 -3.0918 -1.7654 -0.2999
 7906SOL     OW35353   4.341   1.980   6.604  0.3258 -0.2279 -0.1293
 7906SOL    HW135354   4.247   1.972   6.617  0.6261 -2.1653  0.8103
 7906SOL    HW235355   4.375   1.902   6.648 -1.6502 -1.3184 -0.5391
 7907SOL     OW35356   2.105   0.431   5.860 -0.4532 -0.3690  0.1479
 7907SOL    HW135357   2.091   0.524   5.846  2.6404 -0.0387 -0.6869
 7907SOL    HW235358   2.013   0.402   5.862 -1.6320  3.3578 -0.8523
 7908SOL     OW35359   4.701   0.073   2.813 -0.7362 -0.1502 -0.4189
 7908SOL    HW135360   4.689   4.717   2.830 -0.9095 -0.4605 -2.2234
 7908SOL    HW235361   4.618   0.110   2.841 -0.5343 -0.6572  0.8599
 7909SOL     OW35362   2.971   0.615   2.964  0.5873 -0.1600 -0.2872
 7909SOL    HW135363   2.999   0.671   2.891 -1.5102  2.0858  0.6144
 7909SOL    HW235364   3.051   0.564   2.975  0.2723 -0.0423  2.4709
 7910SOL     OW35365   4.708   1.394   2.085  0.7373  0.7206 -0.2868
 7910SOL    HW135366   0.035   1.361   2.023  1.4999  0.4315  0.6684
 7910SOL    HW235367   4.652   1.446   2.028  1.3253  2.8283  1.0791
 7911SOL     OW35368   3.603   2.965   5.019  0.0190 -0.2243  0.3723
 7911SOL    HW135369   3.644   3.028   4.959  0.4803  0.9803  1.9566
 7911SOL    HW235370   3.514   2.972   4.985  0.8602  2.0653 -1.3752
 7912SOL     OW35371   1.993   4.596   6.057  0.5848 -0.4302 -0.1481
 7912SOL    HW135372   2.065   4.557   6.107 -0.5819 -3.2221 -0.6275
 7912SOL    HW235373   1.934   4.521   6.043 -1.2371  1.1669 -1.0373
 7913SOL     OW35374   0.137   3.274  15.809 -0.0265 -0.0964  0.2829
 7913SOL    HW135375   0.223   3.296  15.844  0.2886 -0.2890 -0.3686
 7913SOL    HW235376   0.100   3.237  15.889 -0.3152 -0.6464 -0.1000
 7914SOL     OW35377   1.526   3.260   2.489  0.3483 -0.3947  0.3158
 7914SOL    HW135378   1.499   3.330   2.430 -0.8041  0.2249  1.5843
 7914SOL    HW235379   1.509   3.189   2.428  1.7808 -1.1054  0.7321
 7915SOL     OW35380   2.511   2.901  14.883  0.1093 -0.3614  0.0398
 7915SOL    HW135381   2.471   2.968  14.939 -2.2444 -1.2606 -0.5554
 7915SOL    HW235382   2.561   2.852  14.949  0.9943 -3.5762 -3.0224
 7916SOL     OW35383   3.074   4.520  11.519 -0.1725  0.0119 -0.1760
 7916SOL    HW135384   2.981   4.541  11.532 -0.3218  0.0759 -1.3722
 7916SOL    HW235385   3.104   4.584  11.454 -0.7508  1.5884  1.0994
 7917SOL     OW35386   3.356   3.732   7.852  0.0569 -0.5609 -0.4048
 7917SOL    HW135387   3.287   3.688   7.802 -0.8956  1.2466 -0.6781
 7917SOL    HW235388   3.354   3.815   7.805 -0.7580 -0.8301 -0.8447
 7918SOL     OW35389   1.258   4.096   1.877 -0.6710 -0.2903 -0.2901
 7918SOL    HW135390   1.235   4.170   1.933 -0.5927  1.0663 -2.0621
 7918SOL    HW235391   1.351   4.116   1.891 -0.3538 -1.1202 -1.2303
 7919SOL     OW35392   2.790   3.128   9.220 -0.0952  0.7138  0.3289
 7919SOL    HW135393   2.821   3.200   9.166 -0.5834  0.1911 -0.6326
 7919SOL    HW235394   2.704   3.111   9.183  0.0359 -2.6298  1.5216
 7920SOL     OW35395   0.897   1.417   2.670 -0.1978 -0.0029 -0.4862
 7920SOL    HW135396   0.875   1.386   2.758  2.9928  0.4604  0.4757
 7920SOL    HW235397   0.817   1.408   2.619  0.3606  0.2886 -1.4193
 7921SOL     OW35398   0.275   2.533  10.621 -0.0202  0.3551  0.9953
 7921SOL    HW135399   0.315   2.477  10.555 -0.7471 -0.1315  0.9813
 7921SOL    HW235400   0.293   2.493  10.707  0.8411  0.5212  0.8971
 7922SOL     OW35401   0.527   3.220   9.538 -0.4073  0.2751 -0.7668
 7922SOL    HW135402   0.485   3.236   9.453 -0.7432 -0.8066 -0.8104
 7922SOL    HW235403   0.494   3.287   9.598 -0.1345 -0.3400  0.0596
 7923SOL     OW35404   3.889   1.454   4.834  0.5621  0.1241  0.3488
 7923SOL    HW135405   3.828   1.487   4.900  0.7046  1.7398 -0.3333
 7923SOL    HW235406   3.956   1.520   4.818 -1.0475  1.8188  0.6186
 7924SOL     OW35407   0.964   2.487   2.795  0.0193  0.5731  0.5361
 7924SOL    HW135408   1.048   2.446   2.775 -0.6223 -0.1666 -0.6938
 7924SOL    HW235409   0.976   2.507   2.888 -0.9930 -0.3697  0.8632
 7925SOL     OW35410   4.588   0.750  12.263  0.0231 -0.6060 -0.2015
 7925SOL    HW135411   4.613   0.803  12.339  2.1867 -1.2560 -0.4425
 7925SOL    HW235412   4.676   0.721  12.237 -0.3246 -1.0950 -0.8536
 7926SOL     OW35413   4.036   2.109   7.331  0.1373 -0.0005 -0.0509
 7926SOL    HW135414   3.991   2.178   7.281  0.3799 -1.7597 -2.7219
 7926SOL    HW235415   3.984   2.096   7.410 -1.2033  1.9795 -0.6243
 7927SOL     OW35416   3.982   4.275   9.630 -0.4138  1.0196  0.0561
 7927SOL    HW135417   3.986   4.363   9.592  4.0101  0.7670 -0.0097
 7927SOL    HW235418   4.073   4.252   9.613  0.1127  2.8351  0.4154
 7928SOL     OW35419   1.446   2.828   1.207  0.4136 -0.2783  0.1296
 7928SOL    HW135420   1.354   2.804   1.202 -0.0304  1.4191  0.2341
 7928SOL    HW235421   1.450   2.897   1.273  0.9376  0.0674 -0.2615
 7929SOL     OW35422   1.392   2.425   4.825 -0.6236 -0.4868  0.0026
 7929SOL    HW135423   1.385   2.484   4.900 -0.3218  0.5705 -0.8024
 7929SOL    HW235424   1.312   2.444   4.776 -1.5173  0.8457  1.9493
 7930SOL     OW35425   4.263   3.633  15.918  0.3100  0.2451 -0.3116
 7930SOL    HW135426   4.326   3.634  15.845  0.2749  2.4087 -0.3248
 7930SOL    HW235427   4.317   3.587  15.983  1.4288  0.2682 -1.2108
 7931SOL     OW35428   0.719   0.845   2.530  0.0423 -0.2505  0.0069
 7931SOL    HW135429   0.643   0.897   2.559  0.3207 -0.0904  0.4562
 7931SOL    HW235430   0.704   0.829   2.437  1.4632 -0.8292 -0.1170
 7932SOL     OW35431   0.841   4.038   7.543 -0.1433  0.1343 -0.4833
 7932SOL    HW135432   0.783   4.062   7.615 -0.4745  0.3764 -0.8247
 7932SOL    HW235433   0.902   4.111   7.535  0.6524 -0.5242 -0.4456
 7933SOL     OW35434   2.748   2.479   1.818 -0.1031 -0.3942  0.2027
 7933SOL    HW135435   2.813   2.411   1.834  0.4089 -0.0933 -0.6700
 7933SOL    HW235436   2.799   2.532   1.758 -0.4140 -1.1645 -0.7384
 7934SOL     OW35437   0.898   3.992   7.965 -0.3179 -0.1802 -0.1841
 7934SOL    HW135438   0.806   3.969   7.954 -0.5519 -0.1735  1.7022
 7934SOL    HW235439   0.953   3.914   7.954 -1.3033 -1.0397  0.9460
 7935SOL     OW35440   0.094   0.396   4.596 -0.0019  0.4325 -0.5120
 7935SOL    HW135441   0.002   0.372   4.586 -0.1979  1.5330 -1.2815
 7935SOL    HW235442   0.113   0.425   4.686  0.6210 -0.7362 -0.2724
 7936SOL     OW35443   3.764   3.951   9.317  0.4342 -0.0972 -0.3280
 7936SOL    HW135444   3.679   3.991   9.300  0.0383 -1.8932 -2.5431
 7936SOL    HW235445   3.813   3.989   9.244 -0.4144  1.0948 -0.2704
 7937SOL     OW35446   1.098   0.062   1.031  0.6422  0.0723  0.2294
 7937SOL    HW135447   1.091   0.058   1.126 -1.3805  1.4256  0.1230
 7937SOL    HW235448   1.193   0.047   1.028  0.2408 -2.3187 -0.3747
 7938SOL     OW35449   3.982   1.207   5.678 -0.2176 -0.0196 -0.5811
 7938SOL    HW135450   3.943   1.288   5.644  0.5757  0.0694 -1.2822
 7938SOL    HW235451   3.951   1.132   5.627 -2.7064  1.0096 -0.6067
 7939SOL     OW35452   0.134   0.401   8.249  0.2699  0.0515  0.1780
 7939SOL    HW135453   0.150   0.470   8.314 -1.1849  1.6262 -1.1393
 7939SOL    HW235454   0.216   0.353   8.264  0.5480  0.2887 -0.5918
 7940SOL     OW35455   0.180   1.870   6.705  0.3181 -0.1247 -0.6393
 7940SOL    HW135456   0.250   1.832   6.758 -1.1931  0.0150  1.4464
 7940SOL    HW235457   0.235   1.920   6.645 -0.9236  1.2651 -0.6135
 7941SOL     OW35458   2.894   2.996   1.686 -0.3479 -0.0710  0.1288
 7941SOL    HW135459   2.902   3.057   1.759  0.6394  1.6877 -1.4397
 7941SOL    HW235460   2.817   3.034   1.642 -1.0102 -3.8792 -1.9899
 7942SOL     OW35461   3.061   1.914   6.532 -0.3829  0.7161 -0.3344
 7942SOL    HW135462   3.105   1.939   6.613  1.6791 -1.7102 -0.7004
 7942SOL    HW235463   2.991   1.979   6.538 -1.4200 -0.3922 -0.6561
 7943SOL     OW35464   0.143   4.652   8.696 -0.0149  0.1425  0.1701
 7943SOL    HW135465   0.124   4.719   8.762 -1.8300  2.2356 -2.4585
 7943SOL    HW235466   0.230   4.681   8.669 -0.1985  0.5566  0.0116
 7944SOL     OW35467   3.841   3.947  13.046 -0.3294  0.0643 -0.1104
 7944SOL    HW135468   3.910   3.890  13.011 -0.1067 -1.1167  2.2880
 7944SOL    HW235469   3.812   3.890  13.117  1.5708  0.2563  0.8170
 7945SOL     OW35470   0.824   2.231   3.251 -0.4893  0.6256  0.3067
 7945SOL    HW135471   0.846   2.226   3.158  1.7073  1.4582  0.7628
 7945SOL    HW235472   0.906   2.274   3.276 -0.5822  0.8702  0.1907
 7946SOL     OW35473   1.338   0.883   4.027 -0.5390 -0.3455  0.3520
 7946SOL    HW135474   1.317   0.976   4.033 -1.5178 -0.5779  0.4542
 7946SOL    HW235475   1.433   0.890   4.012 -0.3420 -0.6141  1.4580
 7947SOL     OW35476   3.552   0.855   5.114 -0.2107  0.1910  0.5852
 7947SOL    HW135477   3.546   0.770   5.070  1.1435  0.0043  0.7682
 7947SOL    HW235478   3.613   0.845   5.187  1.2093  0.6768 -0.5294
 7948SOL     OW35479   3.606   1.777   8.931 -0.4205  0.3290 -0.1934
 7948SOL    HW135480   3.679   1.828   8.896 -0.2696  0.8238  0.8454
 7948SOL    HW235481   3.552   1.843   8.975  1.6044  2.6444 -1.1796
 7949SOL     OW35482   2.331   3.536   7.951 -0.3127 -0.5101  0.2659
 7949SOL    HW135483   2.306   3.518   8.042 -3.1428  1.5721 -0.0890
 7949SOL    HW235484   2.425   3.524   7.937 -0.4195  0.1310 -0.9890
 7950SOL     OW35485   2.290   0.373   7.089 -0.2854 -0.1121 -0.3505
 7950SOL    HW135486   2.268   0.327   7.170  0.3392 -1.4471 -0.9322
 7950SOL    HW235487   2.207   0.385   7.042 -0.1409  0.1738 -0.5274
 7951SOL     OW35488   0.246   3.382  11.365 -0.2785  0.2418  0.3359
 7951SOL    HW135489   0.199   3.402  11.446 -0.4154  2.1923 -0.2327
 7951SOL    HW235490   0.269   3.470  11.335 -1.1583  0.0387 -0.9475
 7952SOL     OW35491   4.687   2.712   1.606  0.4310  0.1514  0.0003
 7952SOL    HW135492   4.716   2.653   1.675  0.1516  0.8252  0.6946
 7952SOL    HW235493   0.032   2.734   1.562 -0.7398  2.6396 -0.9802
 7953SOL     OW35494   0.943   1.116   0.911  0.1889  0.1821  0.3248
 7953SOL    HW135495   0.849   1.135   0.911  0.3051  0.7642 -0.7306
 7953SOL    HW235496   0.961   1.147   1.000  0.9340 -1.7655  0.8575
 7954SOL     OW35497   1.011   0.347   2.274  0.1662 -0.3961 -0.3452
 7954SOL    HW135498   1.073   0.303   2.332  0.7410  0.2992 -0.4299
 7954SOL    HW235499   1.050   0.430   2.247  2.0805 -1.5806 -1.3016
 7955SOL     OW35500   0.487   1.959   0.944  0.1429 -0.5717 -0.0118
 7955SOL    HW135501   0.563   1.902   0.935 -0.7227 -1.7794  0.3383
 7955SOL    HW235502   0.445   1.922   1.022 -1.0733  1.9192  0.5473
 7956SOL     OW35503   3.330   0.535   8.809 -0.2274 -0.1070 -0.6431
 7956SOL    HW135504   3.410   0.588   8.813  0.9086 -1.8841  0.4498
 7956SOL    HW235505   3.367   0.451   8.837  1.0334  0.4962 -0.4719
 7957SOL     OW35506   0.405   2.739   2.153 -0.1601 -0.3474  0.7032
 7957SOL    HW135507   0.483   2.720   2.101 -1.1580  1.3318 -1.4066
 7957SOL    HW235508   0.389   2.657   2.200 -1.2938 -0.8335 -0.5221
 7958SOL     OW35509   3.274   0.953  12.876 -0.2822  0.0827  0.0680
 7958SOL    HW135510   3.296   1.010  12.950 -1.0147 -1.2505  1.3106
 7958SOL    HW235511   3.230   1.017  12.820 -2.5412  0.5343  2.3822
 7959SOL     OW35512   2.705   0.311   4.738 -0.2782  0.1666 -0.0147
 7959SOL    HW135513   2.658   0.394   4.729  0.2412  0.3971 -0.5930
 7959SOL    HW235514   2.784   0.343   4.783 -0.0909 -0.2251 -0.0624
 7960SOL     OW35515   1.050   4.089   9.594 -0.0018  0.3399 -0.3158
 7960SOL    HW135516   1.094   4.064   9.512  2.7379  1.2844  0.8800
 7960SOL    HW235517   1.016   4.175   9.571  1.8830  0.9212 -0.9749
 7961SOL     OW35518   1.361   4.704   1.026 -0.1311  0.6968  0.5614
 7961SOL    HW135519   1.413   4.698   0.946  0.6886  0.4481  1.1113
 7961SOL    HW235520   1.394   4.629   1.075  0.1688 -1.0533 -2.3755
 7962SOL     OW35521   2.181   2.165   6.007  0.2403  0.2807 -0.2981
 7962SOL    HW135522   2.113   2.199   6.065 -1.5869  1.3348 -3.0457
 7962SOL    HW235523   2.222   2.095   6.057 -0.9282 -0.5232 -0.4672
 7963SOL     OW35524   3.491   2.754   8.366 -0.1920 -0.8211  0.4416
 7963SOL    HW135525   3.492   2.667   8.327  0.3341 -1.8080  2.6719
 7963SOL    HW235526   3.438   2.730   8.442 -0.3116 -1.3998  0.1723
 7964SOL     OW35527   3.532   3.414   3.209  0.5981 -0.1948 -0.2916
 7964SOL    HW135528   3.588   3.491   3.211  0.0228  0.2313 -0.7282
 7964SOL    HW235529   3.533   3.398   3.303  1.2849  1.6169  0.0112
 7965SOL     OW35530   4.069   0.951   3.223 -0.5584  0.3171  0.2205
 7965SOL    HW135531   4.098   0.884   3.162 -0.3260  0.2434  0.4119
 7965SOL    HW235532   4.108   0.913   3.302 -2.3612  0.1088  0.9978
 7966SOL     OW35533   2.375   3.118   6.000 -0.6608  0.3181 -0.5524
 7966SOL    HW135534   2.359   3.109   5.906  0.4473  0.4167 -0.7458
 7966SOL    HW235535   2.469   3.135   5.997 -0.4570 -1.1357 -2.1588
 7967SOL     OW35536   3.016   1.273  10.100  0.0550  0.0808  0.6063
 7967SOL    HW135537   3.099   1.226  10.097 -1.0982 -1.8625 -1.0717
 7967SOL    HW235538   2.956   1.198  10.104 -0.6470  0.6692  1.1245
 7968SOL     OW35539   1.801   3.825   4.506  0.7704  0.5389 -0.0098
 7968SOL    HW135540   1.808   3.919   4.519 -1.1126  0.5302  1.0654
 7968SOL    HW235541   1.714   3.798   4.536  1.2956 -1.2662 -0.1086
 7969SOL     OW35542   1.486   2.727  16.583 -0.5967  0.4901  0.2358
 7969SOL    HW135543   1.546   2.659  16.613 -0.3595  0.6361  0.0913
 7969SOL    HW235544   1.409   2.705  16.635  0.8697  0.6054  2.4459
 7970SOL     OW35545   1.692   2.148   0.659 -0.0938  0.3019 -0.2241
 7970SOL    HW135546   1.718   2.236   0.634 -0.6759  0.4134 -0.4421
 7970SOL    HW235547   1.743   2.097   0.596 -0.8074  0.2850 -0.7868
 7971SOL     OW35548   0.271   4.109   5.391  0.6891  0.4869  0.0628
 7971SOL    HW135549   0.308   4.197   5.395 -0.8108  1.0873  0.7126
 7971SOL    HW235550   0.319   4.070   5.318  0.1918 -0.2353  0.1190
 7972SOL     OW35551   1.108   0.148   4.765  0.1326 -0.0800  0.0465
 7972SOL    HW135552   1.040   0.110   4.710 -1.9276  0.3104  2.3079
 7972SOL    HW235553   1.192   0.132   4.723 -0.2849  0.2404 -0.9153
 7973SOL     OW35554   2.145   0.984   7.849  0.6011 -0.0601  0.3866
 7973SOL    HW135555   2.095   0.932   7.787  0.2606  1.6416 -0.7631
 7973SOL    HW235556   2.096   1.065   7.837 -1.6897 -1.5541 -0.2713
 7974SOL     OW35557   1.839   3.194  13.260 -0.3107  0.1677 -0.1286
 7974SOL    HW135558   1.840   3.149  13.345  0.4915  2.0681  0.8553
 7974SOL    HW235559   1.781   3.265  13.287 -2.7976 -0.8371 -2.8053
 7975SOL     OW35560   4.436   2.561  10.259  0.3560  0.3164  0.2115
 7975SOL    HW135561   4.383   2.501  10.311 -0.5387  2.2613  1.5554
 7975SOL    HW235562   4.423   2.647  10.300 -3.3994 -0.1039 -0.0636
 7976SOL     OW35563   1.501   0.986   9.839 -0.1916  0.3006 -0.3805
 7976SOL    HW135564   1.474   1.019   9.925 -0.3191  0.3171 -0.4271
 7976SOL    HW235565   1.541   1.062   9.797 -0.5915  0.6569 -0.1149
 7977SOL     OW35566   3.188   2.575   3.927  0.0480 -0.0348 -0.4119
 7977SOL    HW135567   3.205   2.601   4.018  1.5710  0.9184 -0.9606
 7977SOL    HW235568   3.126   2.505   3.945  0.7804 -0.3193  1.0780
 7978SOL     OW35569   3.782   4.188   4.913  0.6585  0.1755 -0.5416
 7978SOL    HW135570   3.825   4.212   4.995  1.2790 -3.7767  0.2794
 7978SOL    HW235571   3.757   4.097   4.929 -2.5839  0.8555 -1.6238
 7979SOL     OW35572   1.812   0.640   4.811 -0.3156  0.6064  0.1362
 7979SOL    HW135573   1.859   0.631   4.893 -1.1595  1.1610  0.6779
 7979SOL    HW235574   1.875   0.697   4.766 -0.8223  1.0554 -0.0138
 7980SOL     OW35575   4.306   3.253   1.618 -0.3026 -0.3446 -0.5674
 7980SOL    HW135576   4.322   3.187   1.685 -1.4671 -0.0149  0.0297
 7980SOL    HW235577   4.265   3.321   1.671 -1.3570 -0.8892 -0.6807
 7981SOL     OW35578   1.865   4.240   5.935  0.1419  0.0615  0.0745
 7981SOL    HW135579   1.872   4.249   5.840 -0.3982  1.3051  0.1519
 7981SOL    HW235580   1.777   4.275   5.946 -0.5943 -0.6427 -3.4208
 7982SOL     OW35581   0.598   2.703   7.785 -0.3182  0.3034  0.1889
 7982SOL    HW135582   0.598   2.612   7.756 -1.4560  0.0413  1.0427
 7982SOL    HW235583   0.649   2.750   7.719 -0.5002  0.8838  0.4600
 7983SOL     OW35584   1.819   4.671   4.007  0.5627  0.5303  0.0286
 7983SOL    HW135585   1.744   4.728   4.024 -0.6694 -0.8866 -0.5689
 7983SOL    HW235586   1.821   4.671   3.911  1.3421  0.0421  0.0447
 7984SOL     OW35587   0.593   1.922  17.442  0.5590  0.2525 -0.1673
 7984SOL    HW135588   0.600   1.829  17.417 -2.3261  0.5142 -1.8546
 7984SOL    HW235589   0.506   1.942  17.410  1.4149 -1.3707 -3.5560
 7985SOL     OW35590   4.506   2.903   5.563  0.5156  0.0153  0.4211
 7985SOL    HW135591   4.552   2.892   5.645 -0.0502  0.4495  0.7975
 7985SOL    HW235592   4.564   2.871   5.494 -1.2847 -0.9769 -0.6641
 7986SOL     OW35593   0.567   0.544   8.917 -0.2247  0.3901  0.2813
 7986SOL    HW135594   0.558   0.529   9.011 -0.6825  1.3668  0.3933
 7986SOL    HW235595   0.661   0.540   8.901 -0.4249 -1.6605 -0.4503
 7987SOL     OW35596   3.827   0.374   3.004 -0.6184  0.3094  0.1398
 7987SOL    HW135597   3.781   0.395   2.922 -0.7002  0.6272  0.2684
 7987SOL    HW235598   3.807   0.454   3.053  1.3667  1.0461 -0.2481
 7988SOL     OW35599   3.211   1.561   2.423  0.0241  0.5526 -0.3591
 7988SOL    HW135600   3.157   1.639   2.408  0.4186  0.4068 -2.5950
 7988SOL    HW235601   3.179   1.521   2.503  2.2094 -0.1511  0.1768
 7989SOL     OW35602   4.200   2.047  16.134  0.5994 -0.3570 -0.1161
 7989SOL    HW135603   4.268   2.100  16.092  1.5913 -2.4425 -1.1778
 7989SOL    HW235604   4.184   2.114  16.200 -1.9206 -0.9966 -0.0889
 7990SOL     OW35605   1.366   3.532  13.312 -0.2282  0.6436 -0.0263
 7990SOL    HW135606   1.345   3.548  13.404  0.8218 -2.3668  0.7150
 7990SOL    HW235607   1.369   3.620  13.274  0.1445  1.3853  1.7388
 7991SOL     OW35608   3.825   3.195  15.378  0.2559  0.2933  0.7070
 7991SOL    HW135609   3.835   3.264  15.312 -1.4001 -0.9056 -0.7827
 7991SOL    HW235610   3.798   3.252  15.450  0.9662  2.7016 -0.9330
 7992SOL     OW35611   0.235   2.911   3.201  0.0013 -0.4369  0.0418
 7992SOL    HW135612   0.148   2.942   3.225  0.7578  1.1718  0.6635
 7992SOL    HW235613   0.267   2.908   3.292 -2.2083 -0.9512  0.7924
 7993SOL     OW35614   0.578   2.361   0.575 -0.0103 -0.3861 -0.1875
 7993SOL    HW135615   0.535   2.306   0.641 -0.3237 -0.9969 -0.8922
 7993SOL    HW235616   0.500   2.392   0.529  0.5346 -0.5822 -1.2370
 7994SOL     OW35617   4.467   4.549  11.915 -0.2320  0.0181  0.1353
 7994SOL    HW135618   4.471   4.585  11.826 -0.0100 -2.1949 -0.7449
 7994SOL    HW235619   4.461   4.454  11.905 -2.7580  0.1605  0.3883
 7995SOL     OW35620   3.076   1.429   4.698 -0.5484  0.0155  0.4083
 7995SOL    HW135621   3.165   1.415   4.665 -0.0237 -1.4921  2.4526
 7995SOL    HW235622   3.080   1.398   4.789 -0.1683 -0.7365  0.1332
 7996SOL     OW35623   3.096   0.643   7.450 -0.4767  0.5638  0.0086
 7996SOL    HW135624   3.057   0.726   7.422 -1.3713 -0.2656 -1.2148
 7996SOL    HW235625   3.025   0.585   7.424  0.3745 -0.0547 -0.9595
 7997SOL     OW35626   3.610   1.185  13.051 -0.6147  0.0214 -0.1829
 7997SOL    HW135627   3.525   1.143  13.064 -0.9416  0.7657  0.0667
 7997SOL    HW235628   3.601   1.280  13.058 -0.9863  0.1449 -2.4006
 7998SOL     OW35629   4.008   2.149   0.164 -0.6560 -0.1021 -0.0732
 7998SOL    HW135630   3.962   2.065   0.164  0.2397 -0.6002 -3.6947
 7998SOL    HW235631   4.007   2.160   0.259  0.0867 -2.1083  0.1615
 7999SOL     OW35632   4.045   2.077  17.074  0.1392 -0.2059 -0.2778
 7999SOL    HW135633   4.070   2.122  16.994  0.6713  0.3213  0.1761
 7999SOL    HW235634   4.038   2.157  17.126  1.9783  0.6382 -1.3472
 8000SOL     OW35635   2.659   2.297   5.768  0.3364  0.8218 -0.1189
 8000SOL    HW135636   2.735   2.311   5.825 -1.7068  0.8007  2.5915
 8000SOL    HW235637   2.592   2.311   5.835  0.7360  0.5688  0.3355
 8001SOL     OW35638   2.785   1.055  10.946  0.3015 -0.0901 -0.3069
 8001SOL    HW135639   2.782   1.075  10.853  0.0563 -1.5418 -0.6015
 8001SOL    HW235640   2.709   1.107  10.972  0.6003 -0.3766  1.1533
 8002SOL     OW35641   3.691   0.076  14.987  0.1220 -0.0112 -0.5076
 8002SOL    HW135642   3.719   0.156  14.943 -0.0465  1.1355  1.4646
 8002SOL    HW235643   3.613   0.041  14.943  0.9054 -1.0757 -1.0306
 8003SOL     OW35644   1.231   4.128   2.496 -0.2655 -0.0128  0.2011
 8003SOL    HW135645   1.139   4.130   2.469 -0.1607 -0.7086 -0.2169
 8003SOL    HW235646   1.248   4.215   2.531  0.8768 -0.6074  1.0913
 8004SOL     OW35647   4.133   4.410   7.614  0.8511  0.1034 -0.1072
 8004SOL    HW135648   4.077   4.387   7.688 -0.2125  2.6739 -0.1272
 8004SOL    HW235649   4.154   4.322   7.583  2.4639  0.8872 -1.2218
 8005SOL     OW35650   1.317   0.665  11.834  0.2015  0.1778 -0.4310
 8005SOL    HW135651   1.405   0.632  11.850  0.6249  1.2450 -0.5344
 8005SOL    HW235652   1.274   0.582  11.814 -3.0844  2.0516 -1.2013
 8006SOL     OW35653   3.702   2.451   9.293 -0.0465 -0.4882 -0.1898
 8006SOL    HW135654   3.706   2.547   9.287  0.2430 -0.4660  0.4056
 8006SOL    HW235655   3.774   2.429   9.235  0.0277 -1.3755  0.2520
 8007SOL     OW35656   1.790   1.557   5.856  0.0268 -0.7419  0.0762
 8007SOL    HW135657   1.712   1.512   5.889  0.3560 -0.3235  1.4284
 8007SOL    HW235658   1.775   1.558   5.762  3.3068 -1.2500 -0.4604
 8008SOL     OW35659   2.875   2.787   7.102  0.3464 -0.3968 -0.0864
 8008SOL    HW135660   2.911   2.842   7.172 -0.0164  1.6776 -1.5279
 8008SOL    HW235661   2.888   2.847   7.029  3.8571 -0.7470  0.2836
 8009SOL     OW35662   0.743   0.414   6.507  0.2457  0.1565 -0.3444
 8009SOL    HW135663   0.661   0.425   6.555 -2.4558 -1.7074 -4.5167
 8009SOL    HW235664   0.782   0.347   6.562  1.2174 -1.2050 -2.7129
 8010SOL     OW35665   0.432   0.048   2.011 -0.4764  0.5361 -0.1213
 8010SOL    HW135666   0.349   0.077   1.973 -0.3325  0.2374 -0.6646
 8010SOL    HW235667   0.454   0.121   2.068  0.8965  2.1617 -2.7481
 8011SOL     OW35668   1.213   0.312  14.981 -0.5917  0.5503 -0.2137
 8011SOL    HW135669   1.197   0.324  14.888  0.6361  1.3460 -0.3251
 8011SOL    HW235670   1.201   0.217  14.983 -0.0802  0.4536 -2.8156
 8012SOL     OW35671   0.538   2.073   3.646  0.2441  0.0645 -0.2831
 8012SOL    HW135672   0.528   1.984   3.681 -2.2899 -0.1048 -1.4172
 8012SOL    HW235673   0.619   2.076   3.595  0.9840 -0.8978  0.8437
 8013SOL     OW35674   1.778   0.722  17.343  0.1366 -0.1919 -0.4443
 8013SOL    HW135675   1.731   0.772  17.276  0.6371 -0.9681 -1.3730
 8013SOL    HW235676   1.851   0.784  17.351  0.1939 -0.3080 -0.0455
 8014SOL     OW35677   4.166   0.195   2.771 -0.2489  0.0749  0.2681
 8014SOL    HW135678   4.160   0.180   2.866  0.1754 -1.2634  0.0893
 8014SOL    HW235679   4.189   0.108   2.737  0.0045  0.6769 -1.0961
 8015SOL     OW35680   3.166   3.094   5.782  0.0713 -0.0428 -0.5057
 8015SOL    HW135681   3.171   3.186   5.758  1.4456 -0.2952 -1.1770
 8015SOL    HW235682   3.071   3.093   5.796  0.2252  1.2111  0.6621
 8016SOL     OW35683   3.721   0.489  17.062 -0.4668 -0.2671  0.1969
 8016SOL    HW135684   3.640   0.464  17.107 -0.4124  0.5407  0.7500
 8016SOL    HW235685   3.704   0.449  16.977 -0.4666 -3.3974  1.6559
 8017SOL     OW35686   0.541   2.025   9.005 -0.4908 -0.1514  0.4468
 8017SOL    HW135687   0.484   1.948   9.007  2.3377 -2.2828 -1.2744
 8017SOL    HW235688   0.584   2.013   9.090 -0.5518 -1.3692  0.3136
 8018SOL     OW35689   1.542   2.088   3.413 -0.4243 -0.3105  0.0899
 8018SOL    HW135690   1.591   2.068   3.333  1.8486 -0.7245  1.5655
 8018SOL    HW235691   1.557   2.005   3.458 -1.3591 -0.5457 -0.0425
 8019SOL     OW35692   3.291   2.906   2.641 -0.6002 -0.5674  0.1497
 8019SOL    HW135693   3.325   2.880   2.555 -1.0206  0.0900 -0.2115
 8019SOL    HW235694   3.222   2.839   2.650 -1.9264  1.2174  3.3536
 8020SOL     OW35695   2.216   3.984   6.838  0.4207  0.2906 -0.1904
 8020SOL    HW135696   2.226   4.011   6.747  0.7918  0.8445  0.0168
 8020SOL    HW235697   2.175   3.898   6.826 -0.9046  0.8908  0.1186
 8021SOL     OW35698   3.607   4.392   4.451  0.7106 -0.0873 -0.4620
 8021SOL    HW135699   3.677   4.451   4.424  0.3333 -0.2817 -1.8668
 8021SOL    HW235700   3.631   4.376   4.543 -1.0573  0.9393  0.1771
 8022SOL     OW35701   0.842   3.773   1.480  0.0190  0.0677 -0.1467
 8022SOL    HW135702   0.780   3.747   1.548 -1.7724  0.1105 -1.7871
 8022SOL    HW235703   0.925   3.741   1.516  0.4972  0.1479 -1.1722
 8023SOL     OW35704   1.413   1.405   3.112 -0.1043 -0.6197  0.2137
 8023SOL    HW135705   1.338   1.418   3.054  1.9401 -0.1927 -2.3336
 8023SOL    HW235706   1.399   1.480   3.170 -1.1689 -0.2949 -0.4653
 8024SOL     OW35707   4.273   4.628   7.585  0.7327  0.1670 -0.4317
 8024SOL    HW135708   4.228   4.543   7.582  1.4810 -0.1766 -2.1577
 8024SOL    HW235709   4.237   4.659   7.668  0.9196  1.5429 -0.8723
 8025SOL     OW35710   3.251   1.020  17.177 -0.2095 -0.1249  0.7225
 8025SOL    HW135711   3.269   1.018  17.082  1.7498  1.9549  1.0443
 8025SOL    HW235712   3.171   0.968  17.169  1.9379 -3.4484  0.4828
 8026SOL     OW35713   3.011   0.716   3.337 -0.2575 -0.4011 -0.3269
 8026SOL    HW135714   2.990   0.641   3.281  0.1914 -0.3741 -0.5316
 8026SOL    HW235715   2.925   0.729   3.376  0.6780  1.2161  1.1833
 8027SOL     OW35716   0.660   0.833   1.687  0.0533  0.2565 -0.0975
 8027SOL    HW135717   0.607   0.912   1.699 -1.3833 -1.3673  4.2276
 8027SOL    HW235718   0.623   0.808   1.602  0.6032 -1.6292  0.2108
 8028SOL     OW35719   3.098   2.523   8.987  0.3776 -0.2155  0.5751
 8028SOL    HW135720   3.084   2.598   8.930 -0.2032 -1.2604 -0.6661
 8028SOL    HW235721   3.127   2.450   8.932  0.8133  0.0438  0.4630
 8029SOL     OW35722   0.617   2.750  11.640  0.9234 -0.5759 -0.2821
 8029SOL    HW135723   0.595   2.837  11.604  2.0104  1.1822  3.2941
 8029SOL    HW235724   0.648   2.708  11.560 -0.0032 -0.0681 -0.9091
 8030SOL     OW35725   3.783   4.470   4.062  0.0518 -0.3585 -0.7096
 8030SOL    HW135726   3.733   4.547   4.087  1.7904 -0.1957  2.2562
 8030SOL    HW235727   3.869   4.500   4.092 -0.4835  0.1034  0.3798
 8031SOL     OW35728   1.821   1.107  16.212 -0.8572 -0.0988  0.0819
 8031SOL    HW135729   1.866   1.093  16.296 -0.2318 -0.6159 -0.3312
 8031SOL    HW235730   1.762   1.178  16.237  0.8633  0.5713  2.2327
 8032SOL     OW35731   1.054   1.561  16.487 -0.1562 -0.3174 -1.0035
 8032SOL    HW135732   0.988   1.629  16.501  3.0104  2.5551  0.0797
 8032SOL    HW235733   1.136   1.612  16.493  1.1904 -2.7837  1.4838
 8033SOL     OW35734   1.354   1.634   4.590 -0.1443 -0.1322  0.4120
 8033SOL    HW135735   1.305   1.704   4.634 -1.8747 -0.4960 -0.9038
 8033SOL    HW235736   1.440   1.669   4.612 -0.5704  0.1935  1.5698
 8034SOL     OW35737   3.547   2.856   9.262 -0.3928 -0.3448  0.3880
 8034SOL    HW135738   3.571   2.949   9.264 -0.3405 -0.3956  2.5636
 8034SOL    HW235739   3.635   2.818   9.263 -0.7221 -1.0735  2.0962
 8035SOL     OW35740   2.607   1.828   2.736 -0.0488  0.5023  0.4490
 8035SOL    HW135741   2.696   1.807   2.709  0.5578  2.0530  1.2493
 8035SOL    HW235742   2.620   1.915   2.774  0.6537  1.0166 -0.9704
 8036SOL     OW35743   4.390   4.318   5.475  0.5216 -0.5044 -0.1215
 8036SOL    HW135744   4.335   4.271   5.538  0.3823  1.4608  1.2156
 8036SOL    HW235745   4.415   4.244   5.419  2.7884 -0.3023  0.6191
 8037SOL     OW35746   0.324   1.795   0.746  0.1461 -0.1714  0.0550
 8037SOL    HW135747   0.405   1.836   0.777  0.0573 -0.2222  0.3498
 8037SOL    HW235748   0.261   1.824   0.813  0.0542 -1.1421  0.3875
 8038SOL     OW35749   2.248   2.302   4.528  0.8697 -0.5633  0.2550
 8038SOL    HW135750   2.155   2.290   4.510  1.0227  0.3381 -1.1223
 8038SOL    HW235751   2.270   2.227   4.584 -1.0403 -2.2493 -1.2680
 8039SOL     OW35752   3.749   2.567   8.161  0.1078 -0.1592  0.1812
 8039SOL    HW135753   3.690   2.595   8.091 -1.5845 -0.5289  1.4520
 8039SOL    HW235754   3.792   2.643   8.200 -0.1765 -0.5258  1.2010
 8040SOL     OW35755   0.971   4.215   2.869  0.0879 -0.2530  0.1502
 8040SOL    HW135756   0.965   4.272   2.945  2.9682  2.2594 -1.4701
 8040SOL    HW235757   0.900   4.252   2.817  0.2822 -1.2480 -0.8434
 8041SOL     OW35758   3.872   1.267   8.772 -0.1140  0.1689 -0.4837
 8041SOL    HW135759   3.797   1.326   8.762 -1.6536 -1.8837 -0.9401
 8041SOL    HW235760   3.856   1.191   8.716  0.3594  0.0777 -0.4964
 8042SOL     OW35761   1.542   0.056   7.872 -0.1996 -0.3377 -0.1881
 8042SOL    HW135762   1.488   0.127   7.837 -0.7713  0.1031  1.5831
 8042SOL    HW235763   1.621   0.106   7.896 -0.7313 -0.8915  2.6905
 8043SOL     OW35764   1.653   3.541  10.359  0.2852  0.4711  0.4845
 8043SOL    HW135765   1.716   3.557  10.430  2.1636 -0.5714 -0.9263
 8043SOL    HW235766   1.725   3.552  10.296  0.0546 -0.4528  0.0707
 8044SOL     OW35767   1.121   4.225   3.495  0.1294 -0.4161  0.0336
 8044SOL    HW135768   1.099   4.240   3.403  0.9691 -2.2520 -0.4582
 8044SOL    HW235769   1.063   4.153   3.520  1.0135 -1.4045 -0.7655
 8045SOL     OW35770   0.229   0.968   6.137 -0.0158 -0.5413  0.0410
 8045SOL    HW135771   0.317   1.004   6.148  0.1729 -0.4043 -1.9344
 8045SOL    HW235772   0.189   1.045   6.098 -0.8881 -1.0579 -0.0800
 8046SOL     OW35773   0.812   0.006   5.077 -0.7340  0.0003 -0.0933
 8046SOL    HW135774   0.900   0.009   5.040  0.6027 -2.2052  2.9648
 8046SOL    HW235775   0.824   0.041   5.165  1.2341  0.4644 -0.5524
 8047SOL     OW35776   2.145   3.770   4.013  0.4094  0.0607  0.1620
 8047SOL    HW135777   2.149   3.865   4.005 -1.7055  0.3490  2.8436
 8047SOL    HW235778   2.160   3.745   3.921  1.8234 -1.2285  0.7449
 8048SOL     OW35779   0.330   2.719   6.821  0.3873  0.0390 -0.4258
 8048SOL    HW135780   0.376   2.803   6.828  1.0859 -0.2621 -1.4199
 8048SOL    HW235781   0.269   2.745   6.752  0.1986  0.3608 -0.1383
 8049SOL     OW35782   3.070   4.690   0.096  0.3519  0.1995 -0.0983
 8049SOL    HW135783   3.052   4.616   0.154 -2.5772  0.2952 -0.8591
 8049SOL    HW235784   3.006   4.680   0.025  1.1207 -0.0120 -0.7612
 8050SOL     OW35785   4.658   2.246  12.124 -0.1220 -0.3632  0.6030
 8050SOL    HW135786   4.580   2.247  12.179 -0.0312  1.7333  0.7137
 8050SOL    HW235787   4.629   2.267  12.035 -1.2845  1.2222  1.3554
 8051SOL     OW35788   1.995   3.685   1.989 -0.9296  0.2117  0.6461
 8051SOL    HW135789   1.963   3.770   2.020  0.3834  1.2205 -0.7398
 8051SOL    HW235790   1.990   3.688   1.893  2.1960  0.2747  0.4975
 8052SOL     OW35791   1.323   0.204   6.153  0.0272 -0.0785  0.1264
 8052SOL    HW135792   1.304   0.133   6.091 -3.7356  0.0893  1.0632
 8052SOL    HW235793   1.392   0.251   6.106 -0.8662  2.7827  1.6673
 8053SOL     OW35794   2.983   2.428   2.171  0.1091 -0.5976  0.0676
 8053SOL    HW135795   2.958   2.360   2.109 -0.2605 -1.2548  0.9397
 8053SOL    HW235796   3.077   2.423   2.154 -0.1406 -0.9789 -1.1945
 8054SOL     OW35797   1.522   2.873   6.923  0.0595 -0.2016  0.7591
 8054SOL    HW135798   1.603   2.902   6.881  0.4233 -1.1666  0.8124
 8054SOL    HW235799   1.473   2.955   6.912  1.1737  0.2427 -1.0037
 8055SOL     OW35800   0.383   4.224  13.616 -0.1963 -0.2719  0.3916
 8055SOL    HW135801   0.469   4.215  13.574 -0.4949  2.3094 -0.7377
 8055SOL    HW235802   0.353   4.140  13.582 -1.3602 -0.3527  1.6336
 8056SOL     OW35803   4.109   4.540   0.823  0.7796 -0.1678  0.3580
 8056SOL    HW135804   4.128   4.494   0.742 -1.1670 -0.0584 -0.1714
 8056SOL    HW235805   4.042   4.486   0.865 -0.3017  0.2197 -0.8474
 8057SOL     OW35806   1.266   1.899   8.494 -0.4633  0.2194  0.0942
 8057SOL    HW135807   1.335   1.925   8.433 -0.1098  0.1063  0.4455
 8057SOL    HW235808   1.276   1.806   8.474 -0.4147  0.2880 -0.1996
 8058SOL     OW35809   2.638   3.981  13.686  0.4324 -0.2645 -0.1545
 8058SOL    HW135810   2.639   4.038  13.608  1.0540 -1.4621 -1.0222
 8058SOL    HW235811   2.721   4.019  13.715 -1.3462  1.1676  2.9886
 8059SOL     OW35812   4.207   4.185  14.010 -0.0389  0.1235  0.2024
 8059SOL    HW135813   4.185   4.097  13.981  1.2245 -0.3723  0.8042
 8059SOL    HW235814   4.240   4.232  13.933  1.2810  0.9291  1.2586
 8060SOL     OW35815   3.118   3.546   7.616  0.1324  0.1077  0.3267
 8060SOL    HW135816   3.033   3.510   7.592 -1.2151  2.1107  2.0131
 8060SOL    HW235817   3.096   3.630   7.658 -0.5438  0.4020 -0.6339
 8061SOL     OW35818   2.219   0.804   3.731  0.5274 -0.1734  0.3598
 8061SOL    HW135819   2.165   0.725   3.728 -1.2198  1.0245 -0.2552
 8061SOL    HW235820   2.307   0.776   3.707  0.4243 -0.2893  0.1115
 8062SOL     OW35821   4.571   2.643   4.777 -0.0647  0.4524  0.2109
 8062SOL    HW135822   4.645   2.586   4.798 -1.8471 -1.8335  0.2223
 8062SOL    HW235823   4.505   2.586   4.816 -0.2608 -0.2014 -1.0776
 8063SOL     OW35824   1.662   4.155   7.592  0.1694  0.4051 -0.3418
 8063SOL    HW135825   1.639   4.068   7.625 -0.2321  1.2242  1.4985
 8063SOL    HW235826   1.626   4.145   7.503  1.7596 -1.8522 -0.7626
 8064SOL     OW35827   4.289   2.694   5.600  0.3050  0.6282 -0.6175
 8064SOL    HW135828   4.341   2.772   5.580 -1.3846  0.9534 -3.7046
 8064SOL    HW235829   4.252   2.724   5.683 -1.5473  0.9783 -1.5801
 8065SOL     OW35830   0.995   2.967   2.379  0.2385 -0.0085 -0.7487
 8065SOL    HW135831   0.942   3.018   2.440  1.4066  0.9002 -0.4862
 8065SOL    HW235832   0.961   3.004   2.298  0.5703  1.6166 -0.1479
 8066SOL     OW35833   3.273   1.012   5.205 -0.1154  0.3879 -0.0865
 8066SOL    HW135834   3.218   1.057   5.269  1.0713  2.5146 -0.5402
 8066SOL    HW235835   3.358   1.057   5.206  0.3375 -0.5349  1.8607
 8067SOL     OW35836   0.958   0.166   7.347  0.5912 -0.1333 -0.3158
 8067SOL    HW135837   0.960   0.193   7.438 -2.3019 -1.8578  0.2786
 8067SOL    HW235838   1.032   0.107   7.338  2.2725  1.6176  2.2416
 8068SOL     OW35839   0.775   1.842   0.869 -0.8086 -0.2195 -0.1674
 8068SOL    HW135840   0.824   1.844   0.951  1.6933  0.2276 -1.6677
 8068SOL    HW235841   0.798   1.755   0.838  1.3964 -0.1814  1.3303
 8069SOL     OW35842   0.722   3.277   1.900  0.0088 -0.0683  0.1841
 8069SOL    HW135843   0.796   3.227   1.864 -0.3845 -0.4637 -0.0752
 8069SOL    HW235844   0.760   3.364   1.892 -1.1742  0.3053 -1.4301
 8070SOL     OW35845   3.764   1.894   5.209 -0.2351 -0.1744 -0.3699
 8070SOL    HW135846   3.789   1.804   5.230  2.3652  0.4184 -1.0460
 8070SOL    HW235847   3.815   1.897   5.129  1.0613  0.4533  0.4901
 8071SOL     OW35848   4.136   4.215  16.772 -0.1692  0.5231 -0.3700
 8071SOL    HW135849   4.079   4.289  16.751 -0.8635  0.0141 -0.2765
 8071SOL    HW235850   4.077   4.141  16.782 -0.4553  0.4351 -2.7457
 8072SOL     OW35851   2.899   3.495   8.780 -0.9584  1.0020  0.1999
 8072SOL    HW135852   2.885   3.561   8.712  0.3186  0.2301 -0.8052
 8072SOL    HW235853   2.992   3.503   8.796 -0.5115  0.0325 -1.8854
 8073SOL     OW35854   1.740   2.128  11.306  0.3864 -0.8596 -0.3082
 8073SOL    HW135855   1.655   2.172  11.312  0.1157 -0.9639 -3.2887
 8073SOL    HW235856   1.784   2.160  11.227 -0.4182 -1.5431 -1.0287
 8074SOL     OW35857   1.872   2.393   8.825  0.1219  0.5150 -0.2476
 8074SOL    HW135858   1.843   2.303   8.839 -1.8221  1.5033  2.2829
 8074SOL    HW235859   1.919   2.393   8.742 -1.7409  1.0344 -1.2917
 8075SOL     OW35860   3.191   2.587   1.980 -0.5520 -0.3980  0.4344
 8075SOL    HW135861   3.252   2.660   1.963  0.0176 -0.4438  2.1835
 8075SOL    HW235862   3.239   2.512   2.015 -0.4053 -0.6173 -0.2546
 8076SOL     OW35863   3.838   1.656  17.645 -0.1503 -0.4730  0.6321
 8076SOL    HW135864   3.892   1.731  17.670 -0.1185 -0.0593 -0.6720
 8076SOL    HW235865   3.784   1.690  17.574 -0.3380 -1.0617  0.4867
 8077SOL     OW35866   1.968   4.195   8.677  0.3526 -0.3998  0.1438
 8077SOL    HW135867   1.876   4.222   8.665  0.2287 -1.4676 -1.2513
 8077SOL    HW235868   2.019   4.269   8.645 -0.1692 -0.1113 -0.0257
 8078SOL     OW35869   4.212   0.341   7.073  0.4111 -0.4387 -0.0927
 8078SOL    HW135870   4.129   0.302   7.045  0.2121  2.1229 -3.0069
 8078SOL    HW235871   4.218   0.325   7.168  2.2957  2.1023  0.2266
 8079SOL     OW35872   4.030   2.633   2.079  0.1543 -0.0513  0.9884
 8079SOL    HW135873   4.103   2.690   2.103  0.4878  0.0323 -0.2203
 8079SOL    HW235874   4.069   2.595   2.000 -3.1435 -3.2891  0.9267
 8080SOL     OW35875   3.850   3.827  13.645  0.2198  0.1448 -0.0010
 8080SOL    HW135876   3.803   3.901  13.606  0.1925 -0.3827 -0.9749
 8080SOL    HW235877   3.917   3.815  13.579  0.4112 -0.0532  0.2317
 8081SOL     OW35878   4.632   2.336   6.408 -0.0612  0.8074 -0.0201
 8081SOL    HW135879   4.689   2.363   6.479  1.2244 -1.0984 -0.3358
 8081SOL    HW235880   4.651   2.405   6.344 -0.9996 -2.2034 -3.5387
 8082SOL     OW35881   0.218   3.458   1.157 -0.1033 -0.2304  0.2285
 8082SOL    HW135882   0.137   3.498   1.188  0.9647 -0.3205  3.1364
 8082SOL    HW235883   0.247   3.519   1.090 -1.3678 -0.3370 -0.4173
 8083SOL     OW35884   1.594   2.863  11.496 -0.5230 -0.3121 -0.0813
 8083SOL    HW135885   1.514   2.863  11.549 -1.5390 -1.3600 -1.6016
 8083SOL    HW235886   1.584   2.928  11.426  1.0606 -0.7134 -0.6737
 8084SOL     OW35887   3.505   0.030   5.185 -0.1299  0.3903 -0.6780
 8084SOL    HW135888   3.512   0.069   5.272  0.1310  2.2183 -1.5185
 8084SOL    HW235889   3.585   4.719   5.171 -0.1327  0.3813 -0.6622
 8085SOL     OW35890   3.722   1.931  15.789  0.2363 -0.3804 -0.3119
 8085SOL    HW135891   3.733   1.946  15.696 -0.3476  1.5085 -0.0782
 8085SOL    HW235892   3.792   1.871  15.815 -0.0580  0.5383  2.6812
 8086SOL     OW35893   3.874   1.209   3.620 -0.1602  0.3350  0.7021
 8086SOL    HW135894   3.844   1.215   3.530  0.3869  2.6354  0.6863
 8086SOL    HW235895   3.967   1.189   3.610 -0.8074 -1.3600 -1.8691
 8087SOL     OW35896   2.062   3.883   3.503 -0.4396  0.0289 -0.0125
 8087SOL    HW135897   2.031   3.835   3.427  0.3352  2.5599 -1.9289
 8087SOL    HW235898   2.095   3.964   3.463  2.7475 -1.1416  0.2539
 8088SOL     OW35899   2.301   4.193  10.303  0.0001 -0.8028 -0.2734
 8088SOL    HW135900   2.391   4.226  10.304  0.3972 -1.9647  1.1723
 8088SOL    HW235901   2.282   4.163  10.392 -0.4838  1.6203  0.4476
 8089SOL     OW35902   4.709   0.159  16.020 -0.5555 -0.2104  0.5588
 8089SOL    HW135903   0.021   0.205  16.088 -0.0046 -1.1017  0.7531
 8089SOL    HW235904   4.657   0.097  16.072  1.3159 -0.9316  1.6041
 8090SOL     OW35905   3.353   0.215   2.869 -0.8912  0.2504 -0.3671
 8090SOL    HW135906   3.365   0.291   2.812  0.1307 -0.9773 -1.7854
 8090SOL    HW235907   3.367   0.262   2.952 -1.2446  1.0151 -0.7383
 8091SOL     OW35908   1.315   0.249  16.171 -0.6150 -0.0568  0.1820
 8091SOL    HW135909   1.290   0.157  16.182 -0.3271 -0.5798 -3.5560
 8091SOL    HW235910   1.257   0.278  16.101 -1.0919 -2.7750 -0.5676
 8092SOL     OW35911   0.391   3.614  10.821 -0.0021 -0.0724  0.0985
 8092SOL    HW135912   0.358   3.678  10.884  2.1497  0.4196  0.7207
 8092SOL    HW235913   0.337   3.625  10.742 -1.1369 -0.9308  0.7662
 8093SOL     OW35914   4.422   0.702   6.890 -0.5165  0.3318  0.0317
 8093SOL    HW135915   4.374   0.683   6.970 -0.9875 -0.2078 -0.3807
 8093SOL    HW235916   4.506   0.662   6.912 -0.6105 -1.5468 -3.0648
 8094SOL     OW35917   1.545   1.087   9.028  0.3189  0.3984 -0.1661
 8094SOL    HW135918   1.459   1.096   9.069  2.0788 -0.7841  3.8521
 8094SOL    HW235919   1.504   1.096   8.942 -2.7252  0.5883  1.3083
 8095SOL     OW35920   2.564   3.620   4.852 -0.4479  0.6844  0.1227
 8095SOL    HW135921   2.472   3.601   4.835 -0.4754  1.2206 -0.3192
 8095SOL    HW235922   2.559   3.715   4.849 -1.3987  0.6372  0.2635
 8096SOL     OW35923   3.932   1.365  12.752  0.5359  0.3146  0.2841
 8096SOL    HW135924   3.846   1.404  12.770  0.0362  0.0705 -1.5058
 8096SOL    HW235925   3.986   1.434  12.790 -1.5646 -0.0612  3.9337
 8097SOL     OW35926   0.789   0.239  14.596 -0.2781  0.9501 -0.2963
 8097SOL    HW135927   0.716   0.300  14.602 -1.5996 -0.6087 -0.5568
 8097SOL    HW235928   0.741   0.160  14.571  2.3835 -0.5132 -0.7593
 8098SOL     OW35929   3.488   4.607   3.102  0.3622 -0.3097  0.2984
 8098SOL    HW135930   3.443   4.666   3.162 -0.7453 -2.2831  1.4000
 8098SOL    HW235931   3.474   4.523   3.146  2.6115  0.1967  1.9898
 8099SOL     OW35932   0.034   1.581   4.831  0.0034 -0.1842 -0.1604
 8099SOL    HW135933   0.117   1.592   4.878  0.5318 -1.4430 -0.7987
 8099SOL    HW235934   4.724   1.524   4.891 -2.1147  0.0662 -1.6388
 8100SOL     OW35935   1.246   0.327  11.108  0.1947 -0.2631 -0.3223
 8100SOL    HW135936   1.273   0.297  11.194 -3.0270  1.4009  1.2644
 8100SOL    HW235937   1.328   0.349  11.063 -0.2832  1.9846 -0.0683
 8101SOL     OW35938   2.753   0.754   4.949 -0.0271  0.3337 -0.1952
 8101SOL    HW135939   2.754   0.680   5.010  0.6137  0.5851  0.0935
 8101SOL    HW235940   2.846   0.775   4.957  0.0998  0.0041 -0.7921
 8102SOL     OW35941   3.440   3.234   4.045  0.2934 -0.4504  0.2811
 8102SOL    HW135942   3.382   3.309   4.029  2.5738  1.7604  2.4409
 8102SOL    HW235943   3.435   3.180   3.966 -0.7901 -0.7560  0.5573
 8103SOL     OW35944   2.971   3.678  13.723  0.8565 -0.3877 -0.2469
 8103SOL    HW135945   2.986   3.747  13.659 -0.8022  0.1357 -0.0643
 8103SOL    HW235946   2.927   3.733  13.788  0.4032 -0.6557 -0.3296
 8104SOL     OW35947   4.586   3.416   8.266 -0.1417 -0.8761  0.3403
 8104SOL    HW135948   4.597   3.326   8.236  1.4101 -0.9931  1.2594
 8104SOL    HW235949   4.582   3.472   8.189  0.7429 -2.1749 -0.6371
 8105SOL     OW35950   1.321   3.644  11.998 -0.2291  0.1126  0.5110
 8105SOL    HW135951   1.338   3.582  12.068  0.2922  0.1161  0.3919
 8105SOL    HW235952   1.414   3.664  11.983 -0.9571  3.4978  0.5537
 8106SOL     OW35953   4.417   4.122   7.600 -0.3766 -0.4904  0.3374
 8106SOL    HW135954   4.419   4.112   7.505  2.3622 -1.5330  0.5118
 8106SOL    HW235955   4.474   4.198   7.612 -0.8938 -0.0863  0.2343
 8107SOL     OW35956   2.599   1.633  10.180  0.9120  0.0783  0.3383
 8107SOL    HW135957   2.603   1.550  10.227 -0.3292 -1.6122 -2.5471
 8107SOL    HW235958   2.692   1.655  10.180  1.0856 -0.6667 -0.1093
 8108SOL     OW35959   2.008   3.690  14.305  0.2204 -0.4362 -0.0520
 8108SOL    HW135960   2.085   3.741  14.279  0.3445 -1.1738 -1.1328
 8108SOL    HW235961   2.052   3.613  14.342  0.9093  0.4745  1.0326
 8109SOL     OW35962   4.148   0.467  14.644 -0.2104 -0.0809 -0.4240
 8109SOL    HW135963   4.212   0.488  14.576 -2.1464  2.2325 -1.5150
 8109SOL    HW235964   4.161   0.541  14.703  0.6540  2.0411 -3.2402
 8110SOL     OW35965   4.473   2.686   0.198 -0.0388  0.2557 -0.1555
 8110SOL    HW135966   4.549   2.632   0.219  0.8315  1.8970  1.0053
 8110SOL    HW235967   4.434   2.626   0.136 -0.6196  2.2827 -1.7665
 8111SOL     OW35968   4.734   0.574  16.151 -0.1512  0.1445 -0.3279
 8111SOL    HW135969   0.007   0.651  16.207 -4.1967  1.5538 -1.4753
 8111SOL    HW235970   4.705   0.498  16.201 -2.2366  1.8329  1.0124
 8112SOL     OW35971   3.791   3.943   3.650  0.1512  0.0437  0.6639
 8112SOL    HW135972   3.816   3.974   3.737  0.6658 -2.5610  1.4208
 8112SOL    HW235973   3.772   4.021   3.596 -1.3795 -0.5919  0.2617
 8113SOL     OW35974   2.949   1.942  14.927 -0.3194  0.2448 -0.2863
 8113SOL    HW135975   3.021   1.879  14.924 -2.2640 -1.8450 -2.3620
 8113SOL    HW235976   2.876   1.882  14.918  1.9620 -2.5748 -0.2147
 8114SOL     OW35977   2.599   1.734   3.371 -0.3425  0.6141 -0.3490
 8114SOL    HW135978   2.664   1.740   3.441 -2.8353 -1.1950  2.1328
 8114SOL    HW235979   2.522   1.716   3.425  0.6564  0.1465  0.9386
 8115SOL     OW35980   0.969   1.809   5.093 -0.1292  0.2111  0.2742
 8115SOL    HW135981   1.061   1.787   5.109 -0.3669  0.7913  2.4565
 8115SOL    HW235982   0.925   1.724   5.089  0.9509 -0.2918 -1.2000
 8116SOL     OW35983   4.113   0.910  11.021 -0.7602 -0.6517  0.6923
 8116SOL    HW135984   4.198   0.913  11.064 -0.8130  1.0116  0.7042
 8116SOL    HW235985   4.123   0.973  10.948  2.6672 -1.9792  0.0243
 8117SOL     OW35986   2.441   4.152   6.307  0.2078 -0.1291 -0.3331
 8117SOL    HW135987   2.502   4.161   6.234  1.1893  1.5415  0.7001
 8117SOL    HW235988   2.367   4.200   6.268  1.3401  2.2104  0.4263
 8118SOL     OW35989   0.727   4.679   7.739  0.4059  0.4027  0.5426
 8118SOL    HW135990   0.816   4.672   7.775 -0.4097 -0.1919  2.4816
 8118SOL    HW235991   0.684   0.016   7.779 -0.5655 -0.9227  2.0252
 8119SOL     OW35992   1.244   3.438   9.010  0.3453 -0.1699 -0.3283
 8119SOL    HW135993   1.182   3.509   9.027  1.5703  0.6979  0.4819
 8119SOL    HW235994   1.177   3.386   8.964 -0.3143  1.2437 -0.9467
 8120SOL     OW35995   3.906   2.802  11.851 -0.0992  0.2896  0.1020
 8120SOL    HW135996   3.918   2.758  11.767  0.0592  0.0327  0.2578
 8120SOL    HW235997   3.876   2.729  11.906  0.0158 -0.3201 -0.6441
 8121SOL     OW35998   3.532   0.726   0.519 -0.4666 -0.2575  0.1333
 8121SOL    HW135999   3.608   0.703   0.572 -1.1062 -0.0349  1.1598
 8121SOL    HW236000   3.574   0.777   0.450 -0.2353  0.4114  0.7625
 8122SOL     OW36001   2.182   0.926   6.360  0.3995  0.4899 -0.0644
 8122SOL    HW136002   2.215   0.979   6.433 -1.8512  0.2443  1.1105
 8122SOL    HW236003   2.123   0.981   6.308 -0.0749 -1.9659 -2.1054
 8123SOL     OW36004   1.702   0.356   1.862 -0.4169  0.3335 -0.4076
 8123SOL    HW136005   1.611   0.385   1.852 -1.2083 -0.9593  2.8849
 8123SOL    HW236006   1.733   0.382   1.775 -1.8927 -0.9364 -1.3191
 8124SOL     OW36007   0.699   2.134   9.938  0.6341  0.0433 -0.1634
 8124SOL    HW136008   0.727   2.183   9.860 -1.3370  1.2863 -0.1007
 8124SOL    HW236009   0.703   2.045   9.903  1.3773  0.6531 -1.6525
 8125SOL     OW36010   3.870   1.073   6.868  0.4879  0.2708 -0.3103
 8125SOL    HW136011   3.911   1.095   6.785 -2.1811  0.8450 -1.4866
 8125SOL    HW236012   3.889   1.154   6.915 -1.7081 -0.8345  2.4917
 8126SOL     OW36013   3.816   2.562  11.944  0.2565  0.0488  0.4072
 8126SOL    HW136014   3.771   2.516  12.014 -0.8079 -0.9402 -0.9177
 8126SOL    HW236015   3.780   2.526  11.863 -1.2844 -0.1626  1.1845
 8127SOL     OW36016   3.443   4.277   1.793 -0.0410 -0.7771 -0.2019
 8127SOL    HW136017   3.440   4.209   1.861  0.4492  0.5525  1.1574
 8127SOL    HW236018   3.422   4.348   1.854  0.0869 -1.5807  0.7675
 8128SOL     OW36019   1.247   2.356   9.224 -0.0167  0.0145 -0.1985
 8128SOL    HW136020   1.158   2.332   9.199 -0.1868  1.1929 -0.7468
 8128SOL    HW236021   1.252   2.318   9.312 -0.3659 -1.5156 -0.8366
 8129SOL     OW36022   1.132   3.676   3.826 -0.0016 -0.2151 -0.0138
 8129SOL    HW136023   1.220   3.641   3.839 -0.0732  0.2265  1.6623
 8129SOL    HW236024   1.093   3.640   3.905  1.7151  0.6810  1.2558
 8130SOL     OW36025   0.422   3.186  15.782  0.4863  0.6896  0.2992
 8130SOL    HW136026   0.467   3.136  15.851  1.1981 -1.2475 -1.5550
 8130SOL    HW236027   0.440   3.274  15.814  0.8046  1.5520 -2.2571
 8131SOL     OW36028   2.429   3.938   4.349 -0.0100 -0.4268  0.2337
 8131SOL    HW136029   2.386   3.856   4.322 -1.6813  0.7756 -0.7787
 8131SOL    HW236030   2.458   3.924   4.439 -0.3415  1.1265  0.5842
 8132SOL     OW36031   1.100   4.605   5.092  0.8850  0.1137  0.4922
 8132SOL    HW136032   1.164   4.676   5.090  0.1934  0.7790  2.3928
 8132SOL    HW236033   1.133   4.554   5.166 -0.5309 -0.6832  0.5757
 8133SOL     OW36034   3.287   0.336   4.656  1.0215 -0.6496 -0.0100
 8133SOL    HW136035   3.227   0.374   4.593  0.2892 -1.1219  0.3950
 8133SOL    HW236036   3.221   0.288   4.708  1.7565  1.0524  2.5017
 8134SOL     OW36037   4.391   1.511   7.742  0.0390 -0.2581  0.9703
 8134SOL    HW136038   4.306   1.474   7.717 -0.3371  1.4920 -0.2840
 8134SOL    HW236039   4.427   1.456   7.812  0.4101 -0.2788  0.7605
 8135SOL     OW36040   3.332   0.717   7.574  0.1621 -0.0044 -0.1149
 8135SOL    HW136041   3.260   0.665   7.538 -0.2377  1.0522 -0.8518
 8135SOL    HW236042   3.362   0.743   7.487 -2.4468  1.7276 -0.5266
 8136SOL     OW36043   3.830   0.557   0.368  0.1885  0.4946  0.3856
 8136SOL    HW136044   3.738   0.550   0.344 -0.8489  1.7855  4.0499
 8136SOL    HW236045   3.868   0.602   0.292  2.6808 -0.7915  0.8467
 8137SOL     OW36046   2.422   1.674  12.170  0.2501  0.2681 -0.0662
 8137SOL    HW136047   2.378   1.597  12.206  2.6046 -0.4789  1.1850
 8137SOL    HW236048   2.516   1.660  12.182  0.6260  1.2211 -1.8627
 8138SOL     OW36049   2.882   2.459  15.395 -0.6325  0.0577  0.3080
 8138SOL    HW136050   2.794   2.436  15.363  0.5889 -2.9818 -0.8801
 8138SOL    HW236051   2.872   2.546  15.433  2.4430  0.3930  0.3345
 8139SOL     OW36052   3.683   4.049   7.647 -0.0261 -0.0385 -0.2700
 8139SOL    HW136053   3.665   4.129   7.697  1.2000  0.0125  0.0939
 8139SOL    HW236054   3.736   4.092   7.579  1.8164 -0.7556  0.7036
 8140SOL     OW36055   3.001   2.907   6.445 -0.4490  0.7145  0.2713
 8140SOL    HW136056   3.023   2.863   6.363  0.8901 -2.5345  2.3867
 8140SOL    HW236057   2.997   2.998   6.416 -0.2832  1.9993  4.2920
 8141SOL     OW36058   1.087   0.329  14.691  0.7918 -0.8213  0.0563
 8141SOL    HW136059   1.086   0.275  14.612  1.6065 -0.7585 -0.0010
 8141SOL    HW236060   1.012   0.294  14.739 -1.4786  2.3221 -1.1972
 8142SOL     OW36061   1.218   4.299   1.629  0.2553  0.6383 -0.7776
 8142SOL    HW136062   1.313   4.291   1.625  0.1449 -0.5597 -1.0554
 8142SOL    HW236063   1.206   4.343   1.545 -0.6482 -0.3475 -1.1654
 8143SOL     OW36064   0.577   0.785   6.982 -0.0583  0.6821  0.0819
 8143SOL    HW136065   0.577   0.832   6.898 -1.7760 -0.4934 -0.5869
 8143SOL    HW236066   0.497   0.811   7.029 -0.8896  0.7479 -1.3404
 8144SOL     OW36067   2.898   3.505   4.028 -0.4171 -0.2288 -0.7644
 8144SOL    HW136068   2.829   3.566   4.003 -1.6384 -0.8692  1.0770
 8144SOL    HW236069   2.868   3.474   4.113 -0.4185 -0.0362 -0.6941
 8145SOL     OW36070   1.741   1.624   5.198  0.4919 -0.1452 -0.0358
 8145SOL    HW136071   1.746   1.684   5.123  2.3342  0.0666  0.2539
 8145SOL    HW236072   1.701   1.681   5.263  1.7562 -1.6417  2.0369
 8146SOL     OW36073   0.310   3.448   2.527 -0.3466 -0.3099 -0.4405
 8146SOL    HW136074   0.361   3.422   2.603 -0.2045 -0.4752 -0.5938
 8146SOL    HW236075   0.339   3.377   2.471  1.8457 -0.2488  0.6474
 8147SOL     OW36076   3.211   3.587  15.235  1.1944 -0.2534  0.4587
 8147SOL    HW136077   3.171   3.673  15.225  2.0083  0.0558 -0.1057
 8147SOL    HW236078   3.135   3.548  15.280  1.5102 -2.3418 -0.7919
 8148SOL     OW36079   2.499   1.868   0.674 -0.4526  0.5177  0.2124
 8148SOL    HW136080   2.406   1.847   0.667 -0.5605  1.7664 -2.3793
 8148SOL    HW236081   2.491   1.963   0.663  0.9456  0.4500 -1.4061
 8149SOL     OW36082   3.142   4.639   2.025 -0.7256  0.9060  0.2330
 8149SOL    HW136083   3.104   4.636   2.113  0.9965  0.1363  0.9491
 8149SOL    HW236084   3.182   4.725   2.032 -0.9732  1.0504 -0.1296
 8150SOL     OW36085   4.132   4.040  17.179 -0.4185  0.1439  0.0281
 8150SOL    HW136086   4.132   4.114  17.241  3.3843  0.0315  0.1830
 8150SOL    HW236087   4.037   4.034  17.168 -0.1652 -0.3508 -1.7275
 8151SOL     OW36088   0.631   2.617   3.007  0.2191 -0.4341  0.6581
 8151SOL    HW136089   0.652   2.623   2.914 -0.3149 -1.2398  0.4863
 8151SOL    HW236090   0.641   2.708   3.037 -1.3357 -0.4557  1.2426
 8152SOL     OW36091   3.565   1.488   6.995 -0.0403  0.2086 -0.1847
 8152SOL    HW136092   3.584   1.576   6.962 -1.0599  0.2783 -0.5818
 8152SOL    HW236093   3.606   1.436   6.925 -1.0857 -0.1927 -0.4918
 8153SOL     OW36094   2.236   3.373   4.198  0.0300  0.6063  0.1210
 8153SOL    HW136095   2.151   3.394   4.158 -0.5792  0.2066  1.2215
 8153SOL    HW236096   2.215   3.309   4.266  1.0421 -0.1353 -0.2663
 8154SOL     OW36097   2.918   2.699   3.528 -0.2243  0.2243  0.0715
 8154SOL    HW136098   2.850   2.662   3.584  0.6261 -1.9165 -0.2725
 8154SOL    HW236099   3.001   2.683   3.574 -0.1234 -1.5024 -0.6941
 8155SOL     OW36100   0.667   1.568   9.570  0.5635  0.7076 -0.0274
 8155SOL    HW136101   0.658   1.505   9.641 -2.1080  0.0732 -0.9395
 8155SOL    HW236102   0.761   1.585   9.580  0.6180  1.4649 -1.7067
 8156SOL     OW36103   0.411   0.934   9.008  0.5031 -0.2152  0.2215
 8156SOL    HW136104   0.352   1.009   9.000 -1.1010 -1.4325  0.5642
 8156SOL    HW236105   0.378   0.881   8.936  2.4688  1.1812 -1.7031
 8157SOL     OW36106   1.245   1.507   2.301  0.0816 -0.5723 -0.0106
 8157SOL    HW136107   1.320   1.566   2.299  0.4841 -1.0797 -0.1026
 8157SOL    HW236108   1.274   1.444   2.367 -2.1864 -2.0384 -0.3847
 8158SOL     OW36109   1.225   3.434   7.956 -0.4249  0.1534 -0.2026
 8158SOL    HW136110   1.270   3.384   8.024 -0.5317  1.1806  0.6266
 8158SOL    HW236111   1.288   3.497   7.920  0.0134  0.4194  1.0610
 8159SOL     OW36112   1.864   4.666   1.524  0.2528 -0.4113 -1.0716
 8159SOL    HW136113   1.924   4.637   1.593 -0.0233 -0.3819 -0.8191
 8159SOL    HW236114   1.925   4.669   1.450  2.3986 -2.4561  0.6312
 8160SOL     OW36115   2.673   0.596   0.060 -0.1505 -0.2990  0.2359
 8160SOL    HW136116   2.704   0.683   0.084  1.2647 -0.2998 -1.6268
 8160SOL    HW236117   2.755   0.550   0.047  1.1418  1.3324  2.6382
 8161SOL     OW36118   4.675   1.279   1.278 -0.3828 -0.7246 -0.0003
 8161SOL    HW136119   0.009   1.216   1.279 -0.7783 -1.1776  0.4472
 8161SOL    HW236120   4.707   1.334   1.207 -0.7115 -1.7243 -0.9157
 8162SOL     OW36121   4.045   0.101   9.880  0.0121 -0.1917  0.5304
 8162SOL    HW136122   3.984   0.174   9.895  1.1726  0.9928 -0.4772
 8162SOL    HW236123   4.122   0.120   9.932  0.4848 -2.2107  0.5515
 8163SOL     OW36124   2.303   1.343  15.908  0.3016 -0.0687  0.5876
 8163SOL    HW136125   2.318   1.437  15.898 -0.0150  0.0125  0.8998
 8163SOL    HW236126   2.392   1.308  15.916  0.5775  0.1949 -1.2756
 8164SOL     OW36127   3.344   2.327   4.726  0.9253  0.2579  0.0418
 8164SOL    HW136128   3.303   2.288   4.650 -0.2793 -1.6880  1.6991
 8164SOL    HW236129   3.355   2.417   4.694  0.5718 -0.1398 -1.1901
 8165SOL     OW36130   0.220   0.721   7.319 -0.0083 -0.2920 -0.2286
 8165SOL    HW136131   0.173   0.676   7.248  2.0240 -1.1049 -1.0599
 8165SOL    HW236132   0.282   0.655   7.347  0.4119 -1.4260 -3.7949
 8166SOL     OW36133   3.762   3.712  15.179 -0.1735 -0.2423  0.5156
 8166SOL    HW136134   3.733   3.703  15.270 -2.0874 -0.3045 -0.1007
 8166SOL    HW236135   3.854   3.735  15.188 -0.0323 -0.3946 -0.5396
 8167SOL     OW36136   3.737   1.300   7.105  0.1467  0.7157 -0.1421
 8167SOL    HW136137   3.664   1.362   7.100 -0.8305 -0.3561  0.8318
 8167SOL    HW236138   3.687   1.219   7.101 -1.3671  1.5479  1.4070
 8168SOL     OW36139   4.166   3.405   8.782 -0.0004 -0.0860  0.2311
 8168SOL    HW136140   4.217   3.329   8.757  1.3880  0.9643 -0.0976
 8168SOL    HW236141   4.081   3.372   8.754  0.9207 -1.3748 -0.9919
 8169SOL     OW36142   2.909   2.296   9.416  0.0853 -0.7179 -0.9644
 8169SOL    HW136143   2.858   2.337   9.346  0.2339  1.0872  0.0112
 8169SOL    HW236144   2.866   2.334   9.492  3.2814 -0.4063  0.6803
 8170SOL     OW36145   3.546   4.387   7.527  0.0623 -0.7288 -0.2312
 8170SOL    HW136146   3.535   4.383   7.432  0.3957  0.1215 -0.3098
 8170SOL    HW236147   3.455   4.361   7.543 -1.0375  1.4990 -2.8940
 8171SOL     OW36148   0.814   3.959   2.790 -0.2214 -0.3615 -0.9724
 8171SOL    HW136149   0.837   4.044   2.829 -0.3446  0.1923 -2.1110
 8171SOL    HW236150   0.771   3.998   2.714  1.4242  0.8152 -1.3264
 8172SOL     OW36151   3.139   2.536   6.903  0.2891 -0.3555  0.1155
 8172SOL    HW136152   3.059   2.589   6.905 -1.8667 -3.4770 -2.9019
 8172SOL    HW236153   3.157   2.531   6.997 -1.0321 -0.8130  0.3462
 8173SOL     OW36154   3.640   0.282   2.509  1.0867  0.0209  0.3697
 8173SOL    HW136155   3.571   0.345   2.527  2.5549  1.7383  0.0244
 8173SOL    HW236156   3.638   0.230   2.590  0.8028 -1.5022 -0.6262
 8174SOL     OW36157   0.374   3.413  15.914  0.5279  0.5986 -0.0033
 8174SOL    HW136158   0.372   3.430  16.009  2.3864  0.8650 -0.0171
 8174SOL    HW236159   0.327   3.486  15.874 -1.0931 -1.1904 -1.3448
 8175SOL     OW36160   3.013   2.838   3.162  0.2419  0.3604 -0.0578
 8175SOL    HW136161   3.087   2.805   3.214  1.0205  0.0646 -1.3722
 8175SOL    HW236162   3.020   2.779   3.088  1.3009 -0.1750  0.4707
 8176SOL     OW36163   2.421   4.663   2.734  0.6522 -0.1433  0.0112
 8176SOL    HW136164   2.498   4.617   2.701  1.0212  1.8211 -1.9229
 8176SOL    HW236165   2.380   4.672   2.648  1.1281 -2.7075 -0.4860
 8177SOL     OW36166   4.721   4.220   6.033  0.3169  0.7419  0.5583
 8177SOL    HW136167   4.734   4.135   5.991  0.9602  0.7163  0.8139
 8177SOL    HW236168   0.016   4.279   5.965 -0.1679  0.6590  0.2473
 8178SOL     OW36169   3.653   3.589   6.289 -0.4747  0.4050 -0.4483
 8178SOL    HW136170   3.708   3.634   6.353  0.5818 -0.8140 -0.4815
 8178SOL    HW236171   3.562   3.614   6.298 -0.8923 -1.0400 -0.6549
 8179SOL     OW36172   4.548   1.346   7.918 -0.3049  0.3685 -0.0019
 8179SOL    HW136173   4.507   1.285   7.979 -0.9117  2.1110  1.3583
 8179SOL    HW236174   4.635   1.315   7.894 -0.9785  1.3149 -3.7733
 8180SOL     OW36175   1.545   4.704  17.422  0.3616 -0.0658 -0.2151
 8180SOL    HW136176   1.591   4.624  17.449  1.0744  0.7981  1.1269
 8180SOL    HW236177   1.466   4.694  17.475  1.6887  0.1753  1.7851
 8181SOL     OW36178   0.022   3.396   6.570 -0.4871  0.2853  0.0229
 8181SOL    HW136179   0.110   3.406   6.604 -0.7793 -0.1976  0.9292
 8181SOL    HW236180   0.029   3.470   6.510 -4.2618  0.1393 -0.6414
 8182SOL     OW36181   3.291   3.729   4.649  0.1742 -0.6864  0.1391
 8182SOL    HW136182   3.343   3.796   4.607 -1.2500 -0.2479 -0.9488
 8182SOL    HW236183   3.207   3.773   4.632 -0.3174 -0.5590  2.8196
 8183SOL     OW36184   0.192   0.707   3.496  0.1121 -0.2581 -0.0104
 8183SOL    HW136185   0.142   0.660   3.563  1.3630 -0.2404  0.9376
 8183SOL    HW236186   0.278   0.671   3.519  0.5651  0.6363 -0.2899
 8184SOL     OW36187   2.450   3.280   8.061 -0.2311 -0.2515 -0.0032
 8184SOL    HW136188   2.545   3.294   8.059 -0.5820  2.1536 -0.9603
 8184SOL    HW236189   2.437   3.223   7.985  1.9514 -0.5647 -0.1483
 8185SOL     OW36190   2.417   2.669   3.331 -1.1209  0.2640  0.5019
 8185SOL    HW136191   2.424   2.707   3.419  0.4438 -3.5960  2.0311
 8185SOL    HW236192   2.322   2.672   3.322 -1.1572  0.2714  0.8786
 8186SOL     OW36193   4.489   4.367  17.169  0.0424 -0.5300  0.1849
 8186SOL    HW136194   4.529   4.451  17.150 -0.0685 -0.8078 -1.2605
 8186SOL    HW236195   4.442   4.341  17.090 -0.7707  1.1322  0.1191
 8187SOL     OW36196   3.810   2.880  15.942 -0.2069  0.2193 -0.6383
 8187SOL    HW136197   3.852   2.956  15.982 -1.1923  0.0866  0.6819
 8187SOL    HW236198   3.798   2.900  15.849  0.6559 -0.2522 -0.8532
 8188SOL     OW36199   3.309   2.388  10.732 -0.5035 -0.1692  0.3361
 8188SOL    HW136200   3.326   2.295  10.748 -0.0615 -0.1609 -0.0983
 8188SOL    HW236201   3.255   2.387  10.653 -0.9490  1.7018  0.6032
 8189SOL     OW36202   4.306   4.055  12.297 -0.6210  0.4435 -0.5218
 8189SOL    HW136203   4.345   4.013  12.374  0.2494  0.2567 -1.0625
 8189SOL    HW236204   4.225   4.086  12.338 -1.1436 -1.0124 -0.4675
 8190SOL     OW36205   0.402   1.828   1.166  0.3378  0.0345 -0.2062
 8190SOL    HW136206   0.347   1.752   1.149  0.6984 -0.0958 -0.8007
 8190SOL    HW236207   0.479   1.777   1.190  1.0301  1.0765 -0.2161
 8191SOL     OW36208   2.768   0.128   3.386  0.5220  0.1356  0.3690
 8191SOL    HW136209   2.750   0.050   3.334 -1.8332  0.7746  0.2468
 8191SOL    HW236210   2.723   0.106   3.468  0.8442 -2.0090 -0.0122
 8192SOL     OW36211   0.356   0.732   5.270  0.1063  0.0674  0.4322
 8192SOL    HW136212   0.329   0.819   5.240  3.8325  1.3402  0.8026
 8192SOL    HW236213   0.444   0.711   5.240 -0.4936 -1.2617 -0.4129
 8193SOL     OW36214   3.944   1.597   2.334 -0.1000 -0.3968  0.1402
 8193SOL    HW136215   4.034   1.610   2.307  0.0147  1.6482  1.4757
 8193SOL    HW236216   3.892   1.626   2.258  2.0840  0.9083 -0.8423
 8194SOL     OW36217   4.435   0.137   3.886  0.5081 -0.3985  0.1426
 8194SOL    HW136218   4.398   0.205   3.942 -0.0156 -1.2639  0.8634
 8194SOL    HW236219   4.389   0.160   3.806  1.2893  1.2642  0.1650
 8195SOL     OW36220   0.239   1.640   5.412 -0.2906  0.4472 -0.1924
 8195SOL    HW136221   0.275   1.683   5.490  1.1998  0.1392 -0.7087
 8195SOL    HW236222   0.285   1.694   5.347 -0.8372  1.7589  0.4945
 8196SOL     OW36223   2.032   3.715   6.361 -0.0154 -0.2399  0.2415
 8196SOL    HW136224   2.105   3.660   6.389  1.3866 -0.0506 -2.9799
 8196SOL    HW236225   2.060   3.742   6.274 -2.1528 -0.7996 -0.6340
 8197SOL     OW36226   3.384   3.301  15.174  0.4226  0.0453 -0.6940
 8197SOL    HW136227   3.392   3.396  15.165 -0.3805  0.2926  1.1489
 8197SOL    HW236228   3.426   3.290  15.259  0.9625  4.3695 -0.4315
 8198SOL     OW36229   2.266   3.215   7.112  0.1399  0.2062  0.4243
 8198SOL    HW136230   2.347   3.229   7.063 -1.5459  0.9244 -2.1492
 8198SOL    HW236231   2.306   3.209   7.199  0.7579 -0.6426  0.0820
 8199SOL     OW36232   1.088   3.031   8.498  0.1062 -0.5645  0.0695
 8199SOL    HW136233   1.032   3.060   8.570 -0.3214  1.8043 -1.2134
 8199SOL    HW236234   1.018   2.987   8.450  1.6652 -0.4524 -2.3077
 8200SOL     OW36235   0.547   2.434   5.014  0.2548 -0.5040  0.6992
 8200SOL    HW136236   0.547   2.470   5.102 -0.1485  1.0081  0.0759
 8200SOL    HW236237   0.508   2.512   4.973  2.9317 -0.0080 -0.8736
 8201SOL     OW36238   0.660   2.892   4.132  0.0363 -0.1934 -0.5575
 8201SOL    HW136239   0.601   2.886   4.207  0.9398  0.8303  0.2424
 8201SOL    HW236240   0.718   2.960   4.168  0.6702 -0.6774 -0.6719
 8202SOL     OW36241   3.357   2.078  10.530  0.3958  0.2477  0.3919
 8202SOL    HW136242   3.393   2.040  10.610  2.3309  2.4327  0.5509
 8202SOL    HW236243   3.439   2.094  10.483 -0.1447  0.6815 -0.4072
 8203SOL     OW36244   0.752   2.047   0.704  0.0277  0.4988  0.1463
 8203SOL    HW136245   0.770   1.999   0.785 -1.9987  0.6153  0.6703
 8203SOL    HW236246   0.830   2.034   0.650  0.4920  0.1942  0.9031
 8204SOL     OW36247   2.611   4.140   6.099  0.1531  0.1643 -0.3932
 8204SOL    HW136248   2.601   4.187   6.016  0.5772  1.8784  0.5103
 8204SOL    HW236249   2.705   4.136   6.116 -0.1590 -1.4575  0.9565
 8205SOL     OW36250   4.078   2.450  14.135 -0.6854 -0.3100  0.7981
 8205SOL    HW136251   4.118   2.492  14.059 -2.4053  0.6418  0.4380
 8205SOL    HW236252   4.006   2.511  14.145  0.6785  1.5086 -0.5330
 8206SOL     OW36253   1.597   1.919   4.062  0.4183 -0.4055 -0.0680
 8206SOL    HW136254   1.666   1.854   4.046  0.1785 -0.6745 -0.0019
 8206SOL    HW236255   1.644   1.995   4.026 -0.3983 -0.1341 -0.5682
 8207SOL     OW36256   3.518   0.213  12.334  0.5657  0.3899 -0.3561
 8207SOL    HW136257   3.508   0.238  12.426 -1.8772 -0.7765 -0.3222
 8207SOL    HW236258   3.437   0.238  12.290  0.5241 -0.4453 -0.7557
 8208SOL     OW36259   4.422   1.081  12.115 -0.2080  0.0632 -0.6287
 8208SOL    HW136260   4.341   1.090  12.166  0.0034  1.9422 -0.6028
 8208SOL    HW236261   4.380   1.082  12.029 -1.3952  2.1808 -0.0304
 8209SOL     OW36262   0.858   3.786   0.111 -0.0962  0.1202 -0.3298
 8209SOL    HW136263   0.816   3.841   0.045 -2.3271 -1.5642 -0.3418
 8209SOL    HW236264   0.852   3.842   0.189  1.2014 -0.2727  0.0463
 8210SOL     OW36265   1.578   3.991   5.509 -0.3879  0.1058 -0.2105
 8210SOL    HW136266   1.490   3.974   5.475 -0.0621  0.6543 -1.3227
 8210SOL    HW236267   1.641   3.969   5.440  0.9277 -0.4766  1.1751
 8211SOL     OW36268   3.588   3.460   8.587 -0.6591  0.1906 -0.3062
 8211SOL    HW136269   3.618   3.390   8.646 -1.9728  0.0432  0.1869
 8211SOL    HW236270   3.510   3.434   8.538  0.4040 -2.3907 -0.6379
 8212SOL     OW36271   2.287   3.793   2.064 -0.6280  0.3705 -0.1349
 8212SOL    HW136272   2.308   3.701   2.054 -1.9597 -0.1741  2.0702
 8212SOL    HW236273   2.202   3.794   2.109  0.2916  2.1739  1.5605
 8213SOL     OW36274   0.546   3.142   3.587 -0.5071  0.2463  0.4095
 8213SOL    HW136275   0.610   3.075   3.613 -0.2693  0.2460 -0.1621
 8213SOL    HW236276   0.497   3.136   3.669  0.0545 -3.1011  0.5310
 8214SOL     OW36277   2.419   2.818   5.258 -0.1927  0.0601  0.2330
 8214SOL    HW136278   2.411   2.748   5.193  1.1696 -0.1993  0.3607
 8214SOL    HW236279   2.514   2.822   5.261 -0.1959 -0.0323  0.4995
 8215SOL     OW36280   3.274   0.021   3.613 -0.0907 -0.4499  0.1596
 8215SOL    HW136281   3.293   4.669   3.588  1.7270 -0.2312  0.6921
 8215SOL    HW236282   3.362   0.060   3.617  0.8057 -2.8127  3.3407
 8216SOL     OW36283   3.728   1.063   3.796 -0.2411 -0.0657  0.0129
 8216SOL    HW136284   3.783   1.082   3.720 -1.8610  0.8957 -0.8984
 8216SOL    HW236285   3.796   1.054   3.863 -0.1673  0.6366  0.0331
 8217SOL     OW36286   2.409   2.074   7.158  0.6632  0.6190  0.2345
 8217SOL    HW136287   2.485   2.052   7.211 -0.5009  1.1559  2.1444
 8217SOL    HW236288   2.448   2.144   7.105 -1.3883  0.3913 -1.5705
 8218SOL     OW36289   3.727   0.813   6.752 -0.1347 -0.0131  0.1479
 8218SOL    HW136290   3.752   0.871   6.680  0.4177 -1.0033 -0.4453
 8218SOL    HW236291   3.647   0.787   6.706 -0.2206 -1.3371  1.0688
 8219SOL     OW36292   3.022   0.635   8.393  0.5114 -0.1886 -0.7982
 8219SOL    HW136293   3.070   0.597   8.467 -0.9689 -3.5819 -1.5375
 8219SOL    HW236294   2.973   0.705   8.436  0.8531 -0.3084 -0.2107
 8220SOL     OW36295   0.978   2.888   7.411 -0.7345 -0.1513  0.1399
 8220SOL    HW136296   1.068   2.855   7.421 -0.1264  1.3134 -0.4184
 8220SOL    HW236297   1.015   2.968   7.372  1.9054 -0.5997  1.6834
 8221SOL     OW36298   3.794   0.200  11.445  0.2287 -0.1071  0.4433
 8221SOL    HW136299   3.758   0.286  11.425  0.9655 -0.0300 -0.5282
 8221SOL    HW236300   3.888   0.210  11.428  0.6794 -1.9733  1.8467
 8222SOL     OW36301   4.468   3.359  16.498  0.2336  0.4778 -0.3996
 8222SOL    HW136302   4.398   3.422  16.513 -2.0172 -1.9628 -0.7643
 8222SOL    HW236303   4.421   3.281  16.526 -1.1371  0.5800 -2.4469
 8223SOL     OW36304   2.199   0.563   2.838 -0.6197  0.5924  0.1279
 8223SOL    HW136305   2.272   0.565   2.900  0.9108 -3.7144 -1.5232
 8223SOL    HW236306   2.142   0.500   2.882 -0.8072  0.6883  0.0232
 8224SOL     OW36307   2.344   2.873   5.766  0.5157 -0.1816 -0.5748
 8224SOL    HW136308   2.329   2.964   5.741  2.3982  0.1089 -0.6988
 8224SOL    HW236309   2.439   2.863   5.754  0.6770  1.5660 -0.8322
 8225SOL     OW36310   1.006   1.588   4.448  0.6692 -0.2510  0.1673
 8225SOL    HW136311   0.983   1.542   4.368  1.2049 -0.0265 -0.1161
 8225SOL    HW236312   1.027   1.515   4.505 -3.1425 -2.9017 -1.7946
 8226SOL     OW36313   1.731   3.329   7.600  0.4818  0.0053  0.3936
 8226SOL    HW136314   1.812   3.332   7.650  0.9565  4.7290 -0.6854
 8226SOL    HW236315   1.669   3.291   7.662 -3.4514  1.1107 -2.7895
 8227SOL     OW36316   0.981   2.244   1.853  0.0085  0.1522  0.2697
 8227SOL    HW136317   0.974   2.178   1.784 -0.3233  1.0132 -0.5182
 8227SOL    HW236318   0.921   2.216   1.922  0.1531 -1.4378 -0.2558
 8228SOL     OW36319   3.882   4.671  12.442 -0.0102 -0.3529  0.3755
 8228SOL    HW136320   3.958   4.625  12.479 -2.1259 -3.0199  1.3357
 8228SOL    HW236321   3.920   0.021  12.436  0.5620 -0.4745  2.2833
 8229SOL     OW36322   2.622   3.166  16.386 -0.4317  0.0752  0.3831
 8229SOL    HW136323   2.657   3.096  16.440  0.5118 -0.4065 -0.8369
 8229SOL    HW236324   2.677   3.152  16.308 -2.7471  0.5063 -1.3190
 8230SOL     OW36325   1.736   2.499  11.093  0.4038 -0.7691 -0.0625
 8230SOL    HW136326   1.655   2.550  11.095  1.4041  0.8378 -0.5150
 8230SOL    HW236327   1.785   2.537  11.166 -1.0248  1.4098 -0.2404
 8231SOL     OW36328   3.616   3.324   6.219  0.1119  0.3468 -0.0562
 8231SOL    HW136329   3.645   3.412   6.242 -2.3601  1.6171 -1.8338
 8231SOL    HW236330   3.522   3.336   6.228  0.1323 -0.2741  1.0629
 8232SOL     OW36331   1.493   4.281   6.514 -0.0132 -0.0150  0.1789
 8232SOL    HW136332   1.583   4.292   6.547  0.5440  3.6683 -2.5337
 8232SOL    HW236333   1.451   4.361   6.546  0.6130 -0.2148  1.4919
 8233SOL     OW36334   4.666   4.484   2.902 -0.3840 -0.3270 -0.9265
 8233SOL    HW136335   0.000   4.520   2.953 -0.6029 -0.5572 -0.4534
 8233SOL    HW236336   4.598   4.461   2.966  0.7373 -3.0885 -0.7243
 8234SOL     OW36337   1.601   3.889   7.655  0.4416 -0.0205 -0.2868
 8234SOL    HW136338   1.666   3.851   7.714  0.5463  1.3482  0.4942
 8234SOL    HW236339   1.575   3.809   7.609 -0.8241  0.5569 -0.5957
 8235SOL     OW36340   1.120   0.580  15.694  0.2420  0.0504  0.8193
 8235SOL    HW136341   1.132   0.518  15.623  1.4812  0.4517  0.6692
 8235SOL    HW236342   1.191   0.642  15.673  0.5552 -0.7507 -0.4653
 8236SOL     OW36343   0.043   0.198   2.132 -0.0864 -0.2208  0.1705
 8236SOL    HW136344   4.698   0.165   2.097 -0.3127 -0.6691  1.1138
 8236SOL    HW236345   0.100   0.168   2.061 -0.6484 -0.6204 -0.1175
 8237SOL     OW36346   3.427   1.082   6.146 -0.1576 -0.1700  0.1261
 8237SOL    HW136347   3.481   1.140   6.200 -0.8689  0.0547  0.5890
 8237SOL    HW236348   3.354   1.084   6.207 -0.6856 -0.0363 -0.5082
 8238SOL     OW36349   2.770   2.157   2.638  0.7123  0.3453 -0.0638
 8238SOL    HW136350   2.858   2.149   2.674  0.7587 -0.2578 -0.3143
 8238SOL    HW236351   2.777   2.099   2.563 -1.8807  0.5744 -0.4771
 8239SOL     OW36352   0.089   0.513   8.007 -0.3846  0.5382  0.1888
 8239SOL    HW136353   0.032   0.588   8.025  0.7411  0.7162  2.9758
 8239SOL    HW236354   0.098   0.471   8.092 -0.7788 -1.7153 -0.8729
 8240SOL     OW36355   0.628   2.033  13.465 -0.2285  0.1007  0.0149
 8240SOL    HW136356   0.654   2.024  13.557  0.1768  1.5981  0.0557
 8240SOL    HW236357   0.533   2.026  13.470 -0.1538 -0.6472  0.4378
 8241SOL     OW36358   0.878   4.187   1.124  0.3040 -0.0719  0.8161
 8241SOL    HW136359   0.796   4.170   1.078  0.6472 -0.9550  0.5194
 8241SOL    HW236360   0.904   4.095   1.133  0.9417 -0.0674 -0.9540
 8242SOL     OW36361   4.653   3.704   7.550  0.0248  0.0249  0.7375
 8242SOL    HW136362   4.653   3.638   7.619  0.3724 -0.1165  0.6008
 8242SOL    HW236363   4.639   3.646   7.476  0.7278  0.2053  0.4624
 8243SOL     OW36364   2.898   4.555  15.554  0.4333 -0.3893  0.9427
 8243SOL    HW136365   2.910   4.498  15.631  0.3828  1.0824  2.0328
 8243SOL    HW236366   2.955   4.518  15.487  2.1053  0.4787  1.8647
 8244SOL     OW36367   0.312   0.393   4.419 -0.0112 -0.2154 -0.0118
 8244SOL    HW136368   0.231   0.365   4.461  0.9600  0.0996  2.0924
 8244SOL    HW236369   0.332   0.468   4.476  0.4125 -0.8286  0.6494
 8245SOL     OW36370   2.082   3.146   8.749 -0.7644  0.2881 -0.6002
 8245SOL    HW136371   2.057   3.233   8.780  0.1682  0.2854  0.1537
 8245SOL    HW236372   2.149   3.175   8.687 -1.0545  0.5373 -0.8007
 8246SOL     OW36373   1.887   3.591   3.695  0.1254  0.9822 -0.0829
 8246SOL    HW136374   1.836   3.668   3.668 -1.2538  0.4149  0.8774
 8246SOL    HW236375   1.896   3.550   3.609 -0.0210 -0.7649  0.7220
 8247SOL     OW36376   3.382   3.016   5.416 -0.3873 -0.5290 -0.7182
 8247SOL    HW136377   3.327   2.980   5.346 -0.3149 -1.2760 -0.3993
 8247SOL    HW236378   3.467   3.022   5.371  0.7046  2.6527  1.7962
 8248SOL     OW36379   1.493   1.950   7.718 -0.2081  0.2193 -0.0213
 8248SOL    HW136380   1.473   1.918   7.806  1.7457 -0.9468  0.0033
 8248SOL    HW236381   1.407   1.972   7.681 -0.2392  2.9018  1.6892
 8249SOL     OW36382   1.632   4.187   6.159 -0.0288  0.3926  0.3547
 8249SOL    HW136383   1.622   4.282   6.173  0.2710  0.6254 -0.9677
 8249SOL    HW236384   1.722   4.169   6.185 -1.0841 -2.7157  1.8190
 8250SOL     OW36385   1.099   2.222   3.568 -0.9006  0.2572  0.1989
 8250SOL    HW136386   1.070   2.135   3.543  0.5111 -0.5286  1.2813
 8250SOL    HW236387   1.053   2.230   3.652 -0.6483  0.5383  0.3129
 8251SOL     OW36388   2.781   2.823   3.986 -0.3345 -0.4610 -0.5087
 8251SOL    HW136389   2.807   2.914   3.970  0.0145 -0.6512 -1.0190
 8251SOL    HW236390   2.850   2.805   4.051  0.8034 -3.2406 -2.4700
 8252SOL     OW36391   0.620   3.961   5.477 -0.0421 -0.3753 -0.2217
 8252SOL    HW136392   0.705   3.968   5.433  0.3967  0.4050  0.7531
 8252SOL    HW236393   0.576   4.033   5.431  1.8657  0.2008 -1.1732
 8253SOL     OW36394   2.525   2.740   4.027  0.5825  0.6078 -0.0866
 8253SOL    HW136395   2.539   2.647   4.012 -0.7451  0.9477 -3.2924
 8253SOL    HW236396   2.614   2.770   4.006  1.2080 -1.0762  0.1830
 8254SOL     OW36397   3.617   1.492  13.033  0.6116  0.0185  0.3980
 8254SOL    HW136398   3.712   1.487  13.029  0.5382 -2.2954  1.0242
 8254SOL    HW236399   3.611   1.571  13.086  1.5665  1.7162 -2.0725
 8255SOL     OW36400   1.993   1.229   3.815 -0.4735  0.4315 -0.1181
 8255SOL    HW136401   2.005   1.324   3.810  0.9533  0.2724  0.1275
 8255SOL    HW236402   1.901   1.221   3.838 -0.6605 -2.7149 -1.9074
 8256SOL     OW36403   0.875   3.887   6.749  0.0543  0.2165  0.2697
 8256SOL    HW136404   0.949   3.942   6.773  0.4779 -0.1931 -0.0969
 8256SOL    HW236405   0.918   3.833   6.682 -0.4758  1.0906 -0.7820
 8257SOL     OW36406   1.619   1.808  17.640 -0.4551 -0.1880 -0.1694
 8257SOL    HW136407   1.576   1.893  17.650  1.7595  0.9140 -0.0297
 8257SOL    HW236408   1.674   1.822  17.563 -0.0840 -1.5913 -0.1586
 8258SOL     OW36409   4.320   2.762   4.714 -0.1999  0.0558 -0.1190
 8258SOL    HW136410   4.415   2.764   4.722 -0.4220 -0.4127  2.8196
 8258SOL    HW236411   4.303   2.845   4.670 -1.2020 -0.4923 -0.7623
 8259SOL     OW36412   3.975   3.131   2.480  0.4420  0.5226  0.2403
 8259SOL    HW136413   3.975   3.056   2.539  0.6787  1.2138  1.1243
 8259SOL    HW236414   4.005   3.193   2.547 -1.7217  0.8247  0.9297
 8260SOL     OW36415   0.786   1.100  16.634 -0.5102  0.4192  0.1556
 8260SOL    HW136416   0.807   1.115  16.726  0.8427  0.7801 -0.2091
 8260SOL    HW236417   0.727   1.173  16.615 -1.9489 -0.8706 -0.3652
 8261SOL     OW36418   1.915   3.779   3.004 -0.0032  0.4541  0.4467
 8261SOL    HW136419   1.972   3.754   2.931 -1.8900  1.4594 -1.3670
 8261SOL    HW236420   1.976   3.776   3.077  1.8908  0.4901 -1.1369
 8262SOL     OW36421   2.603   2.289   5.132  0.3021 -0.0777 -0.7512
 8262SOL    HW136422   2.662   2.360   5.156 -0.2637  0.1951 -0.1534
 8262SOL    HW236423   2.659   2.213   5.120  2.0393  1.0412  0.3026
 8263SOL     OW36424   0.778   4.680   6.436 -0.2103 -0.3917  0.6493
 8263SOL    HW136425   0.691   4.646   6.457 -0.3440 -0.6836 -0.3424
 8263SOL    HW236426   0.766   0.030   6.470  0.5029 -0.2725  0.5753
 8264SOL     OW36427   1.825   0.297  12.009  0.1360  0.2945  0.4653
 8264SOL    HW136428   1.819   0.375  12.064 -1.0363  1.2059 -0.9643
 8264SOL    HW236429   1.851   0.224  12.066 -0.3952 -1.0164 -0.9699
 8265SOL     OW36430   1.061   3.066   4.782  0.2363  0.4701  0.2664
 8265SOL    HW136431   1.020   2.983   4.759  3.1985 -0.9865  0.2179
 8265SOL    HW236432   1.153   3.046   4.766  0.3163 -0.0329  1.3191
 8266SOL     OW36433   0.765   1.328   4.709  0.2358 -0.4295 -0.0781
 8266SOL    HW136434   0.755   1.323   4.614  1.1875  0.7352 -0.2515
 8266SOL    HW236435   0.776   1.234   4.716 -1.3479 -0.6779 -0.9854
 8267SOL     OW36436   0.897   2.903  11.531  0.7866 -0.0036  0.4255
 8267SOL    HW136437   0.839   2.931  11.460  1.9541 -1.3484 -1.0491
 8267SOL    HW236438   0.977   2.909  11.480  1.3491 -1.0998  1.1691
 8268SOL     OW36439   3.092   1.640   6.491 -0.7392 -0.0024  0.5420
 8268SOL    HW136440   3.038   1.619   6.567  0.0462  1.9407  1.6231
 8268SOL    HW236441   3.084   1.735   6.493  2.9603  0.2766  1.9277
 8269SOL     OW36442   0.010   4.657  10.021  0.3508 -0.1136  0.1317
 8269SOL    HW136443   0.040   4.588   9.961 -0.6315 -0.8877  0.5329
 8269SOL    HW236444   4.696   4.607  10.083 -0.3737  0.4234 -0.0531
 8270SOL     OW36445   3.458   2.975  11.886  0.5954  0.9200  0.3162
 8270SOL    HW136446   3.373   2.972  11.842  1.3946  0.5640 -1.2010
 8270SOL    HW236447   3.440   2.955  11.978 -1.1390  0.7455 -0.0546
 8271SOL     OW36448   1.343   1.464   7.289 -0.2337  0.6036 -0.4030
 8271SOL    HW136449   1.360   1.372   7.268  2.7349  1.0234  0.0850
 8271SOL    HW236450   1.384   1.481   7.374  0.6016  2.4511 -1.1704
 8272SOL     OW36451   1.562   0.533  11.809 -0.5554  0.1673 -0.1751
 8272SOL    HW136452   1.574   0.441  11.832 -0.1738  0.1619 -0.3887
 8272SOL    HW236453   1.627   0.535  11.738  0.3503 -3.4681  0.5453
 8273SOL     OW36454   0.400   1.468   4.023 -0.0887  0.7775 -0.1124
 8273SOL    HW136455   0.406   1.431   3.935  0.1791 -1.5744  0.9069
 8273SOL    HW236456   0.306   1.475   4.040 -0.1377 -1.4988  0.4623
 8274SOL     OW36457   1.107   0.445   7.118 -0.4737  0.2491 -0.3277
 8274SOL    HW136458   1.150   0.398   7.190 -0.6889  0.6890  0.0892
 8274SOL    HW236459   1.177   0.452   7.053 -1.4628 -0.2804 -1.4414
 8275SOL     OW36460   2.016   2.587   5.085 -0.5032 -0.0793  0.7089
 8275SOL    HW136461   2.011   2.622   5.173 -0.4371 -0.0638  0.7064
 8275SOL    HW236462   1.932   2.541   5.078 -0.7536  0.9160 -3.2862
 8276SOL     OW36463   4.718   1.042   8.253  0.0979 -0.0766 -0.3679
 8276SOL    HW136464   0.051   1.102   8.231  0.0768  0.5866  1.4212
 8276SOL    HW236465   4.658   1.090   8.197 -1.3984 -0.0698  1.2409
 8277SOL     OW36466   4.335   4.190   3.095 -0.2397  0.2428 -0.8067
 8277SOL    HW136467   4.307   4.133   3.167  1.5683  1.7047  1.0459
 8277SOL    HW236468   4.255   4.234   3.068 -0.0629  0.4639 -0.9662
 8278SOL     OW36469   3.230   0.434   8.313  0.4473 -0.3087  0.1592
 8278SOL    HW136470   3.153   0.482   8.281 -0.4528 -1.0188  1.2456
 8278SOL    HW236471   3.278   0.515   8.330 -0.3764  0.2724 -0.2790
 8279SOL     OW36472   4.520   1.924  17.486 -0.0161  0.1320 -0.0948
 8279SOL    HW136473   4.493   1.833  17.494 -2.7148  0.9998  0.5179
 8279SOL    HW236474   4.616   1.924  17.478 -0.0752 -0.8992 -0.8010
 8280SOL     OW36475   3.288   3.151   7.973  0.3251  0.0620 -0.0634
 8280SOL    HW136476   3.283   3.247   7.969  3.4747  0.1982 -0.6645
 8280SOL    HW236477   3.383   3.144   7.976  0.2257 -1.2557  0.0693
 8281SOL     OW36478   1.877   3.509   8.162  0.3309 -0.2763  0.3859
 8281SOL    HW136479   1.868   3.461   8.245  1.6146 -0.8286  0.2109
 8281SOL    HW236480   1.795   3.557   8.157  0.5154 -0.0519 -0.4581
 8282SOL     OW36481   4.691   1.524   3.578  0.1950  0.8465 -0.2004
 8282SOL    HW136482   4.669   1.592   3.641  0.2723 -0.0887  0.8477
 8282SOL    HW236483   4.608   1.502   3.535  0.3099  1.5872 -0.7865
 8283SOL     OW36484   1.868   1.627  15.907 -0.7673  0.0956 -0.2226
 8283SOL    HW136485   1.870   1.699  15.844 -0.8330  0.6185  0.3746
 8283SOL    HW236486   1.814   1.665  15.975 -0.8245  0.9015 -0.7212
 8284SOL     OW36487   0.370   1.238   7.379  0.0525 -0.3479 -0.6159
 8284SOL    HW136488   0.446   1.185   7.353 -0.7476 -1.7845  0.0087
 8284SOL    HW236489   0.331   1.258   7.294 -0.0152  2.1398  0.0008
 8285SOL     OW36490   1.947   3.739   4.286 -0.5535  0.5279 -0.1086
 8285SOL    HW136491   1.892   3.779   4.218  0.7021 -1.0643 -2.0599
 8285SOL    HW236492   1.920   3.781   4.368 -1.1673 -1.7681  0.8641
 8286SOL     OW36493   3.663   0.991   9.223  0.1172  0.0156 -0.3091
 8286SOL    HW136494   3.641   1.064   9.281 -0.9664 -0.7210  0.2090
 8286SOL    HW236495   3.740   1.034   9.186 -0.6261 -0.0118 -1.9158
 8287SOL     OW36496   0.751   1.550   5.149  0.3759  0.2844 -0.1026
 8287SOL    HW136497   0.721   1.640   5.164  1.2805  0.6349 -0.4252
 8287SOL    HW236498   0.673   1.497   5.169 -0.1369  0.2920 -2.1407
 8288SOL     OW36499   1.608   4.281   5.864  0.0603 -0.2797  0.3243
 8288SOL    HW136500   1.555   4.284   5.784  0.4453 -0.9256  0.0508
 8288SOL    HW236501   1.565   4.206   5.905 -1.6242  1.2715  1.4573
 8289SOL     OW36502   3.802   2.810  14.792  0.1429 -0.0600  0.0323
 8289SOL    HW136503   3.807   2.904  14.806 -1.0037 -0.2099  1.3275
 8289SOL    HW236504   3.714   2.800  14.827  1.0526 -3.3396  1.3813
 8290SOL     OW36505   0.491   4.599  12.238 -0.3901  0.4341 -0.4662
 8290SOL    HW136506   0.565   4.551  12.275 -0.0439  0.1011 -1.6074
 8290SOL    HW236507   0.479   4.657  12.314 -0.6950 -0.4826  0.1839
 8291SOL     OW36508   3.690   4.693   6.862 -0.7336  0.1711 -0.5174
 8291SOL    HW136509   3.660   4.603   6.846 -2.8140  0.6762  0.5223
 8291SOL    HW236510   3.627   0.002   6.808  0.1243 -0.5384 -2.1430
 8292SOL     OW36511   0.966   3.628   5.774 -0.4645 -0.7007  0.2001
 8292SOL    HW136512   0.989   3.644   5.866  1.0355  0.2674 -0.3506
 8292SOL    HW236513   0.895   3.691   5.787 -0.8974 -1.1969  0.2438
 8293SOL     OW36514   1.272   2.288  14.134  0.4368  0.0359  0.3993
 8293SOL    HW136515   1.262   2.303  14.040 -2.5359  0.6982  0.8313
 8293SOL    HW236516   1.362   2.255  14.133  0.9239  1.3615  0.7584
 8294SOL     OW36517   2.692   0.357   2.087 -0.3359  0.3329 -0.3697
 8294SOL    HW136518   2.684   0.264   2.068  1.0117  0.4502 -1.5806
 8294SOL    HW236519   2.779   0.377   2.051 -0.7449  2.9189  0.0191
 8295SOL     OW36520   3.799   4.323   3.054 -0.0188 -0.1577  0.4502
 8295SOL    HW136521   3.704   4.313   3.044  0.0685 -0.6486  0.1195
 8295SOL    HW236522   3.811   4.258   2.985  0.0461 -1.7094  1.9236
 8296SOL     OW36523   0.591   3.663   4.648 -0.0100  0.0198 -0.0273
 8296SOL    HW136524   0.563   3.730   4.711 -1.4282 -0.6125  0.0018
 8296SOL    HW236525   0.622   3.594   4.706 -0.8869  0.0788  0.5162
 8297SOL     OW36526   0.980   2.251   9.633 -0.3520 -0.1846 -0.3211
 8297SOL    HW136527   1.030   2.331   9.620 -2.0512  0.6564 -1.7108
 8297SOL    HW236528   0.910   2.278   9.692  1.2747  1.7376  0.7176
 8298SOL     OW36529   1.303   0.017   6.361 -0.6138 -0.5210  0.5751
 8298SOL    HW136530   1.209   0.008   6.381 -1.0387  1.0940 -0.6457
 8298SOL    HW236531   1.307   0.098   6.310  2.9882 -0.0967  1.5644
 8299SOL     OW36532   3.596   1.298   8.904 -0.1823  0.2787 -0.5193
 8299SOL    HW136533   3.552   1.379   8.930  0.2384  0.3418 -0.0189
 8299SOL    HW236534   3.619   1.265   8.990 -0.0102  0.3296 -0.5454
 8300SOL     OW36535   2.824   2.847   8.363  0.1730 -0.0646  0.1165
 8300SOL    HW136536   2.822   2.836   8.459  1.7050 -0.7411  0.0644
 8300SOL    HW236537   2.911   2.810   8.347 -0.1170 -0.0346 -1.4858
 8301SOL     OW36538   4.282   1.505   0.651 -0.4242  0.3293 -0.3288
 8301SOL    HW136539   4.369   1.542   0.667 -1.2071  2.4073 -0.7770
 8301SOL    HW236540   4.218   1.556   0.701 -0.5096 -0.6871  0.5828
 8302SOL     OW36541   3.753   3.963  17.185  0.0130 -0.4880  0.3363
 8302SOL    HW136542   3.775   3.872  17.205 -1.0844 -1.0004 -0.7794
 8302SOL    HW236543   3.659   3.956  17.201 -0.1154  0.6919  0.1430
 8303SOL     OW36544   1.042   3.094   8.095  1.0186  0.3917  0.0601
 8303SOL    HW136545   0.989   3.039   8.153  1.6579  0.3630  0.6209
 8303SOL    HW236546   1.103   3.027   8.065  1.2277  1.3124 -1.5794
 8304SOL     OW36547   1.747   1.571   5.520 -0.0542 -0.3215  1.0226
 8304SOL    HW136548   1.762   1.499   5.459 -0.2086  0.5108  0.0011
 8304SOL    HW236549   1.653   1.585   5.506  0.2900  0.8652  0.0160
 8305SOL     OW36550   3.204   0.771  14.705  0.3922 -0.3720  0.3743
 8305SOL    HW136551   3.173   0.748  14.617  0.6744 -1.2473  0.5061
 8305SOL    HW236552   3.298   0.751  14.701  0.8694  1.9342 -0.5361
 8306SOL     OW36553   3.840   0.718  17.425  0.1340 -0.6417  0.2354
 8306SOL    HW136554   3.816   0.740  17.335 -1.0143 -1.2775  0.3834
 8306SOL    HW236555   3.755   0.707  17.468  0.0546 -0.5496  0.0996
 8307SOL     OW36556   2.166   2.792  15.680  0.8264 -0.2468 -0.4347
 8307SOL    HW136557   2.187   2.732  15.751 -1.1826  0.9661  1.1801
 8307SOL    HW236558   2.084   2.832  15.709  1.3223 -0.1688  0.8283
 8308SOL     OW36559   2.455   1.229   6.991 -0.7495 -0.8011  0.2911
 8308SOL    HW136560   2.504   1.161   6.943  2.1167  0.6934  1.0808
 8308SOL    HW236561   2.487   1.305   6.944 -2.0336 -1.3432 -1.4498
 8309SOL     OW36562   0.902   4.448   1.420  0.4047  0.4085  0.0128
 8309SOL    HW136563   0.928   4.505   1.492  1.4136 -1.3194  1.0352
 8309SOL    HW236564   0.906   4.509   1.347  0.6388 -0.5854 -0.8162
 8310SOL     OW36565   3.989   4.106   1.845 -0.1360  0.3268  0.2513
 8310SOL    HW136566   4.028   4.062   1.921 -0.9649  1.3776  1.2943
 8310SOL    HW236567   4.052   4.178   1.840 -0.8704  0.6861 -3.4222
 8311SOL     OW36568   3.726   3.683   3.604 -0.2326  0.1757 -0.8000
 8311SOL    HW136569   3.760   3.772   3.600  1.1719 -0.4013 -1.4369
 8311SOL    HW236570   3.715   3.672   3.699  1.0874  0.1489 -0.6501
 8312SOL     OW36571   4.521   1.731  14.271 -0.1112  0.0881  0.8380
 8312SOL    HW136572   4.437   1.767  14.299  0.1282  1.6112 -0.4007
 8312SOL    HW236573   4.569   1.814  14.263  0.1552  0.0869  2.3791
 8313SOL     OW36574   0.365   2.382   2.925 -0.0329 -0.1774 -0.1155
 8313SOL    HW136575   0.328   2.444   2.861 -0.2162 -0.0282  0.1291
 8313SOL    HW236576   0.322   2.298   2.912 -0.4314 -0.3296  2.1803
 8314SOL     OW36577   2.719   2.743  16.136 -0.0294  0.4046  0.2690
 8314SOL    HW136578   2.753   2.670  16.187  0.6407  1.8308  1.8604
 8314SOL    HW236579   2.660   2.691  16.083 -0.2886  1.5878 -0.6101
 8315SOL     OW36580   0.591   3.780   8.639  0.2695 -0.4539 -0.1591
 8315SOL    HW136581   0.646   3.754   8.713  0.1231  2.9218  1.1198
 8315SOL    HW236582   0.534   3.848   8.674 -0.0886  0.2050 -2.0256
 8316SOL     OW36583   4.287   4.678  14.697 -0.2764 -0.1492 -0.2075
 8316SOL    HW136584   4.315   4.601  14.647 -0.9240  0.2135 -1.1262
 8316SOL    HW236585   4.199   4.646  14.720 -1.0372 -0.1993 -3.0927
 8317SOL     OW36586   0.739   3.843   6.253  0.1776 -0.9281 -0.3246
 8317SOL    HW136587   0.668   3.866   6.193  0.2380 -2.2630 -0.9015
 8317SOL    HW236588   0.740   3.925   6.303 -0.9365 -1.5800  0.7622
 8318SOL     OW36589   2.988   3.810  14.219  0.5327 -0.3535 -0.4736
 8318SOL    HW136590   2.936   3.729  14.215 -1.0849  0.3796  4.6243
 8318SOL    HW236591   2.918   3.870  14.193  0.3683 -0.4154 -0.1844
 8319SOL     OW36592   4.301   3.398  14.967 -0.5111 -0.3256  0.0246
 8319SOL    HW136593   4.318   3.382  14.873  0.5856 -0.8467  0.3017
 8319SOL    HW236594   4.261   3.483  14.950  0.7660  0.3083  0.1910
 8320SOL     OW36595   3.498   2.135  15.637  0.1974 -0.4107  0.4072
 8320SOL    HW136596   3.558   2.107  15.568 -1.1138  0.1755 -0.9777
 8320SOL    HW236597   3.413   2.120  15.595  0.8503 -3.6359  0.2413
 8321SOL     OW36598   3.143   0.597  17.410 -0.0359 -0.7828  0.0908
 8321SOL    HW136599   3.072   0.556  17.458 -0.0288 -0.1698  0.6232
 8321SOL    HW236600   3.199   0.521  17.393 -0.6553 -1.7500  2.4983
 8322SOL     OW36601   1.336   2.757   2.199  0.4592  0.0753 -0.2135
 8322SOL    HW136602   1.277   2.727   2.268  0.4886  0.0496 -0.1997
 8322SOL    HW236603   1.324   2.699   2.123  0.1362 -0.6581  0.3956
 8323SOL     OW36604   0.028   2.654   4.552 -0.2542  0.3530 -0.0148
 8323SOL    HW136605   4.680   2.676   4.518 -0.5676 -0.3327  0.3394
 8323SOL    HW236606   0.035   2.559   4.549 -1.9119  0.2631 -0.7714
 8324SOL     OW36607   3.457   3.786   3.543  0.5291 -0.3988 -0.0495
 8324SOL    HW136608   3.544   3.757   3.569 -0.0725 -0.6067  1.6881
 8324SOL    HW236609   3.465   3.882   3.536 -0.6806 -0.2647  0.5910
 8325SOL     OW36610   4.038   4.411   9.023  0.4763  0.1196 -0.3654
 8325SOL    HW136611   4.020   4.397   9.116 -0.1568  0.1756 -0.4823
 8325SOL    HW236612   4.079   4.498   9.030  1.7586 -0.6747  1.9361
 8326SOL     OW36613   1.798   0.811  12.188 -0.2377 -0.1542  0.0063
 8326SOL    HW136614   1.736   0.854  12.247  1.5939  0.1218  1.7365
 8326SOL    HW236615   1.738   0.749  12.148 -0.2000 -0.9225  1.1240
 8327SOL     OW36616   3.124   0.572   8.623 -0.0023  0.5409 -0.1106
 8327SOL    HW136617   3.199   0.553   8.679  0.4729 -0.5697 -1.1078
 8327SOL    HW236618   3.059   0.520   8.670  0.8681 -0.4196  0.0408
 8328SOL     OW36619   1.004   3.970   4.161  0.9059  0.4113  0.6300
 8328SOL    HW136620   0.925   3.917   4.163  0.8368  0.5495  1.4859
 8328SOL    HW236621   1.018   3.983   4.067 -2.6788  1.2036  0.2192
 8329SOL     OW36622   1.291   1.450   3.691  0.2933  0.1273  0.1611
 8329SOL    HW136623   1.220   1.387   3.700 -0.4260  1.2205  2.1911
 8329SOL    HW236624   1.353   1.383   3.662 -1.0056 -0.5078 -1.1429
 8330SOL     OW36625   2.543   2.278   5.457  0.4231 -0.1488 -0.4208
 8330SOL    HW136626   2.625   2.321   5.434  0.3281 -0.3787 -1.1965
 8330SOL    HW236627   2.554   2.253   5.549  1.2781  0.5468 -0.3405
 8331SOL     OW36628   4.104   1.574   1.184  0.0932  0.3493  0.4004
 8331SOL    HW136629   4.147   1.660   1.187 -0.2346  0.4955  0.9830
 8331SOL    HW236630   4.042   1.580   1.256 -1.3853  2.6088 -1.0531
 8332SOL     OW36631   3.668   0.192   7.011  0.2288  0.1037  0.2565
 8332SOL    HW136632   3.673   0.240   6.928  1.0631  0.7402  0.6712
 8332SOL    HW236633   3.666   0.104   6.974 -2.0958  0.5000 -0.5818
 8333SOL     OW36634   4.137   1.001   4.528  0.0180  0.4224 -0.1135
 8333SOL    HW136635   4.122   0.942   4.602  1.2997  0.9801  0.5907
 8333SOL    HW236636   4.160   0.937   4.461 -0.9620 -0.2009  0.1453
 8334SOL     OW36637   3.692   3.986  12.799 -0.0415  0.1872  0.3401
 8334SOL    HW136638   3.655   3.899  12.782 -0.7547  0.5133  0.2645
 8334SOL    HW236639   3.737   3.955  12.878 -0.6970 -1.2142  0.1696
 8335SOL     OW36640   4.137   2.640   8.247 -0.2176 -0.4612  0.1390
 8335SOL    HW136641   4.206   2.706   8.255  0.3440 -1.1164  0.6182
 8335SOL    HW236642   4.067   2.702   8.225  0.6750 -0.2948 -2.1931
 8336SOL     OW36643   0.123   3.450  11.940  0.0917 -0.7157  0.2502
 8336SOL    HW136644   0.147   3.527  11.992  1.1153  0.2983 -1.7425
 8336SOL    HW236645   0.071   3.394  11.998 -1.3078 -0.5275 -0.8062
 8337SOL     OW36646   2.668   1.501  17.398  0.2401  0.6797  0.0929
 8337SOL    HW136647   2.603   1.570  17.386  1.0137  1.5318  0.7815
 8337SOL    HW236648   2.610   1.425  17.401 -0.7948  1.4881  0.2550
 8338SOL     OW36649   4.145   2.666  10.064 -0.3015  0.7866 -0.5505
 8338SOL    HW136650   4.106   2.593  10.111 -4.3191  1.0063 -3.5655
 8338SOL    HW236651   4.066   2.690  10.015 -0.8348  0.8676  0.3493
 8339SOL     OW36652   3.929   0.327   8.797 -0.1499  0.0491  0.4912
 8339SOL    HW136653   3.962   0.398   8.852  1.8789  0.6866 -1.5190
 8339SOL    HW236654   3.859   0.379   8.758 -0.9243  0.2415  2.1304
 8340SOL     OW36655   1.534   1.746   5.633 -0.3502 -0.5097 -0.4794
 8340SOL    HW136656   1.481   1.673   5.666  1.4327 -1.2092  0.7898
 8340SOL    HW236657   1.495   1.829   5.661  0.0641 -0.3035 -0.5248
 8341SOL     OW36658   3.957   0.957   7.260 -0.2858  0.5137 -0.8943
 8341SOL    HW136659   3.986   0.908   7.183 -0.7071  0.0156 -0.7370
 8341SOL    HW236660   4.024   0.949   7.327 -1.6126  2.1438  0.6269
 8342SOL     OW36661   2.368   3.072   9.023  0.6912 -0.1236  0.1560
 8342SOL    HW136662   2.430   3.024   9.079 -0.2127 -0.6989  0.6743
 8342SOL    HW236663   2.303   3.112   9.081  1.0110  1.9153 -0.9323
 8343SOL     OW36664   4.176   3.358   4.250  0.0720 -0.8208  0.0388
 8343SOL    HW136665   4.226   3.414   4.309 -1.3108 -1.3960  1.7671
 8343SOL    HW236666   4.149   3.418   4.180  0.4524 -1.0080 -0.2626
 8344SOL     OW36667   2.970   0.502  16.719 -0.0296  0.3206 -0.2991
 8344SOL    HW136668   2.984   0.442  16.792  0.1350  0.5575 -0.1334
 8344SOL    HW236669   2.886   0.545  16.740  0.7594  0.9715  1.5703
 8345SOL     OW36670   3.108   4.084   3.146  0.3652 -0.2776 -0.4759
 8345SOL    HW136671   3.096   4.152   3.213  2.0210 -1.5368  1.1240
 8345SOL    HW236672   3.041   4.020   3.170  1.4695 -2.2523 -2.7359
 8346SOL     OW36673   0.138   2.079   4.073 -0.5413 -0.3272 -0.5972
 8346SOL    HW136674   0.172   2.144   4.135  0.8440 -0.0328 -1.6668
 8346SOL    HW236675   0.115   2.128   3.994  2.6612  1.7000 -0.2775
 8347SOL     OW36676   1.800   2.385   5.074 -0.2886  0.7102 -0.4788
 8347SOL    HW136677   1.831   2.373   5.164  1.5861 -1.2885 -1.3820
 8347SOL    HW236678   1.791   2.295   5.042  0.8906  0.6434 -0.6143
 8348SOL     OW36679   4.399   3.694  16.782 -0.0567 -0.0964 -0.1475
 8348SOL    HW136680   4.336   3.763  16.802  0.7698 -0.0105  2.2370
 8348SOL    HW236681   4.354   3.615  16.813 -0.3229  0.1860  0.1804
 8349SOL     OW36682   3.808   1.399  17.576 -0.3050  0.0498  0.6088
 8349SOL    HW136683   3.740   1.457  17.610 -0.6157  0.9139 -1.4717
 8349SOL    HW236684   3.892   1.437  17.601 -0.0479  0.4224 -0.8020
 8350SOL     OW36685   1.583   1.271   2.951 -0.0895  0.3429 -0.3102
 8350SOL    HW136686   1.592   1.248   3.044 -0.9301  0.7463 -0.1232
 8350SOL    HW236687   1.516   1.340   2.963  1.8390  2.1727 -0.0880
 8351SOL     OW36688   4.249   2.911   2.594 -0.1036  0.4164  0.0475
 8351SOL    HW136689   4.309   2.917   2.520 -0.3365  1.2897 -0.0717
 8351SOL    HW236690   4.294   2.855   2.657  0.5487  0.8839 -0.0002
 8352SOL     OW36691   3.176   0.652   2.479  0.3827  0.3125  0.6057
 8352SOL    HW136692   3.152   0.738   2.444  0.3343  0.4021  0.8605
 8352SOL    HW236693   3.146   0.593   2.410 -0.6263  1.4259  0.1003
 8353SOL     OW36694   1.901   2.306   7.648 -0.7434  0.1352  0.0965
 8353SOL    HW136695   1.824   2.345   7.606 -0.2278  0.8322 -0.1992
 8353SOL    HW236696   1.893   2.219   7.609  1.0594 -0.7153  1.6587
 8354SOL     OW36697   0.169   2.516   1.512 -0.4906  0.0424  0.0550
 8354SOL    HW136698   0.206   2.591   1.558 -0.9006  0.8936 -0.9867
 8354SOL    HW236699   0.243   2.503   1.453  0.4464 -0.2433  1.3034
 8355SOL     OW36700   4.378   2.042   7.715  0.8876 -0.3258  0.6820
 8355SOL    HW136701   4.468   2.009   7.721  0.4696 -1.5456  0.2531
 8355SOL    HW236702   4.358   2.031   7.622 -1.4613  1.4979  0.9745
 8356SOL     OW36703   0.042   3.009   3.536 -0.1620 -0.0582 -0.6254
 8356SOL    HW136704   0.087   2.925   3.538 -0.7562 -0.3594 -0.2347
 8356SOL    HW236705   4.690   2.981   3.551  0.3753 -1.9155 -0.8436
 8357SOL     OW36706   0.769   1.176   9.654 -0.6376  0.3345 -0.1461
 8357SOL    HW136707   0.827   1.226   9.597  0.0904 -1.8761 -1.3459
 8357SOL    HW236708   0.773   1.092   9.607 -0.1127 -1.6410  3.4065
 8358SOL     OW36709   3.909   2.776   7.904  0.0265  0.1735 -0.1472
 8358SOL    HW136710   3.818   2.774   7.875 -0.1402 -2.9664  0.5891
 8358SOL    HW236711   3.964   2.818   7.838  2.1228 -0.5076  1.1642
 8359SOL     OW36712   3.854   3.425   1.244 -0.8295 -0.2431  0.1410
 8359SOL    HW136713   3.784   3.426   1.178 -0.8139 -0.0209  0.1272
 8359SOL    HW236714   3.822   3.471   1.322  0.1006 -1.1606  1.0719
 8360SOL     OW36715   3.986   4.490   2.226 -0.1029  0.2367  0.0549
 8360SOL    HW136716   3.974   4.507   2.132 -0.4066  1.5262  0.3275
 8360SOL    HW236717   3.988   4.577   2.266 -0.4824 -0.2061  1.0398
 8361SOL     OW36718   1.881   0.677   7.014  0.2860 -0.4892  0.2240
 8361SOL    HW136719   1.898   0.701   7.105  0.6923 -0.5905  0.1737
 8361SOL    HW236720   1.794   0.713   6.999  0.9797  1.1165  0.0738
 8362SOL     OW36721   2.301   0.825  12.039 -0.2469  0.0025 -0.3756
 8362SOL    HW136722   2.297   0.730  12.025  1.9169  0.0316 -1.1376
 8362SOL    HW236723   2.229   0.840  12.101  0.8862 -2.7490  1.5947
 8363SOL     OW36724   0.076   4.205   4.277 -0.2653 -0.1168 -0.5928
 8363SOL    HW136725   0.119   4.184   4.194 -1.4454 -0.7619 -1.0523
 8363SOL    HW236726   0.136   4.165   4.339 -0.8414 -1.6794 -1.0527
 8364SOL     OW36727   3.496   2.696   7.508  0.3467 -0.2793 -0.1758
 8364SOL    HW136728   3.491   2.769   7.447  1.5227 -0.6001 -0.6571
 8364SOL    HW236729   3.561   2.634   7.475 -0.4136 -0.7453 -0.7850
 8365SOL     OW36730   2.132   1.930   0.826 -0.1058 -0.1220  0.0405
 8365SOL    HW136731   2.037   1.935   0.813 -0.2405 -0.0067  1.0770
 8365SOL    HW236732   2.166   1.954   0.740 -1.7268  1.1913 -0.2460
 8366SOL     OW36733   1.700   0.583   8.945 -0.0038 -0.0212  0.4330
 8366SOL    HW136734   1.717   0.656   9.004  0.7913  0.2019 -0.0610
 8366SOL    HW236735   1.612   0.556   8.969 -0.4290 -1.3141 -2.5652
 8367SOL     OW36736   0.139   4.100   8.488 -0.3578 -0.0059  0.5971
 8367SOL    HW136737   0.082   4.050   8.547  1.1916 -0.2380  1.9138
 8367SOL    HW236738   0.069   4.156   8.455  1.1471  0.2937 -2.0467
 8368SOL     OW36739   4.122   3.943  11.897  0.0903 -0.0145 -0.4546
 8368SOL    HW136740   4.121   4.026  11.945  0.9900 -0.7880  0.8971
 8368SOL    HW236741   4.049   3.897  11.937 -0.2602 -0.5294 -1.6774
 8369SOL     OW36742   0.673   0.924   9.107 -0.2119 -0.4006 -0.3584
 8369SOL    HW136743   0.735   0.917   9.034  1.4814 -0.1058  1.0616
 8369SOL    HW236744   0.588   0.939   9.065 -0.8364 -0.9822  0.7120
 8370SOL     OW36745   1.179   3.707   6.005 -0.0422 -0.0424 -0.2907
 8370SOL    HW136746   1.215   3.667   6.084 -2.5807  0.1980  0.9703
 8370SOL    HW236747   1.126   3.780   6.035  2.1935  0.7519  1.6754
 8371SOL     OW36748   4.029   4.065  12.440 -0.1930 -0.0563  0.3510
 8371SOL    HW136749   3.964   3.998  12.462 -2.3116  1.8100 -0.1540
 8371SOL    HW236750   3.968   4.115  12.385 -1.6664 -0.5214  1.5405
 8372SOL     OW36751   4.394   2.012   5.080 -0.1497  0.1141  0.5230
 8372SOL    HW136752   4.383   1.917   5.080  0.7496  0.0002  2.2449
 8372SOL    HW236753   4.445   2.026   5.000 -0.3883 -0.9640  0.1822
 8373SOL     OW36754   1.982   3.159  14.100 -0.4039 -0.2846  0.0315
 8373SOL    HW136755   1.957   3.198  14.184  0.6474  1.8270 -0.6244
 8373SOL    HW236756   2.069   3.196  14.085 -1.0743  1.0342 -0.6331
 8374SOL     OW36757   0.258   2.766   1.558 -0.1276 -0.6802 -0.4225
 8374SOL    HW136758   0.289   2.794   1.472  2.0688 -0.5556  0.3833
 8374SOL    HW236759   0.323   2.806   1.617 -0.1733 -2.3459  0.7510
 8375SOL     OW36760   2.093   4.177  15.302  0.2677  0.1290  0.1724
 8375SOL    HW136761   2.169   4.226  15.332 -0.6261  1.7154 -0.1219
 8375SOL    HW236762   2.029   4.244  15.275 -1.5273 -1.2041  1.1283
 8376SOL     OW36763   3.911   2.308   3.246  0.0079 -0.1343  0.2847
 8376SOL    HW136764   3.887   2.394   3.281  0.0278 -0.2006  0.4603
 8376SOL    HW236765   3.838   2.249   3.265 -0.7467 -0.0201 -2.2819
 8377SOL     OW36766   2.345   0.360   8.549  0.4934  0.3113  0.4246
 8377SOL    HW136767   2.435   0.379   8.523  0.8762 -0.2280  1.3449
 8377SOL    HW236768   2.346   0.409   8.631 -1.6133  0.1509  0.5539
 8378SOL     OW36769   1.249   0.340   1.345  0.8799 -0.5425 -0.1807
 8378SOL    HW136770   1.244   0.405   1.274 -0.7541 -0.7027 -0.2193
 8378SOL    HW236771   1.303   0.274   1.303  0.5606 -0.8589 -0.0914
 8379SOL     OW36772   2.013   1.645   2.156  0.0029  0.2573 -0.1035
 8379SOL    HW136773   2.081   1.668   2.219  1.0829 -0.6948 -0.9201
 8379SOL    HW236774   1.950   1.602   2.214  2.0021  0.3050  2.0666
 8380SOL     OW36775   0.511   2.094   1.297  0.0934  0.0642  0.2891
 8380SOL    HW136776   0.469   2.015   1.264 -0.7230  0.6630 -0.1360
 8380SOL    HW236777   0.602   2.067   1.307  0.1375 -0.0469 -0.4089
 8381SOL     OW36778   2.004   2.169   2.840  0.2038 -0.0309 -0.0758
 8381SOL    HW136779   2.022   2.159   2.746 -2.1123 -1.1437 -0.4170
 8381SOL    HW236780   2.006   2.076   2.863 -1.9707 -0.3574 -1.1939
 8382SOL     OW36781   4.109   3.780   5.753 -0.2530  0.6170 -0.0895
 8382SOL    HW136782   4.200   3.763   5.727 -0.4271 -1.0387  0.3870
 8382SOL    HW236783   4.116   3.758   5.846  0.9525  0.7819 -0.1335
 8383SOL     OW36784   1.931   2.781   6.048 -0.1593 -0.4533  0.2752
 8383SOL    HW136785   2.021   2.812   6.031  0.1066 -1.4476 -0.1154
 8383SOL    HW236786   1.919   2.733   5.966  2.7832  1.0374 -1.0418
 8384SOL     OW36787   0.484   1.226   9.472  0.1348 -0.2445  0.2529
 8384SOL    HW136788   0.564   1.195   9.428  1.0840  0.8565  1.1996
 8384SOL    HW236789   0.444   1.267   9.395  1.5305  3.4347  1.4663
 8385SOL     OW36790   1.745   1.749   9.676 -0.3984 -0.1491 -0.4673
 8385SOL    HW136791   1.747   1.830   9.625  0.9703  0.3575  0.3730
 8385SOL    HW236792   1.662   1.758   9.724  0.6398 -1.0853  1.4988
 8386SOL     OW36793   4.633   4.023   8.586 -0.1325 -0.5740 -0.2681
 8386SOL    HW136794   4.578   3.960   8.539 -2.5682  0.1802  1.5852
 8386SOL    HW236795   4.576   4.100   8.588 -1.5517 -1.6185 -0.4240
 8387SOL     OW36796   4.225   0.867   7.923  0.5250  0.0871  0.2100
 8387SOL    HW136797   4.213   0.821   7.840 -0.4201 -1.9427  1.4580
 8387SOL    HW236798   4.285   0.935   7.893  1.5077 -0.9229 -0.0944
 8388SOL     OW36799   1.551   2.829   5.746 -0.3477  0.4129  0.0160
 8388SOL    HW136800   1.555   2.796   5.656  0.2026 -0.6870  0.4409
 8388SOL    HW236801   1.569   2.750   5.798  0.4419  1.8891  1.9764
 8389SOL     OW36802   2.396   0.286   6.763 -0.4470 -0.5263 -0.4817
 8389SOL    HW136803   2.456   0.360   6.768 -0.7908 -0.1881 -1.4790
 8389SOL    HW236804   2.450   0.229   6.818 -0.2200 -1.0919 -1.2870
 8390SOL     OW36805   4.395   0.166   2.434  0.0967 -0.2415  0.1131
 8390SOL    HW136806   4.325   0.119   2.479 -0.3501  1.3394  1.0878
 8390SOL    HW236807   4.463   0.102   2.415  0.5001 -0.1311  1.1889
 8391SOL     OW36808   3.375   0.714  11.341  0.8067 -0.4931 -0.4271
 8391SOL    HW136809   3.298   0.661  11.317  0.1193  0.2454  0.1466
 8391SOL    HW236810   3.350   0.764  11.419 -0.7318 -0.4258 -0.9578
 8392SOL     OW36811   3.069   3.900   9.437  0.2240  0.6747 -0.0446
 8392SOL    HW136812   3.126   3.826   9.459 -2.2050 -0.0190  3.7752
 8392SOL    HW236813   3.119   3.975   9.470  0.8724 -0.2325  1.0368
 8393SOL     OW36814   0.766   2.530   9.987 -0.0767 -0.4852 -0.1137
 8393SOL    HW136815   0.833   2.463   9.998  1.1691  0.7037 -0.4106
 8393SOL    HW236816   0.807   2.606  10.028  0.9677 -0.3133 -1.4617
 8394SOL     OW36817   1.830   1.883   2.892  0.1780  0.0645 -0.1633
 8394SOL    HW136818   1.908   1.830   2.909 -0.3871 -0.4378  0.8757
 8394SOL    HW236819   1.805   1.924   2.975 -0.7377  2.2143 -1.5104
 8395SOL     OW36820   2.592   0.233  17.698  0.4070  0.5473  0.1796
 8395SOL    HW136821   2.588   0.259   0.039 -0.9867  1.9863 -0.2917
 8395SOL    HW236822   2.535   0.156  17.703  0.7682  0.4511  2.6001
 8396SOL     OW36823   1.142   2.155  11.094 -0.4827 -0.1693  0.1399
 8396SOL    HW136824   1.171   2.175  11.005 -0.4645 -0.4985  0.0732
 8396SOL    HW236825   1.189   2.072  11.099 -0.0729  0.1004  0.8295
 8397SOL     OW36826   1.360   0.773   1.947 -0.3047 -0.7064 -0.3431
 8397SOL    HW136827   1.378   0.687   1.908 -1.1884 -1.1746  0.2528
 8397SOL    HW236828   1.264   0.766   1.941 -0.4516  0.6747  0.4954
 8398SOL     OW36829   1.739   3.486   4.752  0.7774  0.3081 -0.0611
 8398SOL    HW136830   1.678   3.554   4.781  3.0406  1.8707  1.0012
 8398SOL    HW236831   1.686   3.407   4.764  1.1056 -0.1279 -1.4843
 8399SOL     OW36832   1.750   3.983  13.464 -0.2124 -0.3420  0.0372
 8399SOL    HW136833   1.712   4.057  13.416 -0.1433  0.7286  1.6337
 8399SOL    HW236834   1.813   4.029  13.519  1.7820 -2.2745 -0.6500
 8400SOL     OW36835   2.693   0.374   7.521 -0.7369  0.4336  0.1377
 8400SOL    HW136836   2.676   0.286   7.555  2.2643 -0.8017 -1.5724
 8400SOL    HW236837   2.739   0.353   7.440  0.5168 -0.4382  1.0884
 8401SOL     OW36838   0.120   3.864   5.151 -0.7492  0.7717  0.4421
 8401SOL    HW136839   0.059   3.833   5.084 -0.6098  2.7185 -0.5828
 8401SOL    HW236840   0.124   3.956   5.124  1.8523  0.9705  1.4905
 8402SOL     OW36841   3.971   2.159  14.635  0.3467 -0.6382  0.2835
 8402SOL    HW136842   3.933   2.205  14.710  1.4106  0.2280  0.2816
 8402SOL    HW236843   3.915   2.197  14.567  1.3489 -0.8519 -0.6540
 8403SOL     OW36844   1.455   1.662   2.899 -0.3374 -0.2871 -0.0427
 8403SOL    HW136845   1.411   1.696   2.821  0.3030  1.6723  0.4647
 8403SOL    HW236846   1.398   1.587   2.915  0.9217 -1.0971  0.7028
 8404SOL     OW36847   4.226   0.011   2.150 -0.3935  0.3549  0.5174
 8404SOL    HW136848   4.311   0.051   2.166 -0.5611  1.1038 -0.4295
 8404SOL    HW236849   4.171   0.055   2.215  2.8075  1.2135  2.5941
 8405SOL     OW36850   1.447   0.473   2.742 -0.1063 -0.8186  0.1764
 8405SOL    HW136851   1.475   0.551   2.789 -0.0823  0.0106 -1.2250
 8405SOL    HW236852   1.370   0.453   2.797 -0.8126  2.4034  0.3325
 8406SOL     OW36853   4.347   0.132   6.161  0.4046 -0.2483 -0.2054
 8406SOL    HW136854   4.377   0.203   6.104  1.4198 -0.7799 -0.3352
 8406SOL    HW236855   4.314   0.191   6.229 -1.4064 -1.2482 -0.2110
 8407SOL     OW36856   0.520   1.082   1.729  0.5368 -0.3351 -0.1563
 8407SOL    HW136857   0.479   1.155   1.682 -0.8852 -0.3674  1.0438
 8407SOL    HW236858   0.508   1.113   1.819 -0.8640  0.7515 -0.7035
 8408SOL     OW36859   2.933   1.113   3.884 -0.7089  0.0399 -0.1742
 8408SOL    HW136860   2.926   1.045   3.817  2.0799 -0.1795 -0.2206
 8408SOL    HW236861   2.982   1.175   3.831 -0.4671 -0.3057 -0.3543
 8409SOL     OW36862   4.485   1.476  16.669 -0.0061  0.5801 -0.5337
 8409SOL    HW136863   4.527   1.502  16.751  1.6590  0.5513 -1.3820
 8409SOL    HW236864   4.504   1.546  16.607  1.0196  1.0517  0.3253
 8410SOL     OW36865   0.183   4.395   3.948  0.0621  1.2332 -0.4240
 8410SOL    HW136866   0.211   4.481   3.915  1.6143  0.8896 -0.0120
 8410SOL    HW236867   0.122   4.427   4.013 -1.3973 -1.0743 -0.6558
 8411SOL     OW36868   4.227   4.666  11.862  0.2503  0.0899  0.3343
 8411SOL    HW136869   4.239   4.720  11.940  0.5110  2.2778 -1.2315
 8411SOL    HW236870   4.297   4.605  11.882 -0.4389 -0.2407  1.7458
 8412SOL     OW36871   1.231   0.783  12.559 -0.3437  0.6257  0.2633
 8412SOL    HW136872   1.257   0.812  12.646  0.0777 -1.4476  0.8234
 8412SOL    HW236873   1.185   0.704  12.589  0.9505 -0.1365  0.2397
 8413SOL     OW36874   3.325   0.559  14.891  0.1926  0.6048  0.3364
 8413SOL    HW136875   3.254   0.617  14.864  0.8125  2.1940  2.1675
 8413SOL    HW236876   3.281   0.474  14.891 -2.9254  2.2030  0.9290
 8414SOL     OW36877   4.490   0.797   5.568  0.1712  0.9244 -0.2324
 8414SOL    HW136878   4.508   0.884   5.604 -1.1168  1.5024 -0.9655
 8414SOL    HW236879   4.485   0.750   5.652 -0.2625 -1.7027 -1.7287
 8415SOL     OW36880   0.713   3.315   2.478  0.1961  0.2155  0.0233
 8415SOL    HW136881   0.743   3.354   2.396  1.3333  1.2639  0.9404
 8415SOL    HW236882   0.781   3.251   2.500 -2.1191 -2.0360  0.6740
 8416SOL     OW36883   1.894   2.822   7.317  0.1121 -0.2585 -0.5526
 8416SOL    HW136884   1.974   2.787   7.278  0.2247  1.6579 -2.0152
 8416SOL    HW236885   1.932   2.838   7.404 -0.1864  0.5999 -0.5888
 8417SOL     OW36886   0.717   2.709   5.568  0.4918 -0.8228  0.4989
 8417SOL    HW136887   0.677   2.705   5.655  2.1626 -2.6228  1.1850
 8417SOL    HW236888   0.695   2.618   5.547  0.3498 -0.7284  0.2254
 8418SOL     OW36889   3.162   4.211   2.087 -0.0616  0.7844  0.0770
 8418SOL    HW136890   3.076   4.250   2.107 -0.5922 -0.7406  0.7420
 8418SOL    HW236891   3.207   4.274   2.030  1.4514 -1.4922 -1.2287
 8419SOL     OW36892   1.051   4.376   6.998  0.0514 -0.1534 -0.0691
 8419SOL    HW136893   1.099   4.425   7.064 -0.4815 -1.3236  1.1908
 8419SOL    HW236894   1.001   4.322   7.059  0.7574  0.1727  0.7947
 8420SOL     OW36895   0.167   0.304   5.740 -0.0884  0.0229 -0.7007
 8420SOL    HW136896   0.232   0.344   5.683 -0.0301 -0.4063 -0.9370
 8420SOL    HW236897   0.116   0.377   5.775  1.0361 -0.1977  1.3488
 8421SOL     OW36898   2.396   0.325   7.767 -0.3856 -0.4016 -0.1914
 8421SOL    HW136899   2.444   0.348   7.847  0.7119  1.0889 -1.2683
 8421SOL    HW236900   2.374   0.232   7.765  2.1229 -0.9813 -1.6534
 8422SOL     OW36901   0.092   3.951  10.885 -0.0067  0.0784  0.8979
 8422SOL    HW136902   0.128   3.874  10.930  1.6627 -0.6868 -1.7538
 8422SOL    HW236903   0.094   4.022  10.949  1.0905 -0.2421  1.2134
 8423SOL     OW36904   0.349   0.702   2.586 -0.2581 -0.1841  0.6929
 8423SOL    HW136905   0.336   0.616   2.546  2.4539 -0.5046  0.5284
 8423SOL    HW236906   0.357   0.661   2.672  2.1938  0.6514  0.8532
 8424SOL     OW36907   1.588   1.075  14.146 -0.5709 -0.4405  0.1493
 8424SOL    HW136908   1.513   1.019  14.124 -0.4401 -0.5066 -0.1244
 8424SOL    HW236909   1.535   1.146  14.182  0.0153  0.2069 -0.2741
 8425SOL     OW36910   4.610   1.406   8.364  0.0815 -0.2882 -0.4221
 8425SOL    HW136911   4.573   1.487   8.332 -0.7489 -0.3362  0.4061
 8425SOL    HW236912   4.683   1.393   8.304  0.4418 -1.9069  0.3594
 8426SOL     OW36913   1.590   1.480  12.064 -0.1772 -0.3183 -0.3217
 8426SOL    HW136914   1.552   1.447  11.983 -0.2690  0.7545 -0.7126
 8426SOL    HW236915   1.674   1.518  12.039 -0.3837  0.0540 -0.4501
 8427SOL     OW36916   0.403   2.532   4.594 -0.1535 -0.3853 -0.4831
 8427SOL    HW136917   0.481   2.582   4.618 -0.4735 -0.2220  0.1995
 8427SOL    HW236918   0.397   2.465   4.662  1.8143  0.5538  0.6092
 8428SOL     OW36919   2.568   3.079   7.647 -0.7009  0.0544 -0.0555
 8428SOL    HW136920   2.578   3.048   7.557 -1.0087  1.7219 -0.6477
 8428SOL    HW236921   2.651   3.050   7.684 -0.7859 -0.2838 -0.1250
 8429SOL     OW36922   2.601   2.574   5.987  0.4599  0.0415  0.3570
 8429SOL    HW136923   2.532   2.507   5.981  0.3213  0.2265 -0.1847
 8429SOL    HW236924   2.582   2.604   6.076 -0.1862  0.5512  0.0505
 8430SOL     OW36925   0.831   1.429   6.152 -0.3713 -0.0056 -0.6029
 8430SOL    HW136926   0.768   1.420   6.080  0.1196 -0.9961 -0.9096
 8430SOL    HW236927   0.779   1.414   6.231 -0.9469  1.5791 -0.6619
 8431SOL     OW36928   4.097   3.842   4.047 -0.2469 -0.1315 -0.5072
 8431SOL    HW136929   4.001   3.838   4.048 -0.3505  2.5259  1.2591
 8431SOL    HW236930   4.122   3.890   3.969 -3.3295  0.9647 -0.8219
 8432SOL     OW36931   1.326   4.140   8.543  0.4380 -0.4082 -0.4408
 8432SOL    HW136932   1.260   4.087   8.589  0.2778 -0.4257 -0.6892
 8432SOL    HW236933   1.363   4.073   8.487  0.7182 -1.1190  0.6019
 8433SOL     OW36934   2.056   3.083  17.276 -0.2908 -0.6900  0.0711
 8433SOL    HW136935   2.045   3.178  17.266  1.6575 -0.4605  0.1268
 8433SOL    HW236936   2.059   3.048  17.187  0.5356  0.2492 -0.2821
 8434SOL     OW36937   3.070   3.225  15.173  0.3644  0.3275 -0.0642
 8434SOL    HW136938   3.132   3.186  15.234 -0.7154 -0.6213  0.4390
 8434SOL    HW236939   3.040   3.304  15.218 -0.9756  0.1427 -0.6367
 8435SOL     OW36940   2.080   4.455   9.668  0.1561  0.5236  0.4286
 8435SOL    HW136941   2.120   4.411   9.743  0.4883  1.3564  0.7407
 8435SOL    HW236942   2.044   4.383   9.617  4.5806 -1.2906 -0.0910
 8436SOL     OW36943   0.980   2.682   3.725  0.3872  0.4682 -0.2470
 8436SOL    HW136944   0.924   2.658   3.651 -0.8127  0.3162  0.7022
 8436SOL    HW236945   0.940   2.635   3.798  0.6744  1.2067  0.3935
 8437SOL     OW36946   0.148   1.441   7.671  0.5170  0.4243 -0.0054
 8437SOL    HW136947   0.122   1.350   7.659  1.8810  0.0813 -0.3536
 8437SOL    HW236948   0.066   1.486   7.694  0.3346 -0.6550  1.4380
 8438SOL     OW36949   2.496   1.866   9.492  0.1310  0.1770 -0.4555
 8438SOL    HW136950   2.544   1.914   9.424 -0.4938  1.1106 -0.2254
 8438SOL    HW236951   2.567   1.829   9.544 -1.2659 -0.0007  1.3097
 8439SOL     OW36952   3.669   3.501   4.600 -0.3846 -1.0820  0.5992
 8439SOL    HW136953   3.650   3.499   4.506  0.9956  3.0490  0.2197
 8439SOL    HW236954   3.623   3.578   4.633  3.7558  2.1967 -1.2267
 8440SOL     OW36955   2.509   0.408   2.342 -0.1082  0.1203  0.1463
 8440SOL    HW136956   2.567   0.479   2.312  1.5393 -1.2641  0.0394
 8440SOL    HW236957   2.546   0.326   2.309 -0.8331  0.0484 -0.4903
 8441SOL     OW36958   3.854   3.743   3.040 -0.2878  0.1331  0.2008
 8441SOL    HW136959   3.798   3.817   3.065 -2.4751 -1.8884  1.2305
 8441SOL    HW236960   3.882   3.706   3.123  3.3340  1.1702 -0.5487
 8442SOL     OW36961   2.184   4.205  17.251 -0.3361  0.3360  0.6803
 8442SOL    HW136962   2.115   4.201  17.184  1.1940  1.4252 -0.9715
 8442SOL    HW236963   2.236   4.285  17.243  0.9409 -0.6817 -1.1572
 8443SOL     OW36964   0.531   4.172  16.453 -0.3999 -0.0828  0.0966
 8443SOL    HW136965   0.452   4.119  16.457  0.8730 -2.0103 -0.4964
 8443SOL    HW236966   0.524   4.232  16.527 -1.4364 -1.4066  1.0500
 8444SOL     OW36967   1.740   4.664   8.962  0.1722  0.0588  0.2866
 8444SOL    HW136968   1.646   4.680   8.959  0.3416  0.7319 -1.4713
 8444SOL    HW236969   1.777   4.725   9.026  1.8357  0.0809 -0.6981
 8445SOL     OW36970   4.351   2.195   6.797 -0.6526  0.4716  0.1323
 8445SOL    HW136971   4.375   2.238   6.715  0.0343 -0.2280 -0.0371
 8445SOL    HW236972   4.311   2.113   6.767 -0.4660 -0.0155  1.2157
 8446SOL     OW36973   1.557   4.275  15.805 -0.0114 -0.1370 -0.0124
 8446SOL    HW136974   1.463   4.260  15.798 -0.3661  1.8122  0.5469
 8446SOL    HW236975   1.569   4.349  15.746  0.1128  1.0012  1.4176
 8447SOL     OW36976   1.979   0.699   6.116  0.0554  0.4988 -0.2250
 8447SOL    HW136977   2.036   0.763   6.073 -0.9107  0.4400 -1.5950
 8447SOL    HW236978   2.035   0.622   6.115 -0.5231  0.0833 -0.2119
 8448SOL     OW36979   1.133   2.566   5.047  0.3697 -0.3904  0.2898
 8448SOL    HW136980   1.065   2.521   4.997 -0.4325  0.5685  0.5184
 8448SOL    HW236981   1.166   2.502   5.110 -0.7358 -0.2059  1.0653
 8449SOL     OW36982   3.021   0.203   5.715 -0.0933 -0.2294 -0.0016
 8449SOL    HW136983   2.936   0.159   5.724 -0.8109  0.8213 -1.6626
 8449SOL    HW236984   3.008   0.275   5.777  1.0641  0.7296 -0.8624
 8450SOL     OW36985   3.016   0.043   6.694  0.3669 -0.1886  0.1632
 8450SOL    HW136986   2.966   4.700   6.704  2.6007 -1.1352  3.4900
 8450SOL    HW236987   3.106   0.012   6.703  0.5127  0.0360 -0.5035
 8451SOL     OW36988   3.617   1.472   8.647  0.0905  0.0040  0.0722
 8451SOL    HW136989   3.542   1.449   8.592  1.1683 -0.6499 -1.1402
 8451SOL    HW236990   3.601   1.417   8.724 -0.6125 -1.4129 -1.0801
 8452SOL     OW36991   2.758   4.021   2.982 -0.0856 -0.0873  0.0502
 8452SOL    HW136992   2.790   4.067   3.060  0.5233 -1.5969  0.7012
 8452SOL    HW236993   2.836   4.025   2.926  2.1940  1.2157  3.2855
 8453SOL     OW36994   2.381   3.152   5.732  0.6289 -0.0555  0.0390
 8453SOL    HW136995   2.395   3.243   5.758 -1.1393  0.0408  0.7116
 8453SOL    HW236996   2.464   3.130   5.690 -0.0239 -1.1939 -0.6575
 8454SOL     OW36997   3.016   2.662   6.207  0.5659 -0.4531  0.1304
 8454SOL    HW136998   2.955   2.607   6.157  2.8469 -0.7849 -2.2608
 8454SOL    HW236999   3.069   2.591   6.244 -0.2335 -0.5595  1.0635
 8455SOL     OW37000   3.591   4.668   4.120 -0.8249 -0.2116  0.7105
 8455SOL    HW137001   3.538   4.649   4.197 -1.7442 -1.3088 -0.1942
 8455SOL    HW237002   3.632   0.007   4.160 -1.0921  0.3524 -0.0942
 8456SOL     OW37003   0.818   2.271  14.582  0.0302 -0.0241 -0.2158
 8456SOL    HW137004   0.768   2.215  14.523 -0.6607  2.6175 -2.1249
 8456SOL    HW237005   0.800   2.357  14.544  0.0415  0.1474  0.1653
 8457SOL     OW37006   1.249   4.472   5.875  0.5365 -0.1972 -0.2157
 8457SOL    HW137007   1.283   4.423   5.949  0.4880  0.1248  0.0230
 8457SOL    HW237008   1.299   4.430   5.805  1.3297 -1.8606  1.3779
 8458SOL     OW37009   4.668   1.172  13.116  0.2773 -0.4492  0.7105
 8458SOL    HW137010   4.692   1.105  13.052 -0.4767  0.0149 -0.0486
 8458SOL    HW237011   0.016   1.207  13.141  0.4557  0.2677 -0.9191
 8459SOL     OW37012   3.314   3.110   9.196 -0.9032 -0.3817  0.4076
 8459SOL    HW137013   3.327   3.021   9.164 -0.8372 -0.4532  0.6310
 8459SOL    HW237014   3.277   3.089   9.282  0.3127 -2.4215  0.4324
 8460SOL     OW37015   1.323   4.493  11.996  0.4880  0.0291  0.1290
 8460SOL    HW137016   1.394   4.557  11.994 -0.4240  1.0171 -1.0051
 8460SOL    HW237017   1.375   4.419  12.028 -2.3774 -1.3657  1.5636
 8461SOL     OW37018   2.896   0.703   6.978 -0.5821 -0.4690 -0.4534
 8461SOL    HW137019   2.821   0.750   7.013  1.1388  0.0949  2.4896
 8461SOL    HW237020   2.855   0.627   6.936  1.0577 -2.0356  0.7841
 8462SOL     OW37021   4.144   1.541  16.454  0.7860  0.2511  0.3624
 8462SOL    HW137022   4.167   1.595  16.378 -2.1294  1.2353  0.1877
 8462SOL    HW237023   4.220   1.563  16.508  1.4065  0.7284 -0.7256
 8463SOL     OW37024   1.388   4.609   1.651  0.4850 -0.1204  0.2574
 8463SOL    HW137025   1.379   4.645   1.563 -1.0008 -2.1075 -0.4077
 8463SOL    HW237026   1.437   4.678   1.696 -1.6175  0.7268  1.2595
 8464SOL     OW37027   3.863   0.758   5.802  0.6623  0.3155  0.3621
 8464SOL    HW137028   3.829   0.794   5.884  1.7560 -1.6996  1.6933
 8464SOL    HW237029   3.806   0.682   5.794 -0.6256  1.2683  0.5923
 8465SOL     OW37030   1.678   0.129   6.126 -0.1414  0.6592 -0.3291
 8465SOL    HW137031   1.653   0.079   6.204  0.6226  2.0802  0.8238
 8465SOL    HW237032   1.614   0.088   6.067 -1.1244  1.4269  0.1976
 8466SOL     OW37033   0.383   2.516   4.303 -0.3603  0.1161 -0.0219
 8466SOL    HW137034   0.315   2.582   4.290 -0.8715 -0.3499  0.2630
 8466SOL    HW237035   0.393   2.528   4.397  1.7096 -0.4164 -0.1705
 8467SOL     OW37036   4.111   1.626   2.700  0.7968  0.2330 -0.0064
 8467SOL    HW137037   4.070   1.576   2.771 -1.0976  0.7228 -0.7590
 8467SOL    HW237038   4.156   1.552   2.660  0.1976 -0.6778  1.0062
 8468SOL     OW37039   4.028   1.021   0.939  0.5041  0.4564  0.0974
 8468SOL    HW137040   4.013   1.100   0.887 -2.7919 -0.3099 -0.1134
 8468SOL    HW237041   4.101   0.989   0.886  1.1012  2.0822 -0.0656
 8469SOL     OW37042   1.426   0.885  13.328 -0.4964  0.0087  0.3259
 8469SOL    HW137043   1.381   0.909  13.247  2.7772 -0.9471 -1.7856
 8469SOL    HW237044   1.514   0.855  13.304  0.4862  1.4798  2.0603
 8470SOL     OW37045   3.529   1.296   3.884  1.0189  0.0323 -0.0082
 8470SOL    HW137046   3.572   1.344   3.955  1.1587 -0.4792  0.2518
 8470SOL    HW237047   3.600   1.236   3.863  1.2518 -0.1319  1.2649
 8471SOL     OW37048   4.680   2.364   4.210  0.0469  0.0718  0.3315
 8471SOL    HW137049   0.017   2.356   4.151 -1.3307  4.1623 -1.9639
 8471SOL    HW237050   4.635   2.447   4.194  0.9592  0.4749 -0.1706
 8472SOL     OW37051   0.522   2.866   4.358  0.3364  0.3841  0.0667
 8472SOL    HW137052   0.542   2.833   4.445 -2.1908 -0.6786  0.2524
 8472SOL    HW237053   0.428   2.848   4.354  0.0132  1.4448  3.5002
 8473SOL     OW37054   4.296   1.283   6.369  0.4290 -0.0095  0.5515
 8473SOL    HW137055   4.201   1.291   6.361  0.1561 -2.8491  0.9288
 8473SOL    HW237056   4.306   1.314   6.459  1.2865  0.5309  0.2701
 8474SOL     OW37057   2.355   4.439   2.277  0.1774 -0.6006  0.0380
 8474SOL    HW137058   2.313   4.361   2.241 -1.1583 -0.1787  0.7073
 8474SOL    HW237059   2.360   4.502   2.205 -0.0402 -0.7671 -0.1201
 8475SOL     OW37060   2.528   3.260  13.860 -0.2498  0.4343 -0.1554
 8475SOL    HW137061   2.555   3.179  13.818 -0.1406 -0.2058  1.1682
 8475SOL    HW237062   2.433   3.255  13.861 -0.1602 -1.0780  0.0904
 8476SOL     OW37063   4.165   1.614  13.205 -0.6915 -0.1159  0.0806
 8476SOL    HW137064   4.122   1.583  13.285 -0.0332  2.3086  1.3804
 8476SOL    HW237065   4.149   1.546  13.140 -0.1254 -1.0293  0.8873
 8477SOL     OW37066   3.507   0.733   6.613 -0.2112 -0.0338  0.6829
 8477SOL    HW137067   3.459   0.694   6.540 -1.4506  0.5549  1.1865
 8477SOL    HW237068   3.435   0.743   6.675 -0.8406 -2.2972  0.3099
 8478SOL     OW37069   2.668   0.098   1.981 -0.1622 -0.7740  0.6978
 8478SOL    HW137070   2.677   0.003   1.971 -3.2395 -1.1430  1.3126
 8478SOL    HW237071   2.744   0.133   1.936 -0.9098  0.2016  0.2067
 8479SOL     OW37072   3.234   0.294   9.075  0.6098  0.1999 -0.4736
 8479SOL    HW137073   3.273   0.308   8.989 -0.3084  1.2426 -0.7190
 8479SOL    HW237074   3.145   0.270   9.050  0.9255 -1.3020 -0.1315
 8480SOL     OW37075   3.624   0.691  10.484 -0.1510  0.5978 -0.1883
 8480SOL    HW137076   3.577   0.614  10.516  2.0696 -0.0366  1.5980
 8480SOL    HW237077   3.655   0.647  10.405 -1.3768 -1.0750  0.2468
 8481SOL     OW37078   1.769   1.359   6.611 -0.9080 -0.0024  0.0987
 8481SOL    HW137079   1.701   1.425   6.604 -2.0554 -1.0527  1.2984
 8481SOL    HW237080   1.798   1.361   6.703 -0.1556  0.5014 -0.1506
 8482SOL     OW37081   1.678   0.314   2.419  0.4182  0.0390 -0.0616
 8482SOL    HW137082   1.703   0.241   2.364 -0.3596  0.6384 -1.2085
 8482SOL    HW237083   1.654   0.261   2.495 -0.3182 -0.3647 -0.5748
 8483SOL     OW37084   2.196   1.004   7.491  0.1827  0.7808 -0.0003
 8483SOL    HW137085   2.170   1.094   7.468 -3.8723 -0.9006 -1.8786
 8483SOL    HW237086   2.290   1.021   7.487 -0.0670  1.8001 -1.8070
 8484SOL     OW37087   1.820   2.971  13.693  0.2482  0.1536  0.0194
 8484SOL    HW137088   1.802   2.992  13.785 -0.7573  1.5918 -0.4892
 8484SOL    HW237089   1.837   2.877  13.700 -1.7458 -0.2534 -0.7085
 8485SOL     OW37090   1.592   1.155   6.872 -0.4180  0.6061 -0.3400
 8485SOL    HW137091   1.633   1.168   6.957  0.8392  1.0435 -1.0128
 8485SOL    HW237092   1.664   1.108   6.830 -2.7940 -1.4869 -2.1187
 8486SOL     OW37093   3.704   0.661   7.217  0.8507  0.4212 -0.0256
 8486SOL    HW137094   3.795   0.691   7.217  0.9062  0.2529  1.5778
 8486SOL    HW237095   3.665   0.741   7.181  1.2503  1.4621  1.8507
 8487SOL     OW37096   0.213   0.577   3.903  0.0308 -0.1857  0.1222
 8487SOL    HW137097   0.197   0.563   3.996  1.1843  1.7847  0.6150
 8487SOL    HW237098   0.298   0.536   3.891 -0.4877 -0.9185 -1.0591
 8488SOL     OW37099   3.756   3.470   1.736 -0.1120  0.2222 -0.0501
 8488SOL    HW137100   3.759   3.459   1.831  1.7946 -0.4071 -0.1829
 8488SOL    HW237101   3.740   3.564   1.725  2.2230  0.4743 -1.4112
 8489SOL     OW37102   1.157   4.722   2.437  0.2687 -0.1273  0.2119
 8489SOL    HW137103   1.177   0.077   2.424  0.7970 -0.4014 -0.9122
 8489SOL    HW237104   1.218   4.686   2.372 -1.3207 -0.9146 -0.8324
 8490SOL     OW37105   2.919   0.269  12.891 -0.6910 -0.3687 -0.2333
 8490SOL    HW137106   2.992   0.208  12.881  0.2517  0.9916 -1.8363
 8490SOL    HW237107   2.844   0.220  12.924 -1.5674  1.2296  0.1861
 8491SOL     OW37108   3.318   0.776   7.129 -0.1082 -0.1992 -0.3525
 8491SOL    HW137109   3.372   0.791   7.207  1.7111  0.5567 -1.7664
 8491SOL    HW237110   3.278   0.693   7.155  3.2568 -1.3634  1.0460
 8492SOL     OW37111   4.247   1.063   5.664 -0.6402  0.3733 -0.3522
 8492SOL    HW137112   4.190   1.129   5.704  0.3763  0.8852  0.2694
 8492SOL    HW237113   4.196   0.982   5.668 -1.9959  1.2450  0.0529
 8493SOL     OW37114   1.037   0.466   3.316 -0.0334  0.8390 -0.6873
 8493SOL    HW137115   1.113   0.427   3.273 -0.8572  1.0607 -2.3542
 8493SOL    HW237116   1.077   0.519   3.385  0.7832  0.6119 -0.9817
 8494SOL     OW37117   0.834   1.810   6.932  0.2655  0.2096  0.2259
 8494SOL    HW137118   0.893   1.779   7.000 -1.4995 -2.3611  0.5813
 8494SOL    HW237119   0.806   1.894   6.968 -3.3239  0.2554 -2.6829
 8495SOL     OW37120   4.318   2.753   5.314 -0.0630 -0.0292  0.1421
 8495SOL    HW137121   4.379   2.692   5.273 -0.3546  0.4671 -1.0053
 8495SOL    HW237122   4.303   2.720   5.403 -2.3898  0.0723 -0.2377
 8496SOL     OW37123   4.296   2.184   5.490  0.0085 -0.0829  0.3119
 8496SOL    HW137124   4.314   2.274   5.517  1.2275 -0.3207  0.2941
 8496SOL    HW237125   4.374   2.138   5.519 -0.0832 -0.3218  0.1811
 8497SOL     OW37126   3.868   4.158   2.867 -0.5431 -0.1773 -0.2339
 8497SOL    HW137127   3.846   4.118   2.783  1.1327  0.4608 -0.9726
 8497SOL    HW237128   3.951   4.124   2.899  0.2637  1.0179 -1.0541
 8498SOL     OW37129   1.979   4.554   6.536 -0.2617  0.1564 -0.1894
 8498SOL    HW137130   2.042   4.486   6.513 -0.3708  0.4672 -1.4310
 8498SOL    HW237131   1.898   4.502   6.530 -0.6801  0.6483  1.3263
 8499SOL     OW37132   1.497   4.610  15.336 -0.4139  0.0288 -0.6234
 8499SOL    HW137133   1.509   4.526  15.291  0.9535 -1.2741  2.1944
 8499SOL    HW237134   1.562   4.664  15.292 -0.4337  0.2015 -0.4398
 8500SOL     OW37135   2.031   3.160   3.225 -0.1930 -0.2710  0.0739
 8500SOL    HW137136   1.952   3.118   3.192 -1.8074  1.2668  2.0093
 8500SOL    HW237137   2.018   3.161   3.320 -1.0167 -2.9683 -0.0218
 8501SOL     OW37138   2.572   2.996   7.132 -0.8250 -0.7594 -0.2484
 8501SOL    HW137139   2.513   3.069   7.113  1.0195  0.2086 -2.1765
 8501SOL    HW237140   2.641   3.009   7.066  0.1810  1.1121  1.1903
 8502SOL     OW37141   3.658   1.137  10.660  0.2577  0.1838  0.0383
 8502SOL    HW137142   3.745   1.165  10.632  0.8724 -0.4098  1.3362
 8502SOL    HW237143   3.601   1.210  10.637 -0.6937 -0.7569 -0.6121
 8503SOL     OW37144   2.893   0.764   8.874  0.2327 -0.2110 -0.5981
 8503SOL    HW137145   2.934   0.797   8.794 -2.8311  2.2642 -1.1401
 8503SOL    HW237146   2.969   0.773   8.931  0.1349  0.8959 -0.6587
 8504SOL     OW37147   0.184   4.266   2.910  0.1188  0.1204  0.2127
 8504SOL    HW137148   0.186   4.362   2.912  1.1434  0.1226 -0.7869
 8504SOL    HW237149   0.109   4.249   2.967 -0.1694  0.1382 -0.1600
 8505SOL     OW37150   4.308   3.892   8.489  0.1156 -0.6834  0.2596
 8505SOL    HW137151   4.242   3.827   8.510  1.2165 -1.2942  1.8166
 8505SOL    HW237152   4.329   3.856   8.403 -0.3889 -2.5914  0.9501
 8506SOL     OW37153   2.866   0.662   3.976 -0.3352 -0.0099  0.7771
 8506SOL    HW137154   2.946   0.708   3.952 -0.2065 -0.7552 -0.1977
 8506SOL    HW237155   2.906   0.576   3.978 -0.6595 -0.2000 -1.0408
 8507SOL     OW37156   0.667   1.098   5.971  0.0722 -0.1181 -0.3981
 8507SOL    HW137157   0.673   1.045   5.891  1.4061 -1.4910  0.5992
 8507SOL    HW237158   0.739   1.160   5.957  1.9975 -2.3746 -0.6423
 8508SOL     OW37159   1.674   1.189   1.753  0.4730  0.0176  0.3352
 8508SOL    HW137160   1.702   1.280   1.759 -1.7434  0.6737  0.6356
 8508SOL    HW237161   1.710   1.167   1.667 -1.4519 -2.5004  0.1869
 8509SOL     OW37162   3.895   1.216   7.594  0.7721  0.2066 -0.1525
 8509SOL    HW137163   3.882   1.226   7.500 -2.7545  1.6089  0.4730
 8509SOL    HW237164   3.840   1.291   7.616  1.9944  1.7194 -2.3149
 8510SOL     OW37165   4.491   3.320  15.695 -0.4655 -0.0529  0.1413
 8510SOL    HW137166   4.462   3.238  15.656  0.1208 -0.6023  0.8543
 8510SOL    HW237167   4.510   3.377  15.620 -0.6755  0.6378  0.6060
 8511SOL     OW37168   1.953   0.910   3.228  0.7613  0.1178  0.4957
 8511SOL    HW137169   1.935   0.853   3.154 -0.1568  0.2615  0.6018
 8511SOL    HW237170   2.014   0.974   3.192  0.5791 -0.5861 -1.0581
 8512SOL     OW37171   4.689   1.569   9.005  0.2543 -0.4025  0.6426
 8512SOL    HW137172   4.682   1.557   8.910  2.3864 -0.7879  0.5249
 8512SOL    HW237173   0.038   1.532   9.016  1.6070  2.8824  0.9134
 8513SOL     OW37174   1.126   1.524   1.233  0.2514 -0.6349 -0.1539
 8513SOL    HW137175   1.206   1.545   1.280  1.1291 -1.2877 -1.3770
 8513SOL    HW237176   1.153   1.476   1.155  0.1441 -0.0567 -0.5484
 8514SOL     OW37177   1.189   1.248   5.340 -0.4742  0.5684  0.8160
 8514SOL    HW137178   1.260   1.198   5.299 -1.7403  1.1488 -2.0452
 8514SOL    HW237179   1.183   1.314   5.270 -0.1521  0.1684  0.4116
 8515SOL     OW37180   2.736   0.409  16.312 -0.5472 -0.1253 -0.3492
 8515SOL    HW137181   2.730   0.491  16.262  0.4420  0.6299  0.7645
 8515SOL    HW237182   2.649   0.408  16.351 -0.2956  0.2185  0.2303
 8516SOL     OW37183   1.436   0.478  15.807 -0.2037 -0.7104 -0.3574
 8516SOL    HW137184   1.495   0.550  15.783  1.8558 -1.3160  2.9311
 8516SOL    HW237185   1.387   0.476  15.724 -0.9322 -0.8288  0.0778
 8517SOL     OW37186   3.405   0.717   6.875 -0.2695 -0.7322  0.3919
 8517SOL    HW137187   3.385   0.760   6.957 -1.1172 -0.0052 -0.1949
 8517SOL    HW237188   3.363   0.632   6.890 -1.5506 -0.0133  0.8340
 8518SOL     OW37189   0.149   3.149   5.997  0.5343  0.4481  0.3536
 8518SOL    HW137190   0.096   3.209   5.945 -1.5640 -0.5753  1.3306
 8518SOL    HW237191   0.078   3.095   6.032  0.0851  0.7734 -0.0763
 8519SOL     OW37192   3.539   2.838  15.526 -0.0345  0.2834  0.0565
 8519SOL    HW137193   3.606   2.769  15.526 -0.4556 -0.1350 -0.7197
 8519SOL    HW237194   3.469   2.801  15.472  1.7423  0.3924 -2.3363
 8520SOL     OW37195   1.175   4.208   5.364  0.6874  0.1042 -0.1921
 8520SOL    HW137196   1.083   4.232   5.370  0.9728  1.0050  0.5967
 8520SOL    HW237197   1.223   4.290   5.381  2.6419 -1.2191  0.6269
 8521SOL     OW37198   3.307   3.997   4.225  0.2383  0.8592 -0.5210
 8521SOL    HW137199   3.227   3.961   4.185 -0.1466 -1.3723  2.2517
 8521SOL    HW237200   3.317   4.082   4.183 -1.3681  0.9492 -0.7433
 8522SOL     OW37201   3.376   4.699  14.273  0.2622  0.0201 -0.3427
 8522SOL    HW137202   3.326   0.035  14.239  0.7241 -0.6345 -2.4837
 8522SOL    HW237203   3.460   0.007  14.270  0.8868 -0.9687  1.7277
 8523SOL     OW37204   4.395   1.393   3.220 -0.6039 -0.2994  0.2351
 8523SOL    HW137205   4.485   1.362   3.230 -1.3702 -2.5280  0.3879
 8523SOL    HW237206   4.396   1.432   3.307  0.3742  3.0751 -1.2855
 8524SOL     OW37207   2.374   2.553   1.780 -0.6065  0.1738 -0.3208
 8524SOL    HW137208   2.350   2.628   1.835  2.5209 -0.6701  2.1646
 8524SOL    HW237209   2.287   2.513   1.781 -0.2965 -0.4864  0.8269
 8525SOL     OW37210   1.662   2.832  13.357  0.1892 -0.0558  0.4619
 8525SOL    HW137211   1.627   2.744  13.343 -2.8308  0.9555  1.6606
 8525SOL    HW237212   1.755   2.818  13.335 -0.1510  0.7112 -1.4433
 8526SOL     OW37213   2.388   1.130   9.246 -0.1393  0.2575  0.1021
 8526SOL    HW137214   2.363   1.066   9.179 -0.1148  1.8962 -1.4704
 8526SOL    HW237215   2.453   1.077   9.292 -0.0038  0.1373 -0.2296
 8527SOL     OW37216   2.076   2.918   2.840 -0.9573 -0.1708  0.0337
 8527SOL    HW137217   2.064   2.891   2.749  1.5652 -1.6127  0.1352
 8527SOL    HW237218   2.169   2.918   2.860 -0.5631 -0.4643 -1.8092
 8528SOL     OW37219   4.048   0.167   7.663  0.4523  0.0070  0.0246
 8528SOL    HW137220   3.985   0.114   7.711 -1.1143  1.9151  0.1083
 8528SOL    HW237221   4.118   0.171   7.728  0.8155 -0.4975 -0.3303
 8529SOL     OW37222   2.678   2.717   6.905  0.3545 -0.1746 -0.5256
 8529SOL    HW137223   2.736   2.697   6.978  0.7605  0.4349 -0.6804
 8529SOL    HW237224   2.680   2.639   6.850  0.5885 -0.1792 -0.5094
 8530SOL     OW37225   1.779   2.484  13.219 -0.0408 -0.5357 -0.4477
 8530SOL    HW137226   1.792   2.402  13.266 -0.4661 -1.0037 -1.1519
 8530SOL    HW237227   1.700   2.520  13.260  1.5560  0.6991  1.5214
 8531SOL     OW37228   2.837   1.691   7.001  0.3871 -0.1177 -0.7444
 8531SOL    HW137229   2.806   1.696   6.911  1.0740  1.4352 -0.8952
 8531SOL    HW237230   2.930   1.698   6.981  0.4900  0.0652 -0.2091
 8532SOL     OW37231   1.263   4.586   5.324  0.3715 -0.1842  0.2461
 8532SOL    HW137232   1.202   4.635   5.379  0.4508 -1.8997  1.8600
 8532SOL    HW237233   1.320   4.662   5.310 -0.4603  0.1748 -1.1331
 8533SOL     OW37234   3.208   4.064   8.450  0.6955  0.1828  0.3212
 8533SOL    HW137235   3.277   4.006   8.484  0.9749  0.6038  0.4642
 8533SOL    HW237236   3.136   4.049   8.512  0.8948 -1.0075  0.2680
 8534SOL     OW37237   2.617   4.432   8.500 -0.4500 -0.1736 -0.2581
 8534SOL    HW137238   2.531   4.414   8.538 -0.7048  2.0443  0.1942
 8534SOL    HW237239   2.672   4.374   8.553 -1.6481 -0.0038  1.2058
 8535SOL     OW37240   2.151   2.452   4.099 -0.2986 -0.4990  0.2135
 8535SOL    HW137241   2.216   2.519   4.076 -0.2271 -0.7512 -0.3102
 8535SOL    HW237242   2.069   2.500   4.109 -0.7748 -1.5521  1.3263
 8536SOL     OW37243   3.986   3.319  14.717  0.1196  0.1991 -0.3192
 8536SOL    HW137244   3.985   3.320  14.621  1.1539  1.9449 -0.3046
 8536SOL    HW237245   3.992   3.414  14.729  0.0623 -0.0339  1.4556
 8537SOL     OW37246   1.486   2.014   9.796 -0.3122 -0.1824  0.1384
 8537SOL    HW137247   1.486   1.962   9.876  3.0723 -1.0533 -0.4063
 8537SOL    HW237248   1.509   2.103   9.824 -0.9057  0.1822 -0.5295
 8538SOL     OW37249   3.490   3.451   0.108  0.0991 -0.1723  0.1842
 8538SOL    HW137250   3.554   3.518   0.134  0.2098  0.1701 -0.9665
 8538SOL    HW237251   3.547   3.399   0.052  0.2206 -0.1487  0.2851
 8539SOL     OW37252   0.625   2.870   1.368  0.6784  0.3439  0.1197
 8539SOL    HW137253   0.539   2.828   1.364  0.5136  0.7923 -1.1086
 8539SOL    HW237254   0.679   2.790   1.367  1.4391  0.8583 -0.7830
 8540SOL     OW37255   2.571   1.021   7.191 -0.0779 -0.0946 -0.4975
 8540SOL    HW137256   2.638   1.089   7.181  0.2611 -0.6171 -1.7296
 8540SOL    HW237257   2.530   1.043   7.275 -0.4948 -0.6421 -0.5580
 8541SOL     OW37258   3.868   1.006   9.812  0.4421  0.0196 -0.2364
 8541SOL    HW137259   3.837   1.096   9.821 -0.1835 -0.1768 -0.4380
 8541SOL    HW237260   3.866   0.963   9.898  2.8819  0.9166  0.2705
 8542SOL     OW37261   3.349   3.400   3.806  0.0297  0.0967  0.2670
 8542SOL    HW137262   3.394   3.468   3.856 -1.0737 -0.0523  1.4709
 8542SOL    HW237263   3.332   3.439   3.720 -0.3619 -0.3320  0.1531
 8543SOL     OW37264   2.985   0.236   3.221  0.3774  0.0306  0.2195
 8543SOL    HW137265   2.958   0.170   3.157 -1.0509 -0.2800  1.1225
 8543SOL    HW237266   2.933   0.214   3.299  1.0974 -0.1367  0.6541
 8544SOL     OW37267   1.856   2.074   3.334 -0.1644  0.0365  0.5763
 8544SOL    HW137268   1.803   2.119   3.268 -0.9513 -3.0431 -0.9087
 8544SOL    HW237269   1.934   2.128   3.344 -0.0300 -0.4267  2.0600
 8545SOL     OW37270   2.869   0.266   6.026 -0.5595 -0.4671  0.4850
 8545SOL    HW137271   2.941   0.203   6.022  1.8444  2.5346 -2.8347
 8545SOL    HW237272   2.811   0.209   6.079 -1.9814  0.5164 -0.0105
 8546SOL     OW37273   1.462   4.665   8.961  0.0290 -0.0278 -0.7043
 8546SOL    HW137274   1.447   0.016   8.993 -1.4830 -0.3650 -0.4488
 8546SOL    HW237275   1.393   4.647   8.897 -0.8010  1.0015 -0.1037
 8547SOL     OW37276   1.064   0.149  11.428  0.0722 -0.1190  0.5338
 8547SOL    HW137277   1.147   0.178  11.391 -1.8674  1.9035 -2.3196
 8547SOL    HW237278   1.094   0.159  11.518 -2.1119 -0.9048  1.3578
 8548SOL     OW37279   2.010   1.014   5.773 -0.4128  0.0241 -0.1270
 8548SOL    HW137280   2.009   0.980   5.684  3.1305  0.6063 -0.3867
 8548SOL    HW237281   1.922   1.033   5.807 -0.1258  0.3616  0.4349
 8549SOL     OW37282   1.411   4.297   5.699 -0.5001  0.0864  0.3103
 8549SOL    HW137283   1.401   4.316   5.605 -0.7164  2.6234  0.8329
 8549SOL    HW237284   1.398   4.202   5.699 -1.6475  0.2459 -1.0617
 8550SOL     OW37285   4.564   4.256   4.406 -0.2306  0.3283  0.3437
 8550SOL    HW137286   4.510   4.282   4.332  0.7135  2.3666  0.3627
 8550SOL    HW237287   4.646   4.240   4.360  1.0249  0.9914  2.3414
 8551SOL     OW37288   4.299   3.708   4.904  0.0082 -0.0612 -0.5758
 8551SOL    HW137289   4.264   3.731   4.818 -1.0355  0.3545 -0.0377
 8551SOL    HW237290   4.254   3.626   4.923  0.5144 -0.3089 -0.4420
 8552SOL     OW37291   4.703   3.912   2.806  0.3272 -0.0875 -0.8786
 8552SOL    HW137292   4.645   3.955   2.869 -1.3862  1.3419 -3.4271
 8552SOL    HW237293   4.690   3.965   2.727 -1.1115  1.8486  0.6611
 8553SOL     OW37294   4.294   2.244   7.095  0.2217 -0.0862  0.0388
 8553SOL    HW137295   4.261   2.154   7.090 -1.1831  0.4856 -1.0395
 8553SOL    HW237296   4.346   2.243   7.014  0.2594 -1.1521  0.0809
 8554SOL     OW37297   3.781   2.996   4.047 -0.2891 -0.9197 -0.0849
 8554SOL    HW137298   3.869   3.033   4.038 -0.4284 -0.7500 -0.7274
 8554SOL    HW237299   3.766   2.985   3.953 -0.4707 -0.8180 -0.0676
 8555SOL     OW37300   1.976   0.164  11.739 -0.2678 -0.3172 -0.0198
 8555SOL    HW137301   2.045   0.149  11.674 -1.1066  1.5649 -1.3269
 8555SOL    HW237302   2.038   0.174  11.810  0.9024 -4.1457 -0.4786
 8556SOL     OW37303   0.458   3.899   4.784 -0.4529  0.7556  0.1990
 8556SOL    HW137304   0.375   3.884   4.738 -0.9767 -0.6936  1.6308
 8556SOL    HW237305   0.430   3.954   4.856  1.1154 -2.0922  2.9983
 8557SOL     OW37306   4.165   1.291   9.621  0.5776  0.8151 -0.9254
 8557SOL    HW137307   4.110   1.363   9.590  0.3459  1.9388  2.0890
 8557SOL    HW237308   4.243   1.345   9.610  0.2651  1.0437 -1.9758
 8558SOL     OW37309   3.725   0.520  10.297  0.8577 -0.1818  0.2703
 8558SOL    HW137310   3.741   0.474  10.215 -2.1537 -0.9075  0.0972
 8558SOL    HW237311   3.697   0.451  10.357 -0.2468  1.1300  1.2580
 8559SOL     OW37312   0.947   0.617   6.578 -0.0482  0.2358  0.0272
 8559SOL    HW137313   0.946   0.554   6.650 -2.0579  0.2479  0.0309
 8559SOL    HW237314   0.887   0.567   6.522  0.4948  0.3551 -0.6630
 8560SOL     OW37315   1.835   3.719   4.918 -0.0861  0.5972 -0.4435
 8560SOL    HW137316   1.897   3.662   4.873  1.5346  2.8408 -1.0335
 8560SOL    HW237317   1.793   3.660   4.980  2.6611 -0.1598  0.6985
 8561SOL     OW37318   0.940   4.092  13.701 -0.0538 -0.0893  0.3133
 8561SOL    HW137319   0.902   4.007  13.678 -2.6413  1.0119  0.4705
 8561SOL    HW237320   1.034   4.081  13.711  0.1472 -0.2677 -1.9214
 8562SOL     OW37321   3.088   0.564   5.023  0.0736  0.1139  0.0982
 8562SOL    HW137322   3.173   0.527   4.998 -0.6957 -0.1030 -2.1650
 8562SOL    HW237323   3.113   0.656   5.016  2.2158 -0.5330 -0.7404
 8563SOL     OW37324   4.120   0.960   6.669  0.4347  0.3652  0.3414
 8563SOL    HW137325   4.165   1.006   6.740 -0.8113 -0.1267  1.4468
 8563SOL    HW237326   4.173   0.881   6.674 -0.7974 -0.2988  2.6823
 8564SOL     OW37327   2.912   3.944   1.861  0.0843 -0.1959  0.0214
 8564SOL    HW137328   2.827   3.938   1.904  0.3931 -1.5443  0.4323
 8564SOL    HW237329   2.946   3.855   1.852  1.5354  0.3351  0.2128
 8565SOL     OW37330   1.349   2.676  14.121 -0.2694 -0.7170 -0.0881
 8565SOL    HW137331   1.394   2.650  14.041  1.4522  0.9641  0.3394
 8565SOL    HW237332   1.407   2.641  14.188 -0.1471 -2.2541 -1.0030
 8566SOL     OW37333   4.274   3.820   4.451 -0.1727 -0.3029  0.0412
 8566SOL    HW137334   4.290   3.877   4.527 -2.3794  0.8724 -0.3509
 8566SOL    HW237335   4.200   3.767   4.480  1.0030 -1.2110  1.3905
 8567SOL     OW37336   1.698   0.040  15.223  0.1187  0.2432  0.0952
 8567SOL    HW137337   1.633   0.105  15.250 -0.4581 -0.8027  1.2176
 8567SOL    HW237338   1.780   0.081  15.247  0.8580 -1.1079 -0.1368
 8568SOL     OW37339   1.957   2.524   1.566 -0.1225 -0.2562 -0.7968
 8568SOL    HW137340   1.974   2.583   1.492  2.6104 -0.3425 -0.2367
 8568SOL    HW237341   1.861   2.530   1.569 -0.1865 -0.7843 -1.9292
 8569SOL     OW37342   2.094   0.113   7.778 -0.4206 -0.3301  0.1535
 8569SOL    HW137343   2.126   0.175   7.843 -2.4114  0.7048  0.1626
 8569SOL    HW237344   2.114   0.036   7.831 -1.4146 -1.1503 -0.6757
 8570SOL     OW37345   3.046   3.476  13.544  0.3505  0.1466 -0.5607
 8570SOL    HW137346   3.016   3.538  13.611 -1.1760 -0.9291 -0.2316
 8570SOL    HW237347   3.100   3.531  13.488 -1.0756 -0.0341 -2.1118
 8571SOL     OW37348   3.732   4.458   8.754  0.5849 -0.7697 -0.0320
 8571SOL    HW137349   3.756   4.503   8.673  2.9704 -0.1302  1.0443
 8571SOL    HW237350   3.770   4.373   8.733 -0.1524 -0.9945 -0.4536
 8572SOL     OW37351   4.584   0.813   9.250 -0.0965  0.0689 -0.7110
 8572SOL    HW137352   4.642   0.834   9.323  0.9456 -1.6448 -1.0793
 8572SOL    HW237353   4.504   0.865   9.265 -0.4689 -0.4171 -1.0319
 8573SOL     OW37354   0.536   3.926   9.166  0.1731 -0.4050  0.2526
 8573SOL    HW137355   0.614   3.924   9.111  0.6498  0.9515  0.8839
 8573SOL    HW237356   0.494   3.858   9.114  0.4153 -0.5297  0.2168
 8574SOL     OW37357   3.196   0.668   8.185 -0.2414  0.6674 -0.2850
 8574SOL    HW137358   3.147   0.664   8.267 -0.5829 -1.0768 -0.5886
 8574SOL    HW237359   3.154   0.610   8.121  1.4112  0.4754 -1.1875
 8575SOL     OW37360   1.796   1.773   4.946  0.4512 -0.1016  0.3302
 8575SOL    HW137361   1.849   1.763   4.867 -2.5392  2.8948 -2.0347
 8575SOL    HW237362   1.775   1.866   4.939  1.0880  0.0347  0.2362
 8576SOL     OW37363   2.367   2.660   5.042  0.4800  0.3843  0.1079
 8576SOL    HW137364   2.379   2.619   4.956  1.1789  0.0270  0.3826
 8576SOL    HW237365   2.289   2.610   5.068  1.3470 -1.9687 -1.8187
 8577SOL     OW37366   2.038   1.375   4.663 -0.5979  0.1938  0.1916
 8577SOL    HW137367   2.119   1.420   4.687 -0.3238 -0.8521  1.2041
 8577SOL    HW237368   1.981   1.379   4.739 -2.0728 -0.0985 -0.8870
 8578SOL     OW37369   2.278   3.908   7.326  0.2359  0.5112  0.7751
 8578SOL    HW137370   2.225   3.854   7.267  3.2859  0.4764 -1.9853
 8578SOL    HW237371   2.284   3.838   7.391  0.1731 -0.7749 -0.5891
 8579SOL     OW37372   3.907   2.998  15.123  0.9120  0.1655  0.0895
 8579SOL    HW137373   3.872   3.015  15.036 -0.6005 -2.4083  0.1973
 8579SOL    HW237374   3.883   3.082  15.163  1.5709  0.6300 -0.4930
 8580SOL     OW37375   3.977   2.306  11.988  0.3535  0.6649 -0.1700
 8580SOL    HW137376   3.913   2.306  12.059 -0.7453  2.3726 -1.1656
 8580SOL    HW237377   3.922   2.291  11.911  0.5997  3.1421 -0.8112
 8581SOL     OW37378   3.442   1.505   8.954  0.1648 -0.8003 -0.7146
 8581SOL    HW137379   3.390   1.502   9.034  1.0744 -0.8489 -0.1154
 8581SOL    HW237380   3.492   1.586   8.961 -3.2464  1.2061 -0.0914
 8582SOL     OW37381   2.697   0.813   3.839 -0.1647  0.2942 -0.0069
 8582SOL    HW137382   2.765   0.808   3.772 -0.2516  3.0810 -0.3362
 8582SOL    HW237383   2.729   0.754   3.906 -0.1900  0.1569 -0.1153
 8583SOL     OW37384   0.606   4.585   5.060  0.3873  0.5113 -0.4409
 8583SOL    HW137385   0.592   4.569   5.153  2.5138  0.0591 -0.1908
 8583SOL    HW237386   0.652   4.668   5.064 -2.9072  2.2773  0.8011
 8584SOL     OW37387   4.551   4.590   7.341  0.5078  0.4393 -0.2395
 8584SOL    HW137388   4.557   4.620   7.250 -1.4994  0.7349 -0.2848
 8584SOL    HW237389   4.554   4.672   7.391 -1.6486  0.7206 -0.5723
 8585SOL     OW37390   1.294   2.676  16.824 -0.2331 -0.5789  0.1805
 8585SOL    HW137391   1.222   2.733  16.852  0.4430 -0.0617  0.8438
 8585SOL    HW237392   1.369   2.693  16.881  0.0944 -1.6750  0.0729
 8586SOL     OW37393   0.575   3.874   3.865 -0.1568  0.1485  0.1133
 8586SOL    HW137394   0.560   3.887   3.958  2.0880 -0.5226  0.5648
 8586SOL    HW237395   0.531   3.790   3.849  0.6990 -0.0571 -1.1655
 8587SOL     OW37396   2.593   3.527   7.245 -0.3077  0.3759  0.0738
 8587SOL    HW137397   2.601   3.517   7.150  2.5473 -1.0739  0.4746
 8587SOL    HW237398   2.589   3.622   7.257 -0.6970  0.3150  0.4033
 8588SOL     OW37399   4.291   1.186  17.173  0.2432  0.3304 -0.2093
 8588SOL    HW137400   4.206   1.158  17.208  1.2574 -0.6957  1.4362
 8588SOL    HW237401   4.284   1.136  17.092  0.4162 -2.0851  1.2594
 8589SOL     OW37402   3.011   3.185  17.198 -0.0479 -0.1221 -0.0133
 8589SOL    HW137403   2.999   3.135  17.279 -1.1557  0.2972  0.0854
 8589SOL    HW237404   2.991   3.277  17.219  1.9438  0.1932  0.5164
 8590SOL     OW37405   3.095   3.464   2.602  0.0274  0.3054 -0.3594
 8590SOL    HW137406   3.139   3.488   2.683  2.0598  1.2739 -1.7677
 8590SOL    HW237407   3.127   3.374   2.600  0.0763  0.2689  2.2306
 8591SOL     OW37408   0.895   2.899  13.804 -0.3650 -0.1773  0.7667
 8591SOL    HW137409   0.803   2.883  13.822  0.0578 -2.3133  1.0942
 8591SOL    HW237410   0.892   2.958  13.729 -1.8646 -0.4062  0.6489
 8592SOL     OW37411   4.563   1.753  10.091  0.8377 -0.0608 -0.3305
 8592SOL    HW137412   4.642   1.800  10.116 -0.1443  1.2657  0.2610
 8592SOL    HW237413   4.518   1.750  10.175 -1.2868  1.2893 -1.4138
 8593SOL     OW37414   1.100   3.157   7.394  0.9090 -0.0525 -0.3477
 8593SOL    HW137415   1.144   3.232   7.435  2.2080 -0.4817 -0.9554
 8593SOL    HW237416   1.162   3.135   7.325  1.8507 -0.8882  0.7766
 8594SOL     OW37417   0.407   2.188   1.970 -0.2466 -0.4397  0.0208
 8594SOL    HW137418   0.441   2.238   2.044  1.7309  1.1389 -1.9607
 8594SOL    HW237419   0.431   2.252   1.903 -1.3636 -1.0089 -0.9177
 8595SOL     OW37420   3.172   1.494  14.400 -0.4376 -0.0741  0.1632
 8595SOL    HW137421   3.094   1.441  14.383  0.0805 -0.6571 -0.3775
 8595SOL    HW237422   3.175   1.522  14.308  0.6652 -2.3715 -0.5027
 8596SOL     OW37423   3.533   0.313  13.679 -0.2971  0.2310  0.5730
 8596SOL    HW137424   3.558   0.293  13.769  0.8521 -0.5521  0.0855
 8596SOL    HW237425   3.561   0.403  13.664  1.6959 -0.3819  0.5172
 8597SOL     OW37426   3.133   4.060   6.126  0.5682  0.5107 -0.5891
 8597SOL    HW137427   3.150   4.026   6.214 -2.1636 -0.8908 -0.5978
 8597SOL    HW237428   3.150   3.976   6.082 -0.1655  0.6126 -1.0626
 8598SOL     OW37429   0.835   1.043  15.129  0.7200 -0.4736 -0.3870
 8598SOL    HW137430   0.817   1.089  15.211  2.9491 -0.5194  0.1112
 8598SOL    HW237431   0.745   1.027  15.097  0.3612 -1.0365  0.9028
 8599SOL     OW37432   2.112   3.521  17.085 -0.2736 -0.1695  0.2421
 8599SOL    HW137433   2.027   3.508  17.042 -0.1551  0.7741 -0.2650
 8599SOL    HW237434   2.093   3.587  17.152 -0.2410  0.3625 -0.2775
 8600SOL     OW37435   1.066   3.116  11.632 -0.8019 -0.5822  0.1944
 8600SOL    HW137436   1.061   3.210  11.651 -0.7086 -0.9539  2.0658
 8600SOL    HW237437   0.976   3.083  11.629 -0.1180 -2.2809 -1.6716
 8601SOL     OW37438   3.118   2.984   7.785  0.3298  0.3866  0.5478
 8601SOL    HW137439   3.188   3.022   7.837 -0.2902  1.7574  0.3728
 8601SOL    HW237440   3.042   2.984   7.844 -1.4517  0.0506 -1.7505
 8602SOL     OW37441   4.189   0.958  16.055 -0.1957 -0.7918 -0.5691
 8602SOL    HW137442   4.233   1.040  16.032 -1.4282 -0.0579 -0.3256
 8602SOL    HW237443   4.251   0.893  16.023 -0.7583 -1.6800  0.1307
 8603SOL     OW37444   1.287   0.260   9.692  0.3715  0.3703 -0.4628
 8603SOL    HW137445   1.195   0.242   9.677  0.4093 -0.5476  0.3978
 8603SOL    HW237446   1.274   0.328   9.757  0.8810 -0.5844  0.6433
 8604SOL     OW37447   1.079   4.290   3.874  0.6165 -0.2159  0.7241
 8604SOL    HW137448   1.009   4.240   3.833  1.3141 -0.2933 -0.3683
 8604SOL    HW237449   1.038   4.306   3.959 -2.0094 -3.5826  0.0823
 8605SOL     OW37450   1.465   2.863   7.186  0.3921 -0.5136 -0.0049
 8605SOL    HW137451   1.543   2.840   7.236 -0.5548 -2.4285  0.5810
 8605SOL    HW237452   1.493   2.845   7.097 -1.5036  2.5570 -1.2452
 8606SOL     OW37453   2.396   0.035   7.828  0.4161  0.4002 -0.4320
 8606SOL    HW137454   2.405   4.727   7.912 -1.1341  0.4649 -0.2281
 8606SOL    HW237455   2.378   4.698   7.771  2.7592 -0.3008 -0.2304
 8607SOL     OW37456   0.670   1.356   8.802 -0.2840  0.1864 -0.0369
 8607SOL    HW137457   0.641   1.357   8.893 -1.1724  0.7326 -0.3227
 8607SOL    HW237458   0.676   1.263   8.780  1.4080  0.6449 -1.5529
 8608SOL     OW37459   1.259   2.505   2.576  0.0248 -0.0297 -0.2093
 8608SOL    HW137460   1.346   2.541   2.592  1.5876 -2.5102 -3.0911
 8608SOL    HW237461   1.230   2.454   2.652  1.3939  2.5781  2.0729
 8609SOL     OW37462   0.356   2.852   1.318 -0.2121 -0.2268 -0.1091
 8609SOL    HW137463   0.339   2.790   1.246 -3.2391 -0.0289  0.4149
 8609SOL    HW237464   0.339   2.935   1.272 -1.3705 -1.8125 -2.5325
 8610SOL     OW37465   0.234   1.130   4.161 -0.0438  0.1511  0.0697
 8610SOL    HW137466   0.212   1.159   4.073  2.6442 -2.6507 -1.5282
 8610SOL    HW237467   0.294   1.204   4.179  1.7976 -1.3123 -0.0083
 8611SOL     OW37468   2.394   4.644  14.520 -0.1447 -0.4624  0.3151
 8611SOL    HW137469   2.473   4.594  14.541 -0.3465 -0.6352  0.6783
 8611SOL    HW237470   2.392   4.651  14.425 -1.7085 -1.1859  0.2909
 8612SOL     OW37471   2.294   4.518   4.322 -0.2935 -0.2917 -0.8260
 8612SOL    HW137472   2.348   4.560   4.390 -0.5764 -0.4526 -0.5005
 8612SOL    HW237473   2.246   4.595   4.293  1.4716  0.2851 -2.2523
 8613SOL     OW37474   2.151   3.387  14.052 -0.3776  0.1351 -0.3314
 8613SOL    HW137475   2.208   3.432  14.115 -1.4915 -0.5807  1.2086
 8613SOL    HW237476   2.109   3.460  14.006 -0.2325  0.2622 -0.2644
 8614SOL     OW37477   3.241   2.406   2.819 -0.6601 -0.1420 -0.0797
 8614SOL    HW137478   3.287   2.347   2.760  0.0188  2.1405 -1.8250
 8614SOL    HW237479   3.176   2.445   2.761  0.8873  0.0648 -1.6797
 8615SOL     OW37480   0.236   2.324   6.216 -0.0015 -0.3552 -0.0665
 8615SOL    HW137481   0.218   2.380   6.140  0.8917 -0.7054 -0.5323
 8615SOL    HW237482   0.302   2.364   6.273  0.1806 -0.7066 -0.0328
 8616SOL     OW37483   4.648   3.654  16.989 -0.0929 -0.7156  0.8965
 8616SOL    HW137484   4.595   3.709  17.046  0.8024  1.4953 -0.3834
 8616SOL    HW237485   4.586   3.582  16.977  0.2446 -1.1116  1.5098
 8617SOL     OW37486   3.596   4.456  16.311  0.9303 -0.2603  0.4056
 8617SOL    HW137487   3.644   4.379  16.339 -0.2004 -0.6991  1.1227
 8617SOL    HW237488   3.646   4.497  16.240 -1.4804 -2.4490 -2.5654
 8618SOL     OW37489   0.326   0.227  11.286  0.5925 -0.1772 -0.0388
 8618SOL    HW137490   0.383   0.260  11.217  2.0083 -2.1647  0.1799
 8618SOL    HW237491   0.390   0.205  11.354 -0.2405 -0.9202  0.5010
 8619SOL     OW37492   0.021   0.364  11.550 -0.1641 -0.1657  0.0856
 8619SOL    HW137493   0.064   0.279  11.543 -0.7757 -0.8375  4.3735
 8619SOL    HW237494   4.720   0.375  11.463 -0.7391  0.3830  0.4184
 8620SOL     OW37495   4.314   3.958   9.125 -0.1756 -0.0112 -0.0973
 8620SOL    HW137496   4.261   3.942   9.047 -1.5697  0.7887  0.7018
 8620SOL    HW237497   4.402   3.922   9.110 -0.2137 -0.3646  0.5285
 8621SOL     OW37498   2.128   4.598  17.028  0.8886 -0.0400  0.6195
 8621SOL    HW137499   2.107   4.510  16.995 -0.2806  0.7103 -0.6308
 8621SOL    HW237500   2.113   4.655  16.953  2.4581 -0.2821  0.1230
 8622SOL     OW37501   3.186   1.067  13.289  0.4188 -0.0389  0.1857
 8622SOL    HW137502   3.169   0.982  13.250 -0.8639  0.2077  0.1941
 8622SOL    HW237503   3.105   1.094  13.333  0.7354 -0.8746  1.2756
 8623SOL     OW37504   3.558   2.701  10.386  0.4556  0.2110  0.0654
 8623SOL    HW137505   3.590   2.653  10.309  0.7443  1.1954 -0.4274
 8623SOL    HW237506   3.475   2.657  10.407  1.2735 -0.9685  0.8267
 8624SOL     OW37507   4.060   2.108   4.951 -0.2061  0.1418 -0.1358
 8624SOL    HW137508   3.969   2.129   4.971  0.0678  2.6976 -1.5417
 8624SOL    HW237509   4.081   2.027   4.997  0.1655 -0.8345 -2.0106
 8625SOL     OW37510   3.062   1.561   2.017  0.1296 -0.5432  0.3786
 8625SOL    HW137511   2.981   1.576   2.065 -0.1941 -0.7275 -0.1126
 8625SOL    HW237512   3.060   1.471   1.984  1.2572 -1.6080  3.1616
 8626SOL     OW37513   2.282   4.445   0.833  1.1697  0.2472 -0.1470
 8626SOL    HW137514   2.224   4.369   0.841  1.6183 -0.1099 -0.2722
 8626SOL    HW237515   2.355   4.420   0.891  1.0665 -1.0334 -0.5679
 8627SOL     OW37516   3.000   1.185   6.855  0.4984 -0.3080  0.1280
 8627SOL    HW137517   2.942   1.255   6.885  0.4242  0.7720 -2.5087
 8627SOL    HW237518   2.927   1.128   6.830  1.4257 -2.4926  2.4811
 8628SOL     OW37519   4.540   3.230  15.230 -0.2214  0.2419 -0.0865
 8628SOL    HW137520   4.484   3.153  15.233  2.1748 -1.4188  2.2013
 8628SOL    HW237521   4.488   3.281  15.168 -0.1208  1.3109  0.6950
 8629SOL     OW37522   4.551   1.648  17.324  0.2461 -0.1727  0.2588
 8629SOL    HW137523   4.489   1.598  17.271  1.4475 -1.3545 -0.0364
 8629SOL    HW237524   4.500   1.633  17.404 -0.3407 -0.0049 -0.0806
 8630SOL     OW37525   0.617   0.117   3.673  0.9691 -0.1196 -0.5065
 8630SOL    HW137526   0.562   0.128   3.595  2.0866 -1.0870 -1.4292
 8630SOL    HW237527   0.556   0.074   3.733  1.8955  1.9771  1.9248
 8631SOL     OW37528   1.671   1.712   2.465 -0.3092 -0.4051  0.3210
 8631SOL    HW137529   1.636   1.705   2.554  1.8618 -0.6733  1.1610
 8631SOL    HW237530   1.759   1.735   2.494 -1.3144  2.2611  1.2338
 8632SOL     OW37531   2.820   3.681  14.617 -0.3720  0.2443 -0.2765
 8632SOL    HW137532   2.905   3.723  14.607  0.1604 -0.9376 -0.7587
 8632SOL    HW237533   2.820   3.593  14.578 -0.2229  0.0477  0.1607
 8633SOL     OW37534   4.216   4.254   4.520  0.1049 -0.5176  0.2837
 8633SOL    HW137535   4.258   4.277   4.603  1.3195 -0.2666 -0.3985
 8633SOL    HW237536   4.137   4.203   4.539  0.3624 -1.2580 -0.6252
 8634SOL     OW37537   0.589   2.711  16.680 -0.3742 -0.3278  0.3092
 8634SOL    HW137538   0.657   2.779  16.688 -1.1325  0.5191 -0.4518
 8634SOL    HW237539   0.554   2.736  16.595 -0.4852  1.6500  0.9318
 8635SOL     OW37540   4.664   3.294  14.252 -0.0561  0.0401  0.1443
 8635SOL    HW137541   4.581   3.337  14.233  0.4606 -0.5611 -3.4410
 8635SOL    HW237542   4.650   3.208  14.213 -2.5322  0.6512 -0.2608
 8636SOL     OW37543   4.490   2.645  15.914 -0.1482  0.3492 -0.0279
 8636SOL    HW137544   4.502   2.554  15.886  1.0469 -0.0723  1.8155
 8636SOL    HW237545   4.521   2.645  16.005 -1.2250 -0.4345  0.3374
 8637SOL     OW37546   2.523   2.152   8.696 -0.1819  0.0244  0.4575
 8637SOL    HW137547   2.519   2.225   8.757 -2.9367  0.1981  0.0424
 8637SOL    HW237548   2.466   2.090   8.740  2.0562 -1.5665  1.1356
 8638SOL     OW37549   4.384   3.002  12.338  0.8920 -0.2194  0.3294
 8638SOL    HW137550   4.362   3.091  12.312  0.9513  0.2518  1.9340
 8638SOL    HW237551   4.309   2.997  12.398  0.6131 -2.5895 -0.2027
 8639SOL     OW37552   3.111   3.107   2.908 -0.0293  0.0186  0.5114
 8639SOL    HW137553   3.056   3.042   2.864 -0.7273  0.7252  0.3441
 8639SOL    HW237554   3.051   3.178   2.930 -1.7639 -0.5600 -2.4178
 8640SOL     OW37555   3.780   3.830   4.418 -0.3746  0.5093  0.2991
 8640SOL    HW137556   3.771   3.848   4.511  0.7640  2.8775 -0.0211
 8640SOL    HW237557   3.745   3.909   4.376 -1.6996 -0.7034 -0.9035
 8641SOL     OW37558   2.633   2.995   7.402 -0.8752  0.4452 -0.3004
 8641SOL    HW137559   2.714   2.948   7.382 -1.0893  0.7807 -1.9635
 8641SOL    HW237560   2.592   3.000   7.316 -0.5824 -3.3009 -0.6320
 8642SOL     OW37561   0.627   2.656   4.662 -0.0199  0.0219 -0.8864
 8642SOL    HW137562   0.680   2.645   4.741  0.1122  0.2646 -0.9383
 8642SOL    HW237563   0.638   2.749   4.643  1.4606  0.2426  1.0512
 8643SOL     OW37564   0.576   3.552   8.982 -0.0995 -0.1672  0.3958
 8643SOL    HW137565   0.515   3.543   9.055 -1.3079 -1.1545 -0.7278
 8643SOL    HW237566   0.659   3.583   9.018 -1.1028  1.0452  1.6951
 8644SOL     OW37567   0.048   0.164   3.255 -0.3915  0.0648  0.1433
 8644SOL    HW137568   0.131   0.175   3.302  0.1033  1.9649 -1.1494
 8644SOL    HW237569   0.080   0.200   3.173  1.0173 -0.6812  0.3590
 8645SOL     OW37570   1.946   0.668   4.063 -0.8941  0.4676 -0.3808
 8645SOL    HW137571   1.981   0.580   4.075  0.7737  1.3268  1.0524
 8645SOL    HW237572   2.026   0.712   4.035 -0.4958  0.2116  0.3638
 8646SOL     OW37573   0.944   3.512   7.322  0.2247  0.1605 -0.2394
 8646SOL    HW137574   0.916   3.442   7.381 -1.2294 -0.9498 -2.2637
 8646SOL    HW237575   0.863   3.562   7.330  1.1309  1.4195  0.9408
 8647SOL     OW37576   3.761   0.803  10.676  0.1700 -0.0034 -0.0148
 8647SOL    HW137577   3.726   0.770  10.594 -1.4466  2.3085 -0.2586
 8647SOL    HW237578   3.684   0.846  10.713 -1.7764 -1.8848 -1.8497
 8648SOL     OW37579   2.517   0.753  15.472  0.1988  0.0499 -0.3425
 8648SOL    HW137580   2.513   0.830  15.529  3.0243 -0.4537  0.5393
 8648SOL    HW237581   2.545   0.794  15.390  2.6446 -2.2479 -0.6413
 8649SOL     OW37582   0.993   1.883   4.644 -0.3169  0.0229 -0.0997
 8649SOL    HW137583   0.910   1.930   4.651 -0.7324 -0.3119 -2.8315
 8649SOL    HW237584   1.013   1.896   4.551  2.9234 -0.9984  0.4618
 8650SOL     OW37585   1.786   0.925   7.200 -0.0471  0.3508 -0.1159
 8650SOL    HW137586   1.869   0.971   7.204  0.3039 -0.3207  0.3528
 8650SOL    HW237587   1.790   0.862   7.272 -1.1847 -0.5850 -0.8610
 8651SOL     OW37588   1.040   4.543   1.685 -0.5025 -0.2018  0.3619
 8651SOL    HW137589   1.063   4.634   1.705 -0.9371  0.2671 -1.3455
 8651SOL    HW237590   1.127   4.513   1.658 -1.0843 -0.3534 -1.3476
 8652SOL     OW37591   1.358   3.472   5.890 -0.2020 -0.0890  0.9765
 8652SOL    HW137592   1.398   3.556   5.913 -0.6425  0.1468  0.8886
 8652SOL    HW237593   1.300   3.459   5.965  0.2285  1.2984  1.5493
 8653SOL     OW37594   3.080   1.293   4.048  0.0310 -0.3747 -0.0147
 8653SOL    HW137595   3.017   1.362   4.069  1.0673 -0.0871  2.1683
 8653SOL    HW237596   3.024   1.225   4.010  0.4397  0.1916 -1.6077
 8654SOL     OW37597   1.649   2.520   6.515 -0.3833 -0.2920 -0.4211
 8654SOL    HW137598   1.564   2.493   6.482 -1.2899  1.1698  0.7277
 8654SOL    HW237599   1.674   2.593   6.458 -1.2582  1.5763  1.6014
 8655SOL     OW37600   1.977   3.494  17.543  0.4912  0.3439  0.0278
 8655SOL    HW137601   2.047   3.531  17.598  0.7118  1.2230 -0.8575
 8655SOL    HW237602   1.920   3.454  17.610 -0.1317 -0.7851 -1.1790
 8656SOL     OW37603   1.554   0.216  13.290 -0.6345  0.8123 -0.0464
 8656SOL    HW137604   1.570   0.260  13.374  0.6878 -3.1240  1.7633
 8656SOL    HW237605   1.584   0.130  13.318 -0.1152  1.6289  1.8733
 8657SOL     OW37606   4.500   4.276   6.372  0.1426 -0.3294 -0.1179
 8657SOL    HW137607   4.493   4.324   6.290  2.0209  1.6886  0.9260
 8657SOL    HW237608   4.476   4.189   6.339  2.4050 -1.9669  2.5020
 8658SOL     OW37609   3.464   0.959  16.916  0.3064  0.5411  0.6225
 8658SOL    HW137610   3.525   0.977  16.988 -0.7476  0.3939  1.5509
 8658SOL    HW237611   3.476   1.037  16.861  0.5443 -1.1202 -1.6386
 8659SOL     OW37612   3.166   1.912  15.834 -0.1604 -0.0019 -0.3232
 8659SOL    HW137613   3.187   1.885  15.745 -0.1475  0.6318 -0.5074
 8659SOL    HW237614   3.195   2.003  15.843  0.4454 -0.0929 -1.3860
 8660SOL     OW37615   1.756   1.562   0.300  0.0255 -0.4112 -0.5739
 8660SOL    HW137616   1.705   1.595   0.226  1.8973  1.2059 -1.1416
 8660SOL    HW237617   1.688   1.529   0.358 -0.0120 -0.9616 -0.9359
 8661SOL     OW37618   4.129   0.541   3.824  0.8419 -0.2706 -0.1143
 8661SOL    HW137619   4.062   0.503   3.767 -0.1712  1.1423  0.1281
 8661SOL    HW237620   4.194   0.571   3.761 -0.0676  0.8775 -0.4855
 8662SOL     OW37621   0.102   2.058   8.799 -0.0731 -0.2377  0.1473
 8662SOL    HW137622   0.189   2.039   8.766  0.8909  0.2694  2.3549
 8662SOL    HW237623   0.083   2.137   8.747 -0.6412  1.0093  2.2214
 8663SOL     OW37624   0.291   2.329   0.844  0.5096  0.0802 -0.4940
 8663SOL    HW137625   0.268   2.323   0.936  3.5926 -0.7964  0.2293
 8663SOL    HW237626   0.366   2.270   0.849 -1.1334 -1.6777  2.6140
 8664SOL     OW37627   1.647   1.769  10.939  0.2808 -0.4819  0.0844
 8664SOL    HW137628   1.646   1.857  10.903 -0.7236  0.1830  1.7628
 8664SOL    HW237629   1.582   1.776  11.009  2.1061 -2.1694  1.9817
 8665SOL     OW37630   0.157   4.668   5.126 -0.2364 -0.3852 -0.5589
 8665SOL    HW137631   0.202   4.597   5.079  0.3059 -0.6457  0.3526
 8665SOL    HW237632   0.066   4.643   5.110 -0.5887  0.7530 -0.3112
 8666SOL     OW37633   0.639   1.315  16.693  0.3419  0.0801 -0.2049
 8666SOL    HW137634   0.582   1.251  16.736 -2.3673  2.0567 -0.8500
 8666SOL    HW237635   0.681   1.365  16.763 -0.7997  0.0276  0.5209
 8667SOL     OW37636   2.143   3.988   0.367  0.1987 -0.6621  0.6026
 8667SOL    HW137637   2.118   4.029   0.449  1.1791  2.5508 -0.7010
 8667SOL    HW237638   2.127   3.896   0.389  2.3199 -0.7152  1.8640
 8668SOL     OW37639   4.645   3.339   5.831 -0.4942  0.5639  0.1906
 8668SOL    HW137640   4.715   3.392   5.868 -1.8086  0.7743  2.4078
 8668SOL    HW237641   4.597   3.406   5.782 -1.0640 -0.9027 -1.2617
 8669SOL     OW37642   0.015   0.846  10.864 -0.0422 -0.0766  0.1559
 8669SOL    HW137643   4.704   0.893  10.931 -0.8606 -0.2339 -0.3399
 8669SOL    HW237644   0.078   0.813  10.928  1.6155  0.8808 -0.9664
 8670SOL     OW37645   2.436   0.679   5.230  0.0146 -0.1111  0.0689
 8670SOL    HW137646   2.437   0.585   5.211 -0.4380 -0.2832  0.8851
 8670SOL    HW237647   2.429   0.681   5.325 -0.3744  1.0763  0.0134
 8671SOL     OW37648   3.539   0.934   8.291  0.6302 -0.0788 -0.5150
 8671SOL    HW137649   3.495   0.988   8.356  0.7854 -3.3999  2.3636
 8671SOL    HW237650   3.526   0.980   8.208  2.4056 -2.8586 -2.3588
 8672SOL     OW37651   1.128   2.610  14.455  0.4967 -0.0702  0.1940
 8672SOL    HW137652   1.179   2.531  14.434 -2.9948 -2.0792 -0.7074
 8672SOL    HW237653   1.160   2.660  14.380 -0.9772 -1.2837 -1.2568
 8673SOL     OW37654   2.994   2.796  15.628 -0.0227  0.0630 -0.4675
 8673SOL    HW137655   3.056   2.742  15.578 -0.6616  0.3654 -1.5885
 8673SOL    HW237656   2.918   2.749  15.594  0.7365 -1.6996  0.2428
 8674SOL     OW37657   1.904   2.376   3.857  0.2776  0.4078  0.1375
 8674SOL    HW137658   1.831   2.419   3.813  2.0762  0.4033 -2.8815
 8674SOL    HW237659   1.906   2.420   3.942 -0.1892  0.5361  0.0817
 8675SOL     OW37660   2.976   2.377   6.134 -0.3682 -0.0020  0.2431
 8675SOL    HW137661   2.938   2.323   6.203 -1.0188 -0.1748 -0.2582
 8675SOL    HW237662   3.026   2.311   6.084  1.8121  2.0691 -0.3215
 8676SOL     OW37663   1.862   1.931   0.753  0.3900  0.0747  0.0967
 8676SOL    HW137664   1.797   1.866   0.725 -0.4455  0.5695  0.9279
 8676SOL    HW237665   1.862   1.987   0.675  2.5381  0.2266  0.2220
 8677SOL     OW37666   0.817   2.652  12.394  0.0662  0.4292 -0.1934
 8677SOL    HW137667   0.853   2.740  12.402  1.7676 -0.3191  0.3872
 8677SOL    HW237668   0.829   2.635  12.300 -0.3475  0.4184 -0.2466
 8678SOL     OW37669   1.785   1.877   3.531  0.3908 -0.4353 -0.4139
 8678SOL    HW137670   1.840   1.929   3.472  0.4232 -0.0830 -0.0693
 8678SOL    HW237671   1.842   1.807   3.563 -0.1853 -0.4624  0.5560
 8679SOL     OW37672   4.456   0.708   1.512 -0.4057 -0.0347  0.0409
 8679SOL    HW137673   4.480   0.706   1.605  3.0211  1.8064 -0.8225
 8679SOL    HW237674   4.464   0.615   1.494  1.9659  0.5417 -1.7103
 8680SOL     OW37675   1.496   4.636   4.570 -0.1839 -0.7644  0.5005
 8680SOL    HW137676   1.475   4.730   4.577  0.4611 -0.6737  1.1775
 8680SOL    HW237677   1.587   4.645   4.540 -0.8643  0.1045 -1.3127
 8681SOL     OW37678   2.232   4.123  14.216 -0.3159  0.2032  0.2354
 8681SOL    HW137679   2.228   4.113  14.121  0.2774  0.0904  0.2233
 8681SOL    HW237680   2.138   4.109  14.230 -0.4659  1.5002  0.5719
 8682SOL     OW37681   2.029   3.263   6.568  0.3100 -0.2008  0.5755
 8682SOL    HW137682   2.123   3.249   6.575  0.6577  2.9313  2.1475
 8682SOL    HW237683   2.024   3.240   6.475 -0.1623 -0.0394  0.5598
 8683SOL     OW37684   2.502   4.032   5.283 -0.2643 -0.8573  0.0073
 8683SOL    HW137685   2.524   3.939   5.291  2.1697 -0.1349  1.9297
 8683SOL    HW237686   2.407   4.033   5.290 -0.1464  0.0934  1.4094
 8684SOL     OW37687   1.676   0.852   9.076  0.6660 -0.0533  0.3621
 8684SOL    HW137688   1.764   0.889   9.082  0.9213 -0.4119 -1.2650
 8684SOL    HW237689   1.619   0.928   9.082  2.1515  1.2424 -2.0265
 8685SOL     OW37690   0.481   1.076   0.787  0.1211  0.2315  0.2562
 8685SOL    HW137691   0.426   1.097   0.712  0.4540 -0.8136 -0.2771
 8685SOL    HW237692   0.434   1.001   0.823  0.9143 -0.7603 -0.7827
 8686SOL     OW37693   1.110   3.729   1.614 -0.7782 -0.3658  0.2225
 8686SOL    HW137694   1.070   3.800   1.664  0.7385 -1.0066  2.3439
 8686SOL    HW237695   1.168   3.709   1.687 -0.5022 -0.6849 -0.0793
 8687SOL     OW37696   4.614   3.474   4.588 -0.2878  0.3312  0.2905
 8687SOL    HW137697   4.635   3.382   4.575 -1.0700 -0.0984  2.0767
 8687SOL    HW237698   4.657   3.480   4.673 -2.4277  0.1282  1.4083
 8688SOL     OW37699   1.073   0.675   1.940 -0.2806 -0.1939 -0.4863
 8688SOL    HW137700   0.984   0.710   1.942  0.3944  1.3439  2.2334
 8688SOL    HW237701   1.101   0.694   1.851  2.0199 -0.8643  0.1062
 8689SOL     OW37702   0.044   2.447  12.265  0.2249 -0.1863 -0.2889
 8689SOL    HW137703   4.714   2.390  12.229  0.2468 -0.1144 -0.4470
 8689SOL    HW237704   4.735   2.529  12.251  1.8554  0.5092 -1.6994
 8690SOL     OW37705   3.870   0.620   4.298  0.2496  0.1624  0.7300
 8690SOL    HW137706   3.841   0.709   4.275 -3.1766 -1.7214 -2.1274
 8690SOL    HW237707   3.852   0.561   4.225 -2.5208  1.0444  0.6720
 8691SOL     OW37708   2.393   3.254   2.376 -0.1370 -0.0974 -0.0726
 8691SOL    HW137709   2.299   3.237   2.367 -0.0919 -0.5488  0.2806
 8691SOL    HW237710   2.420   3.267   2.285 -2.5388  1.3227 -0.5724
 8692SOL     OW37711   3.576   3.847   4.634 -0.6532  0.1653 -0.2153
 8692SOL    HW137712   3.573   3.934   4.674  0.5963  0.3920 -0.6137
 8692SOL    HW237713   3.516   3.845   4.561 -2.2981  0.5293  1.1312
 8693SOL     OW37714   1.137   3.716   2.141 -0.1223 -0.0024 -0.1102
 8693SOL    HW137715   1.177   3.705   2.055  0.7427 -2.1427  0.5675
 8693SOL    HW237716   1.178   3.794   2.180 -1.9658  1.2720 -0.7259
 8694SOL     OW37717   2.841   3.602   5.771  0.0888  0.1049  0.1218
 8694SOL    HW137718   2.857   3.524   5.823  1.1773 -0.0416 -0.4386
 8694SOL    HW237719   2.760   3.630   5.813  0.8317 -1.0299  2.2832
 8695SOL     OW37720   0.003   3.206   2.942  0.0814  0.2830  0.4499
 8695SOL    HW137721   0.015   3.279   2.882  0.2346 -0.6098 -0.6016
 8695SOL    HW237722   0.035   3.135   2.887  1.0118  1.2997 -0.3254
 8696SOL     OW37723   0.926   3.476   0.489  0.2302 -0.2975  0.5231
 8696SOL    HW137724   0.908   3.471   0.396 -1.2054  1.8004  0.6968
 8696SOL    HW237725   0.858   3.529   0.529  1.0446  0.9317  0.2773
 8697SOL     OW37726   1.331   4.320   9.104 -0.4491 -0.2677 -0.4922
 8697SOL    HW137727   1.402   4.340   9.167 -0.9125 -0.7632  0.1883
 8697SOL    HW237728   1.347   4.381   9.032 -2.1027  1.9081  0.9676
 8698SOL     OW37729   3.519   0.124   9.304  0.2059 -0.3049  0.3593
 8698SOL    HW137730   3.603   0.083   9.324 -0.7913 -1.8943  1.2827
 8698SOL    HW237731   3.488   0.054   9.247 -0.3253  1.5766 -1.6569
 8699SOL     OW37732   0.430   1.392   7.581  0.0865 -0.1548  0.9903
 8699SOL    HW137733   0.433   1.475   7.534  0.8056 -0.5548  0.3267
 8699SOL    HW237734   0.402   1.335   7.510 -1.4564  1.1619  0.5592
 8700SOL     OW37735   1.178   1.967   3.796  0.1733 -0.1602  0.5232
 8700SOL    HW137736   1.251   2.027   3.779  0.1932 -0.1702  0.5747
 8700SOL    HW237737   1.204   1.884   3.755 -1.1098  0.0884 -0.7937
 8701SOL     OW37738   3.067   1.709   6.123 -0.1696 -0.2932  0.3002
 8701SOL    HW137739   2.984   1.665   6.105 -1.1195  1.2333  0.9969
 8701SOL    HW237740   3.088   1.727   6.032 -0.1024  1.3419  0.6363
 8702SOL     OW37741   0.614   4.100   3.764  0.0431 -0.2370 -0.1119
 8702SOL    HW137742   0.570   4.156   3.828 -1.9691 -1.6631 -0.2407
 8702SOL    HW237743   0.591   4.015   3.801  0.5418  0.1759  1.1355
 8703SOL     OW37744   4.165   2.269   2.559 -0.9786  0.5912 -0.0086
 8703SOL    HW137745   4.151   2.362   2.538  2.4849  1.2504  0.6421
 8703SOL    HW237746   4.204   2.230   2.481 -1.2488  0.5299 -0.1144
 8704SOL     OW37747   0.111   0.462   1.928 -0.3435 -0.0768  0.1934
 8704SOL    HW137748   0.081   0.447   2.017  0.0855  0.8119  0.4829
 8704SOL    HW237749   0.044   0.415   1.878  0.4446  1.8297 -2.6314
 8705SOL     OW37750   0.621   1.501   1.386 -0.2922 -0.1683  0.3721
 8705SOL    HW137751   0.615   1.487   1.481 -2.8754  1.7266  0.4859
 8705SOL    HW237752   0.642   1.412   1.358 -2.5002 -0.1239 -1.3820
 8706SOL     OW37753   4.466   1.616   6.972 -0.1350  0.1599 -0.4393
 8706SOL    HW137754   4.426   1.551   7.030  1.1320 -0.8528 -0.7191
 8706SOL    HW237755   4.532   1.661   7.024  1.1205 -0.3126 -1.6322
 8707SOL     OW37756   3.725   0.865  14.482 -0.3160  0.1911 -0.8654
 8707SOL    HW137757   3.748   0.936  14.541  0.9838 -0.3685 -0.7117
 8707SOL    HW237758   3.643   0.836  14.522  0.5094 -0.1255  0.6054
 8708SOL     OW37759   3.980   0.109   8.992 -0.3279 -0.3684 -0.1085
 8708SOL    HW137760   3.963   0.167   8.917 -0.0312  1.9598  1.6346
 8708SOL    HW237761   4.005   0.034   8.938 -2.0599 -1.9607  1.3546
 8709SOL     OW37762   3.720   0.055   2.078 -0.3041 -0.0611 -0.1232
 8709SOL    HW137763   3.801   0.012   2.048 -1.3255 -0.5119 -2.2261
 8709SOL    HW237764   3.754   0.112   2.147  1.2959 -1.1404 -0.0182
 8710SOL     OW37765   0.468   0.193   4.514 -0.2057  0.1651  0.1872
 8710SOL    HW137766   0.412   0.265   4.487  0.1196  0.9660  1.6386
 8710SOL    HW237767   0.549   0.243   4.517 -2.3189  3.5952 -0.2259
 8711SOL     OW37768   1.377   1.011   8.445  0.1833  0.4355 -0.3465
 8711SOL    HW137769   1.295   1.038   8.404  0.9684  0.8092 -1.6832
 8711SOL    HW237770   1.359   0.922   8.477 -1.2240 -0.0131 -2.3428
 8712SOL     OW37771   1.430   3.935  14.195  0.2387 -0.4261 -0.0313
 8712SOL    HW137772   1.453   3.843  14.199 -0.9014 -0.7935 -1.8944
 8712SOL    HW237773   1.336   3.928  14.211  0.3340 -0.4829  0.4873
 8713SOL     OW37774   1.000   3.787   6.531  0.1527 -0.3873 -0.4103
 8713SOL    HW137775   0.972   3.863   6.481 -1.7640 -0.5631  0.3641
 8713SOL    HW237776   0.956   3.721   6.478 -0.5661  0.2403 -0.5896
 8714SOL     OW37777   4.313   0.875  12.444  0.7992 -0.7782 -0.1476
 8714SOL    HW137778   4.302   0.782  12.427  0.2588 -0.4150 -1.7941
 8714SOL    HW237779   4.405   0.887  12.422  1.3692  1.9656  3.7025
 8715SOL     OW37780   2.554   1.053   6.812  0.5545  0.1772  0.4506
 8715SOL    HW137781   2.645   1.026   6.817  1.7590  4.2793  0.8093
 8715SOL    HW237782   2.516   0.977   6.856  0.0363  0.5494  0.6457
 8716SOL     OW37783   4.379   0.311   3.430 -0.2592 -0.6286 -0.2900
 8716SOL    HW137784   4.467   0.277   3.444 -0.3902 -0.7198  0.2903
 8716SOL    HW237785   4.376   0.322   3.335  1.5217 -0.9053 -0.3647
 8717SOL     OW37786   1.595   2.420  12.362  0.0006 -0.1122 -0.1111
 8717SOL    HW137787   1.646   2.487  12.317 -0.6377  0.7354  0.4118
 8717SOL    HW237788   1.651   2.401  12.437  0.6531  1.3945 -0.2248
 8718SOL     OW37789   0.277   0.801   1.320  0.0149  0.5083 -0.1526
 8718SOL    HW137790   0.214   0.729   1.325 -1.0321  1.5117  1.3396
 8718SOL    HW237791   0.255   0.860   1.392  1.2211  1.6937 -0.7627
 8719SOL     OW37792   3.339   4.200   7.537  0.3294  0.2929 -0.0129
 8719SOL    HW137793   3.248   4.192   7.566  0.1014  2.0766 -0.2718
 8719SOL    HW237794   3.347   4.111   7.501  1.1813  1.1722 -1.9947
 8720SOL     OW37795   2.834   0.072   3.879  0.6729 -0.1963 -0.3799
 8720SOL    HW137796   2.854   4.729   3.926 -2.3217 -0.1071  1.0653
 8720SOL    HW237797   2.918   0.085   3.836  0.4590  1.3776 -0.3232
 8721SOL     OW37798   0.808   3.044  14.740  0.2308 -0.2301 -0.2941
 8721SOL    HW137799   0.888   3.063  14.789 -0.7817 -0.4536  1.4460
 8721SOL    HW237800   0.742   3.100  14.780 -1.9213 -3.3653  0.5959
 8722SOL     OW37801   1.883   0.312   2.890  0.7566 -0.3555 -0.4132
 8722SOL    HW137802   1.843   0.346   2.971  3.0016  0.8997  0.1826
 8722SOL    HW237803   1.819   0.322   2.820 -0.4110  2.4680  1.0131
 8723SOL     OW37804   2.713   1.019  13.946 -0.0099 -0.2440  0.2002
 8723SOL    HW137805   2.671   0.985  14.025  0.1036  1.5979  1.0546
 8723SOL    HW237806   2.643   1.001  13.883 -0.7509  1.1622  0.6242
 8724SOL     OW37807   0.710   2.599   8.894  0.1588  0.4086  0.3168
 8724SOL    HW137808   0.742   2.662   8.958 -1.8332  0.7686  0.9592
 8724SOL    HW237809   0.677   2.656   8.824 -2.3902 -0.9446  0.4026
 8725SOL     OW37810   3.882   1.605   0.197  0.0395 -0.4363  0.0060
 8725SOL    HW137811   3.889   1.573   0.107  1.5965 -0.5365  0.1654
 8725SOL    HW237812   3.845   1.692   0.180 -2.0468 -1.7094 -1.8798
 8726SOL     OW37813   0.984   0.893   3.318 -0.2850  0.5846 -0.3883
 8726SOL    HW137814   1.045   0.957   3.355 -0.9227  0.1362  1.4526
 8726SOL    HW237815   0.901   0.939   3.328 -0.5030  0.6705 -2.5434
 8727SOL     OW37816   0.922   2.190  11.287  0.7109  0.3233  0.1548
 8727SOL    HW137817   0.961   2.137  11.218  0.1595 -1.0125  0.8462
 8727SOL    HW237818   0.998   2.223  11.333  0.4044  0.0782  0.8481
 8728SOL     OW37819   2.119   3.104  13.185 -0.4143  0.2727 -0.1724
 8728SOL    HW137820   2.098   3.136  13.096  1.0524 -0.8067 -0.8972
 8728SOL    HW237821   2.034   3.110  13.228 -0.3936  1.1809 -0.2525
 8729SOL     OW37822   2.024   4.319  11.339  0.1806 -0.3404  0.4157
 8729SOL    HW137823   2.040   4.300  11.432  3.0947  0.6696  0.0983
 8729SOL    HW237824   1.930   4.300  11.340 -0.0489  0.8217  0.9528
 8730SOL     OW37825   4.266   3.338  15.230 -0.0571  0.1651  0.0496
 8730SOL    HW137826   4.176   3.309  15.216  0.1846 -0.3495 -0.4431
 8730SOL    HW237827   4.277   3.353  15.136  1.2460 -0.1832  0.1429
 8731SOL     OW37828   4.324   2.400   8.266  0.2217  0.3257  0.4851
 8731SOL    HW137829   4.247   2.344   8.276  1.1079 -1.0055 -0.0288
 8731SOL    HW237830   4.281   2.462   8.207 -0.4645 -1.0284 -0.4410
 8732SOL     OW37831   0.619   4.427   7.788  0.8757  0.3351  0.0447
 8732SOL    HW137832   0.610   4.392   7.699 -0.2500 -1.4847  0.8589
 8732SOL    HW237833   0.680   4.497   7.766 -1.5434  2.5897  0.4489
 8733SOL     OW37834   3.410   0.677   3.957  0.2040 -0.1764 -0.0528
 8733SOL    HW137835   3.500   0.706   3.977 -0.7522  0.9770  2.5304
 8733SOL    HW237836   3.435   0.589   3.930  1.0244 -0.0815  0.3736
 8734SOL     OW37837   0.516   0.356   6.984  0.0322  0.5807 -0.3645
 8734SOL    HW137838   0.451   0.423   7.007  0.0018  0.7394 -0.8996
 8734SOL    HW237839   0.556   0.409   6.915  0.0755  0.2618 -0.5826
 8735SOL     OW37840   2.027   1.354   7.016 -0.3488  0.3013 -0.1695
 8735SOL    HW137841   2.101   1.378   7.072  0.8665 -2.0682 -0.7416
 8735SOL    HW237842   1.985   1.440   7.020 -3.0679 -1.0102 -0.9674
 8736SOL     OW37843   0.268   0.797   9.253  0.7947 -0.2356  0.3187
 8736SOL    HW137844   0.321   0.815   9.331  1.6215 -1.4149  0.0261
 8736SOL    HW237845   0.314   0.853   9.190  0.5995  1.8521  1.9977
 8737SOL     OW37846   2.133   3.143   7.632  0.1861 -0.0645 -0.4808
 8737SOL    HW137847   2.115   3.200   7.557 -1.6545  1.2296  0.9224
 8737SOL    HW237848   2.105   3.056   7.603 -0.2379  0.0155 -0.3148
 8738SOL     OW37849   4.252   1.214   0.112 -0.2433 -0.4122  0.3281
 8738SOL    HW137850   4.293   1.173   0.188 -0.7596 -0.3144  0.6582
 8738SOL    HW237851   4.239   1.138   0.055  0.6033  0.5961 -1.2087
 8739SOL     OW37852   4.452   0.609   9.027 -0.7764 -0.5550  0.1157
 8739SOL    HW137853   4.530   0.557   9.043  0.4302  0.6931 -1.7295
 8739SOL    HW237854   4.440   0.592   8.934  0.3679  0.6200 -0.2481
 8740SOL     OW37855   2.387   4.052   7.976 -0.7653  0.0471 -0.1986
 8740SOL    HW137856   2.362   4.133   8.020 -0.5193  0.5117 -0.9099
 8740SOL    HW237857   2.470   4.083   7.939  0.4171 -1.5778  1.1327
 8741SOL     OW37858   3.963   0.012   6.481  0.0930  0.3895  0.1329
 8741SOL    HW137859   3.971   4.680   6.417  1.1043  0.9379 -0.3423
 8741SOL    HW237860   4.025   4.731   6.550 -0.2257 -1.1411  0.0018
 8742SOL     OW37861   1.245   4.325   6.261  0.2818  0.2899 -0.7216
 8742SOL    HW137862   1.254   4.261   6.190 -0.3262  0.4358 -0.9369
 8742SOL    HW237863   1.337   4.350   6.269 -0.8459  4.3159  0.0724
 8743SOL     OW37864   4.130   3.699   8.605  0.4480 -0.3640 -0.0322
 8743SOL    HW137865   4.139   3.704   8.700 -0.7705  3.0007 -0.0855
 8743SOL    HW237866   4.089   3.615   8.583  3.8899 -1.9076 -0.6591
 8744SOL     OW37867   0.026   0.045   6.013 -0.1097 -0.3403 -0.1016
 8744SOL    HW137868   0.038   0.046   6.108 -2.6194  0.5854  0.2104
 8744SOL    HW237869   0.116   0.058   5.985 -0.3679  0.2123 -0.6587
 8745SOL     OW37870   0.028   0.902   7.587 -0.3259 -0.1096  0.0543
 8745SOL    HW137871   4.681   0.859   7.588  0.2109 -1.1662 -0.3680
 8745SOL    HW237872   0.085   0.826   7.578 -0.5121 -0.2591  0.1497
 8746SOL     OW37873   3.796   2.951   2.374  0.3028  0.3533 -0.6703
 8746SOL    HW137874   3.846   3.023   2.413  1.1972 -0.6056 -0.0301
 8746SOL    HW237875   3.838   2.946   2.288 -0.0031  1.0239 -0.8621
 8747SOL     OW37876   0.110   3.663   7.751  0.2297  0.0800  0.0561
 8747SOL    HW137877   0.051   3.732   7.781 -0.3009  0.5837 -2.1466
 8747SOL    HW237878   0.161   3.649   7.831 -1.4676 -0.5262  1.0496
 8748SOL     OW37879   1.206   1.068   6.464 -0.2560 -0.3497 -0.5255
 8748SOL    HW137880   1.176   0.986   6.503  1.7674 -0.9855 -0.2954
 8748SOL    HW237881   1.199   1.124   6.541 -1.3351  0.8808 -1.5165
 8749SOL     OW37882   1.742   1.698  10.097 -0.2004  0.4051  0.7671
 8749SOL    HW137883   1.779   1.671  10.182  0.5405  0.7989  0.5677
 8749SOL    HW237884   1.796   1.645  10.039  1.0833  0.1129  2.2147
 8750SOL     OW37885   3.485   3.590   8.023  0.5878  0.3150  0.2507
 8750SOL    HW137886   3.424   3.651   7.982 -0.3266  1.1971  2.9128
 8750SOL    HW237887   3.549   3.587   7.953  0.0545  1.9483 -0.3158
 8751SOL     OW37888   4.184   1.924  11.466  0.0263 -0.6409 -0.6725
 8751SOL    HW137889   4.216   1.857  11.525 -1.5039 -0.1086  0.7614
 8751SOL    HW237890   4.208   2.007  11.507 -1.1459 -0.4520 -0.3729
 8752SOL     OW37891   3.673   4.027   5.742  0.3285 -0.0643 -0.7801
 8752SOL    HW137892   3.709   4.096   5.798 -0.8707  0.2917 -0.4630
 8752SOL    HW237893   3.729   3.950   5.751  1.5110  0.7917 -0.7418
 8753SOL     OW37894   2.102   2.813   3.188  0.5740  0.3346  0.7605
 8753SOL    HW137895   2.167   2.847   3.249 -0.2842  0.3915  1.6496
 8753SOL    HW237896   2.126   2.845   3.101 -0.8575 -0.6603 -0.0102
 8754SOL     OW37897   1.245   1.332   8.265  0.0273  0.4268 -0.0809
 8754SOL    HW137898   1.296   1.257   8.295  0.6579  1.5839  1.8000
 8754SOL    HW237899   1.205   1.361   8.348  1.3057  0.7339  0.4272
 8755SOL     OW37900   0.587   1.789  15.541 -0.2398 -0.2507  0.0417
 8755SOL    HW137901   0.583   1.855  15.611  1.0458  0.4479 -0.5506
 8755SOL    HW237902   0.497   1.794  15.509 -0.2422 -1.6676 -0.1606
 8756SOL     OW37903   4.498   3.213   3.850  0.2749 -0.0186 -0.3989
 8756SOL    HW137904   4.489   3.283   3.785 -0.7347 -0.5458 -0.8226
 8756SOL    HW237905   4.405   3.194   3.861  0.0959  0.5707 -0.8544
 8757SOL     OW37906   3.473   1.779   5.969 -0.4060 -0.0665  0.2428
 8757SOL    HW137907   3.403   1.760   5.906  0.9786  0.4500 -1.4404
 8757SOL    HW237908   3.468   1.873   5.986  1.4729  0.2046 -0.6811
 8758SOL     OW37909   1.017   1.796   6.416  0.4420 -0.0484 -0.0414
 8758SOL    HW137910   1.011   1.884   6.379  1.1684  0.4122  0.9598
 8758SOL    HW237911   1.085   1.795   6.482  1.9986 -1.1726 -1.6565
 8759SOL     OW37912   1.557   2.652  14.363 -0.5872 -0.5476 -0.2291
 8759SOL    HW137913   1.555   2.560  14.389  0.8138 -0.2923  0.7358
 8759SOL    HW237914   1.546   2.698  14.446 -0.3190  0.0451 -0.5209
 8760SOL     OW37915   3.425   2.917   6.053 -0.1123  0.0226 -0.3165
 8760SOL    HW137916   3.412   2.982   6.122  2.0235 -1.3394  1.4014
 8760SOL    HW237917   3.338   2.888   6.028 -0.3593  1.6063 -1.2987
 8761SOL     OW37918   2.641   2.322   2.801 -0.1516  0.0811 -0.2859
 8761SOL    HW137919   2.679   2.264   2.735  1.0896  0.8476 -0.2507
 8761SOL    HW237920   2.613   2.396   2.747 -1.8519  0.7366  1.4772
 8762SOL     OW37921   3.233   0.281   0.609  0.1055  0.1280 -0.1534
 8762SOL    HW137922   3.154   0.228   0.615 -0.3949  0.8613 -0.2752
 8762SOL    HW237923   3.286   0.223   0.554 -1.8261 -0.5532 -1.2881
 8763SOL     OW37924   4.631   2.105   0.053 -0.4779  0.3275  0.3017
 8763SOL    HW137925   4.685   2.025   0.051 -1.2529 -0.1785 -0.4787
 8763SOL    HW237926   4.652   2.145  17.719  1.8105 -2.6658 -0.5645
 8764SOL     OW37927   2.436   0.785   5.963  0.9780 -0.0188 -0.6126
 8764SOL    HW137928   2.419   0.696   5.995 -0.0108  0.5605  0.4515
 8764SOL    HW237929   2.521   0.774   5.921  1.3167 -1.5036  0.4636
 8765SOL     OW37930   1.640   1.336   1.500 -0.0949 -0.0092  0.3393
 8765SOL    HW137931   1.690   1.386   1.435 -1.7878 -2.2654 -2.6831
 8765SOL    HW237932   1.606   1.404   1.559  1.2006  1.4005 -0.5238
 8766SOL     OW37933   0.609   4.085   9.456  1.0099  0.8702  0.3949
 8766SOL    HW137934   0.576   4.053   9.372  0.8670  2.2133 -0.0621
 8766SOL    HW237935   0.667   4.153   9.423  1.8801  0.1525  0.4337
 8767SOL     OW37936   2.383   0.466   1.826  0.0529 -0.0171  0.5575
 8767SOL    HW137937   2.302   0.516   1.821  0.3614  0.3566 -0.4823
 8767SOL    HW237938   2.414   0.495   1.912 -0.5147  3.1243 -0.3079
 8768SOL     OW37939   3.892   4.043   6.165  0.2336  0.2609 -0.2864
 8768SOL    HW137940   3.855   3.961   6.134  1.3059 -0.3295  0.0081
 8768SOL    HW237941   3.965   4.052   6.104 -0.5380  0.6164 -1.1681
 8769SOL     OW37942   1.546   3.593   2.521 -0.2540 -0.5448 -0.0758
 8769SOL    HW137943   1.538   3.557   2.609  3.1362  0.4236  0.6378
 8769SOL    HW237944   1.454   3.587   2.496 -0.8638  0.7323  1.8899
 8770SOL     OW37945   4.386   1.378   5.699  0.0592 -0.1217 -0.6933
 8770SOL    HW137946   4.388   1.342   5.610  3.4160  0.3767 -0.8018
 8770SOL    HW237947   4.450   1.448   5.693  0.1519 -0.3523 -2.3629
 8771SOL     OW37948   0.894   3.171   2.191 -0.3046 -0.6094  0.5128
 8771SOL    HW137949   0.829   3.145   2.126  0.4528  0.3703 -0.6283
 8771SOL    HW237950   0.898   3.266   2.179  0.6112 -0.6481  0.4793
 8772SOL     OW37951   1.017   2.119   8.239  0.0548  0.1273  0.4613
 8772SOL    HW137952   1.069   2.156   8.169  0.9153 -0.7268  0.6434
 8772SOL    HW237953   0.988   2.196   8.288  1.1271  0.2463  0.9177
 8773SOL     OW37954   0.465   2.522   7.557  0.0131  0.2472  1.0646
 8773SOL    HW137955   0.516   2.602   7.558  1.5650 -0.7863  3.5566
 8773SOL    HW237956   0.542   2.470   7.581 -1.1912 -1.7491  0.6291
 8774SOL     OW37957   0.957   3.309   7.935  0.5432  0.2971  0.5638
 8774SOL    HW137958   1.031   3.370   7.938  2.3335 -1.9032  1.3135
 8774SOL    HW237959   0.999   3.243   7.990 -0.0042  0.0101  0.6305
 8775SOL     OW37960   2.308   0.333  14.787 -0.3524 -0.3834 -0.0145
 8775SOL    HW137961   2.321   0.385  14.708 -0.5004 -1.1963 -0.5783
 8775SOL    HW237962   2.306   0.242  14.758  2.2276 -0.8271  1.1972
 8776SOL     OW37963   3.987   1.362   1.933 -0.3630  0.6047 -0.6446
 8776SOL    HW137964   4.023   1.367   1.844  0.2924  0.5032 -0.3894
 8776SOL    HW237965   3.993   1.452   1.965  2.8800 -0.4888  1.7801
 8777SOL     OW37966   1.911   4.677   2.126 -0.5707  0.0864 -0.8327
 8777SOL    HW137967   1.971   4.707   2.058 -0.1170  0.5938 -0.2212
 8777SOL    HW237968   1.969   4.639   2.192 -2.5383  0.1633  0.9346
 8778SOL     OW37969   3.947   4.509  10.275 -0.0660  0.3141  0.0217
 8778SOL    HW137970   3.853   4.504  10.291 -0.2667  0.6354 -1.0276
 8778SOL    HW237971   3.973   4.572  10.342 -1.7274  0.6536  0.3401
 8779SOL     OW37972   1.134   1.193   2.859 -0.4805  0.3655  0.4375
 8779SOL    HW137973   1.130   1.148   2.943  1.1493 -0.1437  0.2440
 8779SOL    HW237974   1.050   1.155   2.832 -2.0060  3.2137  1.1478
 8780SOL     OW37975   4.495   2.930   6.797  0.6509 -0.1967 -0.1301
 8780SOL    HW137976   4.453   2.937   6.882  0.7217 -0.1043 -0.1019
 8780SOL    HW237977   4.589   2.934   6.817  0.2328  5.9758  0.6403
 8781SOL     OW37978   0.631   1.839   6.265  0.3662 -0.0630  0.1639
 8781SOL    HW137979   0.697   1.800   6.208 -0.6515 -0.3238 -0.8308
 8781SOL    HW237980   0.550   1.821   6.218 -0.7979  1.4908  1.5660
 8782SOL     OW37981   1.873   0.753   8.015 -0.3279 -0.5339  0.1763
 8782SOL    HW137982   1.817   0.826   8.044 -2.4037 -1.5395 -1.2910
 8782SOL    HW237983   1.880   0.776   7.923  0.2041 -1.2308  0.0462
 8783SOL     OW37984   0.526   2.640  14.743  0.1668  0.2644 -0.4770
 8783SOL    HW137985   0.585   2.670  14.812 -2.6206 -0.1471  2.1033
 8783SOL    HW237986   0.483   2.569  14.789 -1.1849  1.3154 -0.1309
 8784SOL     OW37987   2.215   1.035   5.117 -0.1660  0.8230  0.0963
 8784SOL    HW137988   2.211   1.098   5.045  1.4126  1.2181  0.3571
 8784SOL    HW237989   2.265   1.077   5.186  1.2717 -1.1430  0.2324
 8785SOL     OW37990   1.963   3.850   0.719 -0.5791 -0.0133 -0.2733
 8785SOL    HW137991   1.994   3.767   0.755 -1.5840  0.3872  1.5039
 8785SOL    HW237992   1.994   3.838   0.629  0.0760 -1.7020  0.1770
 8786SOL     OW37993   4.329   1.115   6.789 -0.9264  0.0050  0.0992
 8786SOL    HW137994   4.324   1.111   6.884 -0.4803 -0.5660  0.1023
 8786SOL    HW237995   4.272   1.191   6.781 -1.3217 -0.6026 -3.2100
 8787SOL     OW37996   0.846   2.238   2.982  0.0634  0.5798 -0.1845
 8787SOL    HW137997   0.900   2.301   2.934 -0.2350  0.2767 -0.9164
 8787SOL    HW237998   0.763   2.246   2.935  0.3719  2.3693 -0.4306
 8788SOL     OW37999   2.909   0.355  13.788  0.1105 -0.2504  0.2580
 8788SOL    HW138000   2.984   0.414  13.783  0.5863 -0.8242  0.6607
 8788SOL    HW238001   2.872   0.386  13.870 -1.7981  1.0281 -1.0841
 8789SOL     OW38002   0.694   4.239   1.689 -0.1706 -0.5348  0.0924
 8789SOL    HW138003   0.781   4.212   1.660  0.2794  0.7618  0.2284
 8789SOL    HW238004   0.676   4.158   1.736  1.5031 -0.3339  1.0813
 8790SOL     OW38005   2.031   4.446   5.448  0.4989  0.1092  0.0175
 8790SOL    HW138006   2.112   4.399   5.465  1.1802 -0.3663 -4.4751
 8790SOL    HW238007   2.040   4.512   5.516 -1.7974 -0.1748  0.6125
 8791SOL     OW38008   0.608   1.701   3.086 -0.1155 -0.1745 -0.4619
 8791SOL    HW138009   0.608   1.752   3.167 -0.8132 -0.1922 -0.4555
 8791SOL    HW238010   0.611   1.611   3.119 -1.9722  0.5302  1.6392
 8792SOL     OW38011   1.492   4.084   0.298 -0.3971  0.3507 -0.0437
 8792SOL    HW138012   1.550   4.012   0.325  1.4785  1.8803  0.0705
 8792SOL    HW238013   1.441   4.044   0.228  0.0711  0.1086 -0.2487
 8793SOL     OW38014   1.629   3.251   4.811  0.0838  0.0427 -0.0735
 8793SOL    HW138015   1.580   3.239   4.892 -0.6284  1.1174 -0.3402
 8793SOL    HW238016   1.689   3.176   4.804 -1.6552 -1.3673  0.0350
 8794SOL     OW38017   4.451   1.565   4.875  0.2855  0.0454 -0.2430
 8794SOL    HW138018   4.501   1.490   4.908  0.8617  0.4639 -0.1571
 8794SOL    HW238019   4.388   1.525   4.816  1.1775 -1.6446 -0.0365
 8795SOL     OW38020   3.982   2.556   4.499 -0.3646  0.6430 -1.2658
 8795SOL    HW138021   4.041   2.510   4.440 -0.8449  1.1806 -2.1695
 8795SOL    HW238022   3.897   2.513   4.486 -0.4845  0.6980 -0.6697
 8796SOL     OW38023   3.163   4.386   6.059 -0.0801  0.3302  0.2596
 8796SOL    HW138024   3.140   4.314   6.002 -1.5331  2.4562 -1.8470
 8796SOL    HW238025   3.215   4.442   6.000 -2.3057  0.9797 -1.0732
 8797SOL     OW38026   1.924   2.837  13.298 -0.2140 -0.1041 -0.0434
 8797SOL    HW138027   1.998   2.776  13.299  1.2562  1.6755 -0.7926
 8797SOL    HW238028   1.957   2.907  13.355  1.6424 -2.1250  1.3581
 8798SOL     OW38029   2.151   0.192  14.254 -0.3953 -0.1447  0.0533
 8798SOL    HW138030   2.196   0.269  14.288 -0.7634  0.3389 -0.5638
 8798SOL    HW238031   2.110   0.148  14.329  0.1920  0.4089  0.7049
 8799SOL     OW38032   0.683   0.686   9.312 -0.1089 -0.0317  0.4634
 8799SOL    HW138033   0.676   0.760   9.251  0.4006 -0.7421 -0.4695
 8799SOL    HW238034   0.612   0.709   9.372 -0.2859 -0.3097  0.3637
 8800SOL     OW38035   0.824   0.821   4.687  0.0566 -0.8343  0.7911
 8800SOL    HW138036   0.814   0.726   4.686  1.0802 -0.9514  1.4660
 8800SOL    HW238037   0.913   0.828   4.724  0.4216  0.6252 -0.3749
 8801SOL     OW38038   1.163   0.687   3.941  0.1747  0.4002  0.4957
 8801SOL    HW138039   1.195   0.766   3.983  1.4441  2.0203 -3.5730
 8801SOL    HW238040   1.233   0.659   3.883 -0.0109 -1.2103  1.0287
 8802SOL     OW38041   3.184   2.422   6.657  0.1558 -0.0924 -0.0611
 8802SOL    HW138042   3.279   2.426   6.670 -0.1940 -0.1151  2.5543
 8802SOL    HW238043   3.146   2.417   6.744  2.3265  1.7432  0.9858
 8803SOL     OW38044   4.089   0.816   5.171 -0.2210 -0.1314  0.0463
 8803SOL    HW138045   4.161   0.851   5.223 -1.1721 -1.4872  2.2558
 8803SOL    HW238046   4.090   0.872   5.092 -0.1865 -1.5705 -0.9664
 8804SOL     OW38047   3.445   3.009   7.416  0.1737  0.7924 -0.0284
 8804SOL    HW138048   3.362   2.961   7.424  1.1521 -0.5869  1.7960
 8804SOL    HW238049   3.474   3.001   7.507 -2.6735  0.0590  0.8255
 8805SOL     OW38050   0.637   1.099   2.287  0.1076 -0.7387 -0.0722
 8805SOL    HW138051   0.653   1.188   2.257 -0.8856 -0.2468  0.9114
 8805SOL    HW238052   0.703   1.051   2.236 -0.0774  1.3327 -2.2705
 8806SOL     OW38053   1.008   4.375   6.331 -0.5497 -0.7918 -0.1164
 8806SOL    HW138054   1.026   4.449   6.389 -2.8637  0.2187 -0.6803
 8806SOL    HW238055   1.099   4.357   6.311 -0.4080  1.8482 -1.9002
 8807SOL     OW38056   0.272   2.529   8.925 -0.1188  0.0082 -0.2684
 8807SOL    HW138057   0.337   2.470   8.888 -0.3941 -0.3558 -0.1796
 8807SOL    HW238058   0.318   2.612   8.939  0.5342 -0.0395 -2.2152
 8808SOL     OW38059   1.780   2.232   4.166  0.3332 -0.1344  0.6540
 8808SOL    HW138060   1.711   2.289   4.130 -0.4380 -0.4561  1.6239
 8808SOL    HW238061   1.784   2.164   4.099  0.7103  0.7752 -0.2581
 8809SOL     OW38062   3.944   3.550   7.370 -0.0455  0.1234 -0.1260
 8809SOL    HW138063   4.027   3.503   7.380 -1.3546 -1.8760  1.1863
 8809SOL    HW238064   3.874   3.487   7.384  0.9616 -0.2746  3.0753
 8810SOL     OW38065   4.580   4.616   1.955 -0.0262 -0.0178 -0.0832
 8810SOL    HW138066   4.676   4.614   1.957 -0.0435 -0.1432  0.9049
 8810SOL    HW238067   4.555   4.688   2.013 -0.3052 -0.0922 -0.1108
 8811SOL     OW38068   0.100   1.687  12.955  0.3055  0.5505  0.2334
 8811SOL    HW138069   0.188   1.695  12.917  0.5424  1.1773  0.9143
 8811SOL    HW238070   0.073   1.610  12.905  0.8415  1.0405 -0.8094
 8812SOL     OW38071   2.631   2.136   7.279  0.1794  0.0702 -0.3794
 8812SOL    HW138072   2.707   2.190   7.259  0.1178 -0.2990 -1.6388
 8812SOL    HW238073   2.588   2.197   7.339 -2.2207 -1.6447 -0.3598
 8813SOL     OW38074   2.938   1.090   3.104  0.1822 -0.4020 -0.0249
 8813SOL    HW138075   2.997   1.165   3.095  1.4348 -1.3198  0.5703
 8813SOL    HW238076   3.005   1.022   3.105 -1.7177 -2.2448  1.8988
 8814SOL     OW38077   0.819   0.007   8.300  0.3339  0.0700 -0.2457
 8814SOL    HW138078   0.805   4.658   8.263  0.9806 -1.0915  2.2207
 8814SOL    HW238079   0.894   4.732   8.358 -0.0854  1.4126  0.6012
 8815SOL     OW38080   0.629   1.456   7.334 -0.6077  0.7449  0.1698
 8815SOL    HW138081   0.629   1.362   7.312  0.2404  0.1288  2.7253
 8815SOL    HW238082   0.710   1.480   7.289  0.2874 -1.8117  0.3716
 8816SOL     OW38083   3.947   2.070   2.509  0.6475 -0.0143 -0.0072
 8816SOL    HW138084   3.998   2.080   2.589 -0.7025  0.5722  0.7837
 8816SOL    HW238085   3.945   1.975   2.495 -1.3639  0.0546 -0.2389
 8817SOL     OW38086   3.243   2.346  15.490  0.0668  0.3244 -0.0385
 8817SOL    HW138087   3.259   2.431  15.448 -0.9380  1.3332  1.6164
 8817SOL    HW238088   3.289   2.286  15.431  0.3590 -0.1737  0.7035
 8818SOL     OW38089   0.223   1.353   5.408  0.2273 -0.1711 -0.4638
 8818SOL    HW138090   0.218   1.445   5.434  0.6391  0.2014 -1.6968
 8818SOL    HW238091   0.282   1.333   5.481  0.4025  3.5479  0.4527
 8819SOL     OW38092   0.914   4.461   1.103 -0.0278 -0.3601 -0.4244
 8819SOL    HW138093   1.004   4.488   1.082  0.6834 -3.4658 -1.4299
 8819SOL    HW238094   0.919   4.368   1.123 -0.8084  0.2270  2.4348
 8820SOL     OW38095   1.235   4.706  16.187  0.4023 -0.0307  0.5047
 8820SOL    HW138096   1.206   4.642  16.122 -2.8544  1.5282  0.4124
 8820SOL    HW238097   1.231   4.653  16.266 -0.6581  1.5549  1.5133
 8821SOL     OW38098   2.623   3.453   4.101  0.5218 -0.0827  0.1137
 8821SOL    HW138099   2.673   3.415   4.173  1.3852 -1.0959 -1.0243
 8821SOL    HW238100   2.615   3.543   4.133  1.6663  0.3844 -0.8883
 8822SOL     OW38101   2.047   1.733   3.220 -0.4122 -0.0196 -0.6803
 8822SOL    HW138102   2.064   1.803   3.283  1.0739 -1.3675  0.4046
 8822SOL    HW238103   2.077   1.653   3.263  3.4918  0.2404 -2.9259
 8823SOL     OW38104   3.890   1.729  11.596 -0.3538 -0.6680  0.0150
 8823SOL    HW138105   3.814   1.690  11.552 -0.5036  1.4394 -1.5652
 8823SOL    HW238106   3.859   1.819  11.609  0.9651 -0.7560  3.8544
 8824SOL     OW38107   1.061   2.299   8.642  0.2846  0.2786 -0.3286
 8824SOL    HW138108   1.113   2.224   8.672 -3.6324 -0.9414  3.5083
 8824SOL    HW238109   1.107   2.370   8.686 -0.2228  0.7808 -0.6166
 8825SOL     OW38110   0.399   4.707   9.022 -0.4168 -0.0625 -0.3000
 8825SOL    HW138111   0.491   4.706   8.994  0.1835 -1.3182  1.7007
 8825SOL    HW238112   0.377   0.062   9.021  0.3525  0.1365  0.6289
 8826SOL     OW38113   0.416   3.691   0.720  0.2446  0.0015  0.3393
 8826SOL    HW138114   0.353   3.624   0.749  0.0070 -0.1753 -0.5803
 8826SOL    HW238115   0.385   3.703   0.630 -0.4774 -1.7238  0.3425
 8827SOL     OW38116   1.031   0.014   4.419 -0.1557 -0.1997 -0.3664
 8827SOL    HW138117   1.081   0.094   4.432 -1.5069  0.2795  1.8133
 8827SOL    HW238118   0.954   0.064   4.391 -0.4512 -1.5583 -1.9878
 8828SOL     OW38119   3.055   3.854   4.638  0.0046 -0.0705 -0.2757
 8828SOL    HW138120   3.103   3.933   4.661  1.6237 -0.7894 -1.2012
 8828SOL    HW238121   2.969   3.875   4.676 -0.4408 -0.7447 -0.8965
 8829SOL     OW38122   3.565   3.703   9.571 -0.4330  0.6118 -0.9332
 8829SOL    HW138123   3.624   3.686   9.497 -1.1628 -1.6719 -0.9840
 8829SOL    HW238124   3.570   3.620   9.618  0.4048  1.1735 -0.0299
 8830SOL     OW38125   0.510   3.979   1.723 -0.4371  0.4850  0.1883
 8830SOL    HW138126   0.464   3.907   1.680 -0.3498 -1.2596  2.9949
 8830SOL    HW238127   0.457   4.046   1.681 -0.3301  0.3319 -0.1997
 8831SOL     OW38128   4.237   4.520   6.877  0.1118  0.1594  0.6607
 8831SOL    HW138129   4.261   4.427   6.879  1.9973  0.6321 -0.3561
 8831SOL    HW238130   4.309   4.553   6.931  0.1054  1.5239 -0.1633
 8832SOL     OW38131   1.934   3.390  16.563 -0.4252 -0.5962  0.1014
 8832SOL    HW138132   1.847   3.366  16.595 -0.7590  0.2957 -0.1665
 8832SOL    HW238133   1.922   3.446  16.487  1.9678  0.0151  0.1634
 8833SOL     OW38134   1.742   2.930   4.348  0.4731 -0.4118  0.2405
 8833SOL    HW138135   1.688   2.966   4.278  1.5780 -1.7217 -1.2805
 8833SOL    HW238136   1.678   2.880   4.397 -1.9068  1.9328 -0.4878
 8834SOL     OW38137   3.515   2.181   6.424  0.6139 -0.1078 -0.1516
 8834SOL    HW138138   3.558   2.219   6.500 -2.1371  0.4130  1.1047
 8834SOL    HW238139   3.558   2.210   6.343 -0.2858 -0.1970 -0.6638
 8835SOL     OW38140   3.184   1.997   8.728  0.1252 -0.2558  0.0362
 8835SOL    HW138141   3.263   2.028   8.773 -0.5192 -0.8750  1.5813
 8835SOL    HW238142   3.220   1.997   8.640  1.3526  0.5747  0.5376
 8836SOL     OW38143   0.861   3.504   0.212 -0.2021 -0.3294 -0.3867
 8836SOL    HW138144   0.765   3.500   0.206 -0.2196 -0.5530  0.0798
 8836SOL    HW238145   0.873   3.580   0.154 -0.4208  0.8551  1.1212
 8837SOL     OW38146   1.351   3.634   1.570  1.1766 -0.1917 -0.1936
 8837SOL    HW138147   1.276   3.672   1.523  0.0429 -0.9652  1.0121
 8837SOL    HW238148   1.336   3.544   1.542  3.3012  0.2061 -2.6729
 8838SOL     OW38149   3.928   3.962   9.665  0.1465 -0.1139 -0.1083
 8838SOL    HW138150   4.021   3.970   9.688 -0.0343  1.0498  0.1979
 8838SOL    HW238151   3.895   3.994   9.748  0.3907  1.5068 -0.6296
 8839SOL     OW38152   1.013   4.241   2.074  0.1076 -0.2920  0.2000
 8839SOL    HW138153   1.071   4.290   2.016  1.1092 -1.9959 -0.2309
 8839SOL    HW238154   0.993   4.319   2.127  3.1155  0.3859  0.3446
 8840SOL     OW38155   3.125   1.962   9.133 -0.1393  0.5649 -0.4625
 8840SOL    HW138156   3.041   1.928   9.104 -0.1985  0.1257  0.2150
 8840SOL    HW238157   3.093   2.019   9.203  2.7555 -0.4128  1.6717
 8841SOL     OW38158   0.652   1.805   5.252 -0.1487  0.9013 -0.4524
 8841SOL    HW138159   0.707   1.781   5.327 -1.5063 -0.2074  0.1930
 8841SOL    HW238160   0.562   1.806   5.285  0.0364  2.5341  0.0346
 8842SOL     OW38161   3.551   4.356   1.460  0.3357  0.6355 -0.5046
 8842SOL    HW138162   3.533   4.281   1.517 -1.4482  0.8957 -0.7257
 8842SOL    HW238163   3.467   4.396   1.437 -0.4508 -0.0489  1.1325
 8843SOL     OW38164   3.187   4.732   0.678 -0.0857  0.8012 -0.3649
 8843SOL    HW138165   3.230   0.007   0.594  0.9428 -3.1785 -0.4292
 8843SOL    HW238166   3.142   4.651   0.657 -0.9897  1.0063  0.7697
 8844SOL     OW38167   1.622   0.712   2.207 -0.1481 -0.2844 -0.6496
 8844SOL    HW138168   1.534   0.680   2.187 -0.6422  0.5087  0.2595
 8844SOL    HW238169   1.630   0.777   2.137 -2.4144 -2.1357 -2.6319
 8845SOL     OW38170   4.091   1.802   4.226  0.0779 -0.0136  0.5923
 8845SOL    HW138171   4.176   1.798   4.184  0.6284  0.3833  1.6600
 8845SOL    HW238172   4.028   1.815   4.155  0.4804  0.9705  0.4222
 8846SOL     OW38173   1.196   3.641   2.553 -0.2392  0.0616  0.0479
 8846SOL    HW138174   1.264   3.610   2.612 -1.6840 -2.3008  0.4527
 8846SOL    HW238175   1.208   3.736   2.555  3.2131 -0.4337  2.4185
 8847SOL     OW38176   4.171   1.473   3.460 -0.5410 -0.4043  0.0342
 8847SOL    HW138177   4.140   1.531   3.390 -0.4757 -0.3482  0.0510
 8847SOL    HW238178   4.144   1.388   3.428 -1.0696 -0.1930 -0.0746
 8848SOL     OW38179   1.246   2.774  17.738 -0.5720  0.4111  0.0084
 8848SOL    HW138180   1.330   2.729  17.731 -1.5123 -1.5428  1.4385
 8848SOL    HW238181   1.276   2.841   0.049 -0.7565  0.7003 -0.2120
 8849SOL     OW38182   4.146   0.558   8.287 -0.0252  0.4443  0.2542
 8849SOL    HW138183   4.112   0.503   8.357  0.9015 -1.1068 -0.4959
 8849SOL    HW238184   4.225   0.512   8.257 -0.8432  0.2756 -1.6385
 8850SOL     OW38185   4.531   3.149   2.548  0.5836  0.1628 -0.1911
 8850SOL    HW138186   4.482   3.188   2.621  1.9380  2.7770 -0.6746
 8850SOL    HW238187   4.551   3.231   2.503  0.1152  0.5205  0.2373
 8851SOL     OW38188   0.700   2.657   2.740  0.2090  0.0069  0.1843
 8851SOL    HW138189   0.629   2.688   2.683 -1.4744 -1.4048  1.4933
 8851SOL    HW238190   0.736   2.594   2.678  0.7327  2.1587 -1.6711
 8852SOL     OW38191   0.477   4.594  12.802  0.1697 -0.1231  0.0648
 8852SOL    HW138192   0.553   4.653  12.801  1.7360 -2.1195  0.8614
 8852SOL    HW238193   0.405   4.656  12.811  0.2687  0.0197 -0.1103
 8853SOL     OW38194   0.935   4.636   0.488 -0.1137  0.4473  0.1939
 8853SOL    HW138195   1.014   4.674   0.450 -0.0771  0.6434  0.4651
 8853SOL    HW238196   0.881   4.611   0.413  2.0902  2.9278 -2.2010
 8854SOL     OW38197   1.829   1.014   9.797 -0.6452  0.2560 -0.0971
 8854SOL    HW138198   1.822   1.052   9.709 -0.9381 -0.2145 -0.2797
 8854SOL    HW238199   1.823   1.086   9.859 -0.2283 -1.3442  1.7861
 8855SOL     OW38200   0.717   1.063   6.361  0.4502 -0.1759  0.4771
 8855SOL    HW138201   0.687   1.152   6.341  0.5483 -0.0975  0.6782
 8855SOL    HW238202   0.808   1.083   6.384  0.1806  0.8925  0.6194
 8856SOL     OW38203   2.597   4.433   7.212  0.0959 -0.1695  0.6027
 8856SOL    HW138204   2.654   4.356   7.212 -0.5540 -0.6429  1.7772
 8856SOL    HW238205   2.640   4.497   7.155  0.6457  0.4616  1.7237
 8857SOL     OW38206   1.730   4.136   2.375 -0.0069 -0.1484 -0.4514
 8857SOL    HW138207   1.713   4.142   2.469  1.7842 -0.1953 -0.1259
 8857SOL    HW238208   1.655   4.174   2.329  0.4365  1.5234  0.2020
 8858SOL     OW38209   1.024   1.508   8.683  0.1150 -0.7344 -0.3242
 8858SOL    HW138210   1.037   1.602   8.669 -0.5750 -0.1576  2.8836
 8858SOL    HW238211   0.932   1.488   8.668 -0.3586  0.5448  0.9408
 8859SOL     OW38212   0.397   2.454   7.926 -0.0029  0.0876  0.5939
 8859SOL    HW138213   0.398   2.475   7.833 -0.1633 -1.0148  0.3429
 8859SOL    HW238214   0.450   2.515   7.977  0.6138  0.0035  0.0477
 8860SOL     OW38215   0.524   0.808   4.618 -0.1512 -0.1317  0.8993
 8860SOL    HW138216   0.618   0.814   4.633 -0.1195  1.5806  0.0251
 8860SOL    HW238217   0.518   0.759   4.536  1.3619  1.4320 -0.1576
 8861SOL     OW38218   1.649   1.307   7.361  0.3505 -0.9216 -0.3630
 8861SOL    HW138219   1.637   1.230   7.416 -0.2708 -1.5889 -1.4449
 8861SOL    HW238220   1.674   1.271   7.276 -0.7955 -2.8067  0.1073
 8862SOL     OW38221   0.898   2.281  12.322 -0.4648 -0.6861  0.4321
 8862SOL    HW138222   0.946   2.292  12.404  2.6598 -1.4097 -1.2869
 8862SOL    HW238223   0.957   2.316  12.255 -1.5830 -0.2957 -0.3492
 8863SOL     OW38224   2.456   4.723   5.234 -0.0863  0.5071 -0.5301
 8863SOL    HW138225   2.412   4.677   5.305 -0.0710  3.1627  1.1912
 8863SOL    HW238226   2.527   0.026   5.282  0.6842  0.0725 -1.2971
 8864SOL     OW38227   3.247   3.048   4.201 -0.0278 -0.4616  0.0574
 8864SOL    HW138228   3.223   3.100   4.124 -0.4905  0.3869  0.7683
 8864SOL    HW238229   3.336   3.059   4.233 -0.3189 -1.6798  1.3298
 8865SOL     OW38230   4.062   3.313   3.492  0.3208  0.0652  0.1124
 8865SOL    HW138231   4.054   3.232   3.543  3.8431 -0.9092 -0.8744
 8865SOL    HW238232   3.984   3.359   3.522  1.1061  0.7111  1.1775
 8866SOL     OW38233   1.732   2.563   3.565 -0.5421  0.6597 -0.0764
 8866SOL    HW138234   1.637   2.567   3.562 -0.5669 -1.1243 -1.3202
 8866SOL    HW238235   1.743   2.590   3.657  0.4796  0.3366 -0.0973
 8867SOL     OW38236   3.307   1.761  11.050 -0.5292 -0.2883 -0.2274
 8867SOL    HW138237   3.274   1.685  11.002 -0.9427 -1.1249  1.3924
 8867SOL    HW238238   3.263   1.828  10.998  0.0224  0.9392  0.8878
 8868SOL     OW38239   3.335   3.259   8.521  0.4583 -0.2495  0.0096
 8868SOL    HW138240   3.264   3.198   8.542 -0.7716  0.3291 -2.4315
 8868SOL    HW238241   3.290   3.343   8.534 -0.4928 -0.8853  0.7835
 8869SOL     OW38242   1.812   0.909  15.855 -0.4160  0.5995  0.0689
 8869SOL    HW138243   1.860   0.876  15.779  0.4946  0.9971  0.4753
 8869SOL    HW238244   1.722   0.904  15.822  1.2196 -1.9675 -4.0346
 8870SOL     OW38245   3.711   1.667   2.195 -0.2988 -0.5786 -0.6842
 8870SOL    HW138246   3.749   1.670   2.108  2.8376  1.5651  0.7561
 8870SOL    HW238247   3.654   1.589   2.195 -0.6563 -0.3213  1.6447
 8871SOL     OW38248   3.887   2.990   2.118  0.0294 -0.3043 -0.3847
 8871SOL    HW138249   3.842   3.063   2.076 -1.0076 -0.7510 -0.0382
 8871SOL    HW238250   3.978   3.020   2.113  0.4456 -1.2450  1.6077
 8872SOL     OW38251   2.264   0.481   2.227  0.1164  0.4391 -0.2621
 8872SOL    HW138252   2.318   0.490   2.149 -0.5549  1.1257 -0.6536
 8872SOL    HW238253   2.332   0.457   2.290 -1.3312 -0.5333  0.9445
 8873SOL     OW38254   0.702   4.579  11.550  0.1228  0.2613  0.1341
 8873SOL    HW138255   0.697   4.650  11.485  1.3631 -0.1922 -0.4743
 8873SOL    HW238256   0.642   4.605  11.620 -0.9897 -2.1492  0.0849
 8874SOL     OW38257   3.934   2.548   6.619  0.5407  0.1407 -0.3958
 8874SOL    HW138258   3.843   2.517   6.626  0.3441  0.8456  0.2083
 8874SOL    HW238259   3.923   2.640   6.594 -2.1742 -0.4030 -1.1799
 8875SOL     OW38260   0.340   2.770   3.777  0.3708 -0.3252 -0.2934
 8875SOL    HW138261   0.384   2.687   3.756  1.6928 -0.1431  1.7319
 8875SOL    HW238262   0.309   2.764   3.867  1.9174 -0.0651  0.2595
 8876SOL     OW38263   4.316   3.023   5.222 -0.4231 -0.0609 -0.9492
 8876SOL    HW138264   4.330   3.027   5.128  2.8780  1.1570 -0.3963
 8876SOL    HW238265   4.314   2.932   5.251  3.6515 -0.4070 -1.8089
 8877SOL     OW38266   3.674   0.992   6.520 -1.0444  0.2423 -0.5112
 8877SOL    HW138267   3.767   1.002   6.499 -0.6543 -0.3211  0.9169
 8877SOL    HW238268   3.659   0.922   6.456  0.3960  0.5558 -1.1989
 8878SOL     OW38269   1.183   2.330  11.668  0.1266 -0.3666  0.6475
 8878SOL    HW138270   1.177   2.298  11.758 -0.8697  1.9807  1.4248
 8878SOL    HW238271   1.189   2.425  11.680  0.5622 -0.4146  0.7846
 8879SOL     OW38272   3.904   1.514  10.245  0.1395 -0.3300 -0.0368
 8879SOL    HW138273   3.974   1.462  10.208 -1.1041 -0.3341 -2.3703
 8879SOL    HW238274   3.948   1.598  10.261  1.3923 -0.8204 -0.9256
 8880SOL     OW38275   1.708   3.996   8.409 -0.5970  0.1023  0.3403
 8880SOL    HW138276   1.802   4.012   8.416 -0.5481  0.7806 -2.1215
 8880SOL    HW238277   1.691   4.017   8.317 -0.2832  0.3147  0.3325
 8881SOL     OW38278   0.739   2.795   7.562  0.6658 -0.7882 -0.1993
 8881SOL    HW138279   0.677   2.792   7.489 -0.7999  0.1033  0.9964
 8881SOL    HW238280   0.815   2.849   7.539 -0.0990  0.6811  0.7059
 8882SOL     OW38281   1.198   0.449   2.904 -0.4733 -0.2852  0.0655
 8882SOL    HW138282   1.129   0.515   2.905  0.0987  0.3361 -0.8556
 8882SOL    HW238283   1.230   0.458   2.993  0.8007 -0.9136 -0.3299
 8883SOL     OW38284   1.454   2.618   7.497  0.2792 -0.2907 -0.1964
 8883SOL    HW138285   1.498   2.702   7.492  0.8872 -0.6333 -0.4927
 8883SOL    HW238286   1.504   2.578   7.426  1.9649  3.6386 -1.1972
 8884SOL     OW38287   2.286   2.033   6.460  0.3609 -0.1855  0.2238
 8884SOL    HW138288   2.270   2.022   6.366 -0.7466  1.4449  0.2074
 8884SOL    HW238289   2.210   2.090   6.473  0.3509  0.1137 -1.0897
 8885SOL     OW38290   3.840   3.775   4.054  0.0355 -0.0489 -0.0132
 8885SOL    HW138291   3.798   3.707   4.107  0.0209 -0.9200 -1.1440
 8885SOL    HW238292   3.768   3.820   4.009  0.1231 -0.9899 -1.1032
 8886SOL     OW38293   0.219   1.178  17.326  0.5415  0.2419 -0.2696
 8886SOL    HW138294   0.283   1.142  17.265 -0.2735 -0.5750 -0.6355
 8886SOL    HW238295   0.152   1.110  17.329  0.8058 -0.0952 -2.1919
 8887SOL     OW38296   1.511   1.402   6.865  0.7812 -0.1941  0.0891
 8887SOL    HW138297   1.464   1.419   6.783  1.9521 -0.8187 -0.7167
 8887SOL    HW238298   1.531   1.310   6.849 -0.3509 -0.1770 -1.4458
 8888SOL     OW38299   3.377   4.510   1.070 -0.3956  0.1633 -0.1592
 8888SOL    HW138300   3.448   4.461   1.111 -0.5349 -0.2324 -0.3884
 8888SOL    HW238301   3.386   4.598   1.108 -0.0296  0.4571 -0.9312
 8889SOL     OW38302   0.931   1.865   4.314 -0.7078 -0.0443 -0.6110
 8889SOL    HW138303   1.015   1.907   4.331  0.0094 -1.4592 -0.6684
 8889SOL    HW238304   0.963   1.782   4.349 -0.2204  0.9627  1.3439
 8890SOL     OW38305   0.978   3.119  14.956 -0.1961 -0.5292 -0.2517
 8890SOL    HW138306   0.974   3.104  15.051  1.4085  2.3623  0.2784
 8890SOL    HW238307   1.048   3.184  14.947 -0.1017 -0.7370 -1.0514
 8891SOL     OW38308   1.126   4.046   9.158 -0.4217  0.2077  0.4334
 8891SOL    HW138309   1.142   4.125   9.107 -2.2436  0.2954 -0.0017
 8891SOL    HW238310   1.182   3.984   9.111 -0.6080  1.1669 -1.0531
 8892SOL     OW38311   3.461   0.364   9.591  0.0610  0.5140 -0.4340
 8892SOL    HW138312   3.412   0.351   9.510  1.4812  0.5710 -1.2955
 8892SOL    HW238313   3.457   0.279   9.634  2.1112  0.0411 -1.1894
 8893SOL     OW38314   3.135   3.605   3.945 -0.1578 -0.2090 -0.5047
 8893SOL    HW138315   3.055   3.560   3.972 -0.9028  1.6178  0.3158
 8893SOL    HW238316   3.125   3.596   3.850  2.6140  2.8233 -1.0671
 8894SOL     OW38317   1.094   1.547   7.368 -0.6888 -0.3818  0.2102
 8894SOL    HW138318   1.165   1.498   7.326 -1.7959 -1.3758 -0.5057
 8894SOL    HW238319   1.147   1.619   7.400 -1.6833 -0.0452  1.1275
 8895SOL     OW38320   0.146   3.396   6.847 -0.6480  0.4316  0.1937
 8895SOL    HW138321   0.156   3.324   6.785 -0.2789 -0.2743  1.0952
 8895SOL    HW238322   0.181   3.348   6.921 -0.4854 -1.9794 -1.4335
 8896SOL     OW38323   1.225   4.135   6.063  0.0161 -0.1092 -0.2216
 8896SOL    HW138324   1.232   4.114   5.970 -0.3681 -1.2405  0.0026
 8896SOL    HW238325   1.286   4.071   6.101  0.4025  1.1926  1.3503
 8897SOL     OW38326   1.339   2.855   6.510  0.3625 -0.0622  0.3624
 8897SOL    HW138327   1.315   2.880   6.599  0.0822 -3.1328  1.1737
 8897SOL    HW238328   1.405   2.924   6.506 -0.4709  0.5306 -3.0536
 8898SOL     OW38329   1.578   1.808   3.348 -1.0501  0.6172 -0.3335
 8898SOL    HW138330   1.607   1.789   3.259  1.0671 -2.3545  1.0267
 8898SOL    HW238331   1.662   1.819   3.393 -0.5800  1.6625 -1.4636
 8899SOL     OW38332   1.136   3.070   1.869 -0.2613 -0.1158  0.3866
 8899SOL    HW138333   1.199   3.028   1.928  0.3422  1.3179  0.7510
 8899SOL    HW238334   1.057   3.048   1.919 -0.4680 -0.6970 -0.1897
 8900SOL     OW38335   0.659   0.516   1.559 -0.2878  0.0378 -0.4725
 8900SOL    HW138336   0.652   0.423   1.583 -0.1521  0.1224 -0.0961
 8900SOL    HW238337   0.749   0.534   1.532  0.1610 -0.7500  0.4728
 8901SOL     OW38338   2.019   0.739   4.454 -0.3667  0.0374  0.2370
 8901SOL    HW138339   2.047   0.829   4.471 -0.1561  0.1868 -0.8520
 8901SOL    HW238340   2.093   0.700   4.407 -0.8285  0.1220 -0.5569
 8902SOL     OW38341   2.780   0.035   9.434  0.3895  0.3006  0.2772
 8902SOL    HW138342   2.801   4.717   9.508 -0.4383 -1.4998 -0.8384
 8902SOL    HW238343   2.867   0.053   9.398  0.6631 -1.0022  0.2819
 8903SOL     OW38344   2.039   0.522   2.601 -0.2804  0.5031 -0.7972
 8903SOL    HW138345   2.028   0.449   2.540  2.2972  0.2514 -0.9723
 8903SOL    HW238346   2.117   0.488   2.646 -0.6941  1.9557  1.0017
 8904SOL     OW38347   2.193   3.750   5.175  0.0521  0.1620  0.1065
 8904SOL    HW138348   2.191   3.659   5.147 -0.6046  0.1320  0.2589
 8904SOL    HW238349   2.136   3.790   5.109  1.1882 -0.6031 -1.3358
 8905SOL     OW38350   4.728   3.978  16.729  0.0007  0.0394 -0.0694
 8905SOL    HW138351   0.069   4.029  16.744 -1.1583  1.2721  1.8882
 8905SOL    HW238352   4.663   4.041  16.760  0.4479  0.8670 -0.8217
 8906SOL     OW38353   0.302   1.399   7.174 -0.1391 -0.2225  0.2498
 8906SOL    HW138354   0.371   1.419   7.237  0.1226 -0.7249  0.1259
 8906SOL    HW238355   0.254   1.480   7.159 -0.8564 -0.4865  1.1397
 8907SOL     OW38356   1.740   2.565   5.383 -0.2238  0.2606  0.0921
 8907SOL    HW138357   1.716   2.646   5.428  0.7788  0.3615  0.4550
 8907SOL    HW238358   1.831   2.592   5.369  0.2686 -1.1743  0.5264
 8908SOL     OW38359   2.759   2.480   5.493 -0.0269 -0.0625  0.3390
 8908SOL    HW138360   2.836   2.504   5.545  0.1861 -0.7997  0.3564
 8908SOL    HW238361   2.708   2.561   5.495  0.3384  0.2130 -0.7758
 8909SOL     OW38362   3.793   3.016  12.003 -0.1400 -0.1101 -0.2065
 8909SOL    HW138363   3.868   3.074  11.993 -1.2992  1.4323  0.0288
 8909SOL    HW238364   3.823   2.947  11.943 -3.1733 -1.6539  0.0526
 8910SOL     OW38365   1.967   4.181   8.998  1.0486  0.3988 -0.1990
 8910SOL    HW138366   1.917   4.244   9.051  1.1305 -1.3546  1.9619
 8910SOL    HW238367   1.946   4.207   8.909 -0.5300 -0.5969 -0.1188
 8911SOL     OW38368   3.274   3.655   0.192  0.9072  0.2909  0.2768
 8911SOL    HW138369   3.192   3.624   0.154  0.2855  2.4192 -0.0965
 8911SOL    HW238370   3.343   3.603   0.151  2.3225  2.8183 -0.5424
 8912SOL     OW38371   1.698   1.169  13.902 -0.8645 -0.0258 -0.0721
 8912SOL    HW138372   1.638   1.175  13.976  1.1783 -1.0527  1.6912
 8912SOL    HW238373   1.690   1.076  13.880 -1.0465 -0.7219  2.8697
 8913SOL     OW38374   0.448   4.646   9.592 -0.1305  0.0339 -0.0062
 8913SOL    HW138375   0.503   4.716   9.625  1.6816 -1.8524  0.9812
 8913SOL    HW238376   0.357   4.672   9.607  0.0012  0.6871 -0.3464
 8914SOL     OW38377   3.369   1.832   5.245 -0.6213  0.4524 -0.2745
 8914SOL    HW138378   3.444   1.824   5.305  0.1456  2.1376 -1.0121
 8914SOL    HW238379   3.300   1.834   5.312 -0.2733  1.5092  0.0483
 8915SOL     OW38380   3.113   1.085   8.442 -0.0916 -0.6151  0.4563
 8915SOL    HW138381   3.097   1.117   8.354 -0.4900  0.5582  0.9490
 8915SOL    HW238382   3.208   1.095   8.449 -0.2870  3.0722 -2.7385
 8916SOL     OW38383   2.569   2.904   4.707  0.1168  0.9424  0.5132
 8916SOL    HW138384   2.518   2.967   4.656 -1.3057 -0.1360  0.6019
 8916SOL    HW238385   2.503   2.884   4.773 -1.1391  1.1797 -0.6669
 8917SOL     OW38386   0.897   4.244   8.260 -0.3020 -0.6350 -0.4399
 8917SOL    HW138387   0.900   4.277   8.170 -2.6650 -0.7378 -0.5351
 8917SOL    HW238388   0.803   4.231   8.266  0.2298 -4.6621 -0.6436
 8918SOL     OW38389   0.600   4.120   7.679 -0.4047  0.0369 -0.2948
 8918SOL    HW138390   0.560   4.168   7.607  0.7884 -0.6294 -1.4108
 8918SOL    HW238391   0.548   4.136   7.757 -0.6475  1.8620 -0.8426
 8919SOL     OW38392   4.387   0.344   2.235 -0.4871 -0.1433  0.1934
 8919SOL    HW138393   4.348   0.413   2.288  0.1744  1.1502 -1.0152
 8919SOL    HW238394   4.389   0.282   2.308  1.6030 -1.2605 -0.8132
 8920SOL     OW38395   2.188   1.289  17.376 -0.3971 -0.7881 -0.8398
 8920SOL    HW138396   2.145   1.203  17.377 -2.8241  0.4557  2.0601
 8920SOL    HW238397   2.141   1.339  17.442  1.8508  0.4595 -0.1994
 8921SOL     OW38398   1.431   0.464   1.838 -0.2382  0.1854 -1.0166
 8921SOL    HW138399   1.379   0.472   1.758  0.1252  0.5195 -1.2227
 8921SOL    HW238400   1.379   0.394   1.879 -0.9773  1.9936  1.1111
 8922SOL     OW38401   0.778   0.243   3.870 -0.7756  0.6879  0.1699
 8922SOL    HW138402   0.798   0.300   3.795  4.0947 -2.7560 -1.1626
 8922SOL    HW238403   0.718   0.183   3.826  1.4611 -0.6974 -1.0228
 8923SOL     OW38404   0.903   1.142  17.342 -0.1715 -0.1163  0.2182
 8923SOL    HW138405   0.976   1.141  17.404 -0.5401  1.0136  0.6557
 8923SOL    HW238406   0.831   1.174  17.396 -0.1425  0.4395 -0.0730
 8924SOL     OW38407   4.157   3.602   2.309  0.9122 -0.2559 -0.2254
 8924SOL    HW138408   4.224   3.621   2.374  0.2483 -0.9614  0.6762
 8924SOL    HW238409   4.086   3.626   2.369  1.5182  0.9079  0.0240
 8925SOL     OW38410   1.081   3.460  11.053  0.1581 -0.3241  0.3297
 8925SOL    HW138411   1.087   3.531  11.116  0.6457  0.6314 -0.7781
 8925SOL    HW238412   1.032   3.505  10.984 -0.3707  0.4193  1.1950
 8926SOL     OW38413   3.463   1.539   1.776  0.0049  0.7559  0.1798
 8926SOL    HW138414   3.456   1.608   1.842  0.8589  0.7661  0.2495
 8926SOL    HW238415   3.418   1.468   1.822  1.5405 -0.5473 -0.3399
 8927SOL     OW38416   1.993   1.444   2.634 -0.2977 -0.0121 -0.2313
 8927SOL    HW138417   2.072   1.406   2.673  0.2477  0.3815 -0.9491
 8927SOL    HW238418   2.023   1.520   2.584 -0.9248  0.0550 -0.5012
 8928SOL     OW38419   4.432   3.220   8.062  0.2754  0.1808  0.4006
 8928SOL    HW138420   4.499   3.165   8.103 -1.8457 -1.8863  1.0968
 8928SOL    HW238421   4.420   3.184   7.975 -0.3346  1.6026 -0.1030
 8929SOL     OW38422   2.512   1.447   4.557  0.1960 -0.0903  0.0744
 8929SOL    HW138423   2.555   1.427   4.474  0.6522 -1.4198  0.6272
 8929SOL    HW238424   2.549   1.372   4.605  1.2435  2.2740  2.9440
 8930SOL     OW38425   1.279   1.646   4.235 -0.0430  0.0585  0.2398
 8930SOL    HW138426   1.208   1.583   4.225 -0.5576  1.0975 -2.6843
 8930SOL    HW238427   1.308   1.641   4.144 -0.9645 -2.0268  0.0579
 8931SOL     OW38428   0.664   2.473   5.480  0.2569 -0.6170  0.0063
 8931SOL    HW138429   0.603   2.436   5.544  0.6712 -2.0251 -0.4304
 8931SOL    HW238430   0.731   2.405   5.473  1.3979  0.5856 -0.8329
 8932SOL     OW38431   3.816   4.540  10.950  0.5504  0.4882  0.4533
 8932SOL    HW138432   3.790   4.625  10.986 -1.7575  1.0765 -2.5934
 8932SOL    HW238433   3.766   4.483  11.008 -1.6595  0.5945 -1.3350
 8933SOL     OW38434   1.117   1.559   5.932  0.1331 -0.2600 -0.2920
 8933SOL    HW138435   1.117   1.491   5.999  2.6245 -0.9783 -1.0220
 8933SOL    HW238436   1.164   1.616   5.992  0.4238 -1.4209  0.5751
 8934SOL     OW38437   0.654   1.754   1.283 -0.3178 -0.2707 -0.1405
 8934SOL    HW138438   0.624   1.671   1.320  1.3832 -1.0452 -0.5005
 8934SOL    HW238439   0.732   1.724   1.237 -0.7713  0.5963 -1.4679
 8935SOL     OW38440   2.049   3.487   3.062 -0.2146 -0.2213 -0.0693
 8935SOL    HW138441   1.963   3.470   3.022 -0.2223 -1.5026  0.4783
 8935SOL    HW238442   2.101   3.412   3.034 -0.2408 -0.9228  1.7254
 8936SOL     OW38443   4.662   4.709   3.077  0.7900 -0.0746  0.0677
 8936SOL    HW138444   4.578   4.720   3.120  2.1327 -0.5979  2.8451
 8936SOL    HW238445   4.715   0.024   3.137  0.0545  0.3480  0.3334
 8937SOL     OW38446   3.992   0.013   2.335 -0.3260  0.1589  0.0215
 8937SOL    HW138447   3.921   0.077   2.324 -1.0934 -0.0776  3.5106
 8937SOL    HW238448   4.027   0.039   2.421 -0.4877  0.4634 -0.0033
 8938SOL     OW38449   2.315   2.102   5.774 -0.1835  0.6455  0.3316
 8938SOL    HW138450   2.243   2.048   5.740  0.4978 -0.6506  0.9831
 8938SOL    HW238451   2.277   2.129   5.858  1.0132  1.5681  0.5759
 8939SOL     OW38452   3.535   3.902  12.111  0.0520  0.0620 -0.2380
 8939SOL    HW138453   3.485   3.875  12.035 -1.7406 -0.3150  1.0770
 8939SOL    HW238454   3.609   3.841  12.105  0.9159  0.9453  1.5107
 8940SOL     OW38455   3.278   3.572   8.294 -0.5739  0.6793  0.1546
 8940SOL    HW138456   3.269   3.542   8.384  3.9157 -0.3875  0.2619
 8940SOL    HW238457   3.337   3.645   8.316 -0.5708  0.4271  0.9677
 8941SOL     OW38458   4.096   1.979  11.792  0.1515  0.1404  0.6122
 8941SOL    HW138459   4.167   1.939  11.741  0.2120  0.1767  0.6681
 8941SOL    HW238460   4.136   2.060  11.824  2.3540 -0.5113 -0.5114
 8942SOL     OW38461   1.710   0.864   3.769  0.6729 -0.0698 -0.1455
 8942SOL    HW138462   1.775   0.810   3.814  1.2876  1.1948  0.4733
 8942SOL    HW238463   1.719   0.950   3.810  2.3299 -0.8085  1.0388
 8943SOL     OW38464   3.467   0.703   5.810 -0.0721  0.2514 -0.3118
 8943SOL    HW138465   3.559   0.723   5.824  0.0845  0.1194 -1.1157
 8943SOL    HW238466   3.440   0.736   5.895 -0.6687 -1.7140  0.2749
 8944SOL     OW38467   1.766   3.689   6.486  0.4935 -0.0532  0.2402
 8944SOL    HW138468   1.815   3.741   6.423 -0.7115 -0.2338 -0.8470
 8944SOL    HW238469   1.775   3.601   6.448  1.4171  0.2400 -0.2070
 8945SOL     OW38470   2.437   0.857   8.226  0.5330  0.3702 -0.3144
 8945SOL    HW138471   2.446   0.891   8.137 -1.2747  0.9152 -0.2879
 8945SOL    HW238472   2.514   0.892   8.272  0.1924  0.4137  0.2242
 8946SOL     OW38473   0.494   4.070   8.079 -0.1080 -0.3639  0.2281
 8946SOL    HW138474   0.464   4.092   7.991 -0.8090  1.7572  1.0013
 8946SOL    HW238475   0.409   4.067   8.122 -0.3371 -0.8427 -0.2491
 8947SOL     OW38476   3.561   3.161   6.859  0.0310 -0.0158  0.3766
 8947SOL    HW138477   3.592   3.093   6.918  2.0654 -0.7285 -1.5386
 8947SOL    HW238478   3.590   3.230   6.918  1.0599 -2.2099  2.4282
 8948SOL     OW38479   0.950   0.432  13.890 -0.6137 -0.4562 -0.6633
 8948SOL    HW138480   0.977   0.422  13.799 -0.3324 -2.3720 -0.3808
 8948SOL    HW238481   0.858   0.453  13.872 -0.2658  1.5979 -0.0658
 8949SOL     OW38482   4.176   4.619   9.328 -0.4922  0.1221 -0.4565
 8949SOL    HW138483   4.132   4.705   9.326  0.3835  0.4504 -4.0336
 8949SOL    HW238484   4.218   4.613   9.243  0.7381 -0.7289  0.2041
 8950SOL     OW38485   1.408   2.099   3.785  0.5228 -0.1414 -0.0197
 8950SOL    HW138486   1.434   2.191   3.782 -1.7801  0.4817 -1.0667
 8950SOL    HW238487   1.487   2.061   3.748 -0.8280 -1.7927 -1.1897
 8951SOL     OW38488   3.114   1.701   3.701  0.3722  0.5726  0.1530
 8951SOL    HW138489   3.044   1.641   3.726  1.0894  0.5525  2.0686
 8951SOL    HW238490   3.191   1.650   3.724  1.5164  2.6365  0.9069
 8952SOL     OW38491   1.313   3.359   7.128  0.2595 -0.5901 -0.7849
 8952SOL    HW138492   1.331   3.271   7.162 -0.2479 -1.4399 -2.7197
 8952SOL    HW238493   1.366   3.349   7.049  0.5326 -2.2377 -0.4006
 8953SOL     OW38494   1.701   0.891  13.912 -0.0211  0.6072 -0.1833
 8953SOL    HW138495   1.740   0.881  13.998  0.8312  1.7694 -0.4385
 8953SOL    HW238496   1.649   0.811  13.901 -0.7896  0.7828  2.1485
 8954SOL     OW38497   2.064   4.124   7.799 -0.2180  0.4159 -0.3742
 8954SOL    HW138498   2.150   4.166   7.807 -0.4817  0.8200  0.3123
 8954SOL    HW238499   2.077   4.052   7.860  0.5001 -0.2347 -1.2853
 8955SOL     OW38500   4.513   0.054  10.697  0.4639 -0.5343 -0.1299
 8955SOL    HW138501   4.460   0.133  10.711 -0.3957 -1.1381  0.0439
 8955SOL    HW238502   4.463   0.004  10.633  1.2375 -2.5154  0.8078
 8956SOL     OW38503   0.910   3.824   4.670  0.1089  0.5294 -0.2254
 8956SOL    HW138504   0.891   3.744   4.718  0.8099 -0.4715 -1.6015
 8956SOL    HW238505   0.997   3.793   4.643  0.8482  1.3501  1.1561
 8957SOL     OW38506   2.153   2.219  11.339  0.2347  0.6962 -0.1418
 8957SOL    HW138507   2.223   2.278  11.369  0.6725 -0.1051  0.3865
 8957SOL    HW238508   2.120   2.274  11.268  0.0862 -0.0621 -0.6485
 8958SOL     OW38509   1.370   3.315   4.706 -0.3037  0.0571  0.2231
 8958SOL    HW138510   1.413   3.255   4.766  2.2777 -0.8329 -2.5282
 8958SOL    HW238511   1.366   3.397   4.755 -0.3885  0.6938 -0.8438
 8959SOL     OW38512   4.422   0.666  14.498  0.0285  0.3931  0.6255
 8959SOL    HW138513   4.507   0.624  14.486 -0.5472 -0.7031  0.3845
 8959SOL    HW238514   4.366   0.606  14.448 -0.2589 -0.1381  1.5763
 8960SOL     OW38515   1.408   3.044   3.538  0.5999  0.7043 -0.1965
 8960SOL    HW138516   1.346   3.058   3.466 -0.5381  1.5009  0.9325
 8960SOL    HW238517   1.492   3.029   3.495  1.0679  2.7295  0.0101
 8961SOL     OW38518   4.520   3.459   1.042 -0.1615  0.1346  0.4029
 8961SOL    HW138519   4.559   3.391   0.987 -2.1412 -0.7938  0.1796
 8961SOL    HW238520   4.578   3.450   1.118  0.2775 -2.4525 -0.2644
 8962SOL     OW38521   1.910   4.539   5.148  0.5975  0.6178 -0.3144
 8962SOL    HW138522   1.956   4.494   5.220  3.4217  3.2512 -0.4736
 8962SOL    HW238523   1.966   4.498   5.082 -0.1555 -1.6800  0.4647
 8963SOL     OW38524   1.079   2.184   1.436  0.5589 -0.4364  0.5192
 8963SOL    HW138525   1.159   2.235   1.438 -0.2381  0.9127 -1.7158
 8963SOL    HW238526   1.095   2.116   1.370 -1.6788 -1.0652  0.6081
 8964SOL     OW38527   2.111   2.368   5.470  0.9389 -0.4189 -0.3750
 8964SOL    HW138528   2.166   2.446   5.479  0.0956  0.3931 -2.3242
 8964SOL    HW238529   2.177   2.299   5.458 -0.0400 -0.6682 -4.4061
 8965SOL     OW38530   1.537   1.856   8.333 -0.2132  0.4609  0.6794
 8965SOL    HW138531   1.628   1.886   8.342  0.1946 -0.5602 -0.0558
 8965SOL    HW238532   1.501   1.922   8.273  0.2022  0.3143  0.2671
 8966SOL     OW38533   1.191   3.547   0.559 -0.2739  0.1037  0.1293
 8966SOL    HW138534   1.218   3.630   0.519 -1.1125  1.0142  1.4671
 8966SOL    HW238535   1.106   3.527   0.519  0.7827  0.3845 -2.3028
 8967SOL     OW38536   3.483   4.173   3.814 -0.3233  0.2792  0.1630
 8967SOL    HW138537   3.539   4.246   3.841 -3.2013  3.1912 -1.7779
 8967SOL    HW238538   3.408   4.194   3.869  1.9855 -0.6907  3.6708
 8968SOL     OW38539   2.477   1.682  10.932 -0.0099  0.2247 -0.0440
 8968SOL    HW138540   2.386   1.697  10.955  0.2712  1.5456  0.2137
 8968SOL    HW238541   2.503   1.599  10.971 -2.5707 -0.6290 -0.1687
 8969SOL     OW38542   2.399   2.592  11.218  0.1516 -0.1708 -0.6078
 8969SOL    HW138543   2.331   2.588  11.151 -1.0869 -0.7724  0.6785
 8969SOL    HW238544   2.354   2.645  11.284 -0.3649 -0.9630 -0.3202
 8970SOL     OW38545   0.905   0.653   2.492  0.2941 -0.4496  0.3024
 8970SOL    HW138546   0.862   0.589   2.548  1.7989 -0.7300  1.1275
 8970SOL    HW238547   0.857   0.732   2.515  1.6001  0.0532  1.2554
 8971SOL     OW38548   4.046   4.524   7.978  0.1864 -0.0554  0.1723
 8971SOL    HW138549   4.009   4.450   7.930  0.6105 -2.2644  3.1997
 8971SOL    HW238550   3.974   4.587   7.980  0.3649  0.1098  1.2865
 8972SOL     OW38551   4.121   0.559   0.750  0.1703  0.7247 -1.1471
 8972SOL    HW138552   4.203   0.596   0.783 -0.5813  1.1501  0.2317
 8972SOL    HW238553   4.098   0.635   0.696 -1.0810  1.0535 -0.1402
 8973SOL     OW38554   0.213   1.779   0.489 -0.4271 -0.3215 -0.4924
 8973SOL    HW138555   0.247   1.843   0.427 -1.3156 -2.1688 -2.8465
 8973SOL    HW238556   0.259   1.795   0.572 -0.7601  0.3202 -0.4328
 8974SOL     OW38557   3.757   4.718  13.197 -0.3659  0.3706  0.1273
 8974SOL    HW138558   3.726   0.069  13.211 -0.9685  0.3409 -1.0722
 8974SOL    HW238559   3.715   4.702  13.113 -1.0145  0.1519  0.4924
 8975SOL     OW38560   4.581   3.576   6.726  0.5662 -0.1011 -0.0229
 8975SOL    HW138561   4.539   3.527   6.797  1.0181  0.1077  0.3906
 8975SOL    HW238562   4.666   3.534   6.714  0.2587 -0.3999 -1.1712
 8976SOL     OW38563   3.956   1.710   4.698  0.3144 -0.0013  0.1547
 8976SOL    HW138564   3.881   1.719   4.640  0.7006 -1.2086 -0.5365
 8976SOL    HW238565   4.001   1.794   4.691  0.4407 -0.0572  0.3032
 8977SOL     OW38566   2.574   0.327   7.021 -0.3331 -0.4512 -0.0119
 8977SOL    HW138567   2.593   0.265   7.091 -0.1424 -0.4786 -0.0886
 8977SOL    HW238568   2.485   0.359   7.039 -0.5672 -0.0127 -1.9792
 8978SOL     OW38569   1.830   0.429   1.585 -0.2309 -0.4287  0.6551
 8978SOL    HW138570   1.848   0.521   1.601  1.5594 -0.6897  0.1080
 8978SOL    HW238571   1.741   0.429   1.549  1.2514  0.0156 -2.9893
 8979SOL     OW38572   4.679   0.721   4.526  0.0135 -0.1769 -0.1877
 8979SOL    HW138573   4.693   0.654   4.592  1.1541 -0.9461 -1.2146
 8979SOL    HW238574   4.738   0.787   4.563  0.6562 -0.9400  0.1546
 8980SOL     OW38575   0.372   1.812   6.867  0.4632  0.1909 -0.1929
 8980SOL    HW138576   0.368   1.904   6.891 -0.3238 -1.0158  4.2675
 8980SOL    HW238577   0.456   1.782   6.903  1.1572 -0.2047 -2.0973
 8981SOL     OW38578   1.725   0.460   8.715 -0.5530 -0.2219  0.7284
 8981SOL    HW138579   1.687   0.379   8.750  1.0520 -2.0042 -1.6035
 8981SOL    HW238580   1.728   0.514   8.794 -1.4332  1.7817 -0.6273
 8982SOL     OW38581   3.824   1.682   7.608 -0.0782  0.0591 -0.7450
 8982SOL    HW138582   3.887   1.690   7.679 -0.3200  1.6109 -0.7121
 8982SOL    HW238583   3.830   1.767   7.564  2.3664  0.5283  0.4981
 8983SOL     OW38584   4.635   3.029   1.931  0.0886  0.1438  0.1321
 8983SOL    HW138585   4.618   2.976   2.009  2.1832 -2.3542 -1.1018
 8983SOL    HW238586   4.709   3.086   1.955  0.4787 -0.7133  0.9598
 8984SOL     OW38587   0.862   1.534   8.296  0.3169 -0.4062 -0.9389
 8984SOL    HW138588   0.921   1.578   8.235  0.7021 -1.0425 -1.0278
 8984SOL    HW238589   0.839   1.597   8.364  2.4764 -1.8910  1.1735
 8985SOL     OW38590   4.328   3.017  15.793  0.2159 -0.5899  0.1884
 8985SOL    HW138591   4.416   2.984  15.779 -0.2594 -0.8439 -2.1918
 8985SOL    HW238592   4.289   2.947  15.844 -0.7326  1.8771  2.8730
 8986SOL     OW38593   0.699   1.278   4.420 -0.3594 -0.4832 -0.0475
 8986SOL    HW138594   0.643   1.202   4.404  2.0822 -2.7262  1.8703
 8986SOL    HW238595   0.697   1.329   4.339  2.0896  0.7047  0.6320
 8987SOL     OW38596   1.111   2.956  15.256  0.2674  0.3042  0.1526
 8987SOL    HW138597   1.149   2.992  15.337  0.0500 -0.2772  0.5146
 8987SOL    HW238598   1.018   2.977  15.252  0.2636  0.3813  0.6063
 8988SOL     OW38599   1.540   2.202   8.676  0.1235 -0.4837  0.1846
 8988SOL    HW138600   1.596   2.194   8.599  2.1396  2.6915  1.3087
 8988SOL    HW238601   1.607   2.182   8.742  0.2870  0.4938  0.3089
 8989SOL     OW38602   1.616   4.725   8.186 -0.6786 -0.9166 -0.3426
 8989SOL    HW138603   1.702   0.025   8.170 -1.1009 -0.3774 -1.3500
 8989SOL    HW238604   1.568   0.068   8.169 -2.4718 -1.8710  0.1283
 8990SOL     OW38605   0.902   0.336   4.546  0.5261  0.5377 -0.1148
 8990SOL    HW138606   0.883   0.277   4.619 -1.3025 -1.3215 -2.1310
 8990SOL    HW238607   0.845   0.304   4.476  0.9942 -3.1344  1.2126
 8991SOL     OW38608   4.006   0.065  10.660  0.8221 -0.2582 -0.2090
 8991SOL    HW138609   4.075   0.055  10.594 -1.1069  0.8317 -2.3629
 8991SOL    HW238610   4.036   4.735  10.720 -2.3453  0.0008  1.6466
 8992SOL     OW38611   3.147   3.841   6.642  0.2733  0.0583  0.2156
 8992SOL    HW138612   3.171   3.755   6.676 -0.0284  0.2786  0.9681
 8992SOL    HW238613   3.111   3.880   6.722 -0.0226  0.4476 -0.1063
 8993SOL     OW38614   2.558   3.567   2.667 -0.4539 -0.0324 -0.0768
 8993SOL    HW138615   2.588   3.477   2.656  1.4192  0.5478  0.2741
 8993SOL    HW238616   2.470   3.563   2.628  0.2641  0.0487 -1.6858
 8994SOL     OW38617   2.702   2.802  15.062  0.2028  0.3032  0.0079
 8994SOL    HW138618   2.794   2.786  15.043 -0.5235 -1.7480 -1.8228
 8994SOL    HW238619   2.689   2.757  15.145 -1.0319 -1.9640 -1.4023
 8995SOL     OW38620   2.810   2.200   7.517  0.0613  0.4431 -0.0204
 8995SOL    HW138621   2.732   2.231   7.471  2.0107  3.5620 -1.2748
 8995SOL    HW238622   2.816   2.262   7.590  1.7386 -0.0164  0.2309
 8996SOL     OW38623   0.348   1.873   4.052 -0.0984 -0.4354 -0.4035
 8996SOL    HW138624   0.410   1.920   3.996 -1.3049  0.5594 -0.9184
 8996SOL    HW238625   0.266   1.922   4.047  0.6047  0.7694 -0.0602
 8997SOL     OW38626   3.177   2.570   7.177 -0.4869 -0.3734 -0.1476
 8997SOL    HW138627   3.096   2.552   7.225 -0.7301  3.0634  0.7570
 8997SOL    HW238628   3.215   2.651   7.211  1.3412 -1.2646 -0.0751
 8998SOL     OW38629   2.785   2.220   8.294  0.2840  0.1447 -0.4359
 8998SOL    HW138630   2.854   2.212   8.229 -1.1735  0.2631 -1.9856
 8998SOL    HW238631   2.794   2.314   8.310 -0.2895 -0.3746  3.1355
 8999SOL     OW38632   3.747   1.639   2.516  0.1206  0.0191  0.0137
 8999SOL    HW138633   3.667   1.595   2.486 -0.0564  1.0196 -0.9528
 8999SOL    HW238634   3.810   1.625   2.446 -2.8180 -0.1628 -2.5479
 9000SOL     OW38635   3.368   0.486   2.733 -0.0099  0.1900 -0.1740
 9000SOL    HW138636   3.283   0.527   2.748 -0.1438  0.8318 -2.8493
 9000SOL    HW238637   3.377   0.474   2.639  2.1072 -0.0348  0.0484
 9001SOL     OW38638   2.900   2.253   4.826  0.5185 -0.0399 -0.3508
 9001SOL    HW138639   2.836   2.212   4.767  0.6546 -0.2269 -0.3681
 9001SOL    HW238640   2.839   2.288   4.891  1.1473  0.0497  0.1999
 9002SOL     OW38641   1.986   1.668   9.933 -0.6992  0.1040 -0.2181
 9002SOL    HW138642   1.979   1.619   9.851 -0.9642 -0.6234  0.2395
 9002SOL    HW238643   1.974   1.760   9.911  0.3777 -0.5328 -3.3993
 9003SOL     OW38644   4.071   0.313  14.109 -0.1647  0.1274 -0.0722
 9003SOL    HW138645   4.090   0.406  14.124  0.6201 -0.2860  1.4718
 9003SOL    HW238646   4.027   0.332  14.026  0.5526 -1.7096 -0.8771
 9004SOL     OW38647   4.519   0.087   9.109 -0.3855  0.2735 -0.3721
 9004SOL    HW138648   4.492   0.079   9.017  3.5170 -0.7314 -1.4508
 9004SOL    HW238649   4.478   0.171   9.131  1.3019  0.7693  0.8570
 9005SOL     OW38650   1.046   3.571   3.323  0.4805  0.1328  0.1082
 9005SOL    HW138651   1.084   3.626   3.391 -1.2246  0.6852  0.6088
 9005SOL    HW238652   0.979   3.631   3.292  0.2236 -0.2145  0.0034
 9006SOL     OW38653   0.770   1.056   7.563  0.6953  0.2490  0.3082
 9006SOL    HW138654   0.797   0.977   7.516  0.6654 -0.8073  2.0273
 9006SOL    HW238655   0.739   1.021   7.647 -0.3875 -2.3997 -1.2005
 9007SOL     OW38656   4.378   2.180   9.031  0.3703 -0.0098 -0.1211
 9007SOL    HW138657   4.459   2.212   8.992  0.9248  0.2385  1.2399
 9007SOL    HW238658   4.326   2.169   8.951  0.0025  1.3808 -0.0743
 9008SOL     OW38659   1.893   0.201   6.386  0.4051  1.2841 -0.0324
 9008SOL    HW138660   1.875   0.183   6.294  0.4162 -0.0800  0.2340
 9008SOL    HW238661   1.842   0.281   6.400 -1.6860 -0.4199  2.0086
 9009SOL     OW38662   2.605   2.677   1.625 -0.2495 -0.4690 -0.1785
 9009SOL    HW138663   2.547   2.625   1.681 -3.0582  0.9807 -1.7108
 9009SOL    HW238664   2.595   2.626   1.545 -3.7088  0.7797 -0.5578
 9010SOL     OW38665   1.843   1.606  16.886  0.0956 -0.7218 -0.1471
 9010SOL    HW138666   1.798   1.688  16.867  0.5643 -0.3620  0.2826
 9010SOL    HW238667   1.925   1.615  16.837 -0.5446  1.2613 -0.8510
 9011SOL     OW38668   4.507   2.674   1.932  0.1910  0.1123 -0.5186
 9011SOL    HW138669   4.526   2.598   1.987 -0.2483 -1.4846 -2.5703
 9011SOL    HW238670   4.566   2.736   1.974  2.7277 -1.2555 -2.0683
 9012SOL     OW38671   3.063   4.661  14.852 -0.5096 -0.1325 -0.3178
 9012SOL    HW138672   3.018   4.579  14.834 -0.8134 -0.3691  1.5204
 9012SOL    HW238673   3.034   4.724  14.786 -1.4449  0.7367  0.9248
 9013SOL     OW38674   1.717   4.736  14.539 -0.4471 -0.1669 -0.2378
 9013SOL    HW138675   1.766   4.654  14.533 -1.4926 -0.7773 -0.4599
 9013SOL    HW238676   1.625   4.724  14.560 -0.4522  0.6289  0.1513
 9014SOL     OW38677   0.326   2.411   9.346  0.0430 -0.6531  0.2260
 9014SOL    HW138678   0.408   2.401   9.298  0.1067  0.8491  0.0266
 9014SOL    HW238679   0.281   2.337   9.304 -0.4867 -1.0594  1.5031
 9015SOL     OW38680   2.893   3.708   2.625  0.3356  0.0954  0.0858
 9015SOL    HW138681   2.823   3.715   2.559 -1.0949 -1.3831  1.4434
 9015SOL    HW238682   2.943   3.631   2.598 -1.9997 -1.4922  0.2079
 9016SOL     OW38683   0.767   0.848   8.096  0.2121  0.2817 -0.2141
 9016SOL    HW138684   0.839   0.871   8.037 -0.0608 -1.2386 -1.1329
 9016SOL    HW238685   0.720   0.928   8.072 -0.9933 -0.2201  0.5032
 9017SOL     OW38686   1.885   4.367   2.763  0.0701  0.4715 -0.2118
 9017SOL    HW138687   1.924   4.350   2.677  0.5512  0.1069  0.0811
 9017SOL    HW238688   1.873   4.279   2.800  1.1363 -0.2932 -1.6807
 9018SOL     OW38689   3.333   0.676   4.485 -0.1930  0.3033  0.0584
 9018SOL    HW138690   3.365   0.631   4.564  0.2136  3.6426  1.7883
 9018SOL    HW238691   3.415   0.717   4.460 -1.1040  1.0233 -1.7521
 9019SOL     OW38692   2.542   3.560   1.390 -0.0518 -0.4154 -0.2737
 9019SOL    HW138693   2.467   3.517   1.431 -0.9308  0.9798 -0.4433
 9019SOL    HW238694   2.617   3.500   1.400 -0.3804 -0.7922 -0.0753
 9020SOL     OW38695   3.969   3.589   5.100 -0.2072 -0.1671  0.6344
 9020SOL    HW138696   4.048   3.626   5.137 -0.9133 -0.0295  1.9952
 9020SOL    HW238697   3.994   3.497   5.107  0.9165  0.0070 -1.1456
 9021SOL     OW38698   0.670   2.743   3.912 -0.6428 -0.7894  0.0813
 9021SOL    HW138699   0.598   2.683   3.932 -0.1587 -1.0460  1.0533
 9021SOL    HW238700   0.674   2.785   3.998 -2.3372  1.1595 -0.7939
 9022SOL     OW38701   2.770   4.220   3.979  0.2089  0.7717  0.7715
 9022SOL    HW138702   2.727   4.305   3.972 -1.4641 -0.3067 -1.9927
 9022SOL    HW238703   2.693   4.165   3.991  0.0246  1.3676  2.2924
 9023SOL     OW38704   0.992   4.658   7.855  0.3479  0.3789 -0.1629
 9023SOL    HW138705   1.074   4.636   7.812  1.4963  3.1888  0.5672
 9023SOL    HW238706   1.003   4.622   7.943  0.4003 -1.4695 -0.9252
 9024SOL     OW38707   2.548   3.423   8.896  0.5228  0.4292 -0.0161
 9024SOL    HW138708   2.584   3.390   8.814 -0.0763 -1.7770  0.5944
 9024SOL    HW238709   2.505   3.495   8.850  1.9027  1.1969 -0.0916
 9025SOL     OW38710   1.991   1.441   9.747  0.2304 -0.0540 -0.0264
 9025SOL    HW138711   2.081   1.454   9.776  0.2777 -1.6057  0.5372
 9025SOL    HW238712   2.012   1.354   9.711 -1.5657 -0.3193 -0.4361
 9026SOL     OW38713   3.590   4.319   1.201 -0.0590  0.3272 -0.4266
 9026SOL    HW138714   3.649   4.391   1.181 -2.9348  2.5492 -0.9147
 9026SOL    HW238715   3.580   4.318   1.296 -1.0000  0.5774 -0.5253
 9027SOL     OW38716   3.619   1.104   6.757 -0.2253 -0.1180 -0.3614
 9027SOL    HW138717   3.694   1.066   6.803 -0.5787 -1.4314 -0.8829
 9027SOL    HW238718   3.629   1.053   6.677 -2.1314  0.8025 -1.1845
 9028SOL     OW38719   2.985   3.143  16.910 -0.0294 -0.2332 -0.2129
 9028SOL    HW138720   3.007   3.152  17.003  2.2175 -1.0993 -0.6614
 9028SOL    HW238721   2.912   3.204  16.904 -1.8972 -2.1471  2.5662
 9029SOL     OW38722   4.673   3.517  16.615 -0.1062  0.7807  0.1716
 9029SOL    HW138723   4.638   3.606  16.606 -1.7465  0.0117 -1.1346
 9029SOL    HW238724   4.598   3.459  16.598 -0.8448  1.3202  1.5282
 9030SOL     OW38725   3.947   1.851   6.192  0.2686 -0.3578 -0.3637
 9030SOL    HW138726   3.925   1.921   6.253  0.4181  0.2539 -1.0130
 9030SOL    HW238727   4.041   1.837   6.208  0.0643  1.1849  2.0830
 9031SOL     OW38728   1.010   3.302   4.908 -0.6212 -0.3131 -0.5028
 9031SOL    HW138729   1.013   3.225   4.852  0.3957 -0.2616 -0.5059
 9031SOL    HW238730   1.062   3.362   4.854  0.1151  0.0482  0.6131
 9032SOL     OW38731   3.810   3.423   3.537  0.4604  0.6718 -0.2867
 9032SOL    HW138732   3.730   3.422   3.483  0.4261 -0.2351 -0.2320
 9032SOL    HW238733   3.811   3.514   3.564 -0.4038  1.3649 -2.5243
 9033SOL     OW38734   3.135   2.091  11.624  0.4132 -0.2338  0.2653
 9033SOL    HW138735   3.046   2.121  11.642  0.3881 -1.0252  1.4594
 9033SOL    HW238736   3.146   2.015  11.681  0.0921  0.1752  0.8656
 9034SOL     OW38737   4.502   0.743   8.346 -0.2233 -0.1841 -0.2513
 9034SOL    HW138738   4.492   0.649   8.355 -1.1448  0.1451  2.1709
 9034SOL    HW238739   4.473   0.752   8.255  0.2183  1.2338 -0.2603
 9035SOL     OW38740   3.650   2.839  12.139 -0.2261 -0.8339 -0.2081
 9035SOL    HW138741   3.578   2.900  12.119  0.5526  1.0689  2.9386
 9035SOL    HW238742   3.715   2.897  12.099  0.0326  0.1109  1.6026
 9036SOL     OW38743   2.880   3.078   3.973  0.3320 -0.8514 -0.2777
 9036SOL    HW138744   2.952   3.073   4.036  0.7586 -0.8817 -0.7677
 9036SOL    HW238745   2.909   3.139   3.906 -1.0825  0.3777  0.2213
 9037SOL     OW38746   1.493   0.370   3.407  0.1147 -0.0395  0.1164
 9037SOL    HW138747   1.496   0.338   3.317  1.2711  1.4076 -0.3566
 9037SOL    HW238748   1.416   0.425   3.419 -1.4034 -1.8905 -1.2358
 9038SOL     OW38749   3.932   3.296   1.791 -0.1590 -0.3384  0.1527
 9038SOL    HW138750   4.001   3.282   1.726 -0.7028 -1.0030 -0.2766
 9038SOL    HW238751   3.870   3.352   1.744  2.3390  1.4177 -1.1105
 9039SOL     OW38752   2.817   3.964   7.106  0.0098  0.0542 -0.5611
 9039SOL    HW138753   2.850   3.879   7.136 -0.4642  0.2049  0.3938
 9039SOL    HW238754   2.750   3.922   7.052 -2.4340  1.0861  1.6780
 9040SOL     OW38755   4.096   3.609   1.244 -0.6564 -0.1683  0.3700
 9040SOL    HW138756   4.027   3.546   1.225  0.5350 -1.4459  0.2510
 9040SOL    HW238757   4.082   3.615   1.339  1.8810  1.3862  0.6389
 9041SOL     OW38758   4.668   1.984   5.381 -0.6862 -0.6189 -0.2196
 9041SOL    HW138759   4.626   1.901   5.405  0.5697 -1.2620 -0.2197
 9041SOL    HW238760   4.687   1.969   5.288  1.0872 -2.6820  0.4728
 9042SOL     OW38761   1.905   3.045   2.957 -0.3560  0.0243  0.3463
 9042SOL    HW138762   1.970   2.995   2.908 -1.4746  0.0207 -1.1109
 9042SOL    HW238763   1.870   3.097   2.885  2.7004  1.5856 -0.0131
 9043SOL     OW38764   3.224   4.560   4.048  0.4066  0.4394  0.0346
 9043SOL    HW138765   3.174   4.479   4.037  1.3513 -0.1206 -0.0738
 9043SOL    HW238766   3.171   4.624   4.000 -0.3074  0.2770  0.6068
 9044SOL     OW38767   1.067   2.516  16.179  0.2827 -0.2050 -0.5040
 9044SOL    HW138768   1.077   2.434  16.130  0.4055 -0.2535 -0.3965
 9044SOL    HW238769   0.987   2.490  16.226  0.9589  2.9107  2.3513
 9045SOL     OW38770   1.983   0.413   4.183 -0.5961 -0.3450  0.2397
 9045SOL    HW138771   1.901   0.438   4.226 -0.0255 -1.6701  2.0915
 9045SOL    HW238772   1.962   0.320   4.172  0.0845 -0.5040  0.3106
 9046SOL     OW38773   4.019   1.121   8.307  1.1376  0.1222  0.2393
 9046SOL    HW138774   4.077   1.045   8.306  0.3610 -0.4610 -0.3472
 9046SOL    HW238775   4.015   1.140   8.401 -0.7592 -2.3357  0.6427
 9047SOL     OW38776   0.263   3.584   5.629 -0.2935  0.0184  0.4879
 9047SOL    HW138777   0.322   3.513   5.603  1.4729  1.4959  0.4038
 9047SOL    HW238778   0.303   3.657   5.582  1.8503  0.7058  3.3762
 9048SOL     OW38779   2.639   2.802   6.458  0.2508  0.3607  0.2454
 9048SOL    HW138780   2.571   2.831   6.518  1.0389 -0.5217  1.5788
 9048SOL    HW238781   2.650   2.880   6.403 -1.5171  2.6210  3.1105
 9049SOL     OW38782   4.109   0.593   5.616 -0.4939  0.0864 -0.6049
 9049SOL    HW138783   4.146   0.567   5.700 -1.5506 -0.8412 -0.4330
 9049SOL    HW238784   4.034   0.534   5.607 -1.3953  0.8736  1.5121
 9050SOL     OW38785   1.042   0.025   6.005 -0.2121  0.1833 -0.3702
 9050SOL    HW138786   0.962   0.030   6.058  0.0798 -3.4328  0.4065
 9050SOL    HW238787   1.043   4.668   5.990 -1.3556  0.4096 -1.8747
 9051SOL     OW38788   4.409   2.532   4.526 -0.4543  0.2939  0.0454
 9051SOL    HW138789   4.451   2.612   4.494 -0.0273 -0.3491 -1.0042
 9051SOL    HW238790   4.366   2.568   4.604 -1.0514 -1.2979  0.4483
 9052SOL     OW38791   4.584   2.266   8.902 -0.4876  0.2980 -0.2940
 9052SOL    HW138792   4.673   2.274   8.936 -0.9615 -2.8085  1.6488
 9052SOL    HW238793   4.600   2.255   8.808  0.7239 -1.6233  0.1385
 9053SOL     OW38794   1.102   1.959   5.359 -0.2791 -0.3084 -0.2406
 9053SOL    HW138795   1.180   1.977   5.412  0.2047 -0.0150 -1.0614
 9053SOL    HW238796   1.148   1.914   5.288 -0.5300 -0.5610 -0.2436
 9054SOL     OW38797   4.355   3.509  11.846 -0.2100  0.3466 -0.1567
 9054SOL    HW138798   4.272   3.557  11.847 -0.4161 -0.0066 -0.7168
 9054SOL    HW238799   4.422   3.576  11.861  1.4793 -1.0984 -1.2322
 9055SOL     OW38800   2.515   2.419  10.292  0.1012 -0.3104 -0.1019
 9055SOL    HW138801   2.554   2.475  10.225 -0.6529 -0.9216 -1.0453
 9055SOL    HW238802   2.536   2.471  10.369 -0.4152  0.6076 -0.5855
 9056SOL     OW38803   0.288   3.469   6.462 -0.3018 -0.7712  0.3870
 9056SOL    HW138804   0.320   3.532   6.397 -2.2535  0.4033  0.5670
 9056SOL    HW238805   0.358   3.405   6.475 -0.7741 -1.3917 -0.1600
 9057SOL     OW38806   4.124   2.782   8.602 -0.1930 -0.0580 -0.1659
 9057SOL    HW138807   4.111   2.811   8.692 -0.0749 -2.0452  0.4981
 9057SOL    HW238808   4.189   2.713   8.615  1.1822  1.7539  2.4591
 9058SOL     OW38809   2.902   4.368   2.498 -0.4517 -0.0308 -0.2301
 9058SOL    HW138810   2.809   4.344   2.498 -0.4123 -0.1446 -2.2485
 9058SOL    HW238811   2.928   4.330   2.582  1.2231  2.5168  0.4050
 9059SOL     OW38812   4.409   1.762   6.744 -0.7359 -0.0585  0.4972
 9059SOL    HW138813   4.469   1.706   6.695 -1.2469  0.5910 -0.8728
 9059SOL    HW238814   4.418   1.715   6.827  2.1583  1.3301  0.9599
 9060SOL     OW38815   0.251   2.198   5.551  0.0838 -0.0759  0.6668
 9060SOL    HW138816   0.280   2.278   5.508  0.8274 -0.0439  1.2281
 9060SOL    HW238817   0.273   2.132   5.486  0.9788  0.5666  0.3276
 9061SOL     OW38818   3.913   3.676   1.545 -0.0590  0.0679  0.1776
 9061SOL    HW138819   3.956   3.637   1.621 -0.7011  0.5593  0.7964
 9061SOL    HW238820   3.911   3.769   1.568  0.9448  0.2445 -0.4872
 9062SOL     OW38821   3.739   3.454   4.969 -0.8944 -0.7514 -0.4605
 9062SOL    HW138822   3.808   3.444   4.904  0.5050  0.8089  0.7766
 9062SOL    HW238823   3.783   3.499   5.041  2.0740  0.3337 -2.9436
 9063SOL     OW38824   1.466   4.349   0.301 -0.3300  0.3179  0.0952
 9063SOL    HW138825   1.506   4.262   0.300 -2.4073 -0.6023 -1.5582
 9063SOL    HW238826   1.413   4.349   0.222 -0.7747 -2.4347  0.3953
 9064SOL     OW38827   4.425   2.867   1.577 -0.0471 -0.6031 -0.1016
 9064SOL    HW138828   4.491   2.823   1.631  0.6218  0.5069 -0.0264
 9064SOL    HW238829   4.418   2.938   1.640 -0.1245 -0.4005 -0.3387
 9065SOL     OW38830   0.346   2.515   6.446  0.5552  0.1596  0.7462
 9065SOL    HW138831   0.410   2.529   6.377 -0.2096  3.3258  0.6868
 9065SOL    HW238832   0.409   2.517   6.518  0.5157 -0.5886  0.8025
 9066SOL     OW38833   0.116   3.354  16.511 -0.0722  0.6109  0.3208
 9066SOL    HW138834   0.039   3.393  16.553 -0.0963 -1.0308  1.8366
 9066SOL    HW238835   0.169   3.433  16.506  0.6361  0.2472  1.7705
 9067SOL     OW38836   3.719   3.603   3.290 -0.1324 -0.1741 -0.0505
 9067SOL    HW138837   3.719   3.666   3.362 -1.4812 -0.1265 -0.1031
 9067SOL    HW238838   3.812   3.580   3.287 -0.1220  0.1068 -1.7349
 9068SOL     OW38839   2.298   4.454   8.767  0.0042 -0.2603  0.0084
 9068SOL    HW138840   2.206   4.448   8.741  0.1260  0.3972 -0.5754
 9068SOL    HW238841   2.288   4.399   8.844  1.2798 -0.1714  0.2280
 9069SOL     OW38842   3.142   1.980  10.697  0.1042 -0.0950 -0.1213
 9069SOL    HW138843   3.224   1.941  10.727  0.4852  0.4921 -0.3997
 9069SOL    HW238844   3.176   2.024  10.619  0.5355 -3.1713 -1.6956
 9070SOL     OW38845   2.615   0.494   8.200  0.3070  0.3603  0.9906
 9070SOL    HW138846   2.664   0.435   8.142 -0.7993 -0.1080  0.5245
 9070SOL    HW238847   2.658   0.578   8.182 -1.0258  1.2896  2.1541
 9071SOL     OW38848   0.486   2.388   6.995  0.1320 -0.1477  0.2395
 9071SOL    HW138849   0.489   2.294   7.014 -1.3788  0.1534  1.9592
 9071SOL    HW238850   0.434   2.391   6.915 -0.0257 -1.2778  0.2918
 9072SOL     OW38851   4.156   2.489   4.734 -0.3624 -0.1977  0.4954
 9072SOL    HW138852   4.142   2.396   4.717  1.5474 -0.1836 -1.0988
 9072SOL    HW238853   4.099   2.532   4.671  1.1821  0.8425 -0.2048
 9073SOL     OW38854   3.874   1.759   8.008  0.3410 -0.2058  0.1343
 9073SOL    HW138855   3.825   1.745   8.088 -0.2812 -2.5143 -0.6549
 9073SOL    HW238856   3.893   1.675   7.967  0.3781 -1.0804  1.9561
 9074SOL     OW38857   3.442   2.878   7.892  0.0503 -0.2104  0.7824
 9074SOL    HW138858   3.399   2.811   7.838 -1.5186 -0.0123  1.7818
 9074SOL    HW238859   3.372   2.897   7.955  0.4491  2.0786  0.5005
 9075SOL     OW38860   4.738   0.269  15.758 -0.1256  0.3186  0.2561
 9075SOL    HW138861   4.729   0.211  15.834  0.8336  0.4693  0.4914
 9075SOL    HW238862   4.727   0.352  15.805 -0.7131  0.1936  0.3444
 9076SOL     OW38863   1.281   0.475  15.211  0.2063 -0.0780 -0.4283
 9076SOL    HW138864   1.368   0.512  15.199 -0.3939  0.7475 -2.1631
 9076SOL    HW238865   1.281   0.411  15.140 -1.5507  1.9018 -2.2258
 9077SOL     OW38866   4.271   3.255   8.303 -0.2894 -0.1599  0.0270
 9077SOL    HW138867   4.324   3.224   8.229  0.9642 -0.9229  1.2577
 9077SOL    HW238868   4.325   3.222   8.374 -0.8881 -0.0761  0.5174
 9078SOL     OW38869   4.550   0.614   5.785 -0.3005  0.2401  0.4483
 9078SOL    HW138870   4.480   0.651   5.838 -0.0045 -1.8962  2.3201
 9078SOL    HW238871   4.517   0.528   5.761 -1.5968  0.5671  1.0776
 9079SOL     OW38872   0.540   3.349   7.324 -0.6905 -0.4342  1.1830
 9079SOL    HW138873   0.605   3.363   7.393  0.0876 -0.8976  0.5484
 9079SOL    HW238874   0.516   3.439   7.306  0.3441 -0.1803  1.0684
 9080SOL     OW38875   0.843   4.422   4.597  0.0966 -0.1000  0.0417
 9080SOL    HW138876   0.839   4.510   4.560 -2.3797  0.1636  0.9633
 9080SOL    HW238877   0.854   4.369   4.518  0.4836  0.7996 -0.5062
 9081SOL     OW38878   0.265   0.637   8.313 -0.0572 -0.2309  0.2300
 9081SOL    HW138879   0.309   0.685   8.384 -0.6768  0.8832 -0.1450
 9081SOL    HW238880   0.341   0.630   8.256  0.1710  0.7996  0.3977
 9082SOL     OW38881   4.490   0.606  15.701  0.6291 -0.6503 -0.3340
 9082SOL    HW138882   4.570   0.647  15.666  0.8037 -1.2764 -0.6592
 9082SOL    HW238883   4.521   0.554  15.775  4.0408 -2.7305 -3.2125
 9083SOL     OW38884   0.962   0.297   1.336 -0.0196  0.0079  0.1110
 9083SOL    HW138885   0.981   0.269   1.426 -0.4692  1.6021  0.7011
 9083SOL    HW238886   1.048   0.305   1.295  0.0958 -0.7464  0.2041
 9084SOL     OW38887   0.706   3.676   4.419 -0.6675  0.3696 -0.6833
 9084SOL    HW138888   0.659   3.667   4.502  0.6765 -0.5105 -0.0200
 9084SOL    HW238889   0.776   3.613   4.434 -0.2751  0.3303 -2.6469
 9085SOL     OW38890   4.087   1.958   6.646 -0.2400  0.2212 -0.2680
 9085SOL    HW138891   4.030   1.896   6.601  0.0312  0.9563 -1.6044
 9085SOL    HW238892   4.012   2.013   6.669  1.3757  2.3631 -0.1968
 9086SOL     OW38893   4.179   1.459  17.714  0.0274  0.0832  0.1146
 9086SOL    HW138894   4.224   1.520   0.022  1.9187  0.9501 -2.2517
 9086SOL    HW238895   4.191   1.380   0.016  2.6711 -0.0036 -0.5959
 9087SOL     OW38896   1.868   4.508   7.165 -0.0935 -0.1962  0.2374
 9087SOL    HW138897   1.890   4.418   7.139 -0.5819 -0.3043  0.1959
 9087SOL    HW238898   1.908   4.552   7.090 -0.1410 -0.0003  0.3283
 9088SOL     OW38899   0.936   2.578   7.590 -0.0383  0.0625 -0.5431
 9088SOL    HW138900   0.861   2.638   7.596 -1.0001 -1.1158 -0.6942
 9088SOL    HW238901   1.000   2.648   7.600  2.8901 -2.8433  0.8774
 9089SOL     OW38902   2.291   1.937   5.527 -0.3257  0.4670  0.4695
 9089SOL    HW138903   2.200   1.911   5.515 -0.0308  0.0071 -0.7445
 9089SOL    HW238904   2.286   2.025   5.488  4.1329  1.3370  1.8915
 9090SOL     OW38905   2.530   2.779   7.823 -1.0714 -0.0833 -0.0479
 9090SOL    HW138906   2.498   2.690   7.836  0.5567 -1.1033 -3.0867
 9090SOL    HW238907   2.450   2.830   7.819 -2.3257 -2.1055 -0.7130
 9091SOL     OW38908   1.483   2.642   2.650 -0.2576  0.4161  0.0839
 9091SOL    HW138909   1.500   2.663   2.741  2.5999 -0.2828 -0.2757
 9091SOL    HW238910   1.497   2.723   2.601 -0.5355  0.5543  0.2320
 9092SOL     OW38911   2.872   1.653   0.055  0.0348 -0.1144  0.4670
 9092SOL    HW138912   2.838   1.568   0.082 -1.1584  0.6096  1.2086
 9092SOL    HW238913   2.897   1.628  17.716  0.6977  0.5150  0.4802
 9093SOL     OW38914   3.701   0.685  16.407  0.6313  0.0308  0.4683
 9093SOL    HW138915   3.698   0.761  16.465  1.0778 -0.2607  0.8750
 9093SOL    HW238916   3.730   0.708  16.319  0.3879 -1.1456  0.0854
 9094SOL     OW38917   3.154   1.173   1.673 -0.5145  0.6483 -0.1335
 9094SOL    HW138918   3.228   1.183   1.614  0.0805  1.3415  0.7457
 9094SOL    HW238919   3.080   1.174   1.612 -0.1308  2.0788 -0.5810
 9095SOL     OW38920   4.543   3.434  14.604 -0.5728  0.0352 -0.3240
 9095SOL    HW138921   4.460   3.442  14.651 -0.6253  0.9091 -0.5743
 9095SOL    HW238922   4.559   3.524  14.576  2.8015 -0.9744 -1.6332
 9096SOL     OW38923   1.539   0.313   5.811 -0.1884  0.5551  0.1709
 9096SOL    HW138924   1.459   0.360   5.786 -1.5957 -2.6858 -1.5040
 9096SOL    HW238925   1.555   0.279   5.723 -1.4408 -0.7703  0.4405
 9097SOL     OW38926   0.935   0.610  14.092 -0.7344 -0.1504 -0.2046
 9097SOL    HW138927   0.970   0.627  14.004  1.0985  1.3182  0.8028
 9097SOL    HW238928   0.962   0.689  14.138 -1.1188 -0.1305 -0.0226
 9098SOL     OW38929   3.497   0.462   4.322  0.8895  0.5744 -0.0017
 9098SOL    HW138930   3.485   0.399   4.394  0.7160  1.2435  0.5569
 9098SOL    HW238931   3.505   0.552   4.355 -1.1229  0.4362  0.8714
 9099SOL     OW38932   0.046   3.533  12.212  0.5032 -0.2158 -0.0583
 9099SOL    HW138933   4.724   3.459  12.220 -0.0985  0.4848  1.8067
 9099SOL    HW238934   0.119   3.502  12.265 -0.6627 -2.2288  0.3461
 9100SOL     OW38935   1.692   3.323   3.120  0.3020 -0.1460 -0.0374
 9100SOL    HW138936   1.690   3.417   3.105 -0.2430 -0.0425  0.6718
 9100SOL    HW238937   1.766   3.310   3.061  0.5111  0.8465  0.0131
 9101SOL     OW38938   2.863   1.527   5.728  1.2126  0.6238  0.3958
 9101SOL    HW138939   2.824   1.606   5.693 -1.8626 -1.0059  0.0959
 9101SOL    HW238940   2.902   1.567   5.806  1.7939  0.1000  0.3808
 9102SOL     OW38941   0.726   2.096   4.367 -0.7104 -0.5221 -0.0389
 9102SOL    HW138942   0.635   2.098   4.341 -0.7651  1.0848  0.3034
 9102SOL    HW238943   0.757   2.060   4.284 -1.6726 -1.2458 -0.0757
 9103SOL     OW38944   3.474   4.038   5.985 -0.1321 -0.0707  0.6774
 9103SOL    HW138945   3.488   3.959   6.036 -1.6509 -1.2342 -0.6990
 9103SOL    HW238946   3.554   4.057   5.936 -1.1653 -1.0419 -1.4083
 9104SOL     OW38947   2.593   3.505   1.750 -0.2265 -0.1077  0.2009
 9104SOL    HW138948   2.562   3.586   1.709 -1.3703 -0.8970 -0.4844
 9104SOL    HW238949   2.615   3.451   1.675 -0.3276  0.5255 -0.2859
 9105SOL     OW38950   3.572   2.689   3.284 -0.4971  0.6139 -0.0547
 9105SOL    HW138951   3.589   2.680   3.191 -0.0452 -1.6834  0.2544
 9105SOL    HW238952   3.486   2.647   3.280 -0.3548  0.3472 -0.2891
 9106SOL     OW38953   4.571   2.889  15.815 -0.2284  0.4903  0.1170
 9106SOL    HW138954   4.528   2.806  15.835  0.6106 -0.2191 -1.0809
 9106SOL    HW238955   4.620   2.911  15.894  0.1911  1.0072 -0.2847
 9107SOL     OW38956   1.068   1.304   3.685  0.2134  0.1695  0.1078
 9107SOL    HW138957   1.065   1.342   3.598  0.2692  0.4212  0.2170
 9107SOL    HW238958   1.030   1.374   3.737  2.1187  0.3824  1.2435
 9108SOL     OW38959   3.398   2.158   8.698 -0.1345 -0.0834 -0.4673
 9108SOL    HW138960   3.492   2.138   8.694 -0.4386 -1.9167  1.2708
 9108SOL    HW238961   3.384   2.197   8.784 -1.2388  0.7514 -1.0368
 9109SOL     OW38962   3.976   1.186   3.933 -0.6066 -0.5235  0.1688
 9109SOL    HW138963   4.063   1.157   3.904  0.6333  2.5372  0.7870
 9109SOL    HW238964   3.957   1.259   3.873  1.2234  0.3868  0.6970
 9110SOL     OW38965   0.715   4.690   1.081 -0.0593  0.1012  0.0048
 9110SOL    HW138966   0.783   4.623   1.075  0.6303  0.9797 -2.0361
 9110SOL    HW238967   0.641   4.636   1.053  1.0035 -1.5011  0.2428
 9111SOL     OW38968   2.419   2.254   4.200  0.4538 -0.2702 -0.0331
 9111SOL    HW138969   2.399   2.329   4.256  0.9818 -0.5798  0.5818
 9111SOL    HW238970   2.510   2.275   4.179  0.8860 -0.6801  1.3941
 9112SOL     OW38971   0.683   1.102   8.015  0.1555 -0.0916 -0.0334
 9112SOL    HW138972   0.630   1.112   7.936  0.3417 -1.6100 -0.3558
 9112SOL    HW238973   0.731   1.181   7.991 -1.0622  0.5616 -0.3261
 9113SOL     OW38974   0.655   3.020   1.588 -0.8054  0.1557 -0.1108
 9113SOL    HW138975   0.659   2.972   1.505  0.6848 -0.6445  0.4360
 9113SOL    HW238976   0.576   3.070   1.567 -1.3330 -0.0858  1.2724
 9114SOL     OW38977   3.787   4.688   9.618  0.5557 -0.3237 -0.1347
 9114SOL    HW138978   3.768   0.040   9.593  0.6322  0.3147  2.0427
 9114SOL    HW238979   3.877   4.677   9.587  1.2853  0.4573  1.6694
 9115SOL     OW38980   1.217   2.636   9.151 -0.0131  0.1669  0.1328
 9115SOL    HW138981   1.308   2.665   9.159  0.2712 -0.4205 -0.9381
 9115SOL    HW238982   1.210   2.566   9.215 -1.5780 -0.0518 -0.2880
 9116SOL     OW38983   2.475   0.981   8.000  0.2269  0.5050 -0.6310
 9116SOL    HW138984   2.552   1.036   7.987  1.6039 -1.3864 -0.4245
 9116SOL    HW238985   2.458   0.961   7.908 -0.1307  0.4480 -0.5543
 9117SOL     OW38986   3.938   2.393   9.169 -0.4359 -0.6621  0.2374
 9117SOL    HW138987   3.968   2.306   9.143 -0.0141 -1.3200  2.8911
 9117SOL    HW238988   4.006   2.419   9.231 -0.2496 -0.0915 -0.2088
 9118SOL     OW38989   3.962   0.331  17.077 -0.5714 -0.0922 -0.1724
 9118SOL    HW138990   4.007   0.337  16.993 -2.9679 -1.3808 -1.5668
 9118SOL    HW238991   3.897   0.399  17.060  0.1470  0.6179 -0.0682
 9119SOL     OW38992   3.670   1.382   6.751 -0.2008  0.3296  0.3846
 9119SOL    HW138993   3.629   1.296   6.764 -1.7729  0.9364 -0.5638
 9119SOL    HW238994   3.586   1.424   6.729 -0.6602 -0.1303  1.2649
 9120SOL     OW38995   4.174   0.871   8.348 -0.2011 -0.0061  0.2717
 9120SOL    HW138996   4.176   0.788   8.301 -1.0160 -0.2293  0.6468
 9120SOL    HW238997   4.132   0.858   8.432 -0.1100  1.9532  0.6114
 9121SOL     OW38998   2.404   3.003   2.567  0.3476  0.3960  0.0707
 9121SOL    HW138999   2.408   3.093   2.535  2.7795  0.4273  0.4568
 9121SOL    HW239000   2.468   3.013   2.638  0.4728 -4.5601  0.6535
 9122SOL     OW39001   4.439   0.790   2.646 -0.1313 -0.1539 -0.7394
 9122SOL    HW139002   4.524   0.753   2.669  0.1346  0.0941 -1.3247
 9122SOL    HW239003   4.457   0.813   2.555  3.5993 -1.5226 -0.3483
 9123SOL     OW39004   2.023   3.369   0.884  0.1929 -0.7649 -0.1575
 9123SOL    HW139005   1.963   3.338   0.817  1.5260  2.4276 -2.7914
 9123SOL    HW239006   2.029   3.299   0.949 -2.6081 -0.9672 -0.1175
 9124SOL     OW39007   0.478   0.711   8.138  0.1850 -0.8611  0.0946
 9124SOL    HW139008   0.570   0.693   8.118  0.4443 -0.7472  1.1909
 9124SOL    HW239009   0.479   0.803   8.163 -0.0445 -0.5485 -1.0555
 9125SOL     OW39010   3.816   0.602  10.857  0.7442 -0.4769 -0.6325
 9125SOL    HW139011   3.803   0.668  10.789  2.3048 -1.8121 -2.2120
 9125SOL    HW239012   3.801   0.516  10.818 -0.1165 -0.6562  0.0933
 9126SOL     OW39013   1.339   0.421  13.593  0.0327 -0.1069  0.6836
 9126SOL    HW139014   1.295   0.343  13.558 -0.1105 -0.6122  2.0149
 9126SOL    HW239015   1.355   0.388  13.681  0.2889  0.5003  0.8628
 9127SOL     OW39016   2.114   1.970  16.792  0.0538  0.7648  0.4643
 9127SOL    HW139017   2.136   1.921  16.871 -0.7987 -0.7157 -0.2193
 9127SOL    HW239018   2.172   2.046  16.789 -1.6135  2.0583  0.6500
 9128SOL     OW39019   1.803   4.115   9.331  0.0804  0.7727 -0.1903
 9128SOL    HW139020   1.877   4.175   9.332  1.9371 -1.4920 -4.0151
 9128SOL    HW239021   1.743   4.148   9.264 -1.3152  0.6825  1.0168
 9129SOL     OW39022   3.668   1.264   8.419  0.0446  0.5953  0.3891
 9129SOL    HW139023   3.591   1.308   8.456 -0.9683  0.3904 -1.4891
 9129SOL    HW239024   3.720   1.333   8.377 -1.0388  1.5903  0.6554
 9130SOL     OW39025   4.498   0.860   0.702 -0.3448  0.1184 -0.1064
 9130SOL    HW139026   4.494   0.779   0.753 -0.3980 -0.0969 -0.4554
 9130SOL    HW239027   4.529   0.823   0.619  0.8456 -1.5807  1.0811
 9131SOL     OW39028   0.433   2.277   4.707 -0.2028 -0.1718  0.4189
 9131SOL    HW139029   0.508   2.312   4.659 -2.2220  1.9964 -1.1707
 9131SOL    HW239030   0.462   2.186   4.708  0.1003 -0.1093 -1.6598
 9132SOL     OW39031   4.619   2.244   2.008  0.2306  0.1708  0.2608
 9132SOL    HW139032   4.673   2.187   1.954  0.8315  1.9442 -1.0182
 9132SOL    HW239033   4.533   2.216   1.976  0.9551 -0.2100 -1.3363
 9133SOL     OW39034   1.990   4.572   4.734 -0.0925 -0.3565 -0.2819
 9133SOL    HW139035   2.011   4.630   4.661  1.0714  0.8977  1.0331
 9133SOL    HW239036   1.976   4.490   4.688  0.6599  0.9500 -2.8296
 9134SOL     OW39037   1.057   0.327   1.692  0.0813  0.1736 -0.2371
 9134SOL    HW139038   1.018   0.246   1.725  2.4906 -0.9927 -0.3026
 9134SOL    HW239039   0.993   0.384   1.735  1.7335  1.7945  0.0822
 9135SOL     OW39040   0.060   0.771   9.082  0.0197  0.7100  0.3340
 9135SOL    HW139041   0.122   0.769   9.155  0.3500  1.2657  0.0649
 9135SOL    HW239042   4.718   0.757   9.133 -0.1940 -0.2423 -0.2671
 9136SOL     OW39043   3.278   2.423   6.222  0.2092 -0.0781  0.3447
 9136SOL    HW139044   3.255   2.348   6.277 -2.1505 -0.1463 -0.7572
 9136SOL    HW239045   3.356   2.383   6.182 -0.8170 -0.1106 -1.5801
 9137SOL     OW39046   3.873   4.134  13.389 -0.4346  0.1067  0.5768
 9137SOL    HW139047   3.968   4.130  13.388 -0.4222  0.2484  2.5927
 9137SOL    HW239048   3.849   4.053  13.344  0.1708  0.0617  0.3384
 9138SOL     OW39049   2.049   0.584   0.904  0.1724 -0.1781 -0.4576
 9138SOL    HW139050   2.022   0.499   0.869 -3.3819  0.3764  0.8397
 9138SOL    HW239051   2.126   0.551   0.950 -2.0224 -1.1659  2.5211
 9139SOL     OW39052   1.204   2.448  16.514  0.6753 -0.0086 -0.4012
 9139SOL    HW139053   1.211   2.443  16.419  2.1738  0.5991 -0.3274
 9139SOL    HW239054   1.235   2.358  16.528  1.3934  0.0369 -1.6808
 9140SOL     OW39055   3.149   0.276  11.149 -0.4040  0.4641 -0.7102
 9140SOL    HW139056   3.164   0.199  11.205  2.9268  0.4822 -1.5717
 9140SOL    HW239057   3.104   0.247  11.070  1.3518 -1.8227 -0.8802
 9141SOL     OW39058   0.090   2.340   3.116  0.9023  0.1242  0.2991
 9141SOL    HW139059   0.175   2.355   3.073 -0.2976  3.3443 -0.9353
 9141SOL    HW239060   0.020   2.373   3.059  2.2102  0.7422 -0.9640
 9142SOL     OW39061   0.777   2.104   3.490  0.4344  0.5073 -0.3095
 9142SOL    HW139062   0.793   2.129   3.399  0.5501 -1.3531 -0.7949
 9142SOL    HW239063   0.863   2.077   3.524  1.2683  1.6705 -1.4966
 9143SOL     OW39064   0.666   2.682   6.721  0.8255 -0.3347 -0.5650
 9143SOL    HW139065   0.732   2.696   6.790  1.0602 -0.1498 -0.8274
 9143SOL    HW239066   0.716   2.666   6.641  1.7820  0.4629 -0.1360
 9144SOL     OW39067   2.695   3.952   1.988 -0.2873  0.7722 -0.4262
 9144SOL    HW139068   2.644   4.032   1.999 -1.1610  0.0481  0.7585
 9144SOL    HW239069   2.639   3.896   2.042  0.4944 -0.7248 -1.1546
 9145SOL     OW39070   1.507   0.887  14.844 -0.2673 -0.1169  0.3572
 9145SOL    HW139071   1.493   0.979  14.824 -0.9228 -0.3507 -0.2296
 9145SOL    HW239072   1.418   0.852  14.847  0.5628 -2.4350 -1.3218
 9146SOL     OW39073   3.438   1.255  15.555  0.3642 -0.7106 -0.0900
 9146SOL    HW139074   3.484   1.318  15.499  0.8944 -1.8211 -0.9064
 9146SOL    HW239075   3.490   1.236  15.633 -0.8068 -1.7228  0.4197
 9147SOL     OW39076   3.078   4.266   3.332 -0.3460  0.3468  0.0721
 9147SOL    HW139077   3.026   4.285   3.410 -0.9273 -0.5344 -0.0998
 9147SOL    HW239078   3.096   4.355   3.302  0.5377 -0.1271 -0.7823
 9148SOL     OW39079   1.907   0.614  12.366 -0.4782 -0.4255  0.1412
 9148SOL    HW139080   1.971   0.551  12.332 -2.2425 -2.9194  1.4796
 9148SOL    HW239081   1.895   0.677  12.295  3.9260 -1.2131 -1.3216
 9149SOL     OW39082   2.523   4.120   7.731  0.0343 -0.2737 -0.7077
 9149SOL    HW139083   2.549   4.205   7.695  2.5243 -1.1083 -0.8906
 9149SOL    HW239084   2.593   4.065   7.695 -1.7292 -3.9681  1.4616
 9150SOL     OW39085   2.053   0.305  16.875 -0.0157 -0.3200  0.2849
 9150SOL    HW139086   2.084   0.335  16.961 -1.7060 -1.7984  1.4078
 9150SOL    HW239087   2.060   0.385  16.823  0.1472 -0.2627  0.3936
 9151SOL     OW39088   2.623   1.101   5.434 -0.0901 -0.6242  0.5125
 9151SOL    HW139089   2.611   1.111   5.528  2.9028  0.1253  0.8165
 9151SOL    HW239090   2.632   1.008   5.417  1.9955 -0.3087 -0.0523
 9152SOL     OW39091   1.950   1.793   5.865 -0.2069  0.1218 -0.1217
 9152SOL    HW139092   2.021   1.752   5.914  0.0360 -0.0992 -0.6657
 9152SOL    HW239093   1.878   1.730   5.873 -0.3583  0.2413 -0.5559
 9153SOL     OW39094   0.286   1.561   1.057 -0.2785 -0.1303  0.7632
 9153SOL    HW139095   0.224   1.513   1.001  0.4172  0.3430 -0.4060
 9153SOL    HW239096   0.301   1.494   1.124 -0.1665 -1.4788 -0.6130
 9154SOL     OW39097   3.011   2.699   7.992 -0.4093  0.1392 -0.0873
 9154SOL    HW139098   3.025   2.780   8.041 -2.4311  0.2434  0.3414
 9154SOL    HW239099   3.007   2.738   7.904 -0.2035 -0.0900 -0.1961
 9155SOL     OW39100   2.385   4.070  15.128  0.2013 -0.0038 -0.1558
 9155SOL    HW139101   2.441   4.099  15.056 -1.1208 -2.5025 -2.1852
 9155SOL    HW239102   2.411   3.980  15.145 -0.2830 -0.5799 -2.4605
 9156SOL     OW39103   1.768   2.627  12.253  0.5357  0.3337  0.0092
 9156SOL    HW139104   1.775   2.643  12.347 -1.7949  0.3561  0.1608
 9156SOL    HW239105   1.844   2.575  12.228 -2.2566 -2.2853 -3.0320
 9157SOL     OW39106   3.610   2.750   6.204  0.2068  0.2260 -0.3522
 9157SOL    HW139107   3.561   2.818   6.158 -1.2931 -0.2693  0.5393
 9157SOL    HW239108   3.570   2.759   6.290 -0.4048 -0.2127 -0.5974
 9158SOL     OW39109   0.724   0.066  14.390 -0.0598 -0.2822  0.2533
 9158SOL    HW139110   0.669   0.030  14.320  0.4866 -1.0301  0.2039
 9158SOL    HW239111   0.772   0.130  14.338 -1.4727  1.5610  1.2527
 9159SOL     OW39112   3.524   3.741  10.855 -0.1567 -0.0632  0.3014
 9159SOL    HW139113   3.590   3.809  10.841 -0.9951  0.4758 -1.0645
 9159SOL    HW239114   3.563   3.697  10.931  0.1122 -1.6709 -0.7600
 9160SOL     OW39115   0.550   0.103   4.201 -0.2115 -0.2156 -0.3942
 9160SOL    HW139116   0.474   0.068   4.247  1.2759 -2.4221  0.4050
 9160SOL    HW239117   0.592   0.028   4.159 -1.8663 -0.8194 -0.9488
 9161SOL     OW39118   2.623   3.427  13.640  0.8261  0.5698 -1.1471
 9161SOL    HW139119   2.694   3.403  13.581  1.2633  0.9847 -0.7933
 9161SOL    HW239120   2.567   3.485  13.588  1.6401  0.6517 -1.9377
 9162SOL     OW39121   0.970   4.005   8.401 -0.5436  0.4645 -0.0576
 9162SOL    HW139122   0.960   4.081   8.343 -0.9432  0.5037  0.0637
 9162SOL    HW239123   1.037   3.954   8.356 -1.3377 -1.2259  0.6687
 9163SOL     OW39124   2.511   4.297   0.959  0.2488 -0.1873  0.5645
 9163SOL    HW139125   2.574   4.311   0.889 -0.3194  1.0049  0.2916
 9163SOL    HW239126   2.552   4.228   1.010  0.5250 -0.0724  0.4944
 9164SOL     OW39127   2.926   4.438   6.164  0.4916  0.7993 -0.8977
 9164SOL    HW139128   2.894   4.508   6.107 -1.6868  0.1760 -0.4179
 9164SOL    HW239129   3.015   4.426   6.130 -0.0836 -4.5906 -0.4663
 9165SOL     OW39130   3.321   2.555   9.152 -0.2862 -1.0576 -0.1488
 9165SOL    HW139131   3.319   2.514   9.238  0.0203  0.6074  0.6510
 9165SOL    HW239132   3.239   2.519   9.118 -0.8821 -0.1069  0.2911
 9166SOL     OW39133   2.309   1.698   9.857  0.1829 -0.5877  0.4246
 9166SOL    HW139134   2.353   1.720   9.940  1.0626  0.4932 -0.3198
 9166SOL    HW239135   2.283   1.606   9.859  0.0426 -0.5718 -0.8908
 9167SOL     OW39136   0.813   1.658   3.558 -0.4930 -0.7197  0.3835
 9167SOL    HW139137   0.907   1.645   3.542 -0.3327  0.8585  0.1104
 9167SOL    HW239138   0.820   1.694   3.646 -3.1210 -0.7682  0.6153
 9168SOL     OW39139   3.054   3.703   4.903 -0.3128  0.2752 -0.3253
 9168SOL    HW139140   3.092   3.739   4.822 -0.5377  0.3329 -0.4038
 9168SOL    HW239141   3.035   3.613   4.876  1.7121 -0.4184  0.5703
 9169SOL     OW39142   2.007   3.383   8.838 -0.3102 -0.0819  0.0656
 9169SOL    HW139143   1.927   3.430   8.814  0.9752  3.0676  1.9617
 9169SOL    HW239144   1.993   3.383   8.933 -1.9191  0.6551 -0.1792
 9170SOL     OW39145   0.711   3.655   0.635 -0.4019  0.4564 -0.4951
 9170SOL    HW139146   0.639   3.615   0.684  1.7224 -0.5170  1.7811
 9170SOL    HW239147   0.664   3.667   0.552 -0.3424 -0.2829 -0.6351
 9171SOL     OW39148   3.784   2.991   0.623  0.1156  0.1899  0.0415
 9171SOL    HW139149   3.709   2.932   0.628  1.2646 -1.2554  0.1371
 9171SOL    HW239150   3.856   2.928   0.619 -0.0282 -0.1633  3.0633
 9172SOL     OW39151   1.580   0.223   2.670 -0.4638 -0.1156  0.2043
 9172SOL    HW139152   1.598   0.190   2.758 -1.0290  1.2608  0.8386
 9172SOL    HW239153   1.520   0.292   2.701  1.9442  2.0957 -0.1085
 9173SOL     OW39154   0.183   3.415   7.929 -0.1175 -0.6960 -0.5052
 9173SOL    HW139155   0.247   3.388   7.995 -2.0405 -0.3226  1.5368
 9173SOL    HW239156   0.240   3.415   7.853  0.9301 -1.6250  0.2872
 9174SOL     OW39157   1.811   0.657   5.249 -0.2862 -0.4965  0.6329
 9174SOL    HW139158   1.841   0.748   5.260 -0.6678 -0.0711 -1.7646
 9174SOL    HW239159   1.862   0.632   5.171 -1.9456  1.1775 -0.9923
 9175SOL     OW39160   1.065   3.043   3.671  0.2122 -0.5474  0.2723
 9175SOL    HW139161   1.131   3.112   3.681 -1.0894  1.0197 -2.0634
 9175SOL    HW239162   0.979   3.082   3.684 -0.4403 -1.6755 -0.6854
 9176SOL     OW39163   3.173   1.746   4.233  0.0074  0.1475  0.4154
 9176SOL    HW139164   3.177   1.651   4.240 -0.8871 -0.0689 -1.8736
 9176SOL    HW239165   3.106   1.759   4.300 -0.4766  1.4462 -0.3156
 9177SOL     OW39166   0.362   4.106   2.143 -0.1041  0.1114  0.8182
 9177SOL    HW139167   0.298   4.036   2.146  0.2705 -0.2745 -0.1947
 9177SOL    HW239168   0.334   4.156   2.220  2.4620  1.1726  1.0763
 9178SOL     OW39169   3.113   0.485   3.646 -0.8581 -0.2106  0.1885
 9178SOL    HW139170   3.176   0.511   3.713 -0.7285 -1.0192  0.3840
 9178SOL    HW239171   3.042   0.544   3.668 -0.2295  0.1333  1.3004
 9179SOL     OW39172   3.345   3.992   1.721 -0.4850 -0.1495 -0.2402
 9179SOL    HW139173   3.325   3.906   1.684  2.0484 -1.0518  0.4697
 9179SOL    HW239174   3.285   3.992   1.796  0.1553 -1.3585  0.2769
 9180SOL     OW39175   4.525   4.544  12.199 -0.3293  0.3013  0.4178
 9180SOL    HW139176   4.472   4.544  12.120  1.4498  0.0978 -0.7755
 9180SOL    HW239177   4.460   4.507  12.258 -0.3953 -0.3322 -0.0510
 9181SOL     OW39178   4.224   3.893  16.853  0.0181  0.1462  0.7534
 9181SOL    HW139179   4.239   3.959  16.786  3.2468 -0.2554  1.0475
 9181SOL    HW239180   4.129   3.884  16.845  0.5292 -3.0370 -2.0541
 9182SOL     OW39181   1.013   4.436   5.592 -0.6625  0.5432 -0.0747
 9182SOL    HW139182   1.085   4.390   5.636 -0.8694  0.0813 -0.2155
 9182SOL    HW239183   0.954   4.361   5.583 -2.1020  1.5660  1.0430
 9183SOL     OW39184   3.544   3.114   2.801  0.0843 -0.4009  0.1836
 9183SOL    HW139185   3.553   3.173   2.726 -0.6637 -1.3958 -0.6842
 9183SOL    HW239186   3.461   3.139   2.842  0.6070 -1.0046  1.5936
 9184SOL     OW39187   0.697   4.472  12.363  0.3356 -0.1704  0.0674
 9184SOL    HW139188   0.733   4.487  12.451  1.4516 -1.4880 -0.1600
 9184SOL    HW239189   0.777   4.492  12.315  0.2516 -0.7522 -0.3179
 9185SOL     OW39190   4.126   4.642   6.669 -0.7663  0.2523 -0.0326
 9185SOL    HW139191   4.145   4.612   6.757  1.9233  1.4087 -0.2143
 9185SOL    HW239192   4.213   4.633   6.630 -0.9510 -2.7518  0.2077
 9186SOL     OW39193   2.007   0.766   0.258  0.2441  0.0076 -0.2389
 9186SOL    HW139194   2.025   0.800   0.345  1.6496 -0.4379 -0.3434
 9186SOL    HW239195   1.986   0.679   0.290  1.6544 -0.0109  0.6470
 9187SOL     OW39196   0.778   1.449  17.471 -0.2664 -0.2408 -0.1287
 9187SOL    HW139197   0.805   1.539  17.454 -3.2784  1.1370  2.3570
 9187SOL    HW239198   0.864   1.423  17.503 -0.0892  2.2316  1.4409
 9188SOL     OW39199   0.741   0.783   7.699  0.1676 -0.2401 -0.5913
 9188SOL    HW139200   0.755   0.690   7.682  0.9258 -0.1039 -0.6782
 9188SOL    HW239201   0.810   0.812   7.758  0.0136  1.2198 -1.1331
 9189SOL     OW39202   0.043   4.356   8.045  0.2730  0.0356 -0.0207
 9189SOL    HW139203   0.060   4.400   8.128  0.7265  1.9772 -1.1361
 9189SOL    HW239204   0.133   4.328   8.025  0.6216  0.4496  0.9795
 9190SOL     OW39205   3.300   0.479   6.912  0.3376  0.0312  0.1453
 9190SOL    HW139206   3.208   0.454   6.924  0.7473 -1.3456  0.4142
 9190SOL    HW239207   3.336   0.397   6.944 -0.0382  0.1934  0.9770
 9191SOL     OW39208   3.607   0.351   4.102 -0.0929  0.2185 -0.2448
 9191SOL    HW139209   3.565   0.385   4.181  1.6927 -0.6750  1.0919
 9191SOL    HW239210   3.547   0.384   4.035 -3.5470 -3.8469  0.8859
 9192SOL     OW39211   1.577   0.552   0.018  0.4707  0.1189  0.2444
 9192SOL    HW139212   1.589   0.621  17.704 -0.9692 -0.7102 -0.8971
 9192SOL    HW239213   1.606   0.590   0.101  0.9203  0.2540  0.0230
 9193SOL     OW39214   0.794   3.369   8.763 -0.0182 -0.0696 -0.1175
 9193SOL    HW139215   0.851   3.444   8.782  0.0788 -0.2061  0.1197
 9193SOL    HW239216   0.746   3.402   8.686 -0.0067  0.1081 -0.0492
 9194SOL     OW39217   2.113   3.566   0.589  0.0830  0.8257  0.0588
 9194SOL    HW139218   2.196   3.534   0.554  0.0335 -0.4356  1.1326
 9194SOL    HW239219   2.139   3.613   0.668 -0.9893 -0.3054  1.0719
 9195SOL     OW39220   4.475   1.223   8.167 -0.0520 -0.0308 -0.3657
 9195SOL    HW139221   4.453   1.276   8.244 -1.1541  0.0158 -0.7185
 9195SOL    HW239222   4.452   1.136   8.200  1.3591  0.0067  0.7142
 9196SOL     OW39223   3.179   0.439  13.822 -0.2543 -0.2504  0.3132
 9196SOL    HW139224   3.274   0.438  13.810 -0.3460  3.3445 -0.5467
 9196SOL    HW239225   3.153   0.530  13.808 -0.8788 -0.5878 -0.7298
 9197SOL     OW39226   3.450   0.295   8.837 -0.4176 -0.4372 -0.1942
 9197SOL    HW139227   3.404   0.221   8.798  0.9026 -1.3437 -0.0430
 9197SOL    HW239228   3.536   0.285   8.796 -1.4045 -1.3241 -2.0332
 9198SOL     OW39229   2.684   2.012  15.777  0.3625  0.1384  0.3435
 9198SOL    HW139230   2.694   1.942  15.712  1.3835  1.3412 -0.8040
 9198SOL    HW239231   2.766   2.060  15.761  1.1914 -1.3831  0.0576
 9199SOL     OW39232   1.260   1.581   5.356  0.0210  0.4972  0.4015
 9199SOL    HW139233   1.242   1.540   5.272 -0.5174  0.4733  0.5271
 9199SOL    HW239234   1.188   1.557   5.414  1.6629 -0.9124  1.8297
 9200SOL     OW39235   1.367   3.132   7.224 -0.1814 -0.3415 -0.3010
 9200SOL    HW139236   1.394   3.051   7.180 -1.8703  0.6214 -3.1094
 9200SOL    HW239237   1.441   3.135   7.284  0.1005  0.9095 -0.7166
 9201SOL     OW39238   4.679   3.273  16.319 -0.1252  0.5791 -0.3366
 9201SOL    HW139239   4.596   3.300  16.357 -1.2402  1.0664 -3.0797
 9201SOL    HW239240   0.005   3.308  16.381  0.6442 -0.3982 -0.5787
 9202SOL     OW39241   1.062   2.831   3.468  0.2238 -0.4505 -0.1182
 9202SOL    HW139242   1.149   2.789   3.464 -0.3333 -1.8180  2.2138
 9202SOL    HW239243   1.074   2.906   3.526  0.5513 -1.7269  1.4671
 9203SOL     OW39244   1.688   4.191  11.932 -0.5389 -0.0554  0.3311
 9203SOL    HW139245   1.691   4.096  11.916 -0.0781 -0.2118  1.3336
 9203SOL    HW239246   1.648   4.236  11.858  2.5838 -1.4302 -2.1928
 9204SOL     OW39247   1.540   1.938   1.351  0.0550  0.0859  0.3422
 9204SOL    HW139248   1.499   1.940   1.437 -0.7134  0.8759 -0.0409
 9204SOL    HW239249   1.464   1.905   1.302 -0.3517 -0.5213  1.3757
 9205SOL     OW39250   3.694   3.410   5.928  0.1445 -0.0028 -0.5364
 9205SOL    HW139251   3.650   3.487   5.892  0.5895  0.8338  0.7144
 9205SOL    HW239252   3.623   3.358   5.966 -0.4561  0.5177 -0.9314
 9206SOL     OW39253   2.270   1.404   3.982  0.1876  0.1796  0.1147
 9206SOL    HW139254   2.299   1.317   3.953  2.1052  0.8865 -0.0821
 9206SOL    HW239255   2.312   1.463   3.919 -0.7882  0.5915 -0.1563
 9207SOL     OW39256   1.308   4.068   4.704 -0.1200  0.0155 -0.5980
 9207SOL    HW139257   1.220   4.085   4.670 -0.4755 -0.7425 -0.0750
 9207SOL    HW239258   1.364   4.114   4.642 -1.9860  2.7938 -0.2298
 9208SOL     OW39259   2.769   1.221   7.202  0.4481  0.2980  0.0658
 9208SOL    HW139260   2.838   1.197   7.263  0.2030 -1.4078 -0.3123
 9208SOL    HW239261   2.769   1.317   7.207 -1.1366  0.2708  0.6236
 9209SOL     OW39262   1.854   2.878  14.371  0.3443  0.0452  0.1569
 9209SOL    HW139263   1.811   2.933  14.436  0.2362  0.0693  0.0641
 9209SOL    HW239264   1.784   2.878  14.306  0.1177  1.4521  0.3990
 9210SOL     OW39265   2.886   4.645   0.570 -0.4698  0.1092 -0.0512
 9210SOL    HW139266   2.803   4.645   0.618  0.0576  0.4764  0.8469
 9210SOL    HW239267   2.904   0.001   0.566  0.5099 -0.0874 -0.1208
 9211SOL     OW39268   2.979   3.473   4.793  0.1602  0.2640  0.3260
 9211SOL    HW139269   2.911   3.517   4.742 -0.7367  0.7976  1.9650
 9211SOL    HW239270   2.976   3.385   4.757 -1.4569  0.0241  1.0270
 9212SOL     OW39271   2.157   0.525  15.420  0.0838 -0.0867 -0.1085
 9212SOL    HW139272   2.222   0.526  15.350 -0.7673 -0.3658 -0.9032
 9212SOL    HW239273   2.132   0.618  15.417  1.2939  0.2493  0.0420
 9213SOL     OW39274   1.043   2.244   6.000 -0.0643 -0.8982 -0.3746
 9213SOL    HW139275   0.958   2.286   5.988  0.4164  0.1902  0.0539
 9213SOL    HW239276   1.093   2.301   5.942 -2.5077  1.4964 -0.1039
 9214SOL     OW39277   4.493   2.453   2.658  0.8729  0.1676 -0.0838
 9214SOL    HW139278   4.425   2.392   2.687 -0.1342  0.8423 -1.0007
 9214SOL    HW239279   4.544   2.401   2.596  1.0508  0.2510 -0.0073
 9215SOL     OW39280   2.695   1.651  12.247  0.6163  0.8351 -0.3178
 9215SOL    HW139281   2.752   1.576  12.236  1.2332  1.3324 -0.5212
 9215SOL    HW239282   2.682   1.650  12.342  1.5550 -0.5445 -0.2103
 9216SOL     OW39283   4.402   1.429   7.142 -0.2278 -0.5722  0.0056
 9216SOL    HW139284   4.435   1.468   7.223 -1.8008  0.7625  0.0008
 9216SOL    HW239285   4.309   1.425   7.165 -0.6949 -0.3525 -1.8807
 9217SOL     OW39286   4.488   4.026   7.332 -0.3586  0.6460  0.3185
 9217SOL    HW139287   4.547   4.083   7.283 -0.5492  2.2908  1.9989
 9217SOL    HW239288   4.510   3.943   7.289  0.4866  1.2016 -0.3107
 9218SOL     OW39289   1.317   0.453   1.612 -0.3726 -0.6128  0.1447
 9218SOL    HW139290   1.303   0.409   1.529 -2.5867 -0.6103  0.5143
 9218SOL    HW239291   1.225   0.472   1.631  0.0163  0.5914  0.8224
 9219SOL     OW39292   2.313   2.719  14.530  0.3543 -0.5627  0.0754
 9219SOL    HW139293   2.301   2.624  14.529  0.8638 -0.6226 -0.5246
 9219SOL    HW239294   2.230   2.738  14.487 -0.8351 -0.4374  2.3898
 9220SOL     OW39295   1.842   3.499   5.409 -0.2559 -0.0519 -0.0115
 9220SOL    HW139296   1.841   3.454   5.325 -2.1128  0.4276 -0.2520
 9220SOL    HW239297   1.765   3.459   5.449  0.1637 -1.7070 -0.8792
 9221SOL     OW39298   1.589   1.262  13.075  0.4272  0.6069  0.1084
 9221SOL    HW139299   1.551   1.327  13.133 -2.4870 -3.3098  2.5783
 9221SOL    HW239300   1.557   1.301  12.994  0.0631 -1.7132 -0.8656
 9222SOL     OW39301   3.114   0.455  13.505  0.1704 -0.0999  0.0648
 9222SOL    HW139302   3.075   0.462  13.591  1.4013 -1.5927  0.7562
 9222SOL    HW239303   3.137   0.543  13.476 -0.7632  0.3413  0.6894
 9223SOL     OW39304   1.398   4.603   7.747 -0.1041 -0.2570 -0.4068
 9223SOL    HW139305   1.473   4.654   7.778 -0.7534 -0.0359  0.7782
 9223SOL    HW239306   1.441   4.518   7.739  1.4003  0.2586  2.1098
 9224SOL     OW39307   1.934   0.365   9.336  0.3966  0.2536  0.3717
 9224SOL    HW139308   1.963   0.275   9.347 -0.4607  0.0491  0.9586
 9224SOL    HW239309   1.841   0.348   9.347  0.1583  0.8875 -0.6421
 9225SOL     OW39310   4.188   3.961   7.985 -0.1299  0.1557  0.0837
 9225SOL    HW139311   4.158   3.874   7.958 -0.1415  0.0374  0.4700
 9225SOL    HW239312   4.281   3.940   7.977  0.2918  2.5466 -0.9858
 9226SOL     OW39313   1.797   4.040   4.760 -0.6584  0.6677  0.0604
 9226SOL    HW139314   1.733   3.989   4.810  1.9581 -0.8088  1.8733
 9226SOL    HW239315   1.781   4.131   4.787 -1.0661  1.1269 -1.7218
 9227SOL     OW39316   1.917   2.931   1.906  1.1055 -0.0080  0.2623
 9227SOL    HW139317   1.918   3.026   1.891 -1.0921 -0.0532 -0.2127
 9227SOL    HW239318   1.983   2.924   1.975  1.1502  2.9862  0.5222
 9228SOL     OW39319   0.524   2.180   4.201  0.6127  0.0463 -0.3959
 9228SOL    HW139320   0.565   2.128   4.132 -1.7508 -2.7706  0.3485
 9228SOL    HW239321   0.460   2.210   4.136 -0.5508  1.3830  1.3662
 9229SOL     OW39322   0.350   1.796   9.357  0.5013 -0.1980  0.1266
 9229SOL    HW139323   0.438   1.806   9.391  0.7111 -0.9493 -0.1769
 9229SOL    HW239324   0.293   1.828   9.426  0.2636  0.3823 -0.3372
 9230SOL     OW39325   4.729   0.938   4.060 -0.8095  0.1056  0.8647
 9230SOL    HW139326   0.085   0.924   4.047 -1.0996 -0.0908 -0.9928
 9230SOL    HW239327   4.720   0.902   4.148 -1.2555 -2.2984 -0.1855
 9231SOL     OW39328   4.170   1.269   6.036 -0.0732 -0.4348  0.3216
 9231SOL    HW139329   4.157   1.179   6.065  0.2338 -0.7993 -0.6695
 9231SOL    HW239330   4.087   1.278   5.989  0.0404 -0.3885  0.1313
 9232SOL     OW39331   3.036   0.097   9.336  0.6228  0.1727 -0.3947
 9232SOL    HW139332   3.080   0.057   9.411  0.0416 -0.9490 -0.6457
 9232SOL    HW239333   3.095   0.172   9.328 -2.6331  2.6938 -0.7692
 9233SOL     OW39334   4.595   0.682   7.536  0.7673 -0.0231  0.1169
 9233SOL    HW139335   4.551   0.709   7.455  0.5409  1.4450  0.7294
 9233SOL    HW239336   4.629   0.593   7.525  0.2374 -0.2038 -0.1150
 9234SOL     OW39337   2.213   1.062   3.833  0.2830  0.0298 -0.8653
 9234SOL    HW139338   2.189   0.977   3.796 -0.8308  0.3083 -0.7872
 9234SOL    HW239339   2.131   1.111   3.826  0.1617 -0.2365 -1.2973
 9235SOL     OW39340   2.630   3.121   5.981 -0.1972  0.2280  0.3420
 9235SOL    HW139341   2.686   3.044   5.969 -0.9997 -0.5574  1.6449
 9235SOL    HW239342   2.685   3.191   5.946 -2.6368  1.8762 -0.2085
 9236SOL     OW39343   4.076   3.178  10.176  0.5115 -0.1467  0.0855
 9236SOL    HW139344   4.060   3.084  10.179  0.1446 -0.0666  0.7341
 9236SOL    HW239345   4.092   3.195  10.269 -0.4869 -2.1545  0.6116
 9237SOL     OW39346   1.255   4.591   8.752 -0.2681 -0.3838 -0.4864
 9237SOL    HW139347   1.256   4.495   8.751 -2.5731 -0.3836 -1.5633
 9237SOL    HW239348   1.294   4.601   8.665 -0.0183  0.6539 -0.2527
 9238SOL     OW39349   1.280   3.895   2.639 -0.7980  0.0588  0.5026
 9238SOL    HW139350   1.218   3.914   2.709 -0.0249 -2.6272  1.8902
 9238SOL    HW239351   1.291   3.972   2.583  0.5272  0.4808  1.3470
 9239SOL     OW39352   3.106   3.247   0.050 -0.1097  0.4996  0.0016
 9239SOL    HW139353   3.183   3.279   0.096 -1.2987  2.4259  0.6972
 9239SOL    HW239354   3.111   3.153   0.067 -0.8757  0.7313  1.4735
 9240SOL     OW39355   1.124   0.437  15.458 -0.1743  0.1831  0.0777
 9240SOL    HW139356   1.100   0.344  15.456 -1.1354  0.4420 -0.1481
 9240SOL    HW239357   1.176   0.445  15.378 -0.4623 -1.8636 -0.3209
 9241SOL     OW39358   0.334   2.083   8.270  0.4135 -0.4397  0.1257
 9241SOL    HW139359   0.301   2.112   8.355  1.2094  2.3198 -0.5184
 9241SOL    HW239360   0.317   2.156   8.211 -0.3716  0.0446  0.9503
 9242SOL     OW39361   1.092   2.424   4.209 -0.3058 -0.4270  0.5570
 9242SOL    HW139362   1.076   2.362   4.280 -0.0446 -0.3554  0.6783
 9242SOL    HW239363   1.014   2.480   4.206 -0.0545  0.0385  2.2740
 9243SOL     OW39364   3.666   1.862  15.301 -0.2004 -0.0809  0.2956
 9243SOL    HW139365   3.610   1.804  15.353  1.3832  0.0697  2.1641
 9243SOL    HW239366   3.655   1.818  15.217 -0.5053 -2.0402  1.3564
 9244SOL     OW39367   3.543   0.599   2.180 -0.2239 -0.0686  0.4627
 9244SOL    HW139368   3.629   0.556   2.186 -0.2976 -0.4058 -0.7995
 9244SOL    HW239369   3.577   0.677   2.137  0.2780 -0.8137 -0.5197
 9245SOL     OW39370   2.821   2.104   5.928 -0.0383 -0.1478 -0.1773
 9245SOL    HW139371   2.755   2.038   5.904  1.9467 -1.5496 -1.8108
 9245SOL    HW239372   2.895   2.056   5.966  0.8314  2.8404  1.8350
 9246SOL     OW39373   4.018   2.543   2.772 -0.1616 -0.2366  0.3519
 9246SOL    HW139374   3.937   2.573   2.813 -1.0922 -1.6719 -0.4265
 9246SOL    HW239375   4.065   2.513   2.850  1.8783  0.5900 -0.5535
 9247SOL     OW39376   3.650   1.537   5.436 -0.3078 -0.3457 -0.1120
 9247SOL    HW139377   3.604   1.472   5.384 -0.6901  1.1539 -1.6274
 9247SOL    HW239378   3.588   1.569   5.502  1.0397 -0.4937  1.2464
 9248SOL     OW39379   4.356   3.473   8.039 -0.2279  0.7490  0.6567
 9248SOL    HW139380   4.372   3.384   8.070  0.2751  1.0597  1.2843
 9248SOL    HW239381   4.447   3.501   8.030 -0.0950  0.0845 -0.1206
 9249SOL     OW39382   3.470   4.620   5.682 -0.1091  0.7185 -0.1739
 9249SOL    HW139383   3.441   4.700   5.726 -0.4971  1.7348 -2.2571
 9249SOL    HW239384   3.502   4.662   5.602  2.6343 -1.0158  0.0084
 9250SOL     OW39385   3.651   3.991  13.496  0.3337 -0.1874 -0.3433
 9250SOL    HW139386   3.611   4.078  13.499 -1.7434 -1.1221 -0.2872
 9250SOL    HW239387   3.579   3.941  13.457  1.1312 -2.0112  0.4952
 9251SOL     OW39388   0.109   3.914   8.796  0.2588 -0.0084  0.0444
 9251SOL    HW139389   0.164   3.910   8.874  0.6002  1.5854 -0.1224
 9251SOL    HW239390   0.114   4.009   8.783 -2.5960 -0.1897 -2.4111
 9252SOL     OW39391   0.380   4.529   2.495  0.8728  0.1186  0.0465
 9252SOL    HW139392   0.412   4.617   2.515 -1.5399  0.9258  0.4340
 9252SOL    HW239393   0.428   4.484   2.564  0.4163 -1.1919 -0.5079
 9253SOL     OW39394   2.810   3.262   9.942 -0.4270  0.0268 -0.0072
 9253SOL    HW139395   2.770   3.254   9.855  2.4879  0.8375 -1.4210
 9253SOL    HW239396   2.768   3.332   9.991 -0.6860  0.4074 -0.7671
 9254SOL     OW39397   4.689   1.032   5.264 -0.1705 -0.3811 -0.1003
 9254SOL    HW139398   4.688   1.078   5.348 -2.4397  0.4079 -0.5372
 9254SOL    HW239399   4.703   0.946   5.303 -3.9756 -0.5088  0.9861
 9255SOL     OW39400   2.617   2.607   8.678  0.5315  0.4908  0.2767
 9255SOL    HW139401   2.536   2.658   8.674  1.0529  1.1671 -1.5081
 9255SOL    HW239402   2.623   2.588   8.772  0.3388 -1.2478 -0.0782
 9256SOL     OW39403   0.166   1.355  12.018 -0.4133 -0.4480  0.0161
 9256SOL    HW139404   0.198   1.392  11.936  0.4517  0.0317  0.5745
 9256SOL    HW239405   0.160   1.260  12.005  0.7985 -0.5836  0.4454
 9257SOL     OW39406   2.559   3.657   3.809  0.5472  0.5388 -0.3143
 9257SOL    HW139407   2.471   3.688   3.788  0.0800 -0.1096  0.6758
 9257SOL    HW239408   2.544   3.571   3.848  0.9178  0.4888 -0.2802
 9258SOL     OW39409   1.842   0.767   8.443  0.7522 -0.3632 -0.7546
 9258SOL    HW139410   1.898   0.770   8.521  1.3037 -0.9093 -1.1286
 9258SOL    HW239411   1.858   0.857   8.413 -0.3456 -0.5735 -1.9648
 9259SOL     OW39412   3.004   2.389   2.657  0.4290 -0.0900 -0.6003
 9259SOL    HW139413   2.967   2.326   2.719 -2.9336 -0.3379 -2.8659
 9259SOL    HW239414   2.937   2.388   2.588  0.4210  0.3183 -0.6008
 9260SOL     OW39415   0.295   2.182   3.699  0.6083 -0.0820 -0.2408
 9260SOL    HW139416   0.364   2.119   3.680  1.0423 -0.1599  1.6160
 9260SOL    HW239417   0.310   2.256   3.639  1.9259  1.7039  2.2979
 9261SOL     OW39418   2.109   2.532   4.813 -0.4693  0.3795  0.8526
 9261SOL    HW139419   2.027   2.530   4.764  0.2567 -0.0534 -0.3425
 9261SOL    HW239420   2.078   2.518   4.902 -0.1549  0.4132  0.9659
 9262SOL     OW39421   1.372   4.471   4.121 -0.0477  0.0244 -0.0379
 9262SOL    HW139422   1.311   4.500   4.052 -0.3338 -0.3644  0.0562
 9262SOL    HW239423   1.408   4.557   4.143  0.5587 -0.1387 -0.3920
 9263SOL     OW39424   4.381   0.271  10.831 -0.1216 -0.0793  0.3925
 9263SOL    HW139425   4.287   0.288  10.829  0.1886  1.5041 -0.4501
 9263SOL    HW239426   4.416   0.347  10.784 -0.0312 -1.2091 -1.3615
 9264SOL     OW39427   4.115   1.610  11.701  0.0884 -0.6636 -0.2377
 9264SOL    HW139428   4.040   1.648  11.655 -1.1143 -1.9819  0.6272
 9264SOL    HW239429   4.181   1.676  11.679  0.4956 -1.2597 -0.8241
 9265SOL     OW39430   3.378   3.478   6.695  0.6627 -0.8574  0.0889
 9265SOL    HW139431   3.468   3.468   6.664  1.1907 -1.4961  1.8649
 9265SOL    HW239432   3.377   3.435   6.780 -0.6692  1.2915  1.1554
 9266SOL     OW39433   0.438   4.624   8.376 -0.4493 -0.3461 -0.4404
 9266SOL    HW139434   0.418   4.662   8.462 -1.1366  1.2384 -1.3105
 9266SOL    HW239435   0.484   4.695   8.333 -1.0359  0.0175 -0.4641
 9267SOL     OW39436   0.979   0.831   5.656 -0.4434 -0.0514  0.1736
 9267SOL    HW139437   1.000   0.899   5.720  1.0792 -1.0345  0.7236
 9267SOL    HW239438   1.054   0.773   5.665 -1.1021 -0.6740  1.6063
 9268SOL     OW39439   1.326   1.037  14.078  0.0525  0.3450  0.2481
 9268SOL    HW139440   1.251   1.095  14.084 -0.3805 -0.0902 -0.8986
 9268SOL    HW239441   1.334   1.020  13.984 -0.6430  0.4496  0.1775
 9269SOL     OW39442   4.330   3.452  16.113  0.1640 -0.3981  0.2621
 9269SOL    HW139443   4.257   3.403  16.151  0.1721 -0.7392 -0.1716
 9269SOL    HW239444   4.353   3.382  16.052  2.9991 -0.7351  1.7254
 9270SOL     OW39445   1.554   2.905   7.974  0.1667 -0.0248  0.5444
 9270SOL    HW139446   1.612   2.840   7.935  0.2476  1.2875 -1.5087
 9270SOL    HW239447   1.534   2.866   8.059  0.5049 -2.9875 -0.7702
 9271SOL     OW39448   0.367   0.582  14.552 -0.0468 -0.0107 -0.5492
 9271SOL    HW139449   0.283   0.622  14.530 -0.0042  1.3344  1.7796
 9271SOL    HW239450   0.354   0.544  14.639  2.3609 -1.0953 -0.6820
 9272SOL     OW39451   3.747   2.007   4.518 -0.0750 -0.2050 -0.1794
 9272SOL    HW139452   3.704   2.084   4.554  0.9539 -0.4478  1.5383
 9272SOL    HW239453   3.811   1.988   4.586 -1.1455  0.3672  0.9819
 9273SOL     OW39454   0.021   3.041  14.706  0.2748 -0.0430 -0.3924
 9273SOL    HW139455   0.026   3.094  14.626 -1.1627 -1.0628 -1.1442
 9273SOL    HW239456   4.673   3.068  14.738  1.8698  0.9025  3.1143
 9274SOL     OW39457   0.130   4.134   4.843 -0.1445 -0.1568 -0.0443
 9274SOL    HW139458   0.046   4.162   4.807  0.2595  1.4960  0.3360
 9274SOL    HW239459   0.147   4.052   4.795  2.5428  0.1982  0.3156
 9275SOL     OW39460   3.821   3.901  17.595 -0.1717 -0.2903 -0.0498
 9275SOL    HW139461   3.809   3.980  17.543 -1.0151 -0.6684 -0.4263
 9275SOL    HW239462   3.869   3.922  17.675 -1.3637 -0.0074  0.5888
 9276SOL     OW39463   2.358   3.675   0.293  0.0235 -0.1396 -0.2375
 9276SOL    HW139464   2.405   3.756   0.276  1.0960 -1.1070 -1.8323
 9276SOL    HW239465   2.374   3.655   0.385  3.7407 -1.7715 -1.2597
 9277SOL     OW39466   2.894   2.255   1.847  0.1853  0.0950  0.1982
 9277SOL    HW139467   2.968   2.245   1.906 -0.4383  0.0889  0.9692
 9277SOL    HW239468   2.856   2.167   1.850 -0.0027  0.1926  0.6295
 9278SOL     OW39469   4.727   0.167   1.569  0.1732  0.3060  0.0166
 9278SOL    HW139470   4.668   0.155   1.494 -0.6041 -3.3151  1.1938
 9278SOL    HW239471   4.689   0.235   1.624 -0.8967 -0.1406 -0.1686
 9279SOL     OW39472   1.463   3.162  14.887 -0.0011 -0.3082 -0.2897
 9279SOL    HW139473   1.450   3.183  14.794  3.2047  0.1487 -0.6205
 9279SOL    HW239474   1.510   3.236  14.925  0.5630 -0.5501 -0.5194
 9280SOL     OW39475   3.689   3.694  13.482  0.9052 -0.6560 -0.2211
 9280SOL    HW139476   3.714   3.745  13.559 -2.3353 -0.0719  0.4436
 9280SOL    HW239477   3.619   3.749  13.446  1.4793  0.0533 -0.2472
 9281SOL     OW39478   2.143   0.241   8.031  0.5295 -0.2261  0.6556
 9281SOL    HW139479   2.097   0.287   8.101  0.2912  0.8574 -0.2279
 9281SOL    HW239480   2.225   0.290   8.042  1.0527 -1.2222  1.2643
 9282SOL     OW39481   3.715   1.395   1.715 -0.3429  0.5398 -0.0754
 9282SOL    HW139482   3.696   1.305   1.689  0.1653  1.2533 -2.8798
 9282SOL    HW239483   3.630   1.411   1.756 -0.9739 -1.0180 -0.7812
 9283SOL     OW39484   0.045   1.948   3.093 -0.1086 -0.6243  0.5281
 9283SOL    HW139485   0.062   1.861   3.131 -0.0832 -1.3096 -1.0259
 9283SOL    HW239486   0.094   1.942   3.011 -0.8923 -0.6152  0.0616
 9284SOL     OW39487   4.454   4.367   5.843  0.2347  0.2526 -0.0755
 9284SOL    HW139488   4.492   4.452   5.867 -0.4307  0.4571  0.2481
 9284SOL    HW239489   4.529   4.336   5.791  0.6551  1.9255 -0.4704
 9285SOL     OW39490   2.229   4.135  12.908  0.1985  0.9163  0.0434
 9285SOL    HW139491   2.219   4.206  12.971  0.8533  0.5383  0.5762
 9285SOL    HW239492   2.311   4.148  12.862 -0.6121  2.0872 -1.0693
 9286SOL     OW39493   0.077   0.791  16.277  0.1841  0.2490  0.3064
 9286SOL    HW139494   0.133   0.757  16.347  0.7989 -1.1683 -0.8847
 9286SOL    HW239495   0.149   0.813  16.218 -0.1753 -0.7661 -0.5130
 9287SOL     OW39496   4.332   1.393   2.239 -0.0889 -0.4330 -0.2144
 9287SOL    HW139497   4.245   1.355   2.249 -0.5202  0.5428 -0.2367
 9287SOL    HW239498   4.378   1.309   2.239  0.0667 -0.3812  3.5162
 9288SOL     OW39499   1.821   0.386   3.738  0.2130  0.0951  0.3114
 9288SOL    HW139500   1.762   0.396   3.663  0.9685 -1.0857 -0.4481
 9288SOL    HW239501   1.757   0.357   3.803  0.1042 -0.9173 -0.2414
 9289SOL     OW39502   3.818   1.352  16.905  0.1433 -0.1602 -0.3925
 9289SOL    HW139503   3.823   1.440  16.942 -1.1864 -0.0241 -0.5288
 9289SOL    HW239504   3.907   1.324  16.886  0.3685  1.3217 -1.5283
 9290SOL     OW39505   2.396   0.208  16.948 -0.4625  0.3393  0.4110
 9290SOL    HW139506   2.354   0.159  17.019  0.8051  1.0986  1.6981
 9290SOL    HW239507   2.374   0.299  16.965 -1.1478  0.5285 -1.4938
 9291SOL     OW39508   0.891   3.181   9.417  0.5017 -0.3763  0.1682
 9291SOL    HW139509   0.892   3.245   9.488  1.4746 -1.0547  0.7912
 9291SOL    HW239510   0.911   3.099   9.463 -0.2763 -1.2306 -1.0171
 9292SOL     OW39511   3.404   2.267   8.458 -0.1396 -0.4781 -0.7315
 9292SOL    HW139512   3.315   2.291   8.432 -0.4317 -2.9903 -2.0831
 9292SOL    HW239513   3.402   2.215   8.539  0.1075  1.6791  0.6549
 9293SOL     OW39514   1.451   3.442   8.429  0.4033 -0.0587  0.4845
 9293SOL    HW139515   1.394   3.375   8.392 -1.2696  1.8977 -0.4989
 9293SOL    HW239516   1.524   3.391   8.466  0.0469 -1.4067 -0.6908
 9294SOL     OW39517   4.335   0.574  16.084  0.3999 -0.2375  0.5099
 9294SOL    HW139518   4.352   0.481  16.101  1.3780 -0.2951 -0.7754
 9294SOL    HW239519   4.261   0.594  16.141 -0.4886 -0.4400 -0.5605
 9295SOL     OW39520   4.398   2.589  17.231  0.3250 -0.5524  0.0114
 9295SOL    HW139521   4.377   2.678  17.261 -0.8365 -1.4518  1.8510
 9295SOL    HW239522   4.435   2.614  17.146 -0.8245 -0.0244 -0.3308
 9296SOL     OW39523   4.724   3.240  14.511 -0.0331  0.0472  0.1282
 9296SOL    HW139524   4.726   3.253  14.417 -1.0136 -0.5086  0.0275
 9296SOL    HW239525   4.646   3.294  14.522  1.4881  2.2142  0.0627
 9297SOL     OW39526   2.756   3.354   6.184 -0.1524 -0.1004 -0.3762
 9297SOL    HW139527   2.675   3.312   6.213  0.5382 -0.1391  1.5450
 9297SOL    HW239528   2.742   3.443   6.217 -0.5417 -0.2125 -0.2397
 9298SOL     OW39529   0.313   4.681   9.951  0.1353  0.5889 -0.0221
 9298SOL    HW139530   0.231   4.680   9.901 -0.4846  2.7515  0.9471
 9298SOL    HW239531   0.305   4.593   9.989 -0.0753  0.7659  0.3359
 9299SOL     OW39532   1.312   4.388   2.574 -0.3609 -0.1226 -0.1729
 9299SOL    HW139533   1.393   4.430   2.603  1.2276 -3.6813  0.5451
 9299SOL    HW239534   1.245   4.450   2.603 -1.3158 -1.9194  1.4958
 9300SOL     OW39535   0.055   0.270   7.865  0.5389  0.3894 -0.0884
 9300SOL    HW139536   0.080   0.357   7.896  0.5850  0.7205 -1.0341
 9300SOL    HW239537   0.117   0.217   7.914 -1.1887 -0.9654  0.6442
 9301SOL     OW39538   0.917   0.843  11.018  0.0862 -0.5485  0.0017
 9301SOL    HW139539   0.886   0.800  10.938 -2.4511 -1.7906  1.6153
 9301SOL    HW239540   1.007   0.856  10.989 -0.4341  0.5806 -1.0791
 9302SOL     OW39541   1.731   0.065   1.805  0.0198 -0.1251  0.5857
 9302SOL    HW139542   1.822   0.092   1.788 -0.0481 -0.8136 -0.8390
 9302SOL    HW239543   1.697   0.143   1.849 -1.4853 -0.5667  0.2092
 9303SOL     OW39544   2.157   1.875   3.458 -0.3873  0.2084  0.0421
 9303SOL    HW139545   2.175   1.962   3.424 -2.5771 -0.7905 -3.5489
 9303SOL    HW239546   2.116   1.905   3.540  0.7042  1.0585  0.2787
 9304SOL     OW39547   2.221   1.064   8.105  0.6157 -0.3132 -0.5198
 9304SOL    HW139548   2.308   1.046   8.069 -0.7466 -5.4029 -1.3361
 9304SOL    HW239549   2.161   1.027   8.040  1.5545 -1.7563 -0.5751
 9305SOL     OW39550   4.405   2.272   4.518 -0.2518  0.0059  0.3394
 9305SOL    HW139551   4.400   2.367   4.531  2.0859 -0.4227  4.0592
 9305SOL    HW239552   4.386   2.238   4.605 -1.1962 -1.2887 -0.3777
 9306SOL     OW39553   2.632   4.137  17.582  0.2502 -0.2014  0.3161
 9306SOL    HW139554   2.646   4.083  17.504  0.7604 -1.2037  1.0985
 9306SOL    HW239555   2.705   4.108  17.638 -1.3070 -0.3311  2.2720
 9307SOL     OW39556   4.601   2.095   6.311 -0.3237  0.2059 -0.4755
 9307SOL    HW139557   4.552   2.103   6.230 -1.2423  0.7436  0.1319
 9307SOL    HW239558   4.626   2.185   6.329 -0.9583  0.5225 -1.1938
 9308SOL     OW39559   0.158   1.511   3.411 -0.4493  0.3537 -0.3860
 9308SOL    HW139560   0.079   1.518   3.464 -0.3603 -0.4596 -0.1481
 9308SOL    HW239561   0.224   1.525   3.480 -0.5125 -2.3409  0.2169
 9309SOL     OW39562   3.081   4.478   1.634  0.1733  0.7944 -0.4120
 9309SOL    HW139563   3.045   4.484   1.722  2.7877  1.2949  0.6243
 9309SOL    HW239564   3.104   4.385   1.631 -2.6055  0.0403  2.3642
 9310SOL     OW39565   1.290   1.125   5.818 -0.3762  0.2357 -0.4182
 9310SOL    HW139566   1.352   1.187   5.779  0.3029 -1.2973 -1.7840
 9310SOL    HW239567   1.339   1.108   5.898 -0.2977 -0.0103 -0.5173
 9311SOL     OW39568   4.478   3.433  16.929 -0.2319  0.0178  0.1886
 9311SOL    HW139569   4.541   3.384  16.876 -1.2890 -0.5795 -0.5232
 9311SOL    HW239570   4.397   3.397  16.892  2.0585 -3.3191 -1.5629
 9312SOL     OW39571   4.616   2.923   4.988 -0.2885  0.2771 -0.1539
 9312SOL    HW139572   4.555   2.947   5.058  0.3020 -1.9218  1.1117
 9312SOL    HW239573   4.634   2.834   5.019 -0.6947 -0.3158 -1.6518
 9313SOL     OW39574   3.456   0.322  12.017  0.3145 -0.2110  0.2488
 9313SOL    HW139575   3.393   0.260  12.054 -0.5609  0.4178 -0.1965
 9313SOL    HW239576   3.436   0.389  12.083  1.4926  1.8760 -1.5123
 9314SOL     OW39577   0.551   2.971  14.159  0.2195  0.6451 -0.5029
 9314SOL    HW139578   0.588   2.889  14.125 -1.1195 -0.8129  1.5308
 9314SOL    HW239579   0.623   3.006  14.211 -1.7522  1.7861  1.4631
 9315SOL     OW39580   3.585   2.778   2.326  0.0530 -0.4649  0.2490
 9315SOL    HW139581   3.639   2.744   2.255 -2.5836  1.3810 -2.6511
 9315SOL    HW239582   3.645   2.827   2.383 -0.1670  0.7099 -0.5291
 9316SOL     OW39583   4.319   0.686   0.861 -0.0448  0.6270  0.5355
 9316SOL    HW139584   4.386   0.632   0.905 -0.9397 -1.1893 -0.3183
 9316SOL    HW239585   4.290   0.730   0.941 -2.3256 -0.4185  0.2580
 9317SOL     OW39586   1.614   0.626   5.623  0.2671 -0.1479 -0.7557
 9317SOL    HW139587   1.707   0.636   5.601  0.5814 -0.9431  0.2439
 9317SOL    HW239588   1.616   0.695   5.689  0.1584 -1.1155  0.2555
 9318SOL     OW39589   4.540   4.511   9.550  0.0534  0.5648  0.2112
 9318SOL    HW139590   4.539   4.573   9.477  0.1538  1.6994  1.1680
 9318SOL    HW239591   4.498   4.430   9.519  2.0596 -0.5836  0.4806
 9319SOL     OW39592   3.931   1.236   9.328  0.2401  0.3433  0.5439
 9319SOL    HW139593   3.867   1.183   9.375  1.2659 -0.3798  1.1243
 9319SOL    HW239594   3.950   1.294   9.401 -1.3880  2.2187 -0.5145
 9320SOL     OW39595   1.421   2.681   8.158 -0.0813  0.0381  0.2841
 9320SOL    HW139596   1.469   2.661   8.239  1.7157  0.4433 -0.6783
 9320SOL    HW239597   1.466   2.616   8.104  1.5986 -0.1508  1.9013
 9321SOL     OW39598   2.820   2.073  17.583 -0.0267  0.1609 -0.8600
 9321SOL    HW139599   2.852   2.121  17.507 -0.4401 -0.5487 -1.4907
 9321SOL    HW239600   2.780   2.005  17.529  0.3499 -2.5236  2.2733
 9322SOL     OW39601   2.314   3.308   6.325 -0.3341  0.6450  0.2383
 9322SOL    HW139602   2.387   3.340   6.273 -0.8201  1.4451  0.0539
 9322SOL    HW239603   2.263   3.262   6.258 -1.9962  2.9866 -0.1083
 9323SOL     OW39604   3.040   0.428  11.847  0.0199  0.2645  0.1793
 9323SOL    HW139605   3.113   0.484  11.821 -0.4610  0.2811 -1.1293
 9323SOL    HW239606   3.041   0.438  11.943  1.3961  0.4990  0.1374
 9324SOL     OW39607   1.164   4.150   5.002  0.1268  0.0821 -0.3294
 9324SOL    HW139608   1.187   4.242   4.993 -1.5722  0.6499  1.0652
 9324SOL    HW239609   1.070   4.164   4.997  0.0459 -0.8293 -1.4002
 9325SOL     OW39610   3.748   0.056   5.764  0.0724 -0.0979  0.1238
 9325SOL    HW139611   3.783   0.054   5.853 -0.5393  2.9904  0.4107
 9325SOL    HW239612   3.746   4.702   5.736  0.5013 -0.1112  0.1427
 9326SOL     OW39613   1.745   0.117  17.589 -0.4190 -0.6077 -0.0107
 9326SOL    HW139614   1.787   0.075  17.664 -3.6928 -0.8767  1.7069
 9326SOL    HW239615   1.695   0.044  17.552 -1.0241 -0.9016  1.4074
 9327SOL     OW39616   1.913   1.679  11.498 -0.4006  0.2159  0.5289
 9327SOL    HW139617   1.856   1.699  11.423  2.2698  3.0135 -0.7510
 9327SOL    HW239618   1.958   1.762  11.512 -1.7505  1.1653 -0.7385
 9328SOL     OW39619   1.157   4.698   0.334  0.7342 -0.0220  0.2206
 9328SOL    HW139620   1.189   0.050   0.326 -1.4723  0.4168 -3.4618
 9328SOL    HW239621   1.241   4.653   0.343  0.3743  0.2665  4.8384
 9329SOL     OW39622   1.656   1.091   7.731  0.6681 -0.0607 -0.1994
 9329SOL    HW139623   1.710   1.085   7.653  0.1696  0.1582 -0.5614
 9329SOL    HW239624   1.571   1.110   7.692  0.7257 -0.7521 -0.6489
 9330SOL     OW39625   4.131   1.650   4.473  0.2409  0.1222 -0.0925
 9330SOL    HW139626   4.190   1.714   4.512  0.0140  1.3382 -1.7188
 9330SOL    HW239627   4.111   1.683   4.385  1.3337 -0.7706 -0.6861
 9331SOL     OW39628   2.336   4.454   5.952  0.2205 -1.1096  0.0989
 9331SOL    HW139629   2.413   4.408   5.919  0.9861  1.4122 -1.5620
 9331SOL    HW239630   2.367   4.544   5.958 -0.0971 -0.9393 -0.8555
 9332SOL     OW39631   0.588   4.679  14.156 -0.7040 -0.4579  0.3977
 9332SOL    HW139632   0.617   4.638  14.074  0.4066  1.5849 -0.2381
 9332SOL    HW239633   0.494   4.675  14.140 -0.8376  0.9082  0.8475
 9333SOL     OW39634   4.163   1.402  12.063  0.4443 -0.0605 -0.0356
 9333SOL    HW139635   4.237   1.380  12.120 -1.5757  1.2678  3.0997
 9333SOL    HW239636   4.089   1.383  12.121  0.8100 -1.6037 -0.0705
 9334SOL     OW39637   0.339   1.691  12.849 -0.5417 -0.0573  0.3933
 9334SOL    HW139638   0.353   1.620  12.787 -1.5802 -1.5611  1.8654
 9334SOL    HW239639   0.404   1.671  12.916  0.4186  1.5359 -0.0644
 9335SOL     OW39640   1.655   1.967   4.324 -0.1015  0.0554  0.3043
 9335SOL    HW139641   1.744   1.934   4.306  0.0594  0.5072  0.2670
 9335SOL    HW239642   1.628   1.966   4.232  0.4043  2.2174  0.1342
 9336SOL     OW39643   4.562   3.887  16.367 -0.2413 -0.1631  0.2616
 9336SOL    HW139644   4.573   3.868  16.460 -0.7883 -0.1808  0.3216
 9336SOL    HW239645   4.559   3.797  16.336  0.3237 -0.3612  0.7779
 9337SOL     OW39646   4.362   2.440   5.556  0.5479  0.9391  0.1298
 9337SOL    HW139647   4.456   2.450   5.541  0.5690 -1.1590 -1.2244
 9337SOL    HW239648   4.343   2.528   5.589  1.0255  1.4687 -1.0163
 9338SOL     OW39649   2.082   0.437   6.175 -0.2313 -0.5487  0.1557
 9338SOL    HW139650   2.133   0.358   6.191 -1.4010 -1.8396 -2.3931
 9338SOL    HW239651   2.099   0.494   6.249 -0.6414 -1.3818  0.8877
 9339SOL     OW39652   0.513   1.144  13.420  0.1670 -0.8375 -0.3300
 9339SOL    HW139653   0.565   1.220  13.446  0.1682 -0.6690 -0.8279
 9339SOL    HW239654   0.467   1.136  13.504 -1.3453 -1.2221 -1.2102
 9340SOL     OW39655   1.483   0.901   5.041 -0.2558  0.1653 -0.5347
 9340SOL    HW139656   1.513   0.841   4.972 -1.5849 -0.1393 -0.8514
 9340SOL    HW239657   1.551   0.968   5.034 -0.9081  0.9693  0.9782
 9341SOL     OW39658   2.674   3.420   1.991 -0.5243  0.3957  0.0668
 9341SOL    HW139659   2.654   3.458   1.905 -0.4499 -1.6442 -0.8547
 9341SOL    HW239660   2.740   3.358   1.959 -3.6944 -2.2839 -1.2956
 9342SOL     OW39661   1.639   2.422  14.494 -0.5747  0.4203 -0.2239
 9342SOL    HW139662   1.723   2.394  14.457 -0.6776  0.6529 -0.6419
 9342SOL    HW239663   1.579   2.351  14.471  0.6404 -1.3959  2.3097
 9343SOL     OW39664   3.995   1.753   9.279 -0.5841  0.1459 -0.3012
 9343SOL    HW139665   4.067   1.812   9.299 -1.1879  0.1173  1.9725
 9343SOL    HW239666   3.943   1.814   9.226 -1.5466  0.5562  1.1140
 9344SOL     OW39667   0.994   2.371   8.363  0.2814  0.0463 -0.1338
 9344SOL    HW139668   1.064   2.431   8.337  0.2198  0.2765  0.2433
 9344SOL    HW239669   1.019   2.351   8.453 -0.0887  2.7343  0.5695
 9345SOL     OW39670   4.538   0.634   7.798  0.4514 -1.2282 -0.4673
 9345SOL    HW139671   4.611   0.578   7.825 -1.0043 -1.5448  2.7400
 9345SOL    HW239672   4.562   0.649   7.706 -0.8592  0.7433 -0.4774
 9346SOL     OW39673   3.020   0.037   8.604 -0.0316  0.5163  0.7323
 9346SOL    HW139674   3.009   0.122   8.560 -1.7391  0.3783  0.8937
 9346SOL    HW239675   3.109   0.014   8.576  0.5857  1.2166  2.1154
 9347SOL     OW39676   1.993   2.964   6.692 -0.3677 -0.4079  0.2783
 9347SOL    HW139677   2.053   2.902   6.651  1.2995  1.7916 -0.6362
 9347SOL    HW239678   1.996   3.033   6.626 -0.8009 -0.2725  0.4001
 9348SOL     OW39679   2.538   4.006   1.626 -0.4194  0.0595 -0.0119
 9348SOL    HW139680   2.573   3.958   1.701  0.2383  0.5002 -0.0418
 9348SOL    HW239681   2.589   4.086   1.616  0.8968 -0.4001  3.2535
 9349SOL     OW39682   0.326   2.645   3.099 -0.4847  0.3087  0.3114
 9349SOL    HW139683   0.294   2.735   3.096 -3.2609 -0.7619 -3.5768
 9349SOL    HW239684   0.417   2.646   3.070  0.0907 -0.5374  2.0895
 9350SOL     OW39685   1.973   0.191  14.070 -0.0297 -0.8707 -0.1355
 9350SOL    HW139686   2.039   0.196  14.139 -0.1513  2.8445 -0.2723
 9350SOL    HW239687   1.920   0.267  14.095  1.5461  0.5983 -1.2476
 9351SOL     OW39688   4.391   2.793   3.305  0.1105  0.1617  0.2695
 9351SOL    HW139689   4.368   2.701   3.293 -0.1506  0.2889 -0.2042
 9351SOL    HW239690   4.322   2.843   3.261 -3.0118 -2.4596  2.1645
 9352SOL     OW39691   1.139   4.530   6.537 -0.0875  0.0629 -0.1081
 9352SOL    HW139692   1.228   4.564   6.540 -0.5720  1.1955  1.3888
 9352SOL    HW239693   1.105   4.560   6.622  1.4182 -0.1004  0.5549
 9353SOL     OW39694   3.416   1.916   4.731 -0.2529 -0.4632  0.2043
 9353SOL    HW139695   3.455   1.835   4.698  2.1043  0.2368  1.2883
 9353SOL    HW239696   3.480   1.949   4.794 -1.2069  2.3059 -0.2710
 9354SOL     OW39697   0.586   0.060   3.193  0.0179 -0.1183  0.0028
 9354SOL    HW139698   0.621   0.027   3.275 -0.0460  0.1241  0.1290
 9354SOL    HW239699   0.633   0.011   3.126  0.2822  0.4198 -0.2109
 9355SOL     OW39700   2.599   0.580   1.499 -0.1718  0.2926 -0.4371
 9355SOL    HW139701   2.687   0.600   1.531 -0.1466  1.0183 -0.9703
 9355SOL    HW239702   2.555   0.661   1.523  0.6236  0.2113  1.2399
 9356SOL     OW39703   2.073   1.328   8.417  0.1518  0.1129 -0.0021
 9356SOL    HW139704   2.143   1.290   8.363 -0.1979  1.1272 -1.1719
 9356SOL    HW239705   2.087   1.422   8.406  2.2781 -0.1509  0.4615
 9357SOL     OW39706   3.351   1.383   3.136  0.0414 -0.5141 -0.0004
 9357SOL    HW139707   3.335   1.410   3.226 -0.8632  2.5501 -1.0748
 9357SOL    HW239708   3.445   1.403   3.134  0.1895 -1.0639  1.8883
 9358SOL     OW39709   2.663   3.946   8.584  0.0743 -0.1532  0.8444
 9358SOL    HW139710   2.588   3.979   8.635 -0.6305  2.1332 -1.6566
 9358SOL    HW239711   2.714   4.027   8.589 -0.2784  0.1175  0.1562
 9359SOL     OW39712   4.321   4.033   4.900 -0.6394 -0.3336  0.6172
 9359SOL    HW139713   4.337   4.006   4.990 -2.1160 -2.7900  0.1628
 9359SOL    HW239714   4.274   4.116   4.905 -0.9759 -0.4838 -0.0502
 9360SOL     OW39715   0.203   1.091   7.784 -0.0526  0.4073 -0.7808
 9360SOL    HW139716   0.207   0.995   7.783 -0.5299  0.3741  0.7480
 9360SOL    HW239717   0.159   1.111   7.701  0.9811  2.1310 -0.9153
 9361SOL     OW39718   4.015   4.109   6.981  0.1238 -0.6629 -0.1550
 9361SOL    HW139719   3.946   4.133   6.919  0.1241  0.9156  0.4512
 9361SOL    HW239720   4.028   4.017   6.956  0.2708 -0.5446 -0.5187
 9362SOL     OW39721   1.848   3.886   7.344 -0.5431 -0.2551  0.3526
 9362SOL    HW139722   1.863   3.947   7.416 -1.2632 -2.1203  2.0853
 9362SOL    HW239723   1.900   3.807   7.359  2.0508  1.3392 -0.0842
 9363SOL     OW39724   2.755   3.916   8.334  0.0099  0.2673  0.3060
 9363SOL    HW139725   2.762   4.010   8.351 -4.6991  0.7725 -0.4909
 9363SOL    HW239726   2.725   3.909   8.425  2.9302 -1.5310  1.1091
 9364SOL     OW39727   2.422   1.585   8.026  0.3608 -0.2383 -0.0747
 9364SOL    HW139728   2.427   1.501   8.073 -0.8478  0.9056  2.0893
 9364SOL    HW239729   2.346   1.616   8.074  0.7228 -0.5357  0.6993
 9365SOL     OW39730   2.363   2.646   0.087  0.1219  0.5100 -0.2318
 9365SOL    HW139731   2.435   2.585   0.071 -0.5162  0.4348 -2.8627
 9365SOL    HW239732   2.329   2.647  17.748 -0.6756  2.7717  0.1073
 9366SOL     OW39733   1.933   3.162   6.345 -0.2082 -0.0539  0.2219
 9366SOL    HW139734   1.856   3.109   6.325  0.5586 -0.9842 -0.2553
 9366SOL    HW239735   1.995   3.090   6.349 -0.2753 -0.1965 -1.2444
 9367SOL     OW39736   2.554   1.918  14.509 -0.6694  0.0623 -0.3202
 9367SOL    HW139737   2.513   1.921  14.422  0.4024 -0.9682 -0.8486
 9367SOL    HW239738   2.644   1.898  14.484 -0.2436  1.0938  0.4089
 9368SOL     OW39739   3.527   2.145   7.632  0.1270 -0.5167  0.8540
 9368SOL    HW139740   3.467   2.092   7.684  0.1564 -1.3062  0.0897
 9368SOL    HW239741   3.585   2.078   7.595  1.7375  0.7030  1.1698
 9369SOL     OW39742   2.777   3.456  17.058 -0.0147 -0.4475 -0.0450
 9369SOL    HW139743   2.794   3.428  17.148  2.5519  0.6512 -0.1758
 9369SOL    HW239744   2.726   3.388  17.014  0.0173 -0.3003 -0.3113
 9370SOL     OW39745   3.661   2.847  12.404  0.0616  0.1939 -0.0990
 9370SOL    HW139746   3.670   2.848  12.309  0.0410  1.0865 -0.0882
 9370SOL    HW239747   3.580   2.797  12.415 -0.9354  1.8115 -0.1114
 9371SOL     OW39748   0.676   4.108   6.695  0.4280  0.0612  0.1748
 9371SOL    HW139749   0.604   4.110   6.632  0.5715  1.0831  0.0291
 9371SOL    HW239750   0.680   4.020   6.731 -1.9517 -0.5470 -1.0974
 9372SOL     OW39751   1.057   3.718   4.923 -0.3800 -0.0546 -0.1232
 9372SOL    HW139752   0.979   3.674   4.891  0.3890 -0.2617 -1.6840
 9372SOL    HW239753   1.081   3.660   4.995  5.1061  1.9069 -0.3703
 9373SOL     OW39754   2.714   2.453   4.571 -0.1192 -0.3189  0.3745
 9373SOL    HW139755   2.781   2.509   4.533 -0.2570 -0.6813 -0.3911
 9373SOL    HW239756   2.678   2.518   4.631  1.4897  0.2319  0.7385
 9374SOL     OW39757   4.245   1.290  11.074 -0.4019 -0.3689 -0.1255
 9374SOL    HW139758   4.255   1.195  11.076 -1.2121 -0.4959 -1.7442
 9374SOL    HW239759   4.193   1.301  10.994 -1.2445 -0.2600  0.4411
 9375SOL     OW39760   3.544   0.974  10.472 -0.2403 -0.0398 -0.1445
 9375SOL    HW139761   3.591   1.035  10.528  0.6410  0.2125 -1.1438
 9375SOL    HW239762   3.606   0.901  10.482 -1.7785 -1.6797 -2.4142
 9376SOL     OW39763   3.769   2.453   3.810 -0.7148  0.5478 -0.1403
 9376SOL    HW139764   3.760   2.474   3.717 -1.9220 -0.5082 -0.2669
 9376SOL    HW239765   3.768   2.357   3.810  0.4773  0.5347 -1.3150
 9377SOL     OW39766   0.689   4.454  17.106  0.0741 -0.3172 -0.1693
 9377SOL    HW139767   0.609   4.451  17.054  1.0631 -0.5931 -1.6636
 9377SOL    HW239768   0.724   4.543  17.108 -1.2499  0.2050 -0.8789
 9378SOL     OW39769   2.075   2.296   1.484 -0.5087 -0.5246 -0.0247
 9378SOL    HW139770   2.028   2.374   1.513  0.0769  0.5760 -1.9655
 9378SOL    HW239771   2.164   2.324   1.506 -0.9407 -0.5751  1.7736
 9379SOL     OW39772   4.302   3.768  10.748 -0.3437  0.1549  0.3829
 9379SOL    HW139773   4.254   3.812  10.818  1.5565 -1.9383  3.0100
 9379SOL    HW239774   4.385   3.814  10.760 -0.5803  0.7850 -0.3878
 9380SOL     OW39775   2.010   4.483  10.288 -0.0718  0.7724  0.0994
 9380SOL    HW139776   2.023   4.412  10.225  0.8163  0.2437  0.8831
 9380SOL    HW239777   1.974   4.448  10.369 -2.1180 -1.4500 -1.7689
 9381SOL     OW39778   2.224   4.667   8.426  0.3665  0.0712 -0.5136
 9381SOL    HW139779   2.248   0.008   8.379  2.4413  0.0809  0.5829
 9381SOL    HW239780   2.234   4.692   8.518 -0.4909  0.8022 -0.6144
 9382SOL     OW39781   0.197   2.892   2.377  0.0591  0.5284  0.1867
 9382SOL    HW139782   0.274   2.924   2.330  0.4256  0.3254  0.6658
 9382SOL    HW239783   0.148   2.974   2.393  1.9011  0.7727  4.4490
 9383SOL     OW39784   2.714   3.907  12.658 -0.4450 -0.3090  0.1444
 9383SOL    HW139785   2.626   3.871  12.659 -0.2011 -0.7832  3.4947
 9383SOL    HW239786   2.770   3.848  12.607 -0.1522  0.6352 -0.6198
 9384SOL     OW39787   1.030   0.840   6.233  0.1127 -0.7131 -0.0727
 9384SOL    HW139788   1.082   0.760   6.220 -1.0042 -1.1351 -2.0130
 9384SOL    HW239789   0.967   0.822   6.302 -1.3930 -1.9571 -1.7527
 9385SOL     OW39790   0.369   1.801   4.589  0.3584  0.2466 -0.0453
 9385SOL    HW139791   0.364   1.726   4.648 -1.2684  0.5231  0.1690
 9385SOL    HW239792   0.305   1.787   4.519  0.0399  3.0925 -0.3377
 9386SOL     OW39793   1.311   3.310   5.247 -0.4137  0.2781  0.0217
 9386SOL    HW139794   1.276   3.224   5.222  3.6731 -1.2271 -0.5509
 9386SOL    HW239795   1.281   3.315   5.338  1.1041 -0.1662  0.5635
 9387SOL     OW39796   2.613   3.705  15.620 -0.0205 -0.4199 -0.0426
 9387SOL    HW139797   2.568   3.628  15.654 -0.0550  0.2644  1.5039
 9387SOL    HW239798   2.661   3.679  15.542  0.8646  1.3574 -0.0836
 9388SOL     OW39799   4.651   2.930   4.721  0.1348 -0.2669  0.3263
 9388SOL    HW139800   4.637   2.836   4.712  0.4502 -0.3017  0.2179
 9388SOL    HW239801   4.663   2.941   4.816  1.8779  0.3129  0.0382
 9389SOL     OW39802   0.024   1.997   5.994  0.8863  0.0457  0.1971
 9389SOL    HW139803   0.061   2.043   6.069 -0.0343 -1.3915  1.5275
 9389SOL    HW239804   4.670   2.020   5.999  0.4800 -1.4301 -0.4493
 9390SOL     OW39805   1.767   4.473  14.655  0.5139 -0.5792 -0.2659
 9390SOL    HW139806   1.846   4.422  14.639  1.1071  0.9252 -2.1638
 9390SOL    HW239807   1.704   4.407  14.626  1.5555 -0.8480 -1.9265
 9391SOL     OW39808   1.469   4.671  14.638  0.3883 -0.7946 -0.3807
 9391SOL    HW139809   1.399   4.629  14.687  0.8379  0.0790  1.0042
 9391SOL    HW239810   1.424   4.682  14.554 -3.5922  1.1112  1.9941
 9392SOL     OW39811   3.992   3.444  12.177 -0.1526 -0.6489  0.4448
 9392SOL    HW139812   3.977   3.413  12.088  2.4627  0.1779 -0.2837
 9392SOL    HW239813   4.016   3.357  12.208 -0.8610 -0.7005  0.8445
 9393SOL     OW39814   4.451   0.371   5.667 -0.1250  0.7283 -0.0973
 9393SOL    HW139815   4.445   0.363   5.572  1.2622  0.0898 -0.1271
 9393SOL    HW239816   4.503   0.293   5.683 -1.0316  0.4594  1.5871
 9394SOL     OW39817   0.186   2.359   8.705 -0.2820 -0.0185 -0.1445
 9394SOL    HW139818   0.235   2.441   8.700 -0.1848  0.0936  2.5591
 9394SOL    HW239819   0.121   2.393   8.766  1.8831  2.6445  0.6609
 9395SOL     OW39820   2.605   4.327   3.675 -0.0414  0.0755  0.0900
 9395SOL    HW139821   2.634   4.356   3.762  0.8252 -3.6083  1.0362
 9395SOL    HW239822   2.511   4.337   3.692  0.4509  0.8788  2.4217
 9396SOL     OW39823   4.316   1.123   2.722  0.1365  0.2347  0.6149
 9396SOL    HW139824   4.371   1.136   2.644 -0.5958 -0.5990 -0.0404
 9396SOL    HW239825   4.336   1.034   2.752 -0.5936  0.3255  1.3449
 9397SOL     OW39826   0.074   0.815   3.204  0.0323 -0.1354 -0.7591
 9397SOL    HW139827   0.138   0.766   3.256 -0.8491 -0.1494  0.2830
 9397SOL    HW239828   0.031   0.860   3.276  1.6409 -0.8918  0.6646
 9398SOL     OW39829   0.001   0.654  13.376  0.5789 -0.1167  0.2285
 9398SOL    HW139830   4.699   0.739  13.360 -0.9898 -0.6220  1.4835
 9398SOL    HW239831   4.695   0.627  13.456 -0.3708  0.5250 -0.0861
 9399SOL     OW39832   2.199   1.174   2.547 -0.4447  0.5507 -0.3247
 9399SOL    HW139833   2.113   1.165   2.505 -0.4320 -0.6655 -0.1114
 9399SOL    HW239834   2.182   1.121   2.625  1.5408  0.5876  0.1505
 9400SOL     OW39835   3.505   3.710   1.227  0.3956  0.2904  0.2782
 9400SOL    HW139836   3.600   3.694   1.223 -0.0014 -1.9788 -0.6269
 9400SOL    HW239837   3.503   3.800   1.259  0.7423  0.2326  0.4603
 9401SOL     OW39838   4.662   4.109   0.729 -0.2818  0.4607 -0.6847
 9401SOL    HW139839   0.018   4.124   0.725 -0.3703  0.6352 -2.0016
 9401SOL    HW239840   4.649   4.072   0.816  1.3865 -0.5054 -0.8378
 9402SOL     OW39841   3.749   1.887   7.219 -0.1831 -0.0561  0.6022
 9402SOL    HW139842   3.668   1.863   7.174  0.9756 -0.8819 -1.0613
 9402SOL    HW239843   3.739   1.982   7.228  0.1849  0.0634 -0.2232
 9403SOL     OW39844   0.871   4.278   7.975 -0.4505  0.1038 -0.3131
 9403SOL    HW139845   0.902   4.188   7.965 -0.8041 -0.3160  2.2640
 9403SOL    HW239846   0.779   4.265   7.998 -1.4778  1.0396 -3.9897
 9404SOL     OW39847   0.355   1.754   8.771 -0.0752  0.0947  0.3482
 9404SOL    HW139848   0.279   1.700   8.750 -0.4500  0.7095  0.0972
 9404SOL    HW239849   0.351   1.767   8.866  1.2161  0.0879  0.4034
 9405SOL     OW39850   1.511   4.350   7.710  0.0892 -0.3142 -0.1049
 9405SOL    HW139851   1.525   4.328   7.802 -0.2657  0.8779  0.2230
 9405SOL    HW239852   1.562   4.279   7.670  0.7426  0.2994 -0.3479
 9406SOL     OW39853   3.297   2.110   5.297  0.4526 -0.1391  0.2673
 9406SOL    HW139854   3.295   2.185   5.355  1.6789  0.3424 -0.3174
 9406SOL    HW239855   3.303   2.154   5.212  0.2046  0.0184  0.3322
 9407SOL     OW39856   3.585   4.436   7.248  0.3917 -0.0809 -0.0698
 9407SOL    HW139857   3.679   4.416   7.254 -0.3351 -2.9746  1.4483
 9407SOL    HW239858   3.560   4.367   7.186  0.0741 -1.4869  1.6375
 9408SOL     OW39859   2.895   4.667  12.739 -0.4891 -0.4707  0.4498
 9408SOL    HW139860   2.970   4.706  12.783  0.0094 -0.4809 -0.3913
 9408SOL    HW239861   2.932   4.632  12.658 -0.1542  1.9577 -0.4565
 9409SOL     OW39862   0.170   2.428   5.921 -0.3551  0.2547  0.5666
 9409SOL    HW139863   0.246   2.370   5.927 -1.6075 -1.4655 -0.3161
 9409SOL    HW239864   0.093   2.378   5.895 -0.0641  0.3347 -0.4463
 9410SOL     OW39865   0.643   4.639   8.911  0.0897 -0.0943 -0.3457
 9410SOL    HW139866   0.681   4.692   8.841 -2.1050 -2.8136 -3.5959
 9410SOL    HW239867   0.665   4.550   8.885  3.1073 -0.2771  2.7701
 9411SOL     OW39868   2.376   4.480   6.824 -0.1847 -0.4784  0.2351
 9411SOL    HW139869   2.335   4.445   6.903  1.2985 -1.8234  0.4026
 9411SOL    HW239870   2.469   4.457   6.832  0.3523  1.4466 -0.5510
 9412SOL     OW39871   2.236   1.137  12.034 -0.2735 -0.4411 -0.5302
 9412SOL    HW139872   2.243   1.053  12.078 -1.9908  0.6199  1.7515
 9412SOL    HW239873   2.163   1.124  11.973 -0.0718  1.1042 -1.0957
 9413SOL     OW39874   0.187   4.005  15.734  0.6358 -0.2435 -0.2414
 9413SOL    HW139875   0.187   3.913  15.760  1.0106 -0.2478 -0.2584
 9413SOL    HW239876   0.127   4.003  15.659 -1.0807  0.1841  1.1075
 9414SOL     OW39877   3.859   2.422   5.383  0.4448  0.2025  0.0171
 9414SOL    HW139878   3.933   2.427   5.442  0.4104  1.5571 -0.0558
 9414SOL    HW239879   3.832   2.334   5.356 -1.1980 -0.0595  2.5265
 9415SOL     OW39880   4.717   0.779   5.364  0.2509  0.4179  0.5660
 9415SOL    HW139881   4.654   0.755   5.431 -1.5879 -1.0996 -1.7050
 9415SOL    HW239882   4.734   0.693   5.324 -0.7329  0.8141 -0.7124
 9416SOL     OW39883   0.731   2.290  10.164  0.5066  0.0595  0.4225
 9416SOL    HW139884   0.813   2.329  10.133  0.2904  0.3614  0.2301
 9416SOL    HW239885   0.722   2.219  10.100 -0.6166  1.1572 -0.6453
 9417SOL     OW39886   0.213   0.523   3.117  0.2177  0.3338  1.0627
 9417SOL    HW139887   0.305   0.504   3.099 -0.1744  0.2952 -0.8532
 9417SOL    HW239888   0.186   0.466   3.189  0.7677  0.6164  1.4973
 9418SOL     OW39889   4.376   2.001   4.648 -0.3932 -0.1169 -0.3787
 9418SOL    HW139890   4.336   1.930   4.697  2.1055 -1.9405 -1.0054
 9418SOL    HW239891   4.354   1.978   4.557 -0.1249 -0.8352 -0.2596
 9419SOL     OW39892   3.082   2.634  11.639 -0.4003 -0.7308  1.3131
 9419SOL    HW139893   3.170   2.625  11.674  0.0702 -0.8144  0.1095
 9419SOL    HW239894   3.090   2.583  11.558 -0.2383  2.0139 -0.3901
 9420SOL     OW39895   2.882   0.991   5.720 -0.0688  0.2840 -0.5008
 9420SOL    HW139896   2.977   0.992   5.705  0.1226 -1.2010  0.5577
 9420SOL    HW239897   2.869   1.085   5.718 -1.0707  0.1664  0.4641
 9421SOL     OW39898   0.895   1.701  17.510 -0.5511  0.7665 -0.1671
 9421SOL    HW139899   0.863   1.710  17.600  1.6185  0.0850  0.6576
 9421SOL    HW239900   0.978   1.748  17.506 -1.2316  1.9226 -0.7030
 9422SOL     OW39901   1.456   0.488   9.014 -0.1466  0.8394  0.0481
 9422SOL    HW139902   1.385   0.539   9.054 -0.3264  0.1409  0.6212
 9422SOL    HW239903   1.410   0.474   8.931 -0.8315 -1.2902  0.7871
 9423SOL     OW39904   0.673   3.374   5.834  0.0030  0.6163 -0.2115
 9423SOL    HW139905   0.764   3.380   5.803 -1.4192  1.8136 -4.1810
 9423SOL    HW239906   0.636   3.304   5.781 -1.0428 -0.1188  1.4914
 9424SOL     OW39907   2.601   2.839   3.202  0.2327 -0.0582  0.2146
 9424SOL    HW139908   2.534   2.799   3.257  0.5989 -0.6849  0.1951
 9424SOL    HW239909   2.659   2.874   3.269 -0.1533  2.7804 -0.9276
 9425SOL     OW39910   2.388   0.154   1.916  0.0919  0.1832  0.2732
 9425SOL    HW139911   2.361   0.238   1.878  0.1301 -0.1907 -0.5812
 9425SOL    HW239912   2.477   0.171   1.948 -0.6820  1.3268  1.8122
 9426SOL     OW39913   3.792   2.754   7.608 -0.0663  0.0922 -0.3940
 9426SOL    HW139914   3.785   2.679   7.549 -0.2703  0.9986 -1.4967
 9426SOL    HW239915   3.881   2.784   7.591  0.0040  0.3804  0.4537
 9427SOL     OW39916   4.641   2.170   6.893 -0.3303  0.1999  0.2420
 9427SOL    HW139917   4.562   2.116   6.899  0.8018 -1.3998  0.9565
 9427SOL    HW239918   4.664   2.161   6.801 -0.7828 -0.7311  0.2183
 9428SOL     OW39919   0.626   2.283   3.860 -0.0354 -0.3024  0.7222
 9428SOL    HW139920   0.637   2.355   3.798 -2.5630 -0.7520 -0.2277
 9428SOL    HW239921   0.612   2.213   3.796  1.2865 -0.8301  1.0005
 9429SOL     OW39922   1.998   0.421   6.934  0.2073 -1.2898  0.2363
 9429SOL    HW139923   1.967   0.508   6.961  1.1322 -0.8619 -0.0858
 9429SOL    HW239924   1.914   0.381   6.913 -0.9908  1.5161 -0.3142
 9430SOL     OW39925   3.397   4.737   0.130  0.1545  0.1078  0.1412
 9430SOL    HW139926   3.336   0.004   0.057  0.4055 -1.9945 -0.2210
 9430SOL    HW239927   3.426   0.089   0.143  0.2997 -0.0950  1.2989
 9431SOL     OW39928   0.862   0.860   6.000 -0.1461  0.1069 -0.2421
 9431SOL    HW139929   0.901   0.861   6.088 -0.4891 -0.9221 -0.0803
 9431SOL    HW239930   0.922   0.919   5.954 -2.4112  0.6374 -2.4687
 9432SOL     OW39931   1.120   1.919   2.339 -0.3719  0.5196  0.4231
 9432SOL    HW139932   1.106   1.955   2.251 -2.4761 -0.2569  0.4642
 9432SOL    HW239933   1.123   1.828   2.309 -1.7638  0.2328  1.1932
 9433SOL     OW39934   1.372   2.615   9.795  0.0208  0.1685 -0.3658
 9433SOL    HW139935   1.449   2.670   9.811  0.1783 -0.0672 -0.3197
 9433SOL    HW239936   1.323   2.625   9.877 -1.1729 -0.6325 -0.9884
 9434SOL     OW39937   2.879   0.704  13.309 -0.0587  0.1239 -0.2850
 9434SOL    HW139938   2.921   0.637  13.256  1.1232 -0.3265  1.2113
 9434SOL    HW239939   2.949   0.712  13.374 -0.8243  0.9825  0.4572
 9435SOL     OW39940   1.657   4.459   1.642  0.0335 -0.1481 -0.4163
 9435SOL    HW139941   1.692   4.548   1.640  1.5069 -0.7036  1.2069
 9435SOL    HW239942   1.721   4.418   1.700 -0.0064  3.4418  2.1212
 9436SOL     OW39943   0.597   0.379   3.357 -0.0162  0.2273  0.0426
 9436SOL    HW139944   0.678   0.328   3.349  0.5604  1.5098 -2.2030
 9436SOL    HW239945   0.620   0.442   3.289 -1.5703  0.8118  0.0557
 9437SOL     OW39946   3.479   2.266  15.219 -0.2156 -0.2091 -0.7956
 9437SOL    HW139947   3.521   2.230  15.141 -1.0093  0.3671 -1.4830
 9437SOL    HW239948   3.455   2.183  15.261  1.2959  0.4796  1.4574
 9438SOL     OW39949   0.648   2.672   2.045 -0.2052  0.2803  0.3243
 9438SOL    HW139950   0.711   2.738   2.015  0.8970 -0.3579  1.2340
 9438SOL    HW239951   0.688   2.634   2.124  0.3023  0.6755  0.2544
 9439SOL     OW39952   1.500   3.367   2.216  0.4724 -0.5141  0.1246
 9439SOL    HW139953   1.546   3.431   2.162 -0.0480 -0.9466 -0.8226
 9439SOL    HW239954   1.543   3.289   2.181 -0.7019 -0.4688 -1.4062
 9440SOL     OW39955   1.372   0.092   1.827 -0.4413  0.5431 -0.5151
 9440SOL    HW139956   1.316   0.130   1.893 -0.1914 -0.6444  0.3855
 9440SOL    HW239957   1.430   0.036   1.879 -0.7986  0.5086 -0.1586
 9441SOL     OW39958   3.791   1.636   1.592 -0.6984 -0.6200  0.2346
 9441SOL    HW139959   3.734   1.696   1.640 -0.6310 -0.7722  0.5048
 9441SOL    HW239960   3.768   1.554   1.635  1.6609 -1.2167  0.3164
 9442SOL     OW39961   0.576   2.277  15.297  0.2863 -0.0962  0.5885
 9442SOL    HW139962   0.596   2.369  15.317 -1.0596  0.4252 -0.4761
 9442SOL    HW239963   0.666   2.247  15.306  0.1443 -1.3379 -2.0579
 9443SOL     OW39964   4.028   2.354   7.116  0.3803  0.0749  0.1724
 9443SOL    HW139965   4.123   2.349   7.118  0.3800  0.3789  0.7948
 9443SOL    HW239966   4.009   2.312   7.032  1.2885  0.2107 -0.0941
 9444SOL     OW39967   0.408   1.430   8.551 -0.2068 -1.0258 -0.1149
 9444SOL    HW139968   0.332   1.488   8.560  0.0039 -0.7180 -0.3353
 9444SOL    HW239969   0.449   1.435   8.638  0.5228  3.0819 -0.6625
 9445SOL     OW39970   1.149   2.116   2.809 -0.0074  0.2596  0.0320
 9445SOL    HW139971   1.227   2.114   2.754 -0.1426  0.5355 -0.1695
 9445SOL    HW239972   1.167   2.047   2.873 -0.5059 -0.6806 -0.8266
 9446SOL     OW39973   2.441   0.752   6.880 -0.0002 -0.3046  0.8088
 9446SOL    HW139974   2.348   0.754   6.857 -0.0466 -1.2011  0.9287
 9446SOL    HW239975   2.441   0.698   6.959 -0.8521  0.6954  1.5000
 9447SOL     OW39976   0.348   4.310   5.742 -0.0784  0.3177 -0.8404
 9447SOL    HW139977   0.429   4.341   5.701  0.9392 -1.4723 -0.1422
 9447SOL    HW239978   0.354   4.334   5.834 -1.4224 -1.6770 -0.2310
 9448SOL     OW39979   1.152   2.025   1.189  0.1702 -0.3859 -0.5124
 9448SOL    HW139980   1.227   2.079   1.166 -0.6451 -0.8513 -4.2881
 9448SOL    HW239981   1.188   1.948   1.234 -2.9899 -1.1914  0.6950
 9449SOL     OW39982   2.042   0.110   4.976 -0.2163 -0.6359  0.0879
 9449SOL    HW139983   2.092   0.099   4.895 -0.1883 -2.3100  0.3331
 9449SOL    HW239984   2.084   0.042   5.029 -1.3376 -0.6596  0.9479
 9450SOL     OW39985   1.778   3.580   1.503  0.2901  0.0654 -0.6622
 9450SOL    HW139986   1.715   3.513   1.529 -0.9796  1.2974 -0.5495
 9450SOL    HW239987   1.715   3.643   1.466 -1.1469 -0.2497  1.2241
 9451SOL     OW39988   1.564   1.805   3.702 -0.1998  0.0225 -0.3695
 9451SOL    HW139989   1.637   1.824   3.642 -1.1312  1.9563 -0.9236
 9451SOL    HW239990   1.616   1.768   3.772  1.2587 -0.7540 -1.8644
 9452SOL     OW39991   2.595   1.682   2.133 -0.2397  0.7794  0.3308
 9452SOL    HW139992   2.519   1.683   2.074  2.2114  2.3795 -2.8096
 9452SOL    HW239993   2.541   1.672   2.211 -0.4301 -0.8564 -0.0047
 9453SOL     OW39994   1.745   1.623  10.731 -0.2195 -0.4157 -0.3952
 9453SOL    HW139995   1.720   1.692  10.670  1.4854  2.2922  1.9903
 9453SOL    HW239996   1.705   1.666  10.807  1.2563 -2.3957  1.5153
 9454SOL     OW39997   0.810   0.932   2.068 -0.5816 -0.4611 -0.7652
 9454SOL    HW139998   0.811   0.999   2.000  0.2901 -2.1978 -2.4561
 9454SOL    HW239999   0.892   0.958   2.108  0.8946 -1.8945 -2.8352
 9455SOL     OW40000   1.507   0.173  17.239  0.0682 -0.0690  0.5407
 9455SOL    HW140001   1.529   0.107  17.304  3.1598 -0.1003 -0.4952
 9455SOL    HW240002   1.487   0.112  17.168 -0.4408 -0.4081  0.9828
 9456SOL     OW40003   4.222   1.154  12.982 -0.0790 -0.1101 -0.3929
 9456SOL    HW140004   4.248   1.065  13.005  0.6451  0.2061  0.0022
 9456SOL    HW240005   4.262   1.156  12.895  0.0417 -1.0650 -0.3595
 9457SOL     OW40006   1.806   1.925  12.080  0.0179  0.4102 -0.0900
 9457SOL    HW140007   1.812   1.958  11.990  1.2230 -0.8482 -0.4686
 9457SOL    HW240008   1.823   1.831  12.067 -0.2378  0.3200  0.2395
 9458SOL     OW40009   0.412   3.576   7.292 -0.2815 -0.2827 -0.1684
 9458SOL    HW140010   0.340   3.542   7.345 -0.4842  0.6117  0.1341
 9458SOL    HW240011   0.397   3.671   7.292  0.5708 -0.1506 -1.8511
 9459SOL     OW40012   4.195   2.443   4.366  0.1736  0.2772  0.1394
 9459SOL    HW140013   4.203   2.522   4.312  0.2692  0.6878  0.7414
 9459SOL    HW240014   4.250   2.464   4.442  0.6848 -0.4296 -0.0409
 9460SOL     OW40015   0.751   3.427   8.503  0.0205  0.4222  0.6288
 9460SOL    HW140016   0.822   3.370   8.473  1.3619  2.2036  0.3755
 9460SOL    HW240017   0.736   3.486   8.429  3.9349  0.5558 -0.0650
 9461SOL     OW40018   4.415   3.375   6.115  0.1441  0.3053 -0.1313
 9461SOL    HW140019   4.417   3.312   6.043  3.7892  0.2689 -0.0042
 9461SOL    HW240020   4.459   3.327   6.185 -0.0375 -0.9457 -0.8745
 9462SOL     OW40021   0.786   2.329   5.946  0.1768 -0.2794  0.2487
 9462SOL    HW140022   0.744   2.253   5.987  1.5981 -0.5078  1.2868
 9462SOL    HW240023   0.739   2.331   5.863  0.7121  0.8282 -0.0261
 9463SOL     OW40024   0.406   4.390   2.729  0.4451 -0.0817  0.3509
 9463SOL    HW140025   0.430   4.442   2.806  0.1372 -0.7054  0.8631
 9463SOL    HW240026   0.332   4.349   2.773  0.0342 -0.6193 -0.8607
 9464SOL     OW40027   0.127   0.405   4.863  0.6413  0.5193 -0.0728
 9464SOL    HW140028   0.221   0.408   4.846  0.7555 -2.1318  0.1231
 9464SOL    HW240029   0.134   0.332   4.925  4.0705 -0.3254 -1.4623
 9465SOL     OW40030   1.641   2.287  12.906 -0.6275  0.2820  0.3478
 9465SOL    HW140031   1.652   2.303  12.812  2.8401 -0.7690  0.5603
 9465SOL    HW240032   1.683   2.202  12.917  1.6234  1.3732  0.2838
 9466SOL     OW40033   3.588   0.448   8.415  0.1741  0.0185 -0.5674
 9466SOL    HW140034   3.616   0.485   8.499  0.4497  0.3396 -0.8019
 9466SOL    HW240035   3.527   0.512   8.378 -2.1475 -0.7018  1.9579
 9467SOL     OW40036   0.441   0.580   3.500  0.7779  0.0078 -0.0699
 9467SOL    HW140037   0.507   0.535   3.447 -1.4184 -0.1023 -2.7314
 9467SOL    HW240038   0.455   0.670   3.470  2.0275  0.3293  1.4673
 9468SOL     OW40039   2.121   3.715   6.787  0.5508  0.4077  0.3961
 9468SOL    HW140040   2.154   3.630   6.757 -1.1077  0.8344 -2.6143
 9468SOL    HW240041   2.043   3.685   6.834  0.0808 -1.2051 -1.4101
 9469SOL     OW40042   0.136   1.583   8.032  0.6710 -0.1283 -0.1018
 9469SOL    HW140043   0.187   1.629   8.099 -0.2757 -0.5897  0.9457
 9469SOL    HW240044   0.200   1.524   7.992  1.2914 -1.4460  2.8626
 9470SOL     OW40045   2.191   2.496  14.000  0.6680 -0.2501 -0.4141
 9470SOL    HW140046   2.102   2.522  14.022  0.4531 -0.9247 -0.4818
 9470SOL    HW240047   2.235   2.574  14.033 -0.7014  1.0749 -1.7113
 9471SOL     OW40048   0.673   0.598   8.535  0.3387  0.0754 -0.3812
 9471SOL    HW140049   0.636   0.650   8.463 -0.3760  0.9307  0.6058
 9471SOL    HW240050   0.669   0.672   8.596  2.2043  0.2647 -0.5047
 9472SOL     OW40051   1.659   1.908  14.274  0.3211 -0.3250 -0.0594
 9472SOL    HW140052   1.670   1.850  14.199  0.4815  2.2626 -2.0299
 9472SOL    HW240053   1.594   1.974  14.252  0.2891  0.2885  1.8541
 9473SOL     OW40054   2.047   2.877  14.091  0.3753  0.0107  0.1017
 9473SOL    HW140055   1.986   2.921  14.032 -1.4397 -1.7606  0.6612
 9473SOL    HW240056   2.049   2.944  14.159  0.5790 -1.0603  1.1575
 9474SOL     OW40057   1.421   3.609   8.666 -0.2820 -0.0726  0.0980
 9474SOL    HW140058   1.441   3.543   8.733  1.6232 -0.2039 -0.6070
 9474SOL    HW240059   1.469   3.577   8.590  0.4672 -2.3049  1.5088
 9475SOL     OW40060   4.727   2.707   3.488  0.2684 -0.5432 -0.2467
 9475SOL    HW140061   4.688   2.667   3.410  2.3184  1.7925 -2.4892
 9475SOL    HW240062   0.079   2.712   3.459  0.2911 -1.4875 -0.3230
 9476SOL     OW40063   3.941   3.771  12.022 -0.2126  0.2985 -0.3046
 9476SOL    HW140064   3.855   3.769  12.064 -0.2189 -1.7430 -0.4278
 9476SOL    HW240065   3.943   3.676  12.013  2.5822  0.4791 -1.6390
 9477SOL     OW40066   1.934   1.097   4.065 -0.4521 -0.0553 -0.4149
 9477SOL    HW140067   1.971   1.023   4.112  1.4792  1.2194  0.0894
 9477SOL    HW240068   2.001   1.163   4.081 -2.1972  1.6402 -0.0857
 9478SOL     OW40069   1.781   2.632   8.923  0.2405  0.4018 -0.2258
 9478SOL    HW140070   1.687   2.617   8.919  0.2417  0.3322 -0.0327
 9478SOL    HW240071   1.826   2.555   8.888 -0.1054 -0.2864  0.8293
 9479SOL     OW40072   1.699   3.584   5.109  0.2807  0.3690  0.2687
 9479SOL    HW140073   1.605   3.591   5.094  0.5413  1.3021 -0.9594
 9479SOL    HW240074   1.706   3.496   5.146  0.9832  1.0917  1.8608
 9480SOL     OW40075   1.452   0.842  15.662 -0.1550  0.1557 -0.4093
 9480SOL    HW140076   1.514   0.775  15.694 -2.0336 -1.5139 -0.2502
 9480SOL    HW240077   1.395   0.784  15.611  1.9371 -0.6489 -1.8241
 9481SOL     OW40078   2.584   3.191   0.058  0.0371  0.3304 -0.2855
 9481SOL    HW140079   2.519   3.131   0.021  1.1731 -1.2683  0.3184
 9481SOL    HW240080   2.600   3.159   0.146 -0.6647  1.7274  0.3431
 9482SOL     OW40081   3.015   4.193   8.684  0.5792 -0.3255  0.3729
 9482SOL    HW140082   3.048   4.252   8.752 -1.1116  0.1606  0.7746
 9482SOL    HW240083   3.063   4.115   8.710  1.7964  0.3598  0.1978
 9483SOL     OW40084   1.599   3.788  10.111  0.5863 -0.2070  0.4298
 9483SOL    HW140085   1.680   3.816  10.155 -0.0449 -0.6869  1.9129
 9483SOL    HW240086   1.534   3.844  10.153  0.1979 -0.2661 -0.1025
 9484SOL     OW40087   1.046   0.591   0.787  0.1294  0.4779  0.0843
 9484SOL    HW140088   1.082   0.586   0.699 -0.9963 -0.5914 -0.3031
 9484SOL    HW240089   1.030   0.500   0.811  1.0262  0.2672 -0.1382
 9485SOL     OW40090   0.356   3.759   3.531 -0.5930 -0.5372  0.8748
 9485SOL    HW140091   0.416   3.726   3.598  0.1109  1.5341  1.2548
 9485SOL    HW240092   0.416   3.788   3.463 -0.7154 -2.3499 -0.0224
 9486SOL     OW40093   2.474   3.815   5.577 -0.2085 -0.1133  0.2275
 9486SOL    HW140094   2.459   3.882   5.643 -1.0492 -0.9538  0.8784
 9486SOL    HW240095   2.417   3.750   5.617 -1.2200 -0.4703 -1.8030
 9487SOL     OW40096   3.817   4.004   2.649  0.2934 -0.1964 -0.1716
 9487SOL    HW140097   3.870   4.048   2.582  1.1649  2.2829  2.1290
 9487SOL    HW240098   3.740   3.993   2.594  0.2309 -1.4707  0.1844
 9488SOL     OW40099   1.654   1.277  16.394 -0.2583  0.9171  0.4644
 9488SOL    HW140100   1.617   1.314  16.474 -0.2612 -1.6742  1.6560
 9488SOL    HW240101   1.591   1.208  16.374  2.0397 -0.0838 -3.2314
 9489SOL     OW40102   0.379   3.232   9.292  0.2313  0.5436  0.1687
 9489SOL    HW140103   0.389   3.242   9.197 -2.2124  1.0062 -0.0409
 9489SOL    HW240104   0.296   3.276   9.309 -1.0921 -1.6734 -0.5773
 9490SOL     OW40105   2.879   4.505   3.452 -0.2657 -0.0936 -0.3696
 9490SOL    HW140106   2.787   4.497   3.476  0.2548  1.2772  2.1294
 9490SOL    HW240107   2.868   4.575   3.389  0.2546  0.0725 -0.2778
 9491SOL     OW40108   0.868   0.438   1.849 -0.0829 -0.2483 -0.0395
 9491SOL    HW140109   0.836   0.397   1.929 -1.1142  0.2752 -0.1822
 9491SOL    HW240110   0.821   0.522   1.852  1.1161  0.3995  0.6514
 9492SOL     OW40111   0.255   3.744   8.443  0.0582  0.0124 -0.0262
 9492SOL    HW140112   0.301   3.820   8.407 -0.4365 -0.7266 -2.2201
 9492SOL    HW240113   0.330   3.686   8.433 -0.4458 -0.6381 -0.0395
 9493SOL     OW40114   1.105   0.292   5.691  0.4430  0.0086  0.2135
 9493SOL    HW140115   1.149   0.207   5.696 -0.2207 -0.3520 -0.2090
 9493SOL    HW240116   1.155   0.335   5.621 -0.0177 -0.6050 -0.4842
 9494SOL     OW40117   1.957   1.030   6.197  0.3203  0.1120 -0.2360
 9494SOL    HW140118   2.035   0.992   6.156 -0.8823 -2.1787 -0.3780
 9494SOL    HW240119   1.896   1.035   6.124 -0.4299 -3.0987  0.1820
 9495SOL     OW40120   0.792   4.253   9.339  0.1472 -0.4289 -0.2995
 9495SOL    HW140121   0.833   4.302   9.411 -0.6937 -0.6343  0.3236
 9495SOL    HW240122   0.794   4.317   9.269 -0.9890 -1.7852 -1.5812
 9496SOL     OW40123   3.914   1.892   9.086  0.1503 -0.1961 -0.2369
 9496SOL    HW140124   3.972   1.851   9.022  0.1567 -0.1419 -0.2655
 9496SOL    HW240125   3.884   1.969   9.037  1.7646  0.3218 -0.4129
 9497SOL     OW40126   0.507   3.475  12.211 -0.1305 -0.3146  0.1482
 9497SOL    HW140127   0.528   3.563  12.242 -2.2264  1.1868 -2.6542
 9497SOL    HW240128   0.578   3.450  12.152 -0.3789  1.6201 -0.9870
 9498SOL     OW40129   3.696   4.408  10.304 -0.0700 -0.1500  0.1929
 9498SOL    HW140130   3.735   4.323  10.286 -2.5069 -0.7451 -2.3767
 9498SOL    HW240131   3.644   4.384  10.381 -0.6467  0.4324 -0.0082
 9499SOL     OW40132   1.028   3.364   7.091  0.5713 -0.0876  0.2068
 9499SOL    HW140133   1.124   3.362   7.091  0.6050  0.9552  3.5469
 9499SOL    HW240134   1.015   3.398   7.180  1.9421  1.3512 -0.1428
 9500SOL     OW40135   2.895   2.455  15.713  0.0415 -0.6410  0.0757
 9500SOL    HW140136   2.960   2.386  15.702  1.3509  0.6345 -0.0573
 9500SOL    HW240137   2.814   2.415  15.681  1.7102 -3.8028 -0.1624
 9501SOL     OW40138   1.190   0.483   5.218  0.0355 -0.3475  0.8942
 9501SOL    HW140139   1.181   0.450   5.128 -0.1347  2.1081  0.0069
 9501SOL    HW240140   1.270   0.535   5.218 -0.8393  1.0138 -1.1901
 9502SOL     OW40141   2.581   3.693   4.260 -0.6574 -0.0751 -0.0892
 9502SOL    HW140142   2.593   3.739   4.343 -1.6820  0.7680 -0.4129
 9502SOL    HW240143   2.486   3.690   4.260 -0.6799  1.1078 -2.6650
 9503SOL     OW40144   3.088   2.948   4.762 -0.5797 -0.3591 -0.1544
 9503SOL    HW140145   3.089   2.982   4.673 -1.0073 -0.4466 -0.1903
 9503SOL    HW240146   3.119   2.859   4.744  2.1362  0.6064 -0.3007
 9504SOL     OW40147   0.723   0.810   2.877  0.0255  0.0297 -0.1903
 9504SOL    HW140148   0.630   0.791   2.861 -0.0235  0.4267 -0.3685
 9504SOL    HW240149   0.742   0.734   2.932  0.9505  1.1177  0.9952
 9505SOL     OW40150   4.079   3.327   7.463 -0.2581  0.1194 -0.6205
 9505SOL    HW140151   4.152   3.279   7.425  1.4794  2.1504  0.1487
 9505SOL    HW240152   4.056   3.271   7.536  2.0828  1.6319  1.2862
 9506SOL     OW40153   1.700   2.597   4.940 -0.8162  0.4014 -0.1343
 9506SOL    HW140154   1.606   2.611   4.949 -0.5527  0.9223  2.0311
 9506SOL    HW240155   1.705   2.513   4.985 -2.6770  0.5355  0.3118
 9507SOL     OW40156   0.824   2.521  15.937  0.3064 -0.3238 -0.0402
 9507SOL    HW140157   0.852   2.516  15.846 -0.6680  3.5516 -0.5764
 9507SOL    HW240158   0.733   2.496  15.928  0.2741  0.0274 -0.6867
 9508SOL     OW40159   1.379   4.478   3.298 -0.2325  0.0874  0.2778
 9508SOL    HW140160   1.454   4.529   3.326  0.2626  0.1637 -1.2074
 9508SOL    HW240161   1.360   4.510   3.210  0.6545  3.1547  1.2022
 9509SOL     OW40162   1.832   1.480   1.982 -0.5002 -0.3336  0.6379
 9509SOL    HW140163   1.797   1.555   1.933  1.2394 -0.3565 -0.6522
 9509SOL    HW240164   1.839   1.517   2.070 -0.5779 -0.5258  0.7252
 9510SOL     OW40165   2.700   0.681   7.445  0.2172  0.5668 -0.0468
 9510SOL    HW140166   2.714   0.597   7.488  3.3923 -0.7737 -3.6979
 9510SOL    HW240167   2.606   0.690   7.461  0.4251  1.1021  0.8432
 9511SOL     OW40168   4.376   0.984  11.167 -0.1092 -0.0236  0.1249
 9511SOL    HW140169   4.465   0.990  11.132  1.3500  1.4110  4.0325
 9511SOL    HW240170   4.401   0.930  11.243 -0.4622  0.8624  0.8635
 9512SOL     OW40171   1.802   2.072   3.931 -0.0194  0.1033 -0.3736
 9512SOL    HW140172   1.872   2.012   3.905  0.9330 -0.2362  2.8883
 9512SOL    HW240173   1.807   2.134   3.859 -0.6496 -1.4458 -1.7487
 9513SOL     OW40174   2.568   4.689   3.036 -0.1302 -0.0980 -0.6740
 9513SOL    HW140175   2.539   4.672   2.947 -5.0832  0.3261  0.8436
 9513SOL    HW240176   2.484   4.691   3.082  0.7314 -1.1001  0.9338
 9514SOL     OW40177   4.526   0.490   8.416 -0.3559  0.0753 -0.3259
 9514SOL    HW140178   4.485   0.419   8.464  0.0880  1.1506  1.6104
 9514SOL    HW240179   4.511   0.461   8.326  0.2750  2.8776 -1.3369
 9515SOL     OW40180   4.448   0.112  15.298  0.0343 -0.4290  0.6506
 9515SOL    HW140181   4.519   0.091  15.358  0.3418 -2.6622 -0.4952
 9515SOL    HW240182   4.383   0.135  15.364 -0.7959  1.2923 -0.7657
 9516SOL     OW40183   2.732   3.282   6.760  0.2407  0.5024 -0.3003
 9516SOL    HW140184   2.766   3.202   6.719  2.1292  2.2277 -2.0495
 9516SOL    HW240185   2.793   3.293   6.834 -0.1345 -2.4256  0.4653
 9517SOL     OW40186   0.449   1.952  11.321  0.2958  0.0865 -0.3882
 9517SOL    HW140187   0.514   2.010  11.362  0.6302 -0.4476 -0.1746
 9517SOL    HW240188   0.484   1.945  11.232  2.4903  2.2794  0.2681
 9518SOL     OW40189   2.286   3.984   5.793 -0.0069  0.6721 -0.5813
 9518SOL    HW140190   2.204   3.987   5.743 -0.7113 -0.4440  0.5123
 9518SOL    HW240191   2.253   3.926   5.861  0.7911  0.8935 -0.0067
 9519SOL     OW40192   4.513   1.956   1.889  0.5951 -0.0966 -0.1055
 9519SOL    HW140193   4.417   1.949   1.884  0.8329 -3.7947  0.0005
 9519SOL    HW240194   4.520   2.030   1.829  2.0796  1.1320  1.6133
 9520SOL     OW40195   2.867   3.399  17.314  0.1025  0.9789  0.1095
 9520SOL    HW140196   2.919   3.397  17.394  0.1637  3.2982  0.1390
 9520SOL    HW240197   2.794   3.448  17.353  1.2407  2.6688  0.1369
 9521SOL     OW40198   3.842   3.904  12.526  0.2186 -0.0521  0.0924
 9521SOL    HW140199   3.796   3.936  12.604 -1.7184 -2.2007 -0.1601
 9521SOL    HW240200   3.768   3.869  12.476 -0.4661 -0.2532  1.2624
 9522SOL     OW40201   3.008   2.703   7.504  0.4719  0.3646 -0.1525
 9522SOL    HW140202   3.056   2.622   7.522 -0.7832 -0.4029 -0.2225
 9522SOL    HW240203   2.920   2.667   7.515  1.0044 -0.7000  0.6857
 9523SOL     OW40204   1.399   4.465  11.494  0.0450 -0.2165 -0.0103
 9523SOL    HW140205   1.304   4.466  11.498  0.1488 -2.4969  2.6371
 9523SOL    HW240206   1.419   4.557  11.474 -0.3866  0.0462  0.8111
 9524SOL     OW40207   4.033   4.562   9.565 -0.0707 -0.1827  0.1204
 9524SOL    HW140208   4.088   4.581   9.489 -0.9154 -0.5622 -0.6003
 9524SOL    HW240209   4.100   4.544   9.631  0.2972  0.0084 -0.2019
 9525SOL     OW40210   3.283   1.584   6.221 -0.0891 -0.1366 -0.1724
 9525SOL    HW140211   3.274   1.580   6.316  1.3824  0.3435 -0.0066
 9525SOL    HW240212   3.202   1.625   6.191  0.5315  0.4730 -1.0299
 9526SOL     OW40213   1.567   3.334  13.264  0.1495  0.0603  0.0472
 9526SOL    HW140214   1.500   3.402  13.263 -0.9166 -1.0109 -0.7359
 9526SOL    HW240215   1.518   3.261  13.228 -2.5596  2.2281 -0.6815
 9527SOL     OW40216   4.477   4.567   2.258 -0.0710  0.1469  0.5927
 9527SOL    HW140217   4.389   4.545   2.289 -1.0178 -0.2572 -2.4312
 9527SOL    HW240218   4.513   4.479   2.245 -0.6528  0.2705 -1.7384
 9528SOL     OW40219   3.889   3.394   4.730 -0.2092 -0.1411 -0.1323
 9528SOL    HW140220   3.804   3.412   4.690 -0.6271 -0.6113  0.5648
 9528SOL    HW240221   3.944   3.369   4.655 -2.0585  0.0593 -1.5582
 9529SOL     OW40222   1.480   0.819   5.837  0.4735  0.3602 -0.0041
 9529SOL    HW140223   1.439   0.902   5.814 -1.4368 -0.5898 -0.0560
 9529SOL    HW240224   1.565   0.843   5.802  0.0286  1.9176 -0.0204
 9530SOL     OW40225   3.312   2.636   5.195  0.2132 -0.0652  0.2217
 9530SOL    HW140226   3.261   2.600   5.268 -1.5390  0.0705 -0.9288
 9530SOL    HW240227   3.259   2.603   5.122  1.3638 -3.0111  0.6977
 9531SOL     OW40228   4.056   1.278  16.939  0.0055  0.9952  0.0249
 9531SOL    HW140229   4.129   1.336  16.916  0.5541  0.3620  0.1515
 9531SOL    HW240230   4.107   1.210  16.984  0.0395 -1.1764 -3.3126
 9532SOL     OW40231   1.503   0.242   6.965  0.3266  0.2497 -0.2834
 9532SOL    HW140232   1.596   0.240   6.942  0.3694  0.4532 -0.1339
 9532SOL    HW240233   1.503   0.240   7.060 -0.5023 -2.1311 -0.3526
 9533SOL     OW40234   2.027   2.495   5.827 -0.2128  0.1033 -0.6358
 9533SOL    HW140235   2.005   2.421   5.770 -0.0121 -0.7833  0.4349
 9533SOL    HW240236   2.032   2.563   5.760 -1.7308  0.4511 -0.3869
 9534SOL     OW40237   4.619   1.624   6.660 -0.4089  0.4503  0.3622
 9534SOL    HW140238   4.704   1.581   6.654 -0.1321  1.0207  0.2056
 9534SOL    HW240239   4.564   1.552   6.630  1.5991 -0.1703 -1.7814
 9535SOL     OW40240   2.865   2.359   3.360 -0.0366 -0.2490 -0.5804
 9535SOL    HW140241   2.849   2.409   3.280 -0.3514  1.5835  0.6312
 9535SOL    HW240242   2.781   2.385   3.399  0.9071  0.1298  1.1618
 9536SOL     OW40243   3.588   1.457  15.378  0.5648 -0.2055 -0.1329
 9536SOL    HW140244   3.658   1.392  15.390  0.7832  0.2282  0.9702
 9536SOL    HW240245   3.567   1.469  15.470  2.8106 -1.8592  0.6026
 9537SOL     OW40246   3.160   1.493   5.907  0.0584  0.4598  0.0008
 9537SOL    HW140247   3.108   1.432   5.959  0.0098  0.7075  0.2452
 9537SOL    HW240248   3.241   1.486   5.956  0.5639  2.4329 -0.5319
 9538SOL     OW40249   1.304   0.146  13.500 -0.0715 -0.1834  0.5184
 9538SOL    HW140250   1.342   0.062  13.526  1.7917  0.7289  0.7825
 9538SOL    HW240251   1.230   0.117  13.447  0.0702 -0.0828  0.2597
 9539SOL     OW40252   0.884   3.859   0.673  0.3464 -0.4458  0.1099
 9539SOL    HW140253   0.828   3.783   0.663 -0.2060 -0.0516  0.2333
 9539SOL    HW240254   0.857   3.916   0.602 -0.9485  0.3518  1.2352
 9540SOL     OW40255   1.297   3.197   9.574  0.0967  0.1271  0.4506
 9540SOL    HW140256   1.216   3.194   9.625  1.0189  1.3167  1.9686
 9540SOL    HW240257   1.362   3.156   9.630  2.9277  0.8018 -2.3529
 9541SOL     OW40258   4.468   4.394   7.605  0.1333 -0.3644 -0.1732
 9541SOL    HW140259   4.464   4.475   7.655 -1.5285  0.3390 -1.4299
 9541SOL    HW240260   4.468   4.434   7.517 -0.0387 -0.9806 -0.4543
 9542SOL     OW40261   0.178   4.510   5.941 -0.1080 -0.1015  0.2029
 9542SOL    HW140262   0.268   4.529   5.914 -0.2156  0.8617  0.5159
 9542SOL    HW240263   0.195   4.514   6.035 -1.4402  3.7158  0.2655
 9543SOL     OW40264   1.417   2.058   8.176  0.4741 -0.5510  0.4648
 9543SOL    HW140265   1.365   2.136   8.156  1.2555 -0.2615 -0.4420
 9543SOL    HW240266   1.505   2.089   8.154  0.5660 -0.0040  1.5753
 9544SOL     OW40267   0.313   1.441   7.901  0.1839 -0.6422  0.8654
 9544SOL    HW140268   0.272   1.431   7.815  0.4707 -2.1076  0.9026
 9544SOL    HW240269   0.396   1.400   7.880  0.0420 -1.0727  1.1489
 9545SOL     OW40270   3.231   0.354  11.573 -0.9924  0.2860  0.0485
 9545SOL    HW140271   3.267   0.304  11.646 -0.0534  0.8419 -0.0278
 9545SOL    HW240272   3.228   0.445  11.604 -1.4311 -0.0664  1.0242
 9546SOL     OW40273   3.703   1.643   6.351 -0.1467  0.4152  0.0229
 9546SOL    HW140274   3.635   1.706   6.329 -3.0396 -1.5862  3.1782
 9546SOL    HW240275   3.648   1.567   6.372  0.4101  0.4229  1.5676
 9547SOL     OW40276   1.487   3.272  12.356 -0.3440  0.0854  0.9879
 9547SOL    HW140277   1.532   3.214  12.295 -0.9702  0.4902  0.1317
 9547SOL    HW240278   1.562   3.290  12.413 -0.9296 -2.2781  2.4697
 9548SOL     OW40279   0.650   1.504  16.492  0.4249  0.1475  0.0974
 9548SOL    HW140280   0.683   1.567  16.556 -0.5102  1.9351 -1.1835
 9548SOL    HW240281   0.638   1.426  16.545  0.0670 -0.4318 -0.8427
 9549SOL     OW40282   2.099   2.184   2.557  0.0125  0.1513  0.5630
 9549SOL    HW140283   2.049   2.265   2.549 -0.2491  0.0238  0.9241
 9549SOL    HW240284   2.171   2.199   2.495  1.4441 -1.0009  1.9478
 9550SOL     OW40285   1.321   1.528   4.893  0.6960 -0.0752 -0.2289
 9550SOL    HW140286   1.330   1.623   4.905 -0.7887 -0.4180  3.5289
 9550SOL    HW240287   1.361   1.526   4.806 -1.0959 -1.1995 -1.0190
 9551SOL     OW40288   4.167   2.986  12.867  0.1638 -0.7026  0.1193
 9551SOL    HW140289   4.255   3.013  12.841  0.5114 -1.9998 -0.0719
 9551SOL    HW240290   4.144   2.954  12.780  0.9149  0.6295 -0.5701
 9552SOL     OW40291   2.815   4.500   5.319 -0.0717  0.3622  0.4055
 9552SOL    HW140292   2.872   4.423   5.318  1.9430  1.8526  0.1909
 9552SOL    HW240293   2.760   4.492   5.397 -1.7536 -1.2071 -0.9363
 9553SOL     OW40294   1.962   0.141  14.507  0.6182  0.7364  0.1615
 9553SOL    HW140295   1.883   0.089  14.489  1.0653  0.6606 -1.6704
 9553SOL    HW240296   1.923   0.224  14.532 -2.0676 -0.3733 -0.2952
 9554SOL     OW40297   4.412   1.356  15.814 -0.5006  0.3625 -0.4880
 9554SOL    HW140298   4.488   1.415  15.817 -0.0803 -0.1220 -1.8715
 9554SOL    HW240299   4.415   1.327  15.723 -1.0596  1.1918 -0.7810
 9555SOL     OW40300   1.232   0.093  11.935 -0.1773  0.2669 -0.2612
 9555SOL    HW140301   1.308   0.058  11.981 -0.6452  0.7956  0.9020
 9555SOL    HW240302   1.194   0.139  12.010 -0.9745 -1.7207  0.5463
 9556SOL     OW40303   1.651   0.825   6.956 -0.8527 -0.0101 -0.1801
 9556SOL    HW140304   1.663   0.839   7.050  1.9753 -1.0929 -0.3838
 9556SOL    HW240305   1.709   0.892   6.919 -0.2314 -0.6631 -0.3689
 9557SOL     OW40306   4.354   1.658   2.354  0.1735 -0.3488 -0.1660
 9557SOL    HW140307   4.428   1.647   2.294 -0.8102 -1.4679 -1.1609
 9557SOL    HW240308   4.326   1.567   2.359  1.0547 -0.6940 -1.3514
 9558SOL     OW40309   2.546   3.754   4.534  0.1701 -0.1086 -0.6868
 9558SOL    HW140310   2.544   3.765   4.629  1.2235  2.1151 -0.9120
 9558SOL    HW240311   2.485   3.683   4.513  1.8210 -2.2009  1.5142
 9559SOL     OW40312   0.227   4.169   8.842  0.1228  0.0756 -0.2625
 9559SOL    HW140313   0.306   4.219   8.864 -1.0255  1.0281  1.7072
 9559SOL    HW240314   0.180   4.237   8.793  0.8677  0.5959 -0.2535
 9560SOL     OW40315   3.012   1.197   7.330 -0.3442  0.0736  0.0372
 9560SOL    HW140316   3.037   1.111   7.297  0.8729  0.5193 -0.1991
 9560SOL    HW240317   3.062   1.255   7.273 -1.9635  0.7635 -0.6842
 9561SOL     OW40318   1.491   4.466   4.755  0.2795  0.9142  0.1619
 9561SOL    HW140319   1.480   4.514   4.673  0.8188  0.9066  0.0860
 9561SOL    HW240320   1.504   4.538   4.817  0.8697  1.2296 -0.3248
 9562SOL     OW40321   3.331   3.094   8.287  0.0795  0.0397 -0.2629
 9562SOL    HW140322   3.369   3.155   8.223  1.0591 -0.3779 -0.0875
 9562SOL    HW240323   3.332   3.150   8.364  1.4327 -2.1201  1.2744
 9563SOL     OW40324   0.353   0.304  11.759 -0.2596 -0.1495  0.2275
 9563SOL    HW140325   0.290   0.373  11.740  0.2496 -0.4729 -2.6018
 9563SOL    HW240326   0.297   0.245  11.811 -0.7946 -0.9167 -1.2191
 9564SOL     OW40327   2.889   2.177  15.375 -0.8230  0.5971  0.2387
 9564SOL    HW140328   2.936   2.146  15.298 -0.3925  0.7591  0.4354
 9564SOL    HW240329   2.899   2.269  15.351 -0.4436  0.4649 -0.1063
 9565SOL     OW40330   0.872   1.790   5.835  0.8375 -0.1025 -0.5193
 9565SOL    HW140331   0.945   1.849   5.851 -0.4148  1.7105 -1.4489
 9565SOL    HW240332   0.855   1.796   5.741 -2.1903  4.6586  0.3389
 9566SOL     OW40333   3.552   2.595   2.855  0.4931 -0.2111  0.1122
 9566SOL    HW140334   3.536   2.687   2.831 -0.4303 -0.0805  1.2053
 9566SOL    HW240335   3.519   2.555   2.774 -0.9281 -0.2671  0.7170
 9567SOL     OW40336   0.218   3.916   4.672  0.2676 -0.1055  0.2890
 9567SOL    HW140337   0.149   3.850   4.675  0.0267  0.1058 -0.6521
 9567SOL    HW240338   0.180   3.977   4.609  1.4011  0.1702 -0.1277
 9568SOL     OW40339   1.783   0.994   6.777  0.5363 -0.7022 -0.1790
 9568SOL    HW140340   1.806   0.948   6.696  0.0685 -0.6890 -0.3196
 9568SOL    HW240341   1.842   1.070   6.780  0.2860 -0.5152 -0.0430
 9569SOL     OW40342   0.550   3.632   4.139 -0.6408  0.3452  0.0094
 9569SOL    HW140343   0.520   3.591   4.220 -1.7913  2.9850  0.9224
 9569SOL    HW240344   0.472   3.674   4.105 -0.8693 -0.9444 -1.0646
   4.73820   4.73820  17.75086
